<LesHouchesEvents version="3.0">
<header>
<!--
#*********************************************************************
#                                                                    *
#                        MadGraph5_aMC@NLO                           *
#                                                                    *
#                           Going Beyond                             *
#                                                                    *
#                   http://madgraph.hep.uiuc.edu                     *
#                   http://madgraph.phys.ucl.ac.be                   *
#                   http://amcatnlo.cern.ch                          *
#                                                                    *
#                     The MadGraph5_aMC@NLO team                     *
#                                                                    *
#....................................................................*
#                                                                    *
# This file contains all the information necessary to reproduce      *
# the events generated:                                              *
#                                                                    *
# 1. software version                                                *
# 2. proc_card          : code generation info including model       *
# 3. param_card         : model primary parameters in the LH format  *
# 4. run_card           : running parameters (collider and cuts)     *
# 5. pythia_card        : present only if pythia has been run        *
# 6. pgs_card           : present only if pgs has been run           *
# 7. delphes_cards      : present only if delphes has been run       *
#                                                                    *
#                                                                    *
#*********************************************************************
-->
<MGVersion>
#5.2.2.3
</MGVersion>
<MG5ProcCard>
#************************************************************
#*                     MadGraph5_aMC@NLO                    *
#*                                                          *
#*                *                       *                 *
#*                  *        * *        *                   *
#*                    * * * * 5 * * * *                     *
#*                  *        * *        *                   *
#*                *                       *                 *
#*                                                          *
#*                                                          *
#*         VERSION 2.2.3                 2015-02-10         *
#*                                                          *
#*    The MadGraph5_aMC@NLO Development Team - Find us at   *
#*    https://server06.fynu.ucl.ac.be/projects/madgraph     *
#*                                                          *
#************************************************************
#*                                                          *
#*               Command File for MadGraph5_aMC@NLO         *
#*                                                          *
#*     run as ./bin/mg5_aMC  filename                       *
#*                                                          *
#************************************************************
set group_subprocesses Auto
set ignore_six_quark_processes False
set loop_optimized_output True
set gauge unitary
set complex_mass_scheme False
import model sm
define p = g u c d s u~ c~ d~ s~
define j = g u c d s u~ c~ d~ s~
define l+ = e+ mu+
define l- = e- mu-
define vl = ve vm vt
define vl~ = ve~ vm~ vt~
import model Zprime_UFO
generate p p > zph, zph > j j
add process p p > zph, zph > b b~
output Dijet_signal
</MG5ProcCard>
<MGProcCard>
#*********************************************************************
#                        MadGraph/MadEvent                           *
#                   http://madgraph.hep.uiuc.edu                     *
#                                                                    *
#                          proc_card.dat                             *
#*********************************************************************
#                                                                    *
#            This Files is generated by MADGRAPH 5                   *
#                                                                    *
# WARNING: This Files is generated for MADEVENT (compatibility issue)*
#          This files is NOT a valid MG4 proc_card.dat               *
#          Running this in MG4 will NEVER reproduce the result of MG5*
#                                                                    *
#*********************************************************************
#*********************************************************************
# Process(es) requested : mg2 input                                  *
#*********************************************************************
# Begin PROCESS # This is TAG. Do not modify this line
p p > zph , zph > j j           #Process
# Be carefull the coupling are here in MG5 convention
          
end_coup           # End the couplings input

done               # this tells MG there are no more procs
# End PROCESS  # This is TAG. Do not modify this line
#*********************************************************************
# Model information                                                  *
#*********************************************************************
# Begin MODEL  # This is TAG. Do not modify this line
Zprime_UFO
# End   MODEL  # This is TAG. Do not modify this line
#*********************************************************************
# Start multiparticle definitions                                    *
#*********************************************************************
# Begin MULTIPARTICLES # This is TAG. Do not modify this line

# End  MULTIPARTICLES # This is TAG. Do not modify this line
</MGProcCard>
<MGRunCard>
#*********************************************************************
#                       MadGraph5_aMC@NLO                            *
#                                                                    *
#                     run_card.dat MadEvent                          *
#                                                                    *
#  This file is used to set the parameters of the run.               *
#                                                                    *
#  Some notation/conventions:                                        *
#                                                                    *
#   Lines starting with a '# ' are info or comments                  *
#                                                                    *
#   mind the format:   value    = variable     ! comment             *
#*********************************************************************
#
#*******************                                                 
# Running parameters
#*******************                                                 
#                                                                    
#*********************************************************************
# Tag name for the run (one word)                                    *
#*********************************************************************
  tag_1     = run_tag ! name of the run 
#*********************************************************************
# Run to generate the grid pack                                      *
#*********************************************************************
  .false.     = gridpack  !True = setting up the grid pack
#*********************************************************************
# Number of events and rnd seed                                      *
# Warning: Do not generate more than 1M events in a single run       *
# If you want to run Pythia, avoid more than 50k events in a run.    *
#*********************************************************************
  2000 = nevents ! Number of unweighted events requested 
 1803 = iseed   ! rnd seed (0=assigned automatically=default))
#*********************************************************************
# Collider type and energy                                           *
# lpp: 0=No PDF, 1=proton, -1=antiproton, 2=photon from proton,      *
#                                         3=photon from electron     *
#*********************************************************************
        1     = lpp1    ! beam 1 type 
        1     = lpp2    ! beam 2 type
     4000     = ebeam1  ! beam 1 total energy in GeV
     4000     = ebeam2  ! beam 2 total energy in GeV
#*********************************************************************
# Beam polarization from -100 (left-handed) to 100 (right-handed)    *
#*********************************************************************
        0     = polbeam1 ! beam polarization for beam 1
        0     = polbeam2 ! beam polarization for beam 2
#*********************************************************************
# PDF CHOICE: this automatically fixes also alpha_s and its evol.    *
#*********************************************************************
 'nn23lo1'    = pdlabel     ! PDF set                                     
 230000    = lhaid     ! if pdlabel=lhapdf, this is the lhapdf number
#*********************************************************************
# Renormalization and factorization scales                           *
#*********************************************************************
 F        = fixed_ren_scale  ! if .true. use fixed ren scale
 F        = fixed_fac_scale  ! if .true. use fixed fac scale
 91.1880  = scale            ! fixed ren scale
 91.1880  = dsqrt_q2fact1    ! fixed fact scale for pdf1
 91.1880  = dsqrt_q2fact2    ! fixed fact scale for pdf2
 1        = scalefact        ! scale factor for event-by-event scales
#*********************************************************************
# Matching - Warning! ickkw > 1 is still beta
#*********************************************************************
 0        = ickkw            ! 0 no matching, 1 MLM, 2 CKKW matching
 1        = highestmult      ! for ickkw=2, highest mult group
 1        = ktscheme         ! for ickkw=1, 1 Durham kT, 2 Pythia pTE
 1        = alpsfact         ! scale factor for QCD emission vx
 F        = chcluster        ! cluster only according to channel diag
 T        = pdfwgt           ! for ickkw=1, perform pdf reweighting
 5        = asrwgtflavor     ! highest quark flavor for a_s reweight
 T        = clusinfo         ! include clustering tag in output
 3.0      = lhe_version       ! Change the way clustering information pass to shower.        
#*********************************************************************
#**********************************************************
#
#**********************************************************
# Automatic ptj and mjj cuts if xqcut > 0
# (turn off for VBF and single top processes)
#**********************************************************
   T  = auto_ptj_mjj  ! Automatic setting of ptj and mjj
#**********************************************************
#                                                                    
#**********************************
# BW cutoff (M+/-bwcutoff*Gamma)
#**********************************
  15  = bwcutoff      ! (M+/-bwcutoff*Gamma)
#**********************************************************
# Apply pt/E/eta/dr/mij cuts on decay products or not
# (note that etmiss/ptll/ptheavy/ht/sorted cuts always apply)
#**********************************************************
   T  = cut_decays    ! Cut decay products 
#*************************************************************
# Number of helicities to sum per event (0 = all helicities)
# 0 gives more stable result, but longer run time (needed for
# long decay chains e.g.).
# Use >=2 if most helicities contribute, e.g. pure QCD.
#*************************************************************
   0  = nhel          ! Number of helicities used per event
#*******************                                                 
# Standard Cuts
#*******************                                                 
#                                                                    
#*********************************************************************
# Minimum and maximum pt's (for max, -1 means no cut)                *
#*********************************************************************
 20  = ptj       ! minimum pt for the jets 
  0  = ptb       ! minimum pt for the b 
 10  = pta       ! minimum pt for the photons 
 10  = ptl       ! minimum pt for the charged leptons 
  0  = misset    ! minimum missing Et (sum of neutrino's momenta)
  0  = ptheavy   ! minimum pt for one heavy final state
 1.0 = ptonium   ! minimum pt for the quarkonium states
 -1  = ptjmax    ! maximum pt for the jets
 -1  = ptbmax    ! maximum pt for the b
 -1  = ptamax    ! maximum pt for the photons
 -1  = ptlmax    ! maximum pt for the charged leptons
 -1  = missetmax ! maximum missing Et (sum of neutrino's momenta)
#*********************************************************************
# Minimum and maximum E's (in the center of mass frame)              *
#*********************************************************************
  0  = ej     ! minimum E for the jets 
  0  = eb     ! minimum E for the b 
  0  = ea     ! minimum E for the photons 
  0  = el     ! minimum E for the charged leptons 
 -1   = ejmax ! maximum E for the jets
 -1   = ebmax ! maximum E for the b
 -1   = eamax ! maximum E for the photons
 -1   = elmax ! maximum E for the charged leptons
#*********************************************************************
# Maximum and minimum absolute rapidity (for max, -1 means no cut)   *
#*********************************************************************
   5  = etaj    ! max rap for the jets 
  -1  = etab    ! max rap for the b
 2.5  = etaa    ! max rap for the photons 
 2.5  = etal    ! max rap for the charged leptons 
 0.6  = etaonium ! max rap for the quarkonium states
   0  = etajmin ! min rap for the jets
   0  = etabmin ! min rap for the b
   0  = etaamin ! min rap for the photons
   0  = etalmin ! main rap for the charged leptons
#*********************************************************************
# Minimum and maximum DeltaR distance                                *
#*********************************************************************
 0.4 = drjj    ! min distance between jets 
 0   = drbb    ! min distance between b's 
 0.4 = drll    ! min distance between leptons 
 0.4 = draa    ! min distance between gammas 
 0   = drbj    ! min distance between b and jet 
 0.4 = draj    ! min distance between gamma and jet 
 0.4 = drjl    ! min distance between jet and lepton 
 0   = drab    ! min distance between gamma and b 
 0   = drbl    ! min distance between b and lepton 
 0.4 = dral    ! min distance between gamma and lepton 
 -1  = drjjmax ! max distance between jets
 -1  = drbbmax ! max distance between b's
 -1  = drllmax ! max distance between leptons
 -1  = draamax ! max distance between gammas
 -1  = drbjmax ! max distance between b and jet
 -1  = drajmax ! max distance between gamma and jet
 -1  = drjlmax ! max distance between jet and lepton
 -1  = drabmax ! max distance between gamma and b
 -1  = drblmax ! max distance between b and lepton
 -1  = dralmax ! maxdistance between gamma and lepton
#*********************************************************************
# Minimum and maximum invariant mass for pairs                       *
# WARNING: for four lepton final state mmll cut require to have      *
#          different lepton masses for each flavor!                  *           
#*********************************************************************
 0   = mmjj    ! min invariant mass of a jet pair 
 0   = mmbb    ! min invariant mass of a b pair 
 0   = mmaa    ! min invariant mass of gamma gamma pair
 0   = mmll    ! min invariant mass of l+l- (same flavour) lepton pair
 -1  = mmjjmax ! max invariant mass of a jet pair
 -1  = mmbbmax ! max invariant mass of a b pair
 -1  = mmaamax ! max invariant mass of gamma gamma pair
 -1  = mmllmax ! max invariant mass of l+l- (same flavour) lepton pair
#*********************************************************************
# Minimum and maximum invariant mass for all letpons                 *
#*********************************************************************
 0   = mmnl    ! min invariant mass for all letpons (l+- and vl) 
 -1  = mmnlmax ! max invariant mass for all letpons (l+- and vl) 
#*********************************************************************
# Minimum and maximum pt for 4-momenta sum of leptons                *
#*********************************************************************
 0   = ptllmin  ! Minimum pt for 4-momenta sum of leptons(l and vl)
 -1  = ptllmax  ! Maximum pt for 4-momenta sum of leptons(l and vl)
#*********************************************************************
# Inclusive cuts                                                     *
#*********************************************************************
 0  = xptj ! minimum pt for at least one jet  
 0  = xptb ! minimum pt for at least one b 
 0  = xpta ! minimum pt for at least one photon 
 0  = xptl ! minimum pt for at least one charged lepton 
#*********************************************************************
# Control the pt's of the jets sorted by pt                          *
#*********************************************************************
 0   = ptj1min ! minimum pt for the leading jet in pt
 0   = ptj2min ! minimum pt for the second jet in pt
 0   = ptj3min ! minimum pt for the third jet in pt
 0   = ptj4min ! minimum pt for the fourth jet in pt
 -1  = ptj1max ! maximum pt for the leading jet in pt 
 -1  = ptj2max ! maximum pt for the second jet in pt
 -1  = ptj3max ! maximum pt for the third jet in pt
 -1  = ptj4max ! maximum pt for the fourth jet in pt
 0   = cutuse  ! reject event if fails any (0) / all (1) jet pt cuts
#*********************************************************************
# Control the pt's of leptons sorted by pt                           *
#*********************************************************************
 0   = ptl1min ! minimum pt for the leading lepton in pt
 0   = ptl2min ! minimum pt for the second lepton in pt
 0   = ptl3min ! minimum pt for the third lepton in pt
 0   = ptl4min ! minimum pt for the fourth lepton in pt
 -1  = ptl1max ! maximum pt for the leading lepton in pt 
 -1  = ptl2max ! maximum pt for the second lepton in pt
 -1  = ptl3max ! maximum pt for the third lepton in pt
 -1  = ptl4max ! maximum pt for the fourth lepton in pt
#*********************************************************************
# Control the Ht(k)=Sum of k leading jets                            *
#*********************************************************************
 0   = htjmin ! minimum jet HT=Sum(jet pt)
 -1  = htjmax ! maximum jet HT=Sum(jet pt)
 0   = ihtmin  !inclusive Ht for all partons (including b)
 -1  = ihtmax  !inclusive Ht for all partons (including b)
 0   = ht2min ! minimum Ht for the two leading jets
 0   = ht3min ! minimum Ht for the three leading jets
 0   = ht4min ! minimum Ht for the four leading jets
 -1  = ht2max ! maximum Ht for the two leading jets
 -1  = ht3max ! maximum Ht for the three leading jets
 -1  = ht4max ! maximum Ht for the four leading jets
#***********************************************************************
# Photon-isolation cuts, according to hep-ph/9801442                   *
# When ptgmin=0, all the other parameters are ignored                  *
# When ptgmin>0, pta and draj are not going to be used                 *
#***********************************************************************
   0 = ptgmin ! Min photon transverse momentum
 0.4 = R0gamma ! Radius of isolation code
 1.0 = xn ! n parameter of eq.(3.4) in hep-ph/9801442
 1.0 = epsgamma ! epsilon_gamma parameter of eq.(3.4) in hep-ph/9801442
 .true. = isoEM ! isolate photons from EM energy (photons and leptons)
#*********************************************************************
# WBF cuts                                                           *
#*********************************************************************
 0   = xetamin ! minimum rapidity for two jets in the WBF case  
 0   = deltaeta ! minimum rapidity for two jets in the WBF case 
#*********************************************************************
# KT DURHAM CUT                                                      *
#*********************************************************************
 -1    =  ktdurham        
 0.4  =  dparameter 
#*********************************************************************
# maximal pdg code for quark to be considered as a light jet         *
# (otherwise b cuts are applied)                                     *
#*********************************************************************
 4 = maxjetflavor    ! Maximum jet pdg code
#*********************************************************************
# Jet measure cuts                                                   *
#*********************************************************************
 0   = xqcut   ! minimum kt jet measure between partons
#*********************************************************************
#
#*********************************************************************
# Store info for systematics studies                                 *
# WARNING: If use_syst is T, matched Pythia output is                *
#          meaningful ONLY if plotted taking matchscale              *
#          reweighting into account!                                 *
#*********************************************************************
   F  = use_syst      ! Enable systematics studies
#
#**************************************
# Parameter of the systematics study
#  will be used by SysCalc (if installed)
#**************************************                                  
#
0.5 1 2 = sys_scalefact  # factorization/renormalization scale factor
0.5 1 2 = sys_alpsfact  # \alpha_s emission scale factors
30 50 = sys_matchscale # variation of merging scale
# PDF sets and number of members (0 or none for all members).
CT10nlo.LHgrid = sys_pdf # matching scales
# MSTW2008nlo68cl.LHgrid 1  = sys_pdf
</MGRunCard>
<slha>
######################################################################
## PARAM_CARD AUTOMATICALY GENERATED BY MG5 FOLLOWING UFO MODEL   ####
######################################################################
##                                                                  ##
##  Width set on Auto will be computed following the information    ##
##        present in the decay.py files of the model.               ##
##        See  arXiv:1402.1178 for more details.                    ##
##                                                                  ##
######################################################################

###################################
## INFORMATION FOR CKMBLOCK
###################################
Block ckmblock 
    1 2.277360e-01 # cabi 

###################################
## INFORMATION FOR FRBLOCK
###################################
Block frblock 
    1 1.000000e+00 # gz 

###################################
## INFORMATION FOR MASS
###################################
Block mass 
    1 5.040000e-03 # MD 
    2 2.550000e-03 # MU 
    3 1.010000e-01 # MS 
    4 1.270000e+00 # MC 
    5 4.700000e+00 # MB 
    6 1.720000e+02 # MT 
   11 5.110000e-04 # Me 
   13 1.056600e-01 # MM 
   15 1.777000e+00 # MTA 
   23 9.118760e+01 # MZ 
   25 1.200000e+02 # MH 
  10030 6.000000e+02 # MZph 
  10031 3.000000e+02 # MZpl 
## Dependent parameters, given by model restrictions.
## Those values should be edited following the 
## analytical expression. MG5 ignores those values 
## but they are important for interfacing the output of MG5
## to external program such as Pythia.
  12 0.000000 # ve : 0.0 
  14 0.000000 # vm : 0.0 
  16 0.000000 # vt : 0.0 
  21 0.000000 # g : 0.0 
  22 0.000000 # a : 0.0 
  24 79.824360 # w+ : cmath.sqrt(MZ__exp__2/2. + cmath.sqrt(MZ__exp__4/4. - (aEW*cmath.pi*MZ__exp__2)/(Gf*sqrt__2))) 

###################################
## INFORMATION FOR SMINPUTS
###################################
Block sminputs 
    1 1.279000e+02 # aEWM1 
    2 1.166370e-05 # Gf 
    3 1.184000e-01 # aS 

###################################
## INFORMATION FOR YUKAWA
###################################
Block yukawa 
    1 5.040000e-03 # ymdo 
    2 2.550000e-03 # ymup 
    3 1.010000e-01 # yms 
    4 1.270000e+00 # ymc 
    5 4.700000e+00 # ymb 
    6 1.720000e+02 # ymt 
   11 5.110000e-04 # yme 
   13 1.056600e-01 # ymm 
   15 1.777000e+00 # ymtau 

###################################
## INFORMATION FOR DECAY
###################################
DECAY   6 1.508336e+00 # WT 
DECAY  23 2.495200e+00 # WZ 
DECAY  24 2.085000e+00 # WW 
DECAY  25 5.753088e-03 # WH 
## Dependent parameters, given by model restrictions.
## Those values should be edited following the 
## analytical expression. MG5 ignores those values 
## but they are important for interfacing the output of MG5
## to external program such as Pythia.
DECAY  1 0.000000 # d : 0.0 
DECAY  2 0.000000 # u : 0.0 
DECAY  3 0.000000 # s : 0.0 
DECAY  4 0.000000 # c : 0.0 
DECAY  5 0.000000 # b : 0.0 
DECAY  11 0.000000 # e- : 0.0 
DECAY  12 0.000000 # ve : 0.0 
DECAY  13 0.000000 # mu- : 0.0 
DECAY  14 0.000000 # vm : 0.0 
DECAY  15 0.000000 # ta- : 0.0 
DECAY  16 0.000000 # vt : 0.0 
DECAY  21 0.000000 # g : 0.0 
DECAY  22 0.000000 # a : 0.0 
DECAY  10030 0.308725 # zph : (gz__exp__2*MZph*(5 + cmath.sqrt(1 - (4*MT__exp__2)/MZph__exp__2)))/(144.*cmath.pi) 
DECAY  10031 0.132629 # zpl : (5*gz__exp__2*MZpl)/(144.*cmath.pi) 
#===========================================================
# QUANTUM NUMBERS OF NEW STATE(S) (NON SM PDG CODE)
#===========================================================

Block QNUMBERS 10030  # zph 
        1 0  # 3 times electric charge
        2 3  # number of spin states (2S+1)
        3 1  # colour rep (1: singlet, 3: triplet, 8: octet)
        4 0  # Particle/Antiparticle distinction (0=own anti)
Block QNUMBERS 10031  # zpl 
        1 0  # 3 times electric charge
        2 3  # number of spin states (2S+1)
        3 1  # colour rep (1: singlet, 3: triplet, 8: octet)
        4 0  # Particle/Antiparticle distinction (0=own anti)
</slha>
## END BANNER##
<MGGenerationInfo>
#  Number of Events        :         4161
#  Integrated weight (pb)  :  0.19104E+02
#  Max wgt                 :  0.60074E-02
#  Average wgt             :  0.45912E-02
</MGGenerationInfo>
</header>
<init>
     2212     2212  0.40000000000E+04  0.40000000000E+04 0 0  247000  247000 2   1
  0.19073806446E+02  0.39507460274E-01  0.60073600000E-02   0
</init>
<event>
 5   0  0.5872632E-02  0.5935108E+03  0.7818609E-02  0.9918961E-01
       -2   -1    0    0    0  501  0.00000000000E+00  0.00000000000E+00  0.47764762527E+02  0.47764762595E+02  0.25500000920E-02 0. -1.
        2   -1    0    0  501    0  0.00000000000E+00  0.00000000000E+00 -0.18436973625E+04  0.18436973625E+04  0.25500000920E-02 0.  1.
    10030    2    1    2    0    0  0.00000000000E+00  0.00000000000E+00 -0.17959325999E+04  0.18914621251E+04  0.59351079773E+03 0.  0.
        1    1    3    3  502    0  0.22058266538E+03  0.17820340846E+03 -0.61921508834E+03  0.68105836218E+03  0.50400001928E-02 0.  1.
       -1    1    3    3    0  502 -0.22058266538E+03 -0.17820340846E+03 -0.11767175116E+04  0.12104037629E+04  0.50400001928E-02 0. -1.
</event>
<event>
 5   0  0.2388000E-02  0.5716967E+03  0.7818609E-02  0.9965931E-01
       -3   -1    0    0    0  501  0.00000000000E+00  0.00000000000E+00  0.20938420697E+04  0.20938420721E+04  0.10100000352E+00 0. -1.
        3   -1    0    0  501    0  0.00000000000E+00  0.00000000000E+00 -0.39023539061E+02  0.39023669764E+02  0.10100000352E+00 0.  1.
    10030    2    1    2    0    0  0.00000000000E+00  0.00000000000E+00  0.20548185306E+04  0.21328657419E+04  0.57169666704E+03 0.  0.
        1    1    3    3  502    0 -0.13149245234E+03  0.19824849936E+03  0.43615029836E+03  0.49680963689E+03  0.50400001928E-02 0.  1.
       -1    1    3    3    0  502  0.13149245234E+03 -0.19824849936E+03  0.16186682322E+04  0.16360561050E+04  0.50400001928E-02 0. -1.
</event>
<event>
 5   0  0.5872632E-02  0.5987906E+03  0.7818609E-02  0.9907918E-01
       -2   -1    0    0    0  501  0.00000000000E+00  0.00000000000E+00  0.13922181535E+03  0.13922181537E+03  0.25500000920E-02 0. -1.
        2   -1    0    0  501    0  0.00000000000E+00  0.00000000000E+00 -0.64384694220E+03  0.64384694221E+03  0.25500000920E-02 0.  1.
    10030    2    1    2    0    0  0.00000000000E+00  0.00000000000E+00 -0.50462512686E+03  0.78306875758E+03  0.59879058146E+03 0.  0.
        1    1    3    3  502    0  0.28814310928E+03  0.75387157646E+02 -0.29214779640E+03  0.41720499749E+03  0.50400001928E-02 0. -1.
       -1    1    3    3    0  502 -0.28814310928E+03 -0.75387157646E+02 -0.21247733045E+03  0.36586376009E+03  0.50400001928E-02 0.  1.
</event>
<event>
 5   0  0.5935451E-02  0.6000230E+03  0.7818609E-02  0.9905358E-01
        2   -1    0    0  501    0  0.00000000000E+00  0.00000000000E+00  0.20791315648E+04  0.20791315648E+04  0.25500000920E-02 0. -1.
       -2   -1    0    0    0  501  0.00000000000E+00  0.00000000000E+00 -0.43290622434E+02  0.43290622509E+02  0.25500000920E-02 0.  1.
    10030    2    1    2    0    0  0.00000000000E+00  0.00000000000E+00  0.20358409423E+04  0.21224221873E+04  0.60002299836E+03 0.  0.
        3    1    3    3  502    0  0.46154431883E+02  0.26112550275E+03  0.52157030879E+03  0.58510884199E+03  0.10100000352E+00 0.  1.
       -3    1    3    3    0  502 -0.46154431883E+02 -0.26112550275E+03  0.15142706335E+04  0.15373133453E+04  0.10100000352E+00 0. -1.
</event>
<event>
 5   0  0.5872632E-02  0.5920067E+03  0.7818609E-02  0.9922130E-01
       -2   -1    0    0    0  501  0.00000000000E+00  0.00000000000E+00  0.48988974231E+03  0.48988974232E+03  0.25500000920E-02 0.  1.
        2   -1    0    0  501    0  0.00000000000E+00  0.00000000000E+00 -0.17885242919E+03  0.17885242921E+03  0.25500000920E-02 0. -1.
    10030    2    1    2    0    0  0.00000000000E+00  0.00000000000E+00  0.31103731312E+03  0.66874217153E+03  0.59200665691E+03 0.  0.
        1    1    3    3  502    0 -0.25310090102E+03 -0.58870979186E+02 -0.46010986961E+01  0.25989811162E+03  0.50400001928E-02 0. -1.
       -1    1    3    3    0  502  0.25310090102E+03  0.58870979186E+02  0.31563841182E+03  0.40884405991E+03  0.50400001928E-02 0.  1.
</event>
<event>
 5   0  0.5935451E-02  0.5983999E+03  0.7818609E-02  0.9908731E-01
       -2   -1    0    0    0  501  0.00000000000E+00  0.00000000000E+00  0.49816608139E+02  0.49816608205E+02  0.25500000920E-02 0. -1.
        2   -1    0    0  501    0  0.00000000000E+00  0.00000000000E+00 -0.17970030408E+04  0.17970030409E+04  0.25500000920E-02 0.  1.
    10030    2    1    2    0    0  0.00000000000E+00  0.00000000000E+00 -0.17471864327E+04  0.18468196491E+04  0.59839985419E+03 0.  0.
        3    1    3    3  502    0 -0.94469569113E+02 -0.28052990783E+02 -0.17081105707E+01  0.98561643772E+02  0.10100000352E+00 0. -1.
       -3    1    3    3    0  502  0.94469569113E+02  0.28052990783E+02 -0.17454783221E+04  0.17482580053E+04  0.10100000352E+00 0.  1.
</event>
<event>
 5   0  0.3651984E-02  0.6041125E+03  0.7818609E-02  0.9896911E-01
       -1   -1    0    0    0  501  0.00000000000E+00  0.00000000000E+00  0.73583656956E+02  0.73583657128E+02  0.50400001928E-02 0. -1.
        1   -1    0    0  501    0  0.00000000000E+00  0.00000000000E+00 -0.12399216434E+04  0.12399216434E+04  0.50400001928E-02 0.  1.
    10030    2    1    2    0    0  0.00000000000E+00  0.00000000000E+00 -0.11663379865E+04  0.13135053006E+04  0.60411246960E+03 0.  0.
        1    1    3    3  502    0 -0.25909777117E+03 -0.14989534537E+03 -0.67115854793E+03  0.73488370922E+03  0.50400001928E-02 0. -1.
       -1    1    3    3    0  502  0.25909777117E+03  0.14989534537E+03 -0.49517943854E+03  0.57862159134E+03  0.50400001928E-02 0.  1.
</event>
<event>
 5   0  0.3640827E-02  0.6001257E+03  0.7818609E-02  0.9905145E-01
       -1   -1    0    0    0  501  0.00000000000E+00  0.00000000000E+00  0.94231553588E+02  0.94231553723E+02  0.50400001928E-02 0.  1.
        1   -1    0    0  501    0  0.00000000000E+00  0.00000000000E+00 -0.95549436302E+03  0.95549436304E+03  0.50400001928E-02 0. -1.
    10030    2    1    2    0    0  0.00000000000E+00  0.00000000000E+00 -0.86126280943E+03  0.10497259168E+04  0.60012571466E+03 0.  0.
        3    1    3    3  502    0 -0.11611562289E+03 -0.25806273690E+03 -0.60518569138E+03  0.66807854726E+03  0.10100000352E+00 0. -1.
       -3    1    3    3    0  502  0.11611562289E+03  0.25806273690E+03 -0.25607711805E+03  0.38164736950E+03  0.10100000352E+00 0.  1.
</event>
<event>
 5   0  0.5872632E-02  0.6071373E+03  0.7818609E-02  0.9890708E-01
       -2   -1    0    0    0  501  0.00000000000E+00  0.00000000000E+00  0.44414670338E+03  0.44414670339E+03  0.25500000920E-02 0. -1.
        2   -1    0    0  501    0  0.00000000000E+00  0.00000000000E+00 -0.20748533530E+03  0.20748533532E+03  0.25500000920E-02 0.  1.
    10030    2    1    2    0    0  0.00000000000E+00  0.00000000000E+00  0.23666136808E+03  0.65163203870E+03  0.60713730796E+03 0.  0.
        1    1    3    3  502    0 -0.48521265961E+02  0.72530151733E+02 -0.19373358096E+03  0.21247973216E+03  0.50400001928E-02 0.  1.
       -1    1    3    3    0  502  0.48521265961E+02 -0.72530151733E+02  0.43039494904E+03  0.43915230654E+03  0.50400001928E-02 0. -1.
</event>
<event>
 5   0  0.2388000E-02  0.6049460E+03  0.7818609E-02  0.9895198E-01
       -4   -1    0    0    0  501  0.00000000000E+00  0.00000000000E+00  0.30303504047E+03  0.30303770170E+03  0.12699999809E+01 0.  1.
        4   -1    0    0  501    0  0.00000000000E+00  0.00000000000E+00 -0.30190667053E+03  0.30190934171E+03  0.12699999809E+01 0. -1.
    10030    2    1    2    0    0  0.00000000000E+00  0.00000000000E+00  0.11283699423E+01  0.60494704341E+03  0.60494599107E+03 0.  0.
        1    1    3    3  502    0 -0.21565193268E+03 -0.17031552553E+03 -0.12583531773E+03  0.30223775661E+03  0.50400001928E-02 0.  1.
       -1    1    3    3    0  502  0.21565193268E+03  0.17031552553E+03  0.12696368767E+03  0.30270928680E+03  0.50400001928E-02 0. -1.
</event>
<event>
 5   0  0.5872632E-02  0.5779607E+03  0.7818609E-02  0.9952216E-01
       -2   -1    0    0    0  501  0.00000000000E+00  0.00000000000E+00  0.27007506915E+03  0.27007506916E+03  0.25500000920E-02 0. -1.
        2   -1    0    0  501    0  0.00000000000E+00  0.00000000000E+00 -0.30920898045E+03  0.30920898046E+03  0.25500000920E-02 0.  1.
    10030    2    1    2    0    0  0.00000000000E+00  0.00000000000E+00 -0.39133911302E+02  0.57928404962E+03  0.57796067957E+03 0.  0.
        1    1    3    3  502    0 -0.21060154703E+03  0.99252620577E+02 -0.19114754682E+03  0.30123326341E+03  0.50400001928E-02 0.  1.
       -1    1    3    3    0  502  0.21060154703E+03 -0.99252620577E+02  0.15201363552E+03  0.27805078621E+03  0.50400001928E-02 0. -1.
</event>
<event>
 5   0  0.2388000E-02  0.6033977E+03  0.7818609E-02  0.9898382E-01
       -4   -1    0    0    0  501  0.00000000000E+00  0.00000000000E+00  0.31520935141E+03  0.31521190986E+03  0.12699999809E+01 0.  1.
        4   -1    0    0  501    0  0.00000000000E+00  0.00000000000E+00 -0.28876226627E+03  0.28876505904E+03  0.12699999809E+01 0. -1.
    10030    2    1    2    0    0  0.00000000000E+00  0.00000000000E+00  0.26447085139E+02  0.60397696890E+03  0.60339765549E+03 0.  0.
        2    1    3    3  502    0  0.50103753601E+02 -0.25962345536E+03  0.15864708725E+03  0.30835632473E+03  0.25500000920E-02 0.  1.
       -2    1    3    3    0  502 -0.50103753601E+02  0.25962345536E+03 -0.13220000211E+03  0.29562064418E+03  0.25500000920E-02 0. -1.
</event>
<event>
 5   0  0.5999117E-02  0.6046242E+03  0.7818609E-02  0.9895859E-01
       -2   -1    0    0    0  501  0.00000000000E+00  0.00000000000E+00  0.25158494351E+03  0.25158494352E+03  0.25500000920E-02 0.  1.
        2   -1    0    0  501    0  0.00000000000E+00  0.00000000000E+00 -0.36326737510E+03  0.36326737511E+03  0.25500000920E-02 0. -1.
    10030    2    1    2    0    0  0.00000000000E+00  0.00000000000E+00 -0.11168243159E+03  0.61485231863E+03  0.60462418757E+03 0.  0.
        5    1    3    3  502    0  0.95978344291E+02 -0.83313808255E+02 -0.33473875638E+03  0.35808540635E+03  0.46999998093E+01 0. -1.
       -5    1    3    3    0  502 -0.95978344291E+02  0.83313808255E+02  0.22305632478E+03  0.25676691228E+03  0.46999998093E+01 0.  1.
</event>
<event>
 5   0  0.3703280E-02  0.5783346E+03  0.7818609E-02  0.9951403E-01
        1   -1    0    0  501    0  0.00000000000E+00  0.00000000000E+00  0.10526945629E+04  0.10526945629E+04  0.50400001928E-02 0.  1.
       -1   -1    0    0    0  501  0.00000000000E+00  0.00000000000E+00 -0.79432088703E+02  0.79432088862E+02  0.50400001928E-02 0. -1.
    10030    2    1    2    0    0  0.00000000000E+00  0.00000000000E+00  0.97326247418E+03  0.11321266518E+04  0.57833460209E+03 0.  0.
        5    1    3    3  502    0 -0.11911340402E+02 -0.21896750943E+03  0.85550074177E+03  0.88317170436E+03  0.46999998093E+01 0.  1.
       -5    1    3    3    0  502  0.11911340402E+02  0.21896750943E+03  0.11776173241E+03  0.24895494740E+03  0.46999998093E+01 0. -1.
</event>
<event>
 5   0  0.2388000E-02  0.5905015E+03  0.7818609E-02  0.9925311E-01
        3   -1    0    0  501    0  0.00000000000E+00  0.00000000000E+00  0.93487447023E+03  0.93487447568E+03  0.10100000352E+00 0.  1.
       -3   -1    0    0    0  501  0.00000000000E+00  0.00000000000E+00 -0.93245637092E+02  0.93245691791E+02  0.10100000352E+00 0. -1.
    10030    2    1    2    0    0  0.00000000000E+00  0.00000000000E+00  0.84162883314E+03  0.10281201675E+04  0.59050146994E+03 0.  0.
        2    1    3    3  502    0  0.48156062624E+02  0.20197034884E+03  0.55341800289E+02  0.21488076471E+03  0.25500000920E-02 0. -1.
       -2    1    3    3    0  502 -0.48156062624E+02 -0.20197034884E+03  0.78628703285E+03  0.81323940276E+03  0.25500000920E-02 0.  1.
</event>
<event>
 5   0  0.2388000E-02  0.5947561E+03  0.7818609E-02  0.9916346E-01
        3   -1    0    0  501    0  0.00000000000E+00  0.00000000000E+00  0.13293096261E+03  0.13293100098E+03  0.10100000352E+00 0.  1.
       -3   -1    0    0    0  501  0.00000000000E+00  0.00000000000E+00 -0.66526034629E+03  0.66526035396E+03  0.10100000352E+00 0. -1.
    10030    2    1    2    0    0  0.00000000000E+00  0.00000000000E+00 -0.53232938368E+03  0.79819135494E+03  0.59475614026E+03 0.  0.
        5    1    3    3  502    0 -0.14895361763E+03  0.13671576064E+03  0.26430258801E+02  0.20395839770E+03  0.46999998093E+01 0.  1.
       -5    1    3    3    0  502  0.14895361763E+03 -0.13671576064E+03 -0.55875964248E+03  0.59423295724E+03  0.46999998093E+01 0. -1.
</event>
<event>
 5   0  0.3651984E-02  0.6043992E+03  0.7818609E-02  0.9896321E-01
       -1   -1    0    0    0  501  0.00000000000E+00  0.00000000000E+00  0.52911034927E+03  0.52911034929E+03  0.50400001928E-02 0. -1.
        1   -1    0    0  501    0  0.00000000000E+00  0.00000000000E+00 -0.17260029458E+03  0.17260029465E+03  0.50400001928E-02 0.  1.
    10030    2    1    2    0    0  0.00000000000E+00  0.00000000000E+00  0.35651005469E+03  0.70171064394E+03  0.60439921304E+03 0.  0.
        1    1    3    3  502    0 -0.23587090945E+03 -0.11437023761E+03  0.36830566442E+01  0.26216254902E+03  0.50400001928E-02 0.  1.
       -1    1    3    3    0  502  0.23587090945E+03  0.11437023761E+03  0.35282699805E+03  0.43954809493E+03  0.50400001928E-02 0. -1.
</event>
<event>
 5   0  0.3640827E-02  0.6210925E+03  0.7818609E-02  0.9862587E-01
        1   -1    0    0  501    0  0.00000000000E+00  0.00000000000E+00  0.20815270084E+03  0.20815270091E+03  0.50400001928E-02 0.  1.
       -1   -1    0    0    0  501  0.00000000000E+00  0.00000000000E+00 -0.46330877975E+03  0.46330877978E+03  0.50400001928E-02 0. -1.
    10030    2    1    2    0    0  0.00000000000E+00  0.00000000000E+00 -0.25515607891E+03  0.67146148068E+03  0.62109250151E+03 0.  0.
        3    1    3    3  502    0  0.58901508860E+02  0.21493101082E+03 -0.36139077949E+03  0.42457983096E+03  0.10100000352E+00 0. -1.
       -3    1    3    3    0  502 -0.58901508860E+02 -0.21493101082E+03  0.10623470058E+03  0.24688164972E+03  0.10100000352E+00 0.  1.
</event>
<event>
 5   0  0.3640827E-02  0.5915665E+03  0.7818609E-02  0.9923059E-01
       -1   -1    0    0    0  501  0.00000000000E+00  0.00000000000E+00  0.41340737893E+03  0.41340737896E+03  0.50400001928E-02 0. -1.
        1   -1    0    0  501    0  0.00000000000E+00  0.00000000000E+00 -0.21162595876E+03  0.21162595882E+03  0.50400001928E-02 0.  1.
    10030    2    1    2    0    0  0.00000000000E+00  0.00000000000E+00  0.20178142017E+03  0.62503333778E+03  0.59156650666E+03 0.  0.
        3    1    3    3  502    0 -0.22601290061E+03  0.18517060373E+03  0.14951304659E+03  0.32821356619E+03  0.10100000352E+00 0.  1.
       -3    1    3    3    0  502  0.22601290061E+03 -0.18517060373E+03  0.52268373581E+02  0.29681977159E+03  0.10100000352E+00 0. -1.
</event>
<event>
 5   0  0.5872632E-02  0.6277707E+03  0.7818609E-02  0.9849409E-01
        2   -1    0    0  501    0  0.00000000000E+00  0.00000000000E+00  0.20450436977E+04  0.20450436977E+04  0.25500000920E-02 0.  1.
       -2   -1    0    0    0  501  0.00000000000E+00  0.00000000000E+00 -0.48176970616E+02  0.48176970683E+02  0.25500000920E-02 0. -1.
    10030    2    1    2    0    0  0.00000000000E+00  0.00000000000E+00  0.19968667271E+04  0.20932206684E+04  0.62777069127E+03 0.  0.
        1    1    3    3  502    0 -0.47602778740E+02  0.17659649462E+03  0.18490031145E+04  0.18580271430E+04  0.50400001928E-02 0.  1.
       -1    1    3    3    0  502  0.47602778740E+02 -0.17659649462E+03  0.14786361257E+03  0.23519352543E+03  0.50400001928E-02 0. -1.
</event>
<event>
 5   0  0.3478183E-02  0.6007620E+03  0.7818609E-02  0.9903826E-01
       -1   -1    0    0    0  501  0.00000000000E+00  0.00000000000E+00  0.71604795017E+02  0.71604795194E+02  0.50400001928E-02 0.  1.
        1   -1    0    0  501    0  0.00000000000E+00  0.00000000000E+00 -0.12600935980E+04  0.12600935980E+04  0.50400001928E-02 0. -1.
    10030    2    1    2    0    0  0.00000000000E+00  0.00000000000E+00 -0.11884888029E+04  0.13316983932E+04  0.60076199583E+03 0.  0.
        4    1    3    3  502    0  0.24197821301E+03  0.61831687078E+02 -0.96417483564E+03  0.99599766047E+03  0.12699999809E+01 0. -1.
       -4    1    3    3    0  502 -0.24197821301E+03 -0.61831687078E+02 -0.22431396730E+03  0.33570073269E+03  0.12699999809E+01 0.  1.
</event>
<event>
 5   0  0.3651984E-02  0.6083142E+03  0.7818609E-02  0.9888305E-01
       -1   -1    0    0    0  501  0.00000000000E+00  0.00000000000E+00  0.25558783901E+03  0.25558783906E+03  0.50400001928E-02 0. -1.
        1   -1    0    0  501    0  0.00000000000E+00  0.00000000000E+00 -0.36195593832E+03  0.36195593836E+03  0.50400001928E-02 0.  1.
    10030    2    1    2    0    0  0.00000000000E+00  0.00000000000E+00 -0.10636809931E+03  0.61754377741E+03  0.60831418237E+03 0.  0.
        1    1    3    3  502    0  0.71994501373E+02 -0.29271568130E+03 -0.94368754792E+02  0.31586569965E+03  0.50400001928E-02 0.  1.
       -1    1    3    3    0  502 -0.71994501373E+02  0.29271568130E+03 -0.11999344522E+02  0.30167807776E+03  0.50400001928E-02 0. -1.
</event>
<event>
 5   0  0.5755078E-02  0.6023909E+03  0.7818609E-02  0.9900458E-01
       -2   -1    0    0    0  501  0.00000000000E+00  0.00000000000E+00  0.59438966487E+02  0.59438966542E+02  0.25500000920E-02 0. -1.
        2   -1    0    0  501    0  0.00000000000E+00  0.00000000000E+00 -0.15262495098E+04  0.15262495098E+04  0.25500000920E-02 0.  1.
    10030    2    1    2    0    0  0.00000000000E+00  0.00000000000E+00 -0.14668105434E+04  0.15856884764E+04  0.60239088144E+03 0.  0.
        2    1    3    3  502    0 -0.56769563551E+02  0.13034406204E+03 -0.14323672516E+04  0.14394055375E+04  0.25500000920E-02 0.  1.
       -2    1    3    3    0  502  0.56769563551E+02 -0.13034406204E+03 -0.34443291715E+02  0.14628293887E+03  0.25500000920E-02 0. -1.
</event>
<event>
 5   0  0.3640827E-02  0.6003449E+03  0.7818609E-02  0.9904691E-01
        1   -1    0    0  501    0  0.00000000000E+00  0.00000000000E+00  0.50433528295E+03  0.50433528298E+03  0.50400001928E-02 0. -1.
       -1   -1    0    0    0  501  0.00000000000E+00  0.00000000000E+00 -0.17865794334E+03  0.17865794341E+03  0.50400001928E-02 0.  1.
    10030    2    1    2    0    0  0.00000000000E+00  0.00000000000E+00  0.32567733961E+03  0.68299322639E+03  0.60034491565E+03 0.  0.
        3    1    3    3  502    0 -0.13946085150E+02  0.27411679952E+03  0.24580492235E+02  0.27556981669E+03  0.10100000352E+00 0.  1.
       -3    1    3    3    0  502  0.13946085150E+02 -0.27411679952E+03  0.30109684738E+03  0.40742340970E+03  0.10100000352E+00 0. -1.
</event>
<event>
 5   0  0.2388000E-02  0.5917430E+03  0.7818609E-02  0.9922686E-01
        3   -1    0    0  501    0  0.00000000000E+00  0.00000000000E+00  0.52680635360E+03  0.52680636328E+03  0.10100000352E+00 0. -1.
       -3   -1    0    0    0  501  0.00000000000E+00  0.00000000000E+00 -0.16617098262E+03  0.16617101331E+03  0.10100000352E+00 0.  1.
    10030    2    1    2    0    0  0.00000000000E+00  0.00000000000E+00  0.36063537098E+03  0.69297737659E+03  0.59174299629E+03 0.  0.
        2    1    3    3  502    0 -0.77343467468E+02  0.15252328153E+03 -0.10243062535E+03  0.19934240990E+03  0.25500000920E-02 0.  1.
       -2    1    3    3    0  502  0.77343467468E+02 -0.15252328153E+03  0.46306599633E+03  0.49363496669E+03  0.25500000920E-02 0. -1.
</event>
<event>
 5   0  0.5935451E-02  0.5995081E+03  0.7818609E-02  0.9906427E-01
        2   -1    0    0  501    0  0.00000000000E+00  0.00000000000E+00  0.55454823909E+03  0.55454823909E+03  0.25500000920E-02 0.  1.
       -2   -1    0    0    0  501  0.00000000000E+00  0.00000000000E+00 -0.16202824910E+03  0.16202824912E+03  0.25500000920E-02 0. -1.
    10030    2    1    2    0    0  0.00000000000E+00  0.00000000000E+00  0.39251998999E+03  0.71657648822E+03  0.59950806577E+03 0.  0.
        3    1    3    3  502    0  0.19752620522E+03 -0.85399932393E+02  0.44567656380E+03  0.49491146675E+03  0.10100000352E+00 0.  1.
       -3    1    3    3    0  502 -0.19752620522E+03  0.85399932393E+02 -0.53156573809E+02  0.22166502147E+03  0.10100000352E+00 0. -1.
</event>
<event>
 5   0  0.3478183E-02  0.6624299E+03  0.7818609E-02  0.9783731E-01
        1   -1    0    0  501    0  0.00000000000E+00  0.00000000000E+00  0.35376618726E+03  0.35376618730E+03  0.50400001928E-02 0.  1.
       -1   -1    0    0    0  501  0.00000000000E+00  0.00000000000E+00 -0.31010124093E+03  0.31010124097E+03  0.50400001928E-02 0. -1.
    10030    2    1    2    0    0  0.00000000000E+00  0.00000000000E+00  0.43664946332E+02  0.66386742827E+03  0.66242987159E+03 0.  0.
        4    1    3    3  502    0 -0.32548565546E+03  0.15234115963E+02 -0.37699558536E+02  0.32801807848E+03  0.12699999809E+01 0.  1.
       -4    1    3    3    0  502  0.32548565546E+03 -0.15234115963E+02  0.81364504868E+02  0.33584934978E+03  0.12699999809E+01 0. -1.
</event>
<event>
 5   0  0.5755078E-02  0.5906169E+03  0.7818609E-02  0.9925066E-01
        2   -1    0    0  501    0  0.00000000000E+00  0.00000000000E+00  0.13215748645E+04  0.13215748645E+04  0.25500000920E-02 0.  1.
       -2   -1    0    0    0  501  0.00000000000E+00  0.00000000000E+00 -0.65987247904E+02  0.65987247953E+02  0.25500000920E-02 0. -1.
    10030    2    1    2    0    0  0.00000000000E+00  0.00000000000E+00  0.12555876166E+04  0.13875621124E+04  0.59061692574E+03 0.  0.
        2    1    3    3  502    0 -0.35858843583E+02 -0.12056242880E+03  0.12554948685E+04  0.12617799018E+04  0.25500000920E-02 0.  1.
       -2    1    3    3    0  502  0.35858843583E+02  0.12056242880E+03  0.92748125223E-01  0.12578221062E+03  0.25500000920E-02 0. -1.
</event>
<event>
 5   0  0.3767635E-02  0.6029653E+03  0.7818609E-02  0.9899273E-01
        1   -1    0    0  501    0  0.00000000000E+00  0.00000000000E+00  0.26532722400E+03  0.26532722404E+03  0.50400001928E-02 0. -1.
       -1   -1    0    0    0  501  0.00000000000E+00  0.00000000000E+00 -0.34256490415E+03  0.34256490418E+03  0.50400001928E-02 0.  1.
    10030    2    1    2    0    0  0.00000000000E+00  0.00000000000E+00 -0.77237680151E+02  0.60789212823E+03  0.60296532266E+03 0.  0.
        2    1    3    3  502    0 -0.18382142500E+02 -0.24973742551E+03  0.13063715183E+03  0.28244070229E+03  0.25500000920E-02 0. -1.
       -2    1    3    3    0  502  0.18382142500E+02  0.24973742551E+03 -0.20787483198E+03  0.32545142594E+03  0.25500000920E-02 0.  1.
</event>
<event>
 5   0  0.5935451E-02  0.6005330E+03  0.7818609E-02  0.9904301E-01
        2   -1    0    0  501    0  0.00000000000E+00  0.00000000000E+00  0.81812859134E+03  0.81812859135E+03  0.25500000920E-02 0. -1.
       -2   -1    0    0    0  501  0.00000000000E+00  0.00000000000E+00 -0.11020268325E+03  0.11020268328E+03  0.25500000920E-02 0.  1.
    10030    2    1    2    0    0  0.00000000000E+00  0.00000000000E+00  0.70792590809E+03  0.92833127462E+03  0.60053298335E+03 0.  0.
        3    1    3    3  502    0 -0.15426731910E+03 -0.37856385280E+02 -0.39934899748E+02  0.16378741731E+03  0.10100000352E+00 0.  1.
       -3    1    3    3    0  502  0.15426731910E+03  0.37856385280E+02  0.74786080784E+03  0.76454385731E+03  0.10100000352E+00 0. -1.
</event>
<event>
 5   0  0.5999117E-02  0.5994515E+03  0.7818609E-02  0.9906545E-01
       -2   -1    0    0    0  501  0.00000000000E+00  0.00000000000E+00  0.72317243129E+02  0.72317243174E+02  0.25500000920E-02 0. -1.
        2   -1    0    0  501    0  0.00000000000E+00  0.00000000000E+00 -0.12422423237E+04  0.12422423237E+04  0.25500000920E-02 0.  1.
    10030    2    1    2    0    0  0.00000000000E+00  0.00000000000E+00 -0.11699250806E+04  0.13145595669E+04  0.59945154993E+03 0.  0.
        5    1    3    3  502    0  0.15344637917E+03 -0.67034290581E+02 -0.39921424128E+02  0.17220684509E+03  0.46999998093E+01 0. -1.
       -5    1    3    3    0  502 -0.15344637917E+03  0.67034290581E+02 -0.11300036565E+04  0.11423527218E+04  0.46999998093E+01 0.  1.
</event>
<event>
 5   0  0.3767635E-02  0.5917881E+03  0.7818609E-02  0.9922591E-01
        1   -1    0    0  501    0  0.00000000000E+00  0.00000000000E+00  0.48136473163E+03  0.48136473166E+03  0.50400001928E-02 0. -1.
       -1   -1    0    0    0  501  0.00000000000E+00  0.00000000000E+00 -0.18188554204E+03  0.18188554211E+03  0.50400001928E-02 0.  1.
    10030    2    1    2    0    0  0.00000000000E+00  0.00000000000E+00  0.29947918959E+03  0.66325027377E+03  0.59178808762E+03 0.  0.
        2    1    3    3  502    0 -0.17977221393E+03 -0.22472425496E+03  0.72624995529E+02  0.29680537335E+03  0.25500000920E-02 0.  1.
       -2    1    3    3    0  502  0.17977221393E+03  0.22472425496E+03  0.22685419406E+03  0.36644490041E+03  0.25500000920E-02 0. -1.
</event>
<event>
 5   0  0.5935451E-02  0.6012221E+03  0.7818609E-02  0.9902874E-01
       -2   -1    0    0    0  501  0.00000000000E+00  0.00000000000E+00  0.10186554047E+03  0.10186554050E+03  0.25500000920E-02 0. -1.
        2   -1    0    0  501    0  0.00000000000E+00  0.00000000000E+00 -0.88712056446E+03  0.88712056446E+03  0.25500000920E-02 0.  1.
    10030    2    1    2    0    0  0.00000000000E+00  0.00000000000E+00 -0.78525502399E+03  0.98898610496E+03  0.60122214123E+03 0.  0.
        3    1    3    3  502    0 -0.25797273291E+03  0.15063758526E+03 -0.33744426594E+03  0.45067755195E+03  0.10100000352E+00 0. -1.
       -3    1    3    3    0  502  0.25797273291E+03 -0.15063758526E+03 -0.44781075805E+03  0.53830855301E+03  0.10100000352E+00 0.  1.
</event>
<event>
 5   0  0.5872632E-02  0.5954832E+03  0.7818609E-02  0.9914822E-01
        2   -1    0    0  501    0  0.00000000000E+00  0.00000000000E+00  0.16733540302E+04  0.16733540302E+04  0.25500000920E-02 0.  1.
       -2   -1    0    0    0  501  0.00000000000E+00  0.00000000000E+00 -0.52977461415E+02  0.52977461477E+02  0.25500000920E-02 0. -1.
    10030    2    1    2    0    0  0.00000000000E+00  0.00000000000E+00  0.16203765688E+04  0.17263314917E+04  0.59548316055E+03 0.  0.
        1    1    3    3  502    0 -0.62886517933E+02 -0.22289271434E+03  0.13526594277E+04  0.13723423055E+04  0.50400001928E-02 0.  1.
       -1    1    3    3    0  502  0.62886517933E+02  0.22289271434E+03  0.26771714112E+03  0.35398918616E+03  0.50400001928E-02 0. -1.
</event>
<event>
 5   0  0.3640827E-02  0.5828915E+03  0.7818609E-02  0.9941551E-01
        1   -1    0    0  501    0  0.00000000000E+00  0.00000000000E+00  0.98519172531E+03  0.98519172532E+03  0.50400001928E-02 0.  1.
       -1   -1    0    0    0  501  0.00000000000E+00  0.00000000000E+00 -0.86217344983E+02  0.86217345131E+02  0.50400001928E-02 0. -1.
    10030    2    1    2    0    0  0.00000000000E+00  0.00000000000E+00  0.89897438033E+03  0.10714090705E+04  0.58289146483E+03 0.  0.
        3    1    3    3  502    0 -0.69697001958E+02  0.23609938083E+03  0.16272093584E+03  0.29509100778E+03  0.10100000352E+00 0.  1.
       -3    1    3    3    0  502  0.69697001958E+02 -0.23609938083E+03  0.73625344449E+03  0.77631806267E+03  0.10100000352E+00 0. -1.
</event>
<event>
 5   0  0.5935451E-02  0.5967960E+03  0.7818609E-02  0.9912076E-01
        2   -1    0    0  501    0  0.00000000000E+00  0.00000000000E+00  0.14047010085E+04  0.14047010085E+04  0.25500000920E-02 0.  1.
       -2   -1    0    0    0  501  0.00000000000E+00  0.00000000000E+00 -0.63388120329E+02  0.63388120380E+02  0.25500000920E-02 0. -1.
    10030    2    1    2    0    0  0.00000000000E+00  0.00000000000E+00  0.13413128881E+04  0.14680891288E+04  0.59679596711E+03 0.  0.
        3    1    3    3  502    0  0.10718991210E+03  0.26403709700E+03  0.45289750670E+03  0.53509011169E+03  0.10100000352E+00 0.  1.
       -3    1    3    3    0  502 -0.10718991210E+03 -0.26403709700E+03  0.88841538143E+03  0.93299901716E+03  0.10100000352E+00 0. -1.
</event>
<event>
 5   0  0.3478183E-02  0.5962178E+03  0.7818609E-02  0.9913284E-01
       -1   -1    0    0    0  501  0.00000000000E+00  0.00000000000E+00  0.28729254719E+03  0.28729254723E+03  0.50400001928E-02 0.  1.
        1   -1    0    0  501    0  0.00000000000E+00  0.00000000000E+00 -0.30933248654E+03  0.30933248659E+03  0.50400001928E-02 0. -1.
    10030    2    1    2    0    0  0.00000000000E+00  0.00000000000E+00 -0.22039939356E+02  0.59662503382E+03  0.59621780588E+03 0.  0.
        4    1    3    3  502    0  0.28037538616E+03 -0.50082423186E+01 -0.11224174273E+03  0.30205175280E+03  0.12699999809E+01 0. -1.
       -4    1    3    3    0  502 -0.28037538616E+03  0.50082423186E+01  0.90201803377E+02  0.29457328102E+03  0.12699999809E+01 0.  1.
</event>
<event>
 5   0  0.3478183E-02  0.5986108E+03  0.7818609E-02  0.9908292E-01
        1   -1    0    0  501    0  0.00000000000E+00  0.00000000000E+00  0.55402003487E+03  0.55402003490E+03  0.50400001928E-02 0.  1.
       -1   -1    0    0    0  501  0.00000000000E+00  0.00000000000E+00 -0.16169763158E+03  0.16169763166E+03  0.50400001928E-02 0. -1.
    10030    2    1    2    0    0  0.00000000000E+00  0.00000000000E+00  0.39232240329E+03  0.71571766656E+03  0.59861081689E+03 0.  0.
        4    1    3    3  502    0 -0.14031732283E+03  0.83642603174E+02 -0.10369457076E+03  0.19349215244E+03  0.12699999809E+01 0. -1.
       -4    1    3    3    0  502  0.14031732283E+03 -0.83642603174E+02  0.49601697405E+03  0.52222551412E+03  0.12699999809E+01 0.  1.
</event>
<event>
 5   0  0.3640827E-02  0.6058238E+03  0.7818609E-02  0.9893397E-01
       -1   -1    0    0    0  501  0.00000000000E+00  0.00000000000E+00  0.19584035375E+03  0.19584035381E+03  0.50400001928E-02 0. -1.
        1   -1    0    0  501    0  0.00000000000E+00  0.00000000000E+00 -0.46852250866E+03  0.46852250869E+03  0.50400001928E-02 0.  1.
    10030    2    1    2    0    0  0.00000000000E+00  0.00000000000E+00 -0.27268215491E+03  0.66436286250E+03  0.60582378252E+03 0.  0.
        3    1    3    3  502    0 -0.12142859528E+03  0.12079264174E+03 -0.41032201451E+03  0.44463460487E+03  0.10100000352E+00 0.  1.
       -3    1    3    3    0  502  0.12142859528E+03 -0.12079264174E+03  0.13763985960E+03  0.21972825763E+03  0.10100000352E+00 0. -1.
</event>
<event>
 5   0  0.6007360E-02  0.6108363E+03  0.7818609E-02  0.9883176E-01
        2   -1    0    0  501    0  0.00000000000E+00  0.00000000000E+00  0.10123863979E+04  0.10123863979E+04  0.25500000920E-02 0.  1.
       -2   -1    0    0    0  501  0.00000000000E+00  0.00000000000E+00 -0.92138988104E+02  0.92138988139E+02  0.25500000920E-02 0. -1.
    10030    2    1    2    0    0  0.00000000000E+00  0.00000000000E+00  0.92024740976E+03  0.11045253860E+04  0.61083633910E+03 0.  0.
        4    1    3    3  502    0 -0.13278451232E+03 -0.24105568574E+03  0.22065201460E+03  0.35274423423E+03  0.12699999809E+01 0. -1.
       -4    1    3    3    0  502  0.13278451232E+03  0.24105568574E+03  0.69959539515E+03  0.75178115177E+03  0.12699999809E+01 0.  1.
</event>
<event>
 5   0  0.6007360E-02  0.5848708E+03  0.7818609E-02  0.9937301E-01
        2   -1    0    0  501    0  0.00000000000E+00  0.00000000000E+00  0.22628716596E+04  0.22628716596E+04  0.25500000920E-02 0.  1.
       -2   -1    0    0    0  501  0.00000000000E+00  0.00000000000E+00 -0.37792003430E+02  0.37792003516E+02  0.25500000920E-02 0. -1.
    10030    2    1    2    0    0  0.00000000000E+00  0.00000000000E+00  0.22250796561E+04  0.23006636631E+04  0.58487076733E+03 0.  0.
        4    1    3    3  502    0  0.88715188414E+02 -0.35037031081E+02  0.21999502787E+04  0.22020174431E+04  0.12699999809E+01 0.  1.
       -4    1    3    3    0  502 -0.88715188414E+02  0.35037031081E+02  0.25129377448E+02  0.98646219964E+02  0.12699999809E+01 0. -1.
</event>
<event>
 5   0  0.2388000E-02  0.5951708E+03  0.7818609E-02  0.9915476E-01
       -4   -1    0    0    0  501  0.00000000000E+00  0.00000000000E+00  0.61527037088E+03  0.61527168160E+03  0.12699999809E+01 0.  1.
        4   -1    0    0  501    0  0.00000000000E+00  0.00000000000E+00 -0.14392770649E+03  0.14393330954E+03  0.12699999809E+01 0. -1.
    10030    2    1    2    0    0  0.00000000000E+00  0.00000000000E+00  0.47134266439E+03  0.75920499115E+03  0.59517082531E+03 0.  0.
        4    1    3    3  502    0  0.33416161327E+02  0.23853604620E+03  0.45859055814E+03  0.51799903291E+03  0.12699999809E+01 0.  1.
       -4    1    3    3    0  502 -0.33416161327E+02 -0.23853604620E+03  0.12752106250E+02  0.24120595824E+03  0.12699999809E+01 0. -1.
</event>
<event>
 5   0  0.3640827E-02  0.6116842E+03  0.7818609E-02  0.9881457E-01
       -1   -1    0    0    0  501  0.00000000000E+00  0.00000000000E+00  0.51829742055E+03  0.51829742058E+03  0.50400001928E-02 0.  1.
        1   -1    0    0  501    0  0.00000000000E+00  0.00000000000E+00 -0.18047437133E+03  0.18047437140E+03  0.50400001928E-02 0. -1.
    10030    2    1    2    0    0  0.00000000000E+00  0.00000000000E+00  0.33782304922E+03  0.69877179198E+03  0.61168423609E+03 0.  0.
        3    1    3    3  502    0 -0.65125697346E+02  0.13017787355E+02  0.50996034387E+03  0.51426683906E+03  0.10100000352E+00 0.  1.
       -3    1    3    3    0  502  0.65125697346E+02 -0.13017787355E+02 -0.17213729464E+03  0.18450495292E+03  0.10100000352E+00 0. -1.
</event>
<event>
 5   0  0.3703280E-02  0.6001769E+03  0.7818609E-02  0.9905039E-01
        1   -1    0    0  501    0  0.00000000000E+00  0.00000000000E+00  0.74502998185E+03  0.74502998187E+03  0.50400001928E-02 0. -1.
       -1   -1    0    0    0  501  0.00000000000E+00  0.00000000000E+00 -0.12087173828E+03  0.12087173838E+03  0.50400001928E-02 0.  1.
    10030    2    1    2    0    0  0.00000000000E+00  0.00000000000E+00  0.62415824357E+03  0.86590172025E+03  0.60017687069E+03 0.  0.
        5    1    3    3  502    0 -0.20008464481E+03 -0.20821593360E+03  0.42967152988E+03  0.51771367925E+03  0.46999998093E+01 0. -1.
       -5    1    3    3    0  502  0.20008464481E+03  0.20821593360E+03  0.19448671369E+03  0.34818804100E+03  0.46999998093E+01 0.  1.
</event>
<event>
 5   0  0.5755078E-02  0.6026488E+03  0.7818609E-02  0.9899926E-01
       -2   -1    0    0    0  501  0.00000000000E+00  0.00000000000E+00  0.43855964848E+03  0.43855964848E+03  0.25500000920E-02 0.  1.
        2   -1    0    0  501    0  0.00000000000E+00  0.00000000000E+00 -0.20703318542E+03  0.20703318543E+03  0.25500000920E-02 0. -1.
    10030    2    1    2    0    0  0.00000000000E+00  0.00000000000E+00  0.23152646306E+03  0.64559283392E+03  0.60264882320E+03 0.  0.
        2    1    3    3  502    0  0.25070016182E+03 -0.42942605927E+02 -0.57309761787E+02  0.26072791823E+03  0.25500000920E-02 0. -1.
       -2    1    3    3    0  502 -0.25070016182E+03  0.42942605927E+02  0.28883622485E+03  0.38486491569E+03  0.25500000920E-02 0.  1.
</event>
<event>
 5   0  0.5935451E-02  0.5765661E+03  0.7818609E-02  0.9955253E-01
        2   -1    0    0  501    0  0.00000000000E+00  0.00000000000E+00  0.89880085862E+03  0.89880085862E+03  0.25500000920E-02 0.  1.
       -2   -1    0    0    0  501  0.00000000000E+00  0.00000000000E+00 -0.92464453124E+02  0.92464453159E+02  0.25500000920E-02 0. -1.
    10030    2    1    2    0    0  0.00000000000E+00  0.00000000000E+00  0.80633640549E+03  0.99126531178E+03  0.57656614496E+03 0.  0.
        3    1    3    3  502    0 -0.20265244574E+03  0.28417124988E+02  0.75227292421E+03  0.77960894649E+03  0.10100000352E+00 0.  1.
       -3    1    3    3    0  502  0.20265244574E+03 -0.28417124988E+02  0.54063481287E+02  0.21165636529E+03  0.10100000352E+00 0. -1.
</event>
<event>
 5   0  0.5872632E-02  0.5905255E+03  0.7818609E-02  0.9925260E-01
       -2   -1    0    0    0  501  0.00000000000E+00  0.00000000000E+00  0.10831627932E+03  0.10831627935E+03  0.25500000920E-02 0. -1.
        2   -1    0    0  501    0  0.00000000000E+00  0.00000000000E+00 -0.80486611159E+03  0.80486611160E+03  0.25500000920E-02 0.  1.
    10030    2    1    2    0    0  0.00000000000E+00  0.00000000000E+00 -0.69654983227E+03  0.91318239095E+03  0.59052553739E+03 0.  0.
        1    1    3    3  502    0  0.19760216138E+02 -0.18996554374E+03 -0.70310831457E-01  0.19099052049E+03  0.50400001928E-02 0. -1.
       -1    1    3    3    0  502 -0.19760216138E+02  0.18996554374E+03 -0.69647952144E+03  0.72219187046E+03  0.50400001928E-02 0.  1.
</event>
<event>
 5   0  0.5755078E-02  0.6091842E+03  0.7818609E-02  0.9886533E-01
        2   -1    0    0  501    0  0.00000000000E+00  0.00000000000E+00  0.93840910196E+03  0.93840910197E+03  0.25500000920E-02 0.  1.
       -2   -1    0    0    0  501  0.00000000000E+00  0.00000000000E+00 -0.98865553906E+02  0.98865553939E+02  0.25500000920E-02 0. -1.
    10030    2    1    2    0    0  0.00000000000E+00  0.00000000000E+00  0.83954354806E+03  0.10372746559E+04  0.60918416156E+03 0.  0.
        2    1    3    3  502    0  0.68445860223E+02 -0.22152135538E+03  0.83424725054E+02  0.24640663836E+03  0.25500000920E-02 0. -1.
       -2    1    3    3    0  502 -0.68445860223E+02  0.22152135538E+03  0.75611882301E+03  0.79086801755E+03  0.25500000920E-02 0.  1.
</event>
<event>
 5   0  0.5935451E-02  0.6041396E+03  0.7818609E-02  0.9896855E-01
       -2   -1    0    0    0  501  0.00000000000E+00  0.00000000000E+00  0.25501558799E+03  0.25501558800E+03  0.25500000920E-02 0. -1.
        2   -1    0    0  501    0  0.00000000000E+00  0.00000000000E+00 -0.35780621833E+03  0.35780621833E+03  0.25500000920E-02 0.  1.
    10030    2    1    2    0    0  0.00000000000E+00  0.00000000000E+00 -0.10279063034E+03  0.61282180634E+03  0.60413959698E+03 0.  0.
        3    1    3    3  502    0  0.29131650937E+02  0.29404434227E+03 -0.11502982599E+03  0.31708453033E+03  0.10100000352E+00 0. -1.
       -3    1    3    3    0  502 -0.29131650937E+02 -0.29404434227E+03  0.12239195654E+02  0.29573727600E+03  0.10100000352E+00 0.  1.
</event>
<event>
 5   0  0.3640827E-02  0.5730612E+03  0.7818609E-02  0.9962927E-01
        1   -1    0    0  501    0  0.00000000000E+00  0.00000000000E+00  0.36714213836E+03  0.36714213839E+03  0.50400001928E-02 0.  1.
       -1   -1    0    0    0  501  0.00000000000E+00  0.00000000000E+00 -0.22361853157E+03  0.22361853162E+03  0.50400001928E-02 0. -1.
    10030    2    1    2    0    0  0.00000000000E+00  0.00000000000E+00  0.14352360679E+03  0.59076067002E+03  0.57306120400E+03 0.  0.
        3    1    3    3  502    0 -0.71967316884E+02 -0.15451802251E+03  0.30918951599E+03  0.35306271536E+03  0.10100000352E+00 0.  1.
       -3    1    3    3    0  502  0.71967316884E+02  0.15451802251E+03 -0.16566590919E+03  0.23769795466E+03  0.10100000352E+00 0. -1.
</event>
<event>
 5   0  0.5999117E-02  0.6006577E+03  0.7818609E-02  0.9904043E-01
       -2   -1    0    0    0  501  0.00000000000E+00  0.00000000000E+00  0.88048775808E+03  0.88048775809E+03  0.25500000920E-02 0. -1.
        2   -1    0    0  501    0  0.00000000000E+00  0.00000000000E+00 -0.10244028269E+03  0.10244028272E+03  0.25500000920E-02 0.  1.
    10030    2    1    2    0    0  0.00000000000E+00  0.00000000000E+00  0.77804747539E+03  0.98292804081E+03  0.60065768908E+03 0.  0.
        5    1    3    3  502    0 -0.52595358553E+02 -0.17706969799E+03  0.15847550522E+01  0.18478244271E+03  0.46999998093E+01 0.  1.
       -5    1    3    3    0  502  0.52595358553E+02  0.17706969799E+03  0.77646272034E+03  0.79814559810E+03  0.46999998093E+01 0. -1.
</event>
<event>
 5   0  0.3703280E-02  0.6004866E+03  0.7818609E-02  0.9904397E-01
       -1   -1    0    0    0  501  0.00000000000E+00  0.00000000000E+00  0.10125131316E+03  0.10125131328E+03  0.50400001928E-02 0.  1.
        1   -1    0    0  501    0  0.00000000000E+00  0.00000000000E+00 -0.89031981368E+03  0.89031981370E+03  0.50400001928E-02 0. -1.
    10030    2    1    2    0    0  0.00000000000E+00  0.00000000000E+00 -0.78906850053E+03  0.99157112698E+03  0.60048663711E+03 0.  0.
        5    1    3    3  502    0  0.65314942017E+02 -0.23119293235E+03 -0.97268453087E+02  0.25922857786E+03  0.46999998093E+01 0.  1.
       -5    1    3    3    0  502 -0.65314942017E+02  0.23119293235E+03 -0.69180004744E+03  0.73234254912E+03  0.46999998093E+01 0. -1.
</event>
<event>
 5   0  0.3640827E-02  0.6751829E+03  0.7818609E-02  0.9760640E-01
        1   -1    0    0  501    0  0.00000000000E+00  0.00000000000E+00  0.42428456896E+03  0.42428456899E+03  0.50400001928E-02 0. -1.
       -1   -1    0    0    0  501  0.00000000000E+00  0.00000000000E+00 -0.26861210606E+03  0.26861210610E+03  0.50400001928E-02 0.  1.
    10030    2    1    2    0    0  0.00000000000E+00  0.00000000000E+00  0.15567246290E+03  0.69289667509E+03  0.67518285423E+03 0.  0.
        3    1    3    3  502    0 -0.32103151364E+03 -0.55037461759E+02  0.16892067600E+03  0.36691219648E+03  0.10100000352E+00 0. -1.
       -3    1    3    3    0  502  0.32103151364E+03  0.55037461759E+02 -0.13248213099E+02  0.32598447861E+03  0.10100000352E+00 0.  1.
</event>
<event>
 5   0  0.2388000E-02  0.6034673E+03  0.7818609E-02  0.9898238E-01
       -3   -1    0    0    0  501  0.00000000000E+00  0.00000000000E+00  0.20251184077E+03  0.20251186595E+03  0.10100000352E+00 0. -1.
        3   -1    0    0  501    0  0.00000000000E+00  0.00000000000E+00 -0.44956973513E+03  0.44956974648E+03  0.10100000352E+00 0.  1.
    10030    2    1    2    0    0  0.00000000000E+00  0.00000000000E+00 -0.24705789436E+03  0.65208161243E+03  0.60346733640E+03 0.  0.
        5    1    3    3  502    0 -0.78297109774E+02  0.15532846450E+03 -0.38988983887E+03  0.42695848245E+03  0.46999998093E+01 0.  1.
       -5    1    3    3    0  502  0.78297109774E+02 -0.15532846450E+03  0.14283194451E+03  0.22512312998E+03  0.46999998093E+01 0. -1.
</event>
<event>
 5   0  0.5935451E-02  0.6010463E+03  0.7818609E-02  0.9903238E-01
        2   -1    0    0  501    0  0.00000000000E+00  0.00000000000E+00  0.16820104274E+03  0.16820104275E+03  0.25500000920E-02 0. -1.
       -2   -1    0    0    0  501  0.00000000000E+00  0.00000000000E+00 -0.53694173165E+03  0.53694173165E+03  0.25500000920E-02 0.  1.
    10030    2    1    2    0    0  0.00000000000E+00  0.00000000000E+00 -0.36874068891E+03  0.70514277441E+03  0.60104628494E+03 0.  0.
        3    1    3    3  502    0 -0.60662273677E+02 -0.13742098931E+03  0.12099718865E+03  0.19288537947E+03  0.10100000352E+00 0. -1.
       -3    1    3    3    0  502  0.60662273677E+02  0.13742098931E+03 -0.48973787756E+03  0.51225739494E+03  0.10100000352E+00 0.  1.
</event>
<event>
 5   0  0.3651984E-02  0.6055662E+03  0.7818609E-02  0.9893925E-01
        1   -1    0    0  501    0  0.00000000000E+00  0.00000000000E+00  0.18490412485E+03  0.18490412492E+03  0.50400001928E-02 0.  1.
       -1   -1    0    0    0  501  0.00000000000E+00  0.00000000000E+00 -0.49581155093E+03  0.49581155095E+03  0.50400001928E-02 0. -1.
    10030    2    1    2    0    0  0.00000000000E+00  0.00000000000E+00 -0.31090742608E+03  0.68071567587E+03  0.60556618448E+03 0.  0.
        1    1    3    3  502    0  0.69299716861E+02  0.15762071292E+03  0.12451405882E+03  0.21248644843E+03  0.50400001928E-02 0.  1.
       -1    1    3    3    0  502 -0.69299716861E+02 -0.15762071292E+03 -0.43542148490E+03  0.46822922744E+03  0.50400001928E-02 0. -1.
</event>
<event>
 5   0  0.3640827E-02  0.6056794E+03  0.7818609E-02  0.9893693E-01
        1   -1    0    0  501    0  0.00000000000E+00  0.00000000000E+00  0.15328830432E+04  0.15328830432E+04  0.50400001928E-02 0. -1.
       -1   -1    0    0    0  501  0.00000000000E+00  0.00000000000E+00 -0.59829671699E+02  0.59829671912E+02  0.50400001928E-02 0.  1.
    10030    2    1    2    0    0  0.00000000000E+00  0.00000000000E+00  0.14730533715E+04  0.15927127151E+04  0.60567941818E+03 0.  0.
        3    1    3    3  502    0  0.12710578721E+03  0.27021672168E+03  0.60402565465E+03  0.67381003220E+03  0.10100000352E+00 0.  1.
       -3    1    3    3    0  502 -0.12710578721E+03 -0.27021672168E+03  0.86902771683E+03  0.91890268290E+03  0.10100000352E+00 0. -1.
</event>
<event>
 5   0  0.3767635E-02  0.6038927E+03  0.7818609E-02  0.9897363E-01
        1   -1    0    0  501    0  0.00000000000E+00  0.00000000000E+00  0.23497861793E+03  0.23497861799E+03  0.50400001928E-02 0.  1.
       -1   -1    0    0    0  501  0.00000000000E+00  0.00000000000E+00 -0.38799949076E+03  0.38799949079E+03  0.50400001928E-02 0. -1.
    10030    2    1    2    0    0  0.00000000000E+00  0.00000000000E+00 -0.15302087283E+03  0.62297810878E+03  0.60389265313E+03 0.  0.
        2    1    3    3  502    0 -0.89064206302E+02 -0.21401359180E+03 -0.27611271548E+03  0.36051696489E+03  0.25500000920E-02 0. -1.
       -2    1    3    3    0  502  0.89064206302E+02  0.21401359180E+03  0.12309184265E+03  0.26246114389E+03  0.25500000920E-02 0.  1.
</event>
<event>
 5   0  0.3703280E-02  0.6062002E+03  0.7818609E-02  0.9892625E-01
       -1   -1    0    0    0  501  0.00000000000E+00  0.00000000000E+00  0.10626898579E+03  0.10626898591E+03  0.50400001928E-02 0.  1.
        1   -1    0    0  501    0  0.00000000000E+00  0.00000000000E+00 -0.86450121064E+03  0.86450121066E+03  0.50400001928E-02 0. -1.
    10030    2    1    2    0    0  0.00000000000E+00  0.00000000000E+00 -0.75823222485E+03  0.97077019657E+03  0.60620018785E+03 0.  0.
        5    1    3    3  502    0  0.56227968569E+02  0.85733473682E+02  0.77594542008E+02  0.12866551949E+03  0.46999998093E+01 0.  1.
       -5    1    3    3    0  502 -0.56227968569E+02 -0.85733473682E+02 -0.83582676686E+03  0.84210467707E+03  0.46999998093E+01 0. -1.
</event>
<event>
 5   0  0.6007360E-02  0.5977778E+03  0.7818609E-02  0.9910027E-01
       -2   -1    0    0    0  501  0.00000000000E+00  0.00000000000E+00  0.14710449023E+03  0.14710449025E+03  0.25500000920E-02 0. -1.
        2   -1    0    0  501    0  0.00000000000E+00  0.00000000000E+00 -0.60728644828E+03  0.60728644829E+03  0.25500000920E-02 0.  1.
    10030    2    1    2    0    0  0.00000000000E+00  0.00000000000E+00 -0.46018195805E+03  0.75439093854E+03  0.59777776275E+03 0.  0.
        4    1    3    3  502    0  0.85971730256E+02  0.28090946255E+03 -0.29957721932E+03  0.41958239690E+03  0.12699999809E+01 0.  1.
       -4    1    3    3    0  502 -0.85971730256E+02 -0.28090946255E+03 -0.16060473873E+03  0.33480854164E+03  0.12699999809E+01 0. -1.
</event>
<event>
 5   0  0.5872632E-02  0.5906551E+03  0.7818609E-02  0.9924986E-01
       -2   -1    0    0    0  501  0.00000000000E+00  0.00000000000E+00  0.10856419584E+03  0.10856419587E+03  0.25500000920E-02 0. -1.
        2   -1    0    0  501    0  0.00000000000E+00  0.00000000000E+00 -0.80338042708E+03  0.80338042708E+03  0.25500000920E-02 0.  1.
    10030    2    1    2    0    0  0.00000000000E+00  0.00000000000E+00 -0.69481623124E+03  0.91194462295E+03  0.59065506020E+03 0.  0.
        1    1    3    3  502    0 -0.11988437067E+03 -0.23108356997E+03 -0.56271352549E+03  0.62001483082E+03  0.50400001928E-02 0.  1.
       -1    1    3    3    0  502  0.11988437067E+03  0.23108356997E+03 -0.13210270574E+03  0.29192979213E+03  0.50400001928E-02 0. -1.
</event>
<event>
 5   0  0.3478183E-02  0.5964909E+03  0.7818609E-02  0.9912713E-01
        1   -1    0    0  501    0  0.00000000000E+00  0.00000000000E+00  0.33025798869E+03  0.33025798873E+03  0.50400001928E-02 0. -1.
       -1   -1    0    0    0  501  0.00000000000E+00  0.00000000000E+00 -0.26933597336E+03  0.26933597341E+03  0.50400001928E-02 0.  1.
    10030    2    1    2    0    0  0.00000000000E+00  0.00000000000E+00  0.60922015329E+02  0.59959396214E+03  0.59649092825E+03 0.  0.
        4    1    3    3  502    0 -0.16819510503E+03  0.18874087428E+03  0.18951192028E+03  0.31595742088E+03  0.12699999809E+01 0. -1.
       -4    1    3    3    0  502  0.16819510503E+03 -0.18874087428E+03 -0.12858990496E+03  0.28363654126E+03  0.12699999809E+01 0.  1.
</event>
<event>
 5   0  0.5755078E-02  0.5966944E+03  0.7818609E-02  0.9912288E-01
        2   -1    0    0  501    0  0.00000000000E+00  0.00000000000E+00  0.59878637060E+03  0.59878637061E+03  0.25500000920E-02 0.  1.
       -2   -1    0    0    0  501  0.00000000000E+00  0.00000000000E+00 -0.14865245890E+03  0.14865245892E+03  0.25500000920E-02 0. -1.
    10030    2    1    2    0    0  0.00000000000E+00  0.00000000000E+00  0.45013391170E+03  0.74743882953E+03  0.59669444896E+03 0.  0.
        2    1    3    3  502    0  0.34061558396E+02 -0.25961477027E+03  0.40420236434E+03  0.48160104863E+03  0.25500000920E-02 0. -1.
       -2    1    3    3    0  502 -0.34061558396E+02  0.25961477027E+03  0.45931547361E+02  0.26583778089E+03  0.25500000920E-02 0.  1.
</event>
<event>
 5   0  0.3640827E-02  0.5963009E+03  0.7818609E-02  0.9913110E-01
       -1   -1    0    0    0  501  0.00000000000E+00  0.00000000000E+00  0.51084122288E+03  0.51084122291E+03  0.50400001928E-02 0.  1.
        1   -1    0    0  501    0  0.00000000000E+00  0.00000000000E+00 -0.17401433257E+03  0.17401433264E+03  0.50400001928E-02 0. -1.
    10030    2    1    2    0    0  0.00000000000E+00  0.00000000000E+00  0.33682689031E+03  0.68485555555E+03  0.59630091223E+03 0.  0.
        3    1    3    3  502    0 -0.22780999038E+02 -0.12762357150E+03  0.47677610827E+03  0.49408725701E+03  0.10100000352E+00 0.  1.
       -3    1    3    3    0  502  0.22780999038E+02  0.12762357150E+03 -0.13994921796E+03  0.19076829854E+03  0.10100000352E+00 0. -1.
</event>
<event>
 5   0  0.5755078E-02  0.5978079E+03  0.7818609E-02  0.9909964E-01
       -2   -1    0    0    0  501  0.00000000000E+00  0.00000000000E+00  0.14624233504E+03  0.14624233506E+03  0.25500000920E-02 0.  1.
        2   -1    0    0  501    0  0.00000000000E+00  0.00000000000E+00 -0.61092816343E+03  0.61092816343E+03  0.25500000920E-02 0. -1.
    10030    2    1    2    0    0  0.00000000000E+00  0.00000000000E+00 -0.46468582839E+03  0.75717049849E+03  0.59780786602E+03 0.  0.
        2    1    3    3  502    0  0.19398143313E+03 -0.16642028661E+03 -0.42863825840E+03  0.49905437055E+03  0.25500000920E-02 0. -1.
       -2    1    3    3    0  502 -0.19398143313E+03  0.16642028661E+03 -0.36047569988E+02  0.25811612794E+03  0.25500000920E-02 0.  1.
</event>
<event>
 5   0  0.3767635E-02  0.6008748E+03  0.7818609E-02  0.9903593E-01
        1   -1    0    0  501    0  0.00000000000E+00  0.00000000000E+00  0.34120249754E+03  0.34120249758E+03  0.50400001928E-02 0.  1.
       -1   -1    0    0    0  501  0.00000000000E+00  0.00000000000E+00 -0.26454274661E+03  0.26454274665E+03  0.50400001928E-02 0. -1.
    10030    2    1    2    0    0  0.00000000000E+00  0.00000000000E+00  0.76659750937E+02  0.60574524423E+03  0.60087484845E+03 0.  0.
        2    1    3    3  502    0 -0.45763066555E+02  0.20478727122E+02  0.33695551896E+03  0.34066502358E+03  0.25500000920E-02 0.  1.
       -2    1    3    3    0  502  0.45763066555E+02 -0.20478727122E+02 -0.26029576802E+03  0.26508022065E+03  0.25500000920E-02 0. -1.
</event>
<event>
 5   0  0.3767635E-02  0.5967109E+03  0.7818609E-02  0.9912253E-01
       -1   -1    0    0    0  501  0.00000000000E+00  0.00000000000E+00  0.99495677060E+02  0.99495677188E+02  0.50400001928E-02 0. -1.
        1   -1    0    0  501    0  0.00000000000E+00  0.00000000000E+00 -0.89467182915E+03  0.89467182916E+03  0.50400001928E-02 0.  1.
    10030    2    1    2    0    0  0.00000000000E+00  0.00000000000E+00 -0.79517615209E+03  0.99416750635E+03  0.59671091647E+03 0.  0.
        2    1    3    3  502    0  0.60293457059E+02 -0.12856953054E+03 -0.83475701934E+03  0.84674949454E+03  0.25500000920E-02 0.  1.
       -2    1    3    3    0  502 -0.60293457059E+02  0.12856953054E+03  0.39580867254E+02  0.14741801182E+03  0.25500000920E-02 0. -1.
</event>
<event>
 5   0  0.3767635E-02  0.6001905E+03  0.7818609E-02  0.9905011E-01
        1   -1    0    0  501    0  0.00000000000E+00  0.00000000000E+00  0.51090127620E+03  0.51090127622E+03  0.50400001928E-02 0. -1.
       -1   -1    0    0    0  501  0.00000000000E+00  0.00000000000E+00 -0.17627113352E+03  0.17627113359E+03  0.50400001928E-02 0.  1.
    10030    2    1    2    0    0  0.00000000000E+00  0.00000000000E+00  0.33463014268E+03  0.68717240981E+03  0.60019046012E+03 0.  0.
        2    1    3    3  502    0  0.92373806123E+02  0.18720462883E+03 -0.79518028442E+02  0.22338668261E+03  0.25500000920E-02 0.  1.
       -2    1    3    3    0  502 -0.92373806123E+02 -0.18720462883E+03  0.41414817112E+03  0.46378572721E+03  0.25500000920E-02 0. -1.
</event>
<event>
 5   0  0.5755078E-02  0.5766367E+03  0.7818609E-02  0.9955099E-01
       -2   -1    0    0    0  501  0.00000000000E+00  0.00000000000E+00  0.33483880204E+03  0.33483880205E+03  0.25500000920E-02 0. -1.
        2   -1    0    0  501    0  0.00000000000E+00  0.00000000000E+00 -0.24826115529E+03  0.24826115530E+03  0.25500000920E-02 0.  1.
    10030    2    1    2    0    0  0.00000000000E+00  0.00000000000E+00  0.86577646756E+02  0.58309995735E+03  0.57663668921E+03 0.  0.
        2    1    3    3  502    0  0.63856965401E+02 -0.18004594538E+03 -0.17507888143E+03  0.25912712943E+03  0.25500000920E-02 0.  1.
       -2    1    3    3    0  502 -0.63856965401E+02  0.18004594538E+03  0.26165652819E+03  0.32397282792E+03  0.25500000920E-02 0. -1.
</event>
<event>
 5   0  0.3703280E-02  0.5857375E+03  0.7818609E-02  0.9935446E-01
       -1   -1    0    0    0  501  0.00000000000E+00  0.00000000000E+00  0.96502604421E+02  0.96502604552E+02  0.50400001928E-02 0. -1.
        1   -1    0    0  501    0  0.00000000000E+00  0.00000000000E+00 -0.88880623516E+03  0.88880623518E+03  0.50400001928E-02 0.  1.
    10030    2    1    2    0    0  0.00000000000E+00  0.00000000000E+00 -0.79230363074E+03  0.98530883973E+03  0.58573754051E+03 0.  0.
        5    1    3    3  502    0 -0.27755633453E+03 -0.88514914229E+02 -0.34631824435E+03  0.45258239608E+03  0.46999998093E+01 0. -1.
       -5    1    3    3    0  502  0.27755633453E+03  0.88514914229E+02 -0.44598538640E+03  0.53272644365E+03  0.46999998093E+01 0.  1.
</event>
<event>
 5   0  0.5999117E-02  0.6104676E+03  0.7818609E-02  0.9883924E-01
        2   -1    0    0  501    0  0.00000000000E+00  0.00000000000E+00  0.28612436189E+03  0.28612436190E+03  0.25500000920E-02 0. -1.
       -2   -1    0    0    0  501  0.00000000000E+00  0.00000000000E+00 -0.32561952079E+03  0.32561952080E+03  0.25500000920E-02 0.  1.
    10030    2    1    2    0    0  0.00000000000E+00  0.00000000000E+00 -0.39495158900E+02  0.61174388270E+03  0.61046761621E+03 0.  0.
        5    1    3    3  502    0 -0.21948167382E+03  0.32717497692E+02  0.19022077532E+03  0.29231605012E+03  0.46999998093E+01 0. -1.
       -5    1    3    3    0  502  0.21948167382E+03 -0.32717497692E+02 -0.22971593422E+03  0.31942783258E+03  0.46999998093E+01 0.  1.
</event>
<event>
 5   0  0.5999117E-02  0.6002861E+03  0.7818609E-02  0.9904813E-01
       -2   -1    0    0    0  501  0.00000000000E+00  0.00000000000E+00  0.34411466152E+03  0.34411466153E+03  0.25500000920E-02 0. -1.
        2   -1    0    0  501    0  0.00000000000E+00  0.00000000000E+00 -0.26179024010E+03  0.26179024012E+03  0.25500000920E-02 0.  1.
    10030    2    1    2    0    0  0.00000000000E+00  0.00000000000E+00  0.82324421414E+02  0.60590490164E+03  0.60028613134E+03 0.  0.
        5    1    3    3  502    0  0.24805658404E+03 -0.86510543299E+01 -0.12910838151E+03  0.27981775105E+03  0.46999998093E+01 0. -1.
       -5    1    3    3    0  502 -0.24805658404E+03  0.86510543299E+01  0.21143280293E+03  0.32608715059E+03  0.46999998093E+01 0.  1.
</event>
<event>
 5   0  0.6007360E-02  0.5997482E+03  0.7818609E-02  0.9905929E-01
        2   -1    0    0  501    0  0.00000000000E+00  0.00000000000E+00  0.43317158477E+03  0.43317158478E+03  0.25500000920E-02 0. -1.
       -2   -1    0    0    0  501  0.00000000000E+00  0.00000000000E+00 -0.20759548443E+03  0.20759548445E+03  0.25500000920E-02 0.  1.
    10030    2    1    2    0    0  0.00000000000E+00  0.00000000000E+00  0.22557610034E+03  0.64076706923E+03  0.59974816379E+03 0.  0.
        4    1    3    3  502    0 -0.14431454284E+03 -0.19683086487E+02 -0.16726303006E+03  0.22179415072E+03  0.12699999809E+01 0.  1.
       -4    1    3    3    0  502  0.14431454284E+03  0.19683086487E+02  0.39283913040E+03  0.41897291851E+03  0.12699999809E+01 0. -1.
</event>
<event>
 5   0  0.3478183E-02  0.5991372E+03  0.7818609E-02  0.9907198E-01
        1   -1    0    0  501    0  0.00000000000E+00  0.00000000000E+00  0.13634938944E+03  0.13634938953E+03  0.50400001928E-02 0. -1.
       -1   -1    0    0    0  501  0.00000000000E+00  0.00000000000E+00 -0.65817197699E+03  0.65817197701E+03  0.50400001928E-02 0.  1.
    10030    2    1    2    0    0  0.00000000000E+00  0.00000000000E+00 -0.52182258755E+03  0.79452136653E+03  0.59913720382E+03 0.  0.
        4    1    3    3  502    0 -0.11289909636E+03 -0.19693433935E+02 -0.62794827729E+03  0.63832177556E+03  0.12699999809E+01 0.  1.
       -4    1    3    3    0  502  0.11289909636E+03  0.19693433935E+02  0.10612568974E+03  0.15619959098E+03  0.12699999809E+01 0. -1.
</event>
<event>
 5   0  0.2388000E-02  0.5940540E+03  0.7818609E-02  0.9917819E-01
       -4   -1    0    0    0  501  0.00000000000E+00  0.00000000000E+00  0.27943704576E+03  0.27943993173E+03  0.12699999809E+01 0. -1.
        4   -1    0    0  501    0  0.00000000000E+00  0.00000000000E+00 -0.31571845318E+03  0.31572100750E+03  0.12699999809E+01 0.  1.
    10030    2    1    2    0    0  0.00000000000E+00  0.00000000000E+00 -0.36281407414E+02  0.59516093923E+03  0.59405404052E+03 0.  0.
        3    1    3    3  502    0 -0.45473943267E+02  0.37742417045E+02  0.27349044918E+03  0.27980244022E+03  0.10100000352E+00 0. -1.
       -3    1    3    3    0  502  0.45473943267E+02 -0.37742417045E+02 -0.30977185659E+03  0.31535849901E+03  0.10100000352E+00 0.  1.
</event>
<event>
 5   0  0.2388000E-02  0.6001906E+03  0.7818609E-02  0.9905011E-01
        3   -1    0    0  501    0  0.00000000000E+00  0.00000000000E+00  0.23802108913E+03  0.23802111056E+03  0.10100000352E+00 0. -1.
       -3   -1    0    0    0  501  0.00000000000E+00  0.00000000000E+00 -0.37835798159E+03  0.37835799507E+03  0.10100000352E+00 0.  1.
    10030    2    1    2    0    0  0.00000000000E+00  0.00000000000E+00 -0.14033689246E+03  0.61637910563E+03  0.60019060179E+03 0.  0.
        4    1    3    3  502    0 -0.24607214139E+03 -0.14471425097E+03 -0.16519453798E+03  0.32982504678E+03  0.12699999809E+01 0.  1.
       -4    1    3    3    0  502  0.24607214139E+03  0.14471425097E+03  0.24857645524E+02  0.28655405885E+03  0.12699999809E+01 0. -1.
</event>
<event>
 5   0  0.5755078E-02  0.5842556E+03  0.7818609E-02  0.9938620E-01
        2   -1    0    0  501    0  0.00000000000E+00  0.00000000000E+00  0.93999832900E+03  0.93999832900E+03  0.25500000920E-02 0.  1.
       -2   -1    0    0    0  501  0.00000000000E+00  0.00000000000E+00 -0.90785958942E+02  0.90785958978E+02  0.25500000920E-02 0. -1.
    10030    2    1    2    0    0  0.00000000000E+00  0.00000000000E+00  0.84921237005E+03  0.10307842880E+04  0.58425559380E+03 0.  0.
        2    1    3    3  502    0 -0.76628322649E+02  0.19273350974E+03  0.78755094638E+03  0.81440444422E+03  0.25500000920E-02 0.  1.
       -2    1    3    3    0  502  0.76628322649E+02 -0.19273350974E+03  0.61661423676E+02  0.21637984376E+03  0.25500000920E-02 0. -1.
</event>
<event>
 5   0  0.3767635E-02  0.6008426E+03  0.7818609E-02  0.9903659E-01
       -1   -1    0    0    0  501  0.00000000000E+00  0.00000000000E+00  0.12598880698E+03  0.12598880709E+03  0.50400001928E-02 0. -1.
        1   -1    0    0  501    0  0.00000000000E+00  0.00000000000E+00 -0.71635694254E+03  0.71635694256E+03  0.50400001928E-02 0.  1.
    10030    2    1    2    0    0  0.00000000000E+00  0.00000000000E+00 -0.59036813556E+03  0.84234574965E+03  0.60084259708E+03 0.  0.
        2    1    3    3  502    0  0.20976187598E+03  0.20435255237E+03 -0.38915537966E+03  0.48703379739E+03  0.25500000920E-02 0.  1.
       -2    1    3    3    0  502 -0.20976187598E+03 -0.20435255237E+03 -0.20121275590E+03  0.35531195226E+03  0.25500000920E-02 0. -1.
</event>
<event>
 5   0  0.5935451E-02  0.5981952E+03  0.7818609E-02  0.9909158E-01
       -2   -1    0    0    0  501  0.00000000000E+00  0.00000000000E+00  0.38898126146E+03  0.38898126147E+03  0.25500000920E-02 0.  1.
        2   -1    0    0  501    0  0.00000000000E+00  0.00000000000E+00 -0.22998376624E+03  0.22998376626E+03  0.25500000920E-02 0. -1.
    10030    2    1    2    0    0  0.00000000000E+00  0.00000000000E+00  0.15899749521E+03  0.61896502772E+03  0.59819520398E+03 0.  0.
        3    1    3    3  502    0  0.17052685904E+03  0.15847531461E+03  0.27381019839E+03  0.35939653579E+03  0.10100000352E+00 0.  1.
       -3    1    3    3    0  502 -0.17052685904E+03 -0.15847531461E+03 -0.11481270318E+03  0.25956849193E+03  0.10100000352E+00 0. -1.
</event>
<event>
 5   0  0.5999117E-02  0.5953969E+03  0.7818609E-02  0.9915002E-01
        2   -1    0    0  501    0  0.00000000000E+00  0.00000000000E+00  0.11032679285E+03  0.11032679288E+03  0.25500000920E-02 0.  1.
       -2   -1    0    0    0  501  0.00000000000E+00  0.00000000000E+00 -0.80328973325E+03  0.80328973325E+03  0.25500000920E-02 0. -1.
    10030    2    1    2    0    0  0.00000000000E+00  0.00000000000E+00 -0.69296294040E+03  0.91361652613E+03  0.59539694327E+03 0.  0.
        5    1    3    3  502    0  0.28644897887E+03 -0.62944292582E+02 -0.42453270525E+03  0.51600882675E+03  0.46999998093E+01 0. -1.
       -5    1    3    3    0  502 -0.28644897887E+03  0.62944292582E+02 -0.26843023515E+03  0.39760769938E+03  0.46999998093E+01 0.  1.
</event>
<event>
 5   0  0.3703280E-02  0.5987683E+03  0.7818609E-02  0.9907965E-01
        1   -1    0    0  501    0  0.00000000000E+00  0.00000000000E+00  0.85772072886E+03  0.85772072888E+03  0.50400001928E-02 0. -1.
       -1   -1    0    0    0  501  0.00000000000E+00  0.00000000000E+00 -0.10449889899E+03  0.10449889912E+03  0.50400001928E-02 0.  1.
    10030    2    1    2    0    0  0.00000000000E+00  0.00000000000E+00  0.75322182987E+03  0.96221962799E+03  0.59876830870E+03 0.  0.
        5    1    3    3  502    0 -0.37157618323E+02  0.24531690718E+03  0.64574214528E+03  0.69178470765E+03  0.46999998093E+01 0. -1.
       -5    1    3    3    0  502  0.37157618323E+02 -0.24531690718E+03  0.10747968459E+03  0.27043492035E+03  0.46999998093E+01 0.  1.
</event>
<event>
 5   0  0.3640827E-02  0.5976009E+03  0.7818609E-02  0.9910396E-01
        1   -1    0    0  501    0  0.00000000000E+00  0.00000000000E+00  0.13646364775E+03  0.13646364784E+03  0.50400001928E-02 0. -1.
       -1   -1    0    0    0  501  0.00000000000E+00  0.00000000000E+00 -0.65425276804E+03  0.65425276806E+03  0.50400001928E-02 0.  1.
    10030    2    1    2    0    0  0.00000000000E+00  0.00000000000E+00 -0.51778912029E+03  0.79071641590E+03  0.59760093481E+03 0.  0.
        3    1    3    3  502    0  0.26507215397E+03  0.52355514129E+02 -0.42770585614E+03  0.50590182471E+03  0.10100000352E+00 0.  1.
       -3    1    3    3    0  502 -0.26507215397E+03 -0.52355514129E+02 -0.90083264150E+02  0.28481459119E+03  0.10100000352E+00 0. -1.
</event>
<event>
 5   0  0.5935451E-02  0.6051349E+03  0.7818609E-02  0.9894810E-01
        2   -1    0    0  501    0  0.00000000000E+00  0.00000000000E+00  0.47404665917E+03  0.47404665918E+03  0.25500000920E-02 0.  1.
       -2   -1    0    0    0  501  0.00000000000E+00  0.00000000000E+00 -0.19311825550E+03  0.19311825552E+03  0.25500000920E-02 0. -1.
    10030    2    1    2    0    0  0.00000000000E+00  0.00000000000E+00  0.28092840367E+03  0.66716491470E+03  0.60513490679E+03 0.  0.
        3    1    3    3  502    0 -0.17166677519E+03  0.24892346581E+03  0.15227080755E+03  0.33855395813E+03  0.10100000352E+00 0. -1.
       -3    1    3    3    0  502  0.17166677519E+03 -0.24892346581E+03  0.12865759612E+03  0.32861095656E+03  0.10100000352E+00 0.  1.
</event>
<event>
 5   0  0.5872632E-02  0.6004074E+03  0.7818609E-02  0.9904561E-01
        2   -1    0    0  501    0  0.00000000000E+00  0.00000000000E+00  0.10837027935E+04  0.10837027935E+04  0.25500000920E-02 0. -1.
       -2   -1    0    0    0  501  0.00000000000E+00  0.00000000000E+00 -0.83161418285E+02  0.83161418324E+02  0.25500000920E-02 0.  1.
    10030    2    1    2    0    0  0.00000000000E+00  0.00000000000E+00  0.10005413752E+04  0.11668642119E+04  0.60040739947E+03 0.  0.
        1    1    3    3  502    0 -0.47532530905E+02  0.27522125457E+03  0.71419352870E+03  0.76686274973E+03  0.50400001928E-02 0. -1.
       -1    1    3    3    0  502  0.47532530905E+02 -0.27522125457E+03  0.28634784655E+03  0.40000146213E+03  0.50400001928E-02 0.  1.
</event>
<event>
 5   0  0.5872632E-02  0.5968799E+03  0.7818609E-02  0.9911901E-01
       -2   -1    0    0    0  501  0.00000000000E+00  0.00000000000E+00  0.10126413025E+03  0.10126413029E+03  0.25500000920E-02 0. -1.
        2   -1    0    0  501    0  0.00000000000E+00  0.00000000000E+00 -0.87954536119E+03  0.87954536119E+03  0.25500000920E-02 0.  1.
    10030    2    1    2    0    0  0.00000000000E+00  0.00000000000E+00 -0.77828123093E+03  0.98080949148E+03  0.59687987414E+03 0.  0.
        1    1    3    3  502    0 -0.85067984547E+02  0.77388477596E+02  0.63391433579E+02  0.13131645874E+03  0.50400001928E-02 0. -1.
       -1    1    3    3    0  502  0.85067984547E+02 -0.77388477596E+02 -0.84167266451E+03  0.84949303274E+03  0.50400001928E-02 0.  1.
</event>
<event>
 5   0  0.5755078E-02  0.5968712E+03  0.7818609E-02  0.9911919E-01
       -2   -1    0    0    0  501  0.00000000000E+00  0.00000000000E+00  0.49545189393E+02  0.49545189458E+02  0.25500000920E-02 0.  1.
        2   -1    0    0  501    0  0.00000000000E+00  0.00000000000E+00 -0.17976275070E+04  0.17976275071E+04  0.25500000920E-02 0. -1.
    10030    2    1    2    0    0  0.00000000000E+00  0.00000000000E+00 -0.17480823177E+04  0.18471726965E+04  0.59687115982E+03 0.  0.
        2    1    3    3  502    0  0.11670446704E+03 -0.12705655042E+03 -0.16276674965E+04  0.16367848908E+04  0.25500000920E-02 0. -1.
       -2    1    3    3    0  502 -0.11670446704E+03  0.12705655042E+03 -0.12041482120E+03  0.21038780574E+03  0.25500000920E-02 0.  1.
</event>
<event>
 5   0  0.3651984E-02  0.5971219E+03  0.7818609E-02  0.9911395E-01
       -1   -1    0    0    0  501  0.00000000000E+00  0.00000000000E+00  0.18869736892E+03  0.18869736898E+03  0.50400001928E-02 0. -1.
        1   -1    0    0  501    0  0.00000000000E+00  0.00000000000E+00 -0.47238938100E+03  0.47238938102E+03  0.50400001928E-02 0.  1.
    10030    2    1    2    0    0  0.00000000000E+00  0.00000000000E+00 -0.28369201208E+03  0.66108675001E+03  0.59712187476E+03 0.  0.
        1    1    3    3  502    0 -0.27618532777E+03 -0.54922758450E+02 -0.25169007482E+03  0.37768073615E+03  0.50400001928E-02 0. -1.
       -1    1    3    3    0  502  0.27618532777E+03  0.54922758450E+02 -0.32001937260E+02  0.28340601385E+03  0.50400001928E-02 0.  1.
</event>
<event>
 5   0  0.5872632E-02  0.6436790E+03  0.7818609E-02  0.9818713E-01
        2   -1    0    0  501    0  0.00000000000E+00  0.00000000000E+00  0.21585660220E+03  0.21585660221E+03  0.25500000920E-02 0. -1.
       -2   -1    0    0    0  501  0.00000000000E+00  0.00000000000E+00 -0.47985862622E+03  0.47985862623E+03  0.25500000920E-02 0.  1.
    10030    2    1    2    0    0  0.00000000000E+00  0.00000000000E+00 -0.26400202402E+03  0.69571522844E+03  0.64367896532E+03 0.  0.
        1    1    3    3  502    0  0.21033310335E+03  0.14963382030E+03 -0.33976559565E+03  0.42669773207E+03  0.50400001928E-02 0.  1.
       -1    1    3    3    0  502 -0.21033310335E+03 -0.14963382030E+03  0.75763571633E+02  0.26901749637E+03  0.50400001928E-02 0. -1.
</event>
<event>
 5   0  0.6007360E-02  0.6011266E+03  0.7818609E-02  0.9903071E-01
       -2   -1    0    0    0  501  0.00000000000E+00  0.00000000000E+00  0.63352097067E+03  0.63352097068E+03  0.25500000920E-02 0. -1.
        2   -1    0    0  501    0  0.00000000000E+00  0.00000000000E+00 -0.14259717492E+03  0.14259717494E+03  0.25500000920E-02 0.  1.
    10030    2    1    2    0    0  0.00000000000E+00  0.00000000000E+00  0.49092379576E+03  0.77611814562E+03  0.60112661122E+03 0.  0.
        4    1    3    3  502    0 -0.13644425771E+03 -0.22818141345E+03  0.42646046998E+03  0.50254744877E+03  0.12699999809E+01 0. -1.
       -4    1    3    3    0  502  0.13644425771E+03  0.22818141345E+03  0.64463325773E+02  0.27357069685E+03  0.12699999809E+01 0.  1.
</event>
<event>
 5   0  0.5935451E-02  0.5985258E+03  0.7818609E-02  0.9908469E-01
       -2   -1    0    0    0  501  0.00000000000E+00  0.00000000000E+00  0.63982140718E+02  0.63982140769E+02  0.25500000920E-02 0.  1.
        2   -1    0    0  501    0  0.00000000000E+00  0.00000000000E+00 -0.13997386800E+04  0.13997386800E+04  0.25500000920E-02 0. -1.
    10030    2    1    2    0    0  0.00000000000E+00  0.00000000000E+00 -0.13357565393E+04  0.14637208208E+04  0.59852577966E+03 0.  0.
        3    1    3    3  502    0 -0.20043342958E+03  0.17306314483E+03 -0.10088001469E+04  0.10429775445E+04  0.10100000352E+00 0. -1.
       -3    1    3    3    0  502  0.20043342958E+03 -0.17306314483E+03 -0.32695639242E+03  0.42074327628E+03  0.10100000352E+00 0.  1.
</event>
<event>
 5   0  0.3640827E-02  0.6016611E+03  0.7818609E-02  0.9901966E-01
       -1   -1    0    0    0  501  0.00000000000E+00  0.00000000000E+00  0.24592355394E+03  0.24592355400E+03  0.50400001928E-02 0.  1.
        1   -1    0    0  501    0  0.00000000000E+00  0.00000000000E+00 -0.36799649698E+03  0.36799649701E+03  0.50400001928E-02 0. -1.
    10030    2    1    2    0    0  0.00000000000E+00  0.00000000000E+00 -0.12207294303E+03  0.61392005101E+03  0.60166105542E+03 0.  0.
        3    1    3    3  502    0  0.21209113543E+02  0.29361376235E+03 -0.12426786921E+03  0.31953306787E+03  0.10100000352E+00 0. -1.
       -3    1    3    3    0  502 -0.21209113543E+02 -0.29361376235E+03  0.21949261759E+01  0.29438698314E+03  0.10100000352E+00 0.  1.
</event>
<event>
 5   0  0.2388000E-02  0.5886396E+03  0.7818609E-02  0.9929260E-01
       -4   -1    0    0    0  501  0.00000000000E+00  0.00000000000E+00  0.81793246935E+02  0.81803105957E+02  0.12699999809E+01 0. -1.
        4   -1    0    0  501    0  0.00000000000E+00  0.00000000000E+00 -0.10589883512E+04  0.10589891127E+04  0.12699999809E+01 0.  1.
    10030    2    1    2    0    0  0.00000000000E+00  0.00000000000E+00 -0.97719510428E+03  0.11407922187E+04  0.58863963035E+03 0.  0.
        4    1    3    3  502    0 -0.19742465477E+02  0.70698323309E+01  0.80343583496E+02  0.83044878115E+02  0.12699999809E+01 0. -1.
       -4    1    3    3    0  502  0.19742465477E+02 -0.70698323309E+01 -0.10575386878E+04  0.10577473406E+04  0.12699999809E+01 0.  1.
</event>
<event>
 5   0  0.5872632E-02  0.6649106E+03  0.7818609E-02  0.9779196E-01
       -2   -1    0    0    0  501  0.00000000000E+00  0.00000000000E+00  0.14885029607E+03  0.14885029610E+03  0.25500000920E-02 0.  1.
        2   -1    0    0  501    0  0.00000000000E+00  0.00000000000E+00 -0.74253475710E+03  0.74253475710E+03  0.25500000920E-02 0. -1.
    10030    2    1    2    0    0  0.00000000000E+00  0.00000000000E+00 -0.59368446103E+03  0.89138505320E+03  0.66491057580E+03 0.  0.
        1    1    3    3  502    0  0.13890201704E+02 -0.56713638488E+02  0.14192238780E+03  0.15346445412E+03  0.50400001928E-02 0.  1.
       -1    1    3    3    0  502 -0.13890201704E+02  0.56713638488E+02 -0.73560684882E+03  0.73792059908E+03  0.50400001928E-02 0. -1.
</event>
<event>
 5   0  0.6007360E-02  0.5957443E+03  0.7818609E-02  0.9914275E-01
       -2   -1    0    0    0  501  0.00000000000E+00  0.00000000000E+00  0.87469943811E+02  0.87469943848E+02  0.25500000920E-02 0.  1.
        2   -1    0    0  501    0  0.00000000000E+00  0.00000000000E+00 -0.10143804997E+04  0.10143804997E+04  0.25500000920E-02 0. -1.
    10030    2    1    2    0    0  0.00000000000E+00  0.00000000000E+00 -0.92691055586E+03  0.11018504435E+04  0.59574425832E+03 0.  0.
        4    1    3    3  502    0 -0.11017971304E+03 -0.59218707064E+02  0.36534776235E+02  0.13031817681E+03  0.12699999809E+01 0.  1.
       -4    1    3    3    0  502  0.11017971304E+03  0.59218707064E+02 -0.96344533210E+03  0.97153226672E+03  0.12699999809E+01 0. -1.
</event>
<event>
 5   0  0.5935451E-02  0.5998313E+03  0.7818609E-02  0.9905756E-01
        2   -1    0    0  501    0  0.00000000000E+00  0.00000000000E+00  0.76409188433E+03  0.76409188434E+03  0.25500000920E-02 0.  1.
       -2   -1    0    0    0  501  0.00000000000E+00  0.00000000000E+00 -0.11772066150E+03  0.11772066153E+03  0.25500000920E-02 0. -1.
    10030    2    1    2    0    0  0.00000000000E+00  0.00000000000E+00  0.64637122284E+03  0.88181254586E+03  0.59983131657E+03 0.  0.
        3    1    3    3  502    0  0.17655434049E+03 -0.36994759183E+02  0.67542541599E+03  0.69909909892E+03  0.10100000352E+00 0.  1.
       -3    1    3    3    0  502 -0.17655434049E+03  0.36994759183E+02 -0.29054193154E+02  0.18271344694E+03  0.10100000352E+00 0. -1.
</event>
<event>
 5   0  0.3651984E-02  0.6021822E+03  0.7818609E-02  0.9900889E-01
       -1   -1    0    0    0  501  0.00000000000E+00  0.00000000000E+00  0.73203243390E+02  0.73203243563E+02  0.50400001928E-02 0. -1.
        1   -1    0    0  501    0  0.00000000000E+00  0.00000000000E+00 -0.12384129020E+04  0.12384129020E+04  0.50400001928E-02 0.  1.
    10030    2    1    2    0    0  0.00000000000E+00  0.00000000000E+00 -0.11652096586E+04  0.13116161455E+04  0.60218216911E+03 0.  0.
        1    1    3    3  502    0  0.36416101576E+02 -0.25808429300E+02 -0.12311670175E+04  0.12319758247E+04  0.50400001928E-02 0.  1.
       -1    1    3    3    0  502 -0.36416101576E+02  0.25808429300E+02  0.65957358977E+02  0.79640320853E+02  0.50400001928E-02 0. -1.
</event>
<event>
 5   0  0.5755078E-02  0.5699942E+03  0.7818609E-02  0.9969691E-01
        2   -1    0    0  501    0  0.00000000000E+00  0.00000000000E+00  0.98292906278E+03  0.98292906278E+03  0.25500000920E-02 0.  1.
       -2   -1    0    0    0  501  0.00000000000E+00  0.00000000000E+00 -0.82633985945E+02  0.82633985984E+02  0.25500000920E-02 0. -1.
    10030    2    1    2    0    0  0.00000000000E+00  0.00000000000E+00  0.90029507683E+03  0.10655630488E+04  0.56999419780E+03 0.  0.
        2    1    3    3  502    0  0.18972519686E+03  0.20320861016E+03  0.33289466063E+03  0.43371447364E+03  0.25500000920E-02 0. -1.
       -2    1    3    3    0  502 -0.18972519686E+03 -0.20320861016E+03  0.56740041620E+03  0.63184857512E+03  0.25500000920E-02 0.  1.
</event>
<event>
 5   0  0.3478183E-02  0.6012794E+03  0.7818609E-02  0.9902755E-01
       -1   -1    0    0    0  501  0.00000000000E+00  0.00000000000E+00  0.23625963714E+03  0.23625963719E+03  0.50400001928E-02 0. -1.
        1   -1    0    0  501    0  0.00000000000E+00  0.00000000000E+00 -0.38256319364E+03  0.38256319367E+03  0.50400001928E-02 0.  1.
    10030    2    1    2    0    0  0.00000000000E+00  0.00000000000E+00 -0.14630355650E+03  0.61882283086E+03  0.60127944032E+03 0.  0.
        4    1    3    3  502    0 -0.29653331451E+03 -0.38852612820E+02 -0.41579421073E+02  0.30194700411E+03  0.12699999809E+01 0. -1.
       -4    1    3    3    0  502  0.29653331451E+03  0.38852612820E+02 -0.10472413542E+03  0.31687582675E+03  0.12699999809E+01 0.  1.
</event>
<event>
 5   0  0.3767635E-02  0.6018568E+03  0.7818609E-02  0.9901561E-01
       -1   -1    0    0    0  501  0.00000000000E+00  0.00000000000E+00  0.19447566629E+03  0.19447566635E+03  0.50400001928E-02 0. -1.
        1   -1    0    0  501    0  0.00000000000E+00  0.00000000000E+00 -0.46565151784E+03  0.46565151787E+03  0.50400001928E-02 0.  1.
    10030    2    1    2    0    0  0.00000000000E+00  0.00000000000E+00 -0.27117585155E+03  0.66012718422E+03  0.60185675778E+03 0.  0.
        2    1    3    3  502    0  0.66377604940E+02 -0.28842782225E+03 -0.75901544474E+02  0.30554482412E+03  0.25500000920E-02 0. -1.
       -2    1    3    3    0  502 -0.66377604940E+02  0.28842782225E+03 -0.19527430708E+03  0.35458236011E+03  0.25500000920E-02 0.  1.
</event>
<event>
 5   0  0.5999117E-02  0.5987485E+03  0.7818609E-02  0.9908006E-01
        2   -1    0    0  501    0  0.00000000000E+00  0.00000000000E+00  0.94209749060E+03  0.94209749061E+03  0.25500000920E-02 0. -1.
       -2   -1    0    0    0  501  0.00000000000E+00  0.00000000000E+00 -0.95133414774E+02  0.95133414808E+02  0.25500000920E-02 0.  1.
    10030    2    1    2    0    0  0.00000000000E+00  0.00000000000E+00  0.84696407583E+03  0.10372309054E+04  0.59874853269E+03 0.  0.
        5    1    3    3  502    0  0.25639138096E+02 -0.25761828145E+03  0.16318047862E+03  0.30606290683E+03  0.46999998093E+01 0.  1.
       -5    1    3    3    0  502 -0.25639138096E+02  0.25761828145E+03  0.68378359721E+03  0.73116799858E+03  0.46999998093E+01 0. -1.
</event>
<event>
 5   0  0.3651984E-02  0.5875990E+03  0.7818609E-02  0.9931474E-01
       -1   -1    0    0    0  501  0.00000000000E+00  0.00000000000E+00  0.20265398884E+03  0.20265398890E+03  0.50400001928E-02 0.  1.
        1   -1    0    0  501    0  0.00000000000E+00  0.00000000000E+00 -0.42593850165E+03  0.42593850168E+03  0.50400001928E-02 0. -1.
    10030    2    1    2    0    0  0.00000000000E+00  0.00000000000E+00 -0.22328451281E+03  0.62859249058E+03  0.58759896660E+03 0.  0.
        1    1    3    3  502    0 -0.32643469499E+02 -0.17932031335E+03 -0.35814525010E+03  0.40185742631E+03  0.50400001928E-02 0. -1.
       -1    1    3    3    0  502  0.32643469499E+02  0.17932031335E+03  0.13486073729E+03  0.22673506427E+03  0.50400001928E-02 0.  1.
</event>
<event>
 5   0  0.6007360E-02  0.5948445E+03  0.7818609E-02  0.9916160E-01
        2   -1    0    0  501    0  0.00000000000E+00  0.00000000000E+00  0.73468950816E+03  0.73468950816E+03  0.25500000920E-02 0. -1.
       -2   -1    0    0    0  501  0.00000000000E+00  0.00000000000E+00 -0.12040459425E+03  0.12040459428E+03  0.25500000920E-02 0.  1.
    10030    2    1    2    0    0  0.00000000000E+00  0.00000000000E+00  0.61428491391E+03  0.85509410244E+03  0.59484449108E+03 0.  0.
        4    1    3    3  502    0 -0.20715943665E+03  0.11344911134E+03  0.47304482470E+02  0.24088391399E+03  0.12699999809E+01 0.  1.
       -4    1    3    3    0  502  0.20715943665E+03 -0.11344911134E+03  0.56698043144E+03  0.61421018845E+03  0.12699999809E+01 0. -1.
</event>
<event>
 5   0  0.3703280E-02  0.5994959E+03  0.7818609E-02  0.9906452E-01
       -1   -1    0    0    0  501  0.00000000000E+00  0.00000000000E+00  0.83810247473E+02  0.83810247625E+02  0.50400001928E-02 0.  1.
        1   -1    0    0  501    0  0.00000000000E+00  0.00000000000E+00 -0.10720506915E+04  0.10720506915E+04  0.50400001928E-02 0. -1.
    10030    2    1    2    0    0  0.00000000000E+00  0.00000000000E+00 -0.98824044403E+03  0.11558609391E+04  0.59949590108E+03 0.  0.
        5    1    3    3  502    0 -0.18763403423E+03 -0.11862754544E+03 -0.10587816354E+03  0.24599044870E+03  0.46999998093E+01 0.  1.
       -5    1    3    3    0  502  0.18763403423E+03  0.11862754544E+03 -0.88236228049E+03  0.90987049044E+03  0.46999998093E+01 0. -1.
</event>
<event>
 5   0  0.5935451E-02  0.6160361E+03  0.7818609E-02  0.9872684E-01
        2   -1    0    0  501    0  0.00000000000E+00  0.00000000000E+00  0.30782930702E+03  0.30782930703E+03  0.25500000920E-02 0. -1.
       -2   -1    0    0    0  501  0.00000000000E+00  0.00000000000E+00 -0.30820691852E+03  0.30820691853E+03  0.25500000920E-02 0.  1.
    10030    2    1    2    0    0  0.00000000000E+00  0.00000000000E+00 -0.37761150511E+00  0.61603622556E+03  0.61603610982E+03 0.  0.
        3    1    3    3  502    0 -0.25811655932E+02  0.28034023697E+03 -0.12516171390E+03  0.30809471738E+03  0.10100000352E+00 0.  1.
       -3    1    3    3    0  502  0.25811655932E+02 -0.28034023697E+03  0.12478410240E+03  0.30794150818E+03  0.10100000352E+00 0. -1.
</event>
<event>
 5   0  0.5935451E-02  0.6011038E+03  0.7818609E-02  0.9903119E-01
       -2   -1    0    0    0  501  0.00000000000E+00  0.00000000000E+00  0.10200730336E+03  0.10200730340E+03  0.25500000920E-02 0. -1.
        2   -1    0    0  501    0  0.00000000000E+00  0.00000000000E+00 -0.88553910766E+03  0.88553910766E+03  0.25500000920E-02 0.  1.
    10030    2    1    2    0    0  0.00000000000E+00  0.00000000000E+00 -0.78353180430E+03  0.98754641106E+03  0.60110383932E+03 0.  0.
        3    1    3    3  502    0  0.70214435649E+01 -0.86547088788E+02 -0.86448324571E+03  0.86883312066E+03  0.10100000352E+00 0.  1.
       -3    1    3    3    0  502 -0.70214435649E+01  0.86547088788E+02  0.80951441416E+02  0.11871329039E+03  0.10100000352E+00 0. -1.
</event>
<event>
 5   0  0.3640827E-02  0.5861911E+03  0.7818609E-02  0.9934477E-01
       -1   -1    0    0    0  501  0.00000000000E+00  0.00000000000E+00  0.42125980313E+03  0.42125980316E+03  0.50400001928E-02 0.  1.
        1   -1    0    0  501    0  0.00000000000E+00  0.00000000000E+00 -0.20392402203E+03  0.20392402209E+03  0.50400001928E-02 0. -1.
    10030    2    1    2    0    0  0.00000000000E+00  0.00000000000E+00  0.21733578110E+03  0.62518382525E+03  0.58619107261E+03 0.  0.
        3    1    3    3  502    0 -0.12891092197E+03 -0.11043248375E+03 -0.14616456058E+03  0.22400323266E+03  0.10100000352E+00 0. -1.
       -3    1    3    3    0  502  0.12891092197E+03  0.11043248375E+03  0.36350034168E+03  0.40118059260E+03  0.10100000352E+00 0.  1.
</event>
<event>
 5   0  0.5755078E-02  0.5968418E+03  0.7818609E-02  0.9911980E-01
        2   -1    0    0  501    0  0.00000000000E+00  0.00000000000E+00  0.84574191354E+03  0.84574191355E+03  0.25500000920E-02 0. -1.
       -2   -1    0    0    0  501  0.00000000000E+00  0.00000000000E+00 -0.10529813175E+03  0.10529813178E+03  0.25500000920E-02 0.  1.
    10030    2    1    2    0    0  0.00000000000E+00  0.00000000000E+00  0.74044378180E+03  0.95104004532E+03  0.59684183316E+03 0.  0.
        2    1    3    3  502    0  0.23465240469E+03  0.72149893989E+02  0.99861590016E+02  0.26502772571E+03  0.25500000920E-02 0.  1.
       -2    1    3    3    0  502 -0.23465240469E+03 -0.72149893989E+02  0.64058219178E+03  0.68601231961E+03  0.25500000920E-02 0. -1.
</event>
<event>
 5   0  0.6007360E-02  0.6042980E+03  0.7818609E-02  0.9896529E-01
        2   -1    0    0  501    0  0.00000000000E+00  0.00000000000E+00  0.26529933895E+04  0.26529933895E+04  0.25500000920E-02 0. -1.
       -2   -1    0    0    0  501  0.00000000000E+00  0.00000000000E+00 -0.34411698461E+02  0.34411698556E+02  0.25500000920E-02 0.  1.
    10030    2    1    2    0    0  0.00000000000E+00  0.00000000000E+00  0.26185816911E+04  0.26874050881E+04  0.60429796845E+03 0.  0.
        4    1    3    3  502    0 -0.15672531899E+03  0.12815227663E+03  0.23067481826E+04  0.23156153874E+04  0.12699999809E+01 0. -1.
       -4    1    3    3    0  502  0.15672531899E+03 -0.12815227663E+03  0.31183350846E+03  0.37178970066E+03  0.12699999809E+01 0.  1.
</event>
<event>
 5   0  0.6007360E-02  0.5978846E+03  0.7818609E-02  0.9909805E-01
        2   -1    0    0  501    0  0.00000000000E+00  0.00000000000E+00  0.88608549315E+03  0.88608549315E+03  0.25500000920E-02 0. -1.
       -2   -1    0    0    0  501  0.00000000000E+00  0.00000000000E+00 -0.10085537636E+03  0.10085537639E+03  0.25500000920E-02 0.  1.
    10030    2    1    2    0    0  0.00000000000E+00  0.00000000000E+00  0.78523011679E+03  0.98694086954E+03  0.59788455713E+03 0.  0.
        4    1    3    3  502    0  0.26860351093E+00 -0.28187701692E+03  0.55694392961E+03  0.62421380828E+03  0.12699999809E+01 0.  1.
       -4    1    3    3    0  502 -0.26860351093E+00  0.28187701692E+03  0.22828618718E+03  0.36272706126E+03  0.12699999809E+01 0. -1.
</event>
<event>
 5   0  0.3767635E-02  0.5954034E+03  0.7818609E-02  0.9914989E-01
        1   -1    0    0  501    0  0.00000000000E+00  0.00000000000E+00  0.51833125280E+03  0.51833125282E+03  0.50400001928E-02 0. -1.
       -1   -1    0    0    0  501  0.00000000000E+00  0.00000000000E+00 -0.17098389822E+03  0.17098389829E+03  0.50400001928E-02 0.  1.
    10030    2    1    2    0    0  0.00000000000E+00  0.00000000000E+00  0.34734735458E+03  0.68931515111E+03  0.59540338664E+03 0.  0.
        2    1    3    3  502    0 -0.16430881616E+03 -0.18126916207E+03 -0.22698289110E+02  0.24570532863E+03  0.25500000920E-02 0.  1.
       -2    1    3    3    0  502  0.16430881616E+03  0.18126916207E+03  0.37004564369E+03  0.44360982248E+03  0.25500000920E-02 0. -1.
</event>
<event>
 5   0  0.3640827E-02  0.5985388E+03  0.7818609E-02  0.9908442E-01
        1   -1    0    0  501    0  0.00000000000E+00  0.00000000000E+00  0.27303145407E+03  0.27303145412E+03  0.50400001928E-02 0.  1.
       -1   -1    0    0    0  501  0.00000000000E+00  0.00000000000E+00 -0.32802882198E+03  0.32802882202E+03  0.50400001928E-02 0. -1.
    10030    2    1    2    0    0  0.00000000000E+00  0.00000000000E+00 -0.54997367909E+02  0.60106027614E+03  0.59853884174E+03 0.  0.
        3    1    3    3  502    0  0.61539838767E+02  0.44538293522E+02  0.26318812179E+03  0.27393212480E+03  0.10100000352E+00 0.  1.
       -3    1    3    3    0  502 -0.61539838767E+02 -0.44538293522E+02 -0.31818548970E+03  0.32712815134E+03  0.10100000352E+00 0. -1.
</event>
<event>
 5   0  0.3651984E-02  0.5950504E+03  0.7818609E-02  0.9915728E-01
       -1   -1    0    0    0  501  0.00000000000E+00  0.00000000000E+00  0.13557169373E+03  0.13557169383E+03  0.50400001928E-02 0. -1.
        1   -1    0    0  501    0  0.00000000000E+00  0.00000000000E+00 -0.65294784818E+03  0.65294784820E+03  0.50400001928E-02 0.  1.
    10030    2    1    2    0    0  0.00000000000E+00  0.00000000000E+00 -0.51737615445E+03  0.78851954203E+03  0.59505040372E+03 0.  0.
        1    1    3    3  502    0 -0.17748286873E+03  0.23800167887E+03 -0.23298334691E+03  0.37739396894E+03  0.50400001928E-02 0. -1.
       -1    1    3    3    0  502  0.17748286873E+03 -0.23800167887E+03 -0.28439280754E+03  0.41112557308E+03  0.50400001928E-02 0.  1.
</event>
<event>
 5   0  0.3767635E-02  0.5955603E+03  0.7818609E-02  0.9914660E-01
        1   -1    0    0  501    0  0.00000000000E+00  0.00000000000E+00  0.56999173833E+03  0.56999173835E+03  0.50400001928E-02 0. -1.
       -1   -1    0    0    0  501  0.00000000000E+00  0.00000000000E+00 -0.15556897774E+03  0.15556897783E+03  0.50400001928E-02 0.  1.
    10030    2    1    2    0    0  0.00000000000E+00  0.00000000000E+00  0.41442276059E+03  0.72556071618E+03  0.59556034822E+03 0.  0.
        2    1    3    3  502    0  0.21496612200E+03 -0.41568637856E+02  0.45309520689E+03  0.50322326236E+03  0.25500000920E-02 0. -1.
       -2    1    3    3    0  502 -0.21496612200E+03  0.41568637856E+02 -0.38672446307E+02  0.22233745382E+03  0.25500000920E-02 0.  1.
</event>
<event>
 5   0  0.3651984E-02  0.5948028E+03  0.7818609E-02  0.9916248E-01
       -1   -1    0    0    0  501  0.00000000000E+00  0.00000000000E+00  0.13487296764E+03  0.13487296774E+03  0.50400001928E-02 0.  1.
        1   -1    0    0  501    0  0.00000000000E+00  0.00000000000E+00 -0.65578447349E+03  0.65578447351E+03  0.50400001928E-02 0. -1.
    10030    2    1    2    0    0  0.00000000000E+00  0.00000000000E+00 -0.52091150585E+03  0.79065744125E+03  0.59480281815E+03 0.  0.
        1    1    3    3  502    0 -0.14058764910E+03 -0.17144105181E+03 -0.52394330328E+03  0.56892311115E+03  0.50400001928E-02 0. -1.
       -1    1    3    3    0  502  0.14058764910E+03  0.17144105181E+03  0.30317974269E+01  0.22173433010E+03  0.50400001928E-02 0.  1.
</event>
<event>
 5   0  0.5755078E-02  0.6076856E+03  0.7818609E-02  0.9889588E-01
        2   -1    0    0  501    0  0.00000000000E+00  0.00000000000E+00  0.51138204272E+03  0.51138204273E+03  0.25500000920E-02 0. -1.
       -2   -1    0    0    0  501  0.00000000000E+00  0.00000000000E+00 -0.18053127697E+03  0.18053127699E+03  0.25500000920E-02 0.  1.
    10030    2    1    2    0    0  0.00000000000E+00  0.00000000000E+00  0.33085076575E+03  0.69191331972E+03  0.60768562004E+03 0.  0.
        2    1    3    3  502    0  0.13419152626E+03  0.79177987401E+02  0.46243289791E+03  0.48797613106E+03  0.25500000920E-02 0. -1.
       -2    1    3    3    0  502 -0.13419152626E+03 -0.79177987401E+02 -0.13158213216E+03  0.20393718866E+03  0.25500000920E-02 0.  1.
</event>
<event>
 5   0  0.3478183E-02  0.5964460E+03  0.7818609E-02  0.9912807E-01
       -1   -1    0    0    0  501  0.00000000000E+00  0.00000000000E+00  0.23732176701E+03  0.23732176707E+03  0.50400001928E-02 0.  1.
        1   -1    0    0  501    0  0.00000000000E+00  0.00000000000E+00 -0.37475260730E+03  0.37475260733E+03  0.50400001928E-02 0. -1.
    10030    2    1    2    0    0  0.00000000000E+00  0.00000000000E+00 -0.13743084029E+03  0.61207437440E+03  0.59644597738E+03 0.  0.
        4    1    3    3  502    0  0.31270278676E+02 -0.52494627116E+02 -0.36825728149E+03  0.37329419293E+03  0.12699999809E+01 0. -1.
       -4    1    3    3    0  502 -0.31270278676E+02  0.52494627116E+02  0.23082644120E+03  0.23878018147E+03  0.12699999809E+01 0.  1.
</event>
<event>
 5   0  0.5755078E-02  0.5973605E+03  0.7818609E-02  0.9910897E-01
        2   -1    0    0  501    0  0.00000000000E+00  0.00000000000E+00  0.13161387828E+04  0.13161387828E+04  0.25500000920E-02 0.  1.
       -2   -1    0    0    0  501  0.00000000000E+00  0.00000000000E+00 -0.67781513025E+02  0.67781513073E+02  0.25500000920E-02 0. -1.
    10030    2    1    2    0    0  0.00000000000E+00  0.00000000000E+00  0.12483572698E+04  0.13839202959E+04  0.59736045429E+03 0.  0.
        2    1    3    3  502    0  0.21127204272E+03  0.20634236202E+03  0.52065361113E+03  0.59857600118E+03  0.25500000920E-02 0. -1.
       -2    1    3    3    0  502 -0.21127204272E+03 -0.20634236202E+03  0.72770365867E+03  0.78534429472E+03  0.25500000920E-02 0.  1.
</event>
<event>
 5   0  0.3478183E-02  0.6042018E+03  0.7818609E-02  0.9896727E-01
        1   -1    0    0  501    0  0.00000000000E+00  0.00000000000E+00  0.10206872254E+04  0.10206872254E+04  0.50400001928E-02 0.  1.
       -1   -1    0    0    0  501  0.00000000000E+00  0.00000000000E+00 -0.89415211325E+02  0.89415211467E+02  0.50400001928E-02 0. -1.
    10030    2    1    2    0    0  0.00000000000E+00  0.00000000000E+00  0.93127201405E+03  0.11101024369E+04  0.60420183396E+03 0.  0.
        4    1    3    3  502    0 -0.23770750181E+03 -0.42623255499E+02  0.79910416369E+03  0.83479978177E+03  0.12699999809E+01 0.  1.
       -4    1    3    3    0  502  0.23770750181E+03  0.42623255499E+02  0.13216785036E+03  0.27530265508E+03  0.12699999809E+01 0. -1.
</event>
<event>
 5   0  0.3640827E-02  0.5981387E+03  0.7818609E-02  0.9909275E-01
        1   -1    0    0  501    0  0.00000000000E+00  0.00000000000E+00  0.19528964971E+03  0.19528964977E+03  0.50400001928E-02 0. -1.
       -1   -1    0    0    0  501  0.00000000000E+00  0.00000000000E+00 -0.45799898866E+03  0.45799898869E+03  0.50400001928E-02 0.  1.
    10030    2    1    2    0    0  0.00000000000E+00  0.00000000000E+00 -0.26270933896E+03  0.65328863846E+03  0.59813865313E+03 0.  0.
        3    1    3    3  502    0  0.17272652367E+03  0.46994543828E+02 -0.39302672130E+03  0.43187145424E+03  0.10100000352E+00 0.  1.
       -3    1    3    3    0  502 -0.17272652367E+03 -0.46994543828E+02  0.13031738234E+03  0.22141718423E+03  0.10100000352E+00 0. -1.
</event>
<event>
 5   0  0.5755078E-02  0.6008941E+03  0.7818609E-02  0.9903553E-01
       -2   -1    0    0    0  501  0.00000000000E+00  0.00000000000E+00  0.22416482220E+03  0.22416482221E+03  0.25500000920E-02 0. -1.
        2   -1    0    0  501    0  0.00000000000E+00  0.00000000000E+00 -0.40268779926E+03  0.40268779927E+03  0.25500000920E-02 0.  1.
    10030    2    1    2    0    0  0.00000000000E+00  0.00000000000E+00 -0.17852297706E+03  0.62685262148E+03  0.60089413021E+03 0.  0.
        2    1    3    3  502    0  0.23162157230E+03  0.17769205697E+03 -0.15161847109E+02  0.29232328248E+03  0.25500000920E-02 0.  1.
       -2    1    3    3    0  502 -0.23162157230E+03 -0.17769205697E+03 -0.16336112995E+03  0.33452933900E+03  0.25500000920E-02 0. -1.
</event>
<event>
 5   0  0.5872632E-02  0.5995016E+03  0.7818609E-02  0.9906441E-01
       -2   -1    0    0    0  501  0.00000000000E+00  0.00000000000E+00  0.32467382157E+03  0.32467382158E+03  0.25500000920E-02 0. -1.
        2   -1    0    0  501    0  0.00000000000E+00  0.00000000000E+00 -0.27674091230E+03  0.27674091232E+03  0.25500000920E-02 0.  1.
    10030    2    1    2    0    0  0.00000000000E+00  0.00000000000E+00  0.47932909263E+02  0.60141473389E+03  0.59950155826E+03 0.  0.
        1    1    3    3  502    0  0.90105222945E+02 -0.26952441758E+03  0.11960256164E+03  0.30832958932E+03  0.50400001928E-02 0. -1.
       -1    1    3    3    0  502 -0.90105222945E+02  0.26952441758E+03 -0.71669652375E+02  0.29308514457E+03  0.50400001928E-02 0.  1.
</event>
<event>
 5   0  0.5999117E-02  0.5982511E+03  0.7818609E-02  0.9909041E-01
       -2   -1    0    0    0  501  0.00000000000E+00  0.00000000000E+00  0.45548812715E+03  0.45548812715E+03  0.25500000920E-02 0. -1.
        2   -1    0    0  501    0  0.00000000000E+00  0.00000000000E+00 -0.19644003457E+03  0.19644003459E+03  0.25500000920E-02 0.  1.
    10030    2    1    2    0    0  0.00000000000E+00  0.00000000000E+00  0.25904809258E+03  0.65192816174E+03  0.59825112938E+03 0.  0.
        5    1    3    3  502    0  0.18809643578E+03  0.22669445486E+03  0.73075031271E+02  0.30353368052E+03  0.46999998093E+01 0.  1.
       -5    1    3    3    0  502 -0.18809643578E+03 -0.22669445486E+03  0.18597306131E+03  0.34839448122E+03  0.46999998093E+01 0. -1.
</event>
<event>
 5   0  0.3478183E-02  0.5895661E+03  0.7818609E-02  0.9927293E-01
        1   -1    0    0  501    0  0.00000000000E+00  0.00000000000E+00  0.23515635517E+03  0.23515635522E+03  0.50400001928E-02 0.  1.
       -1   -1    0    0    0  501  0.00000000000E+00  0.00000000000E+00 -0.36952875237E+03  0.36952875241E+03  0.50400001928E-02 0. -1.
    10030    2    1    2    0    0  0.00000000000E+00  0.00000000000E+00 -0.13437239721E+03  0.60468510763E+03  0.58956605928E+03 0.  0.
        4    1    3    3  502    0 -0.27793644708E+03 -0.69917337628E+02  0.35633337699E+01  0.28662067784E+03  0.12699999809E+01 0. -1.
       -4    1    3    3    0  502  0.27793644708E+03  0.69917337628E+02 -0.13793573098E+03  0.31806442979E+03  0.12699999809E+01 0.  1.
</event>
<event>
 5   0  0.3651984E-02  0.6034554E+03  0.7818609E-02  0.9898263E-01
       -1   -1    0    0    0  501  0.00000000000E+00  0.00000000000E+00  0.14311648951E+03  0.14311648960E+03  0.50400001928E-02 0. -1.
        1   -1    0    0  501    0  0.00000000000E+00  0.00000000000E+00 -0.63612246397E+03  0.63612246399E+03  0.50400001928E-02 0.  1.
    10030    2    1    2    0    0  0.00000000000E+00  0.00000000000E+00 -0.49300597445E+03  0.77923895359E+03  0.60345542996E+03 0.  0.
        1    1    3    3  502    0 -0.52417634688E+01 -0.13922347567E+03 -0.59209984325E+03  0.60827039765E+03  0.50400001928E-02 0.  1.
       -1    1    3    3    0  502  0.52417634688E+01  0.13922347567E+03  0.99093868794E+02  0.17096855594E+03  0.50400001928E-02 0. -1.
</event>
<event>
 5   0  0.3640827E-02  0.6063982E+03  0.7818609E-02  0.9892220E-01
        1   -1    0    0  501    0  0.00000000000E+00  0.00000000000E+00  0.13975110748E+04  0.13975110748E+04  0.50400001928E-02 0. -1.
       -1   -1    0    0    0  501  0.00000000000E+00  0.00000000000E+00 -0.65781011731E+02  0.65781011924E+02  0.50400001928E-02 0.  1.
    10030    2    1    2    0    0  0.00000000000E+00  0.00000000000E+00  0.13317300631E+04  0.14632920867E+04  0.60639819443E+03 0.  0.
        3    1    3    3  502    0  0.12467468452E+03 -0.92340298739E+01 -0.69183925713E+00  0.12501813112E+03  0.10100000352E+00 0.  1.
       -3    1    3    3    0  502 -0.12467468452E+03  0.92340298739E+01  0.13324219023E+04  0.13382739556E+04  0.10100000352E+00 0. -1.
</event>
<event>
 5   0  0.5935451E-02  0.5957262E+03  0.7818609E-02  0.9914313E-01
        2   -1    0    0  501    0  0.00000000000E+00  0.00000000000E+00  0.84546557281E+03  0.84546557281E+03  0.25500000920E-02 0. -1.
       -2   -1    0    0    0  501  0.00000000000E+00  0.00000000000E+00 -0.10493911815E+03  0.10493911818E+03  0.25500000920E-02 0.  1.
    10030    2    1    2    0    0  0.00000000000E+00  0.00000000000E+00  0.74052645465E+03  0.95040469100E+03  0.59572615070E+03 0.  0.
        3    1    3    3  502    0  0.27450440677E+02 -0.11934603074E+03  0.80344529934E+03  0.81272465263E+03  0.10100000352E+00 0. -1.
       -3    1    3    3    0  502 -0.27450440677E+02  0.11934603074E+03 -0.62918844690E+02  0.13768003837E+03  0.10100000352E+00 0.  1.
</event>
<event>
 5   0  0.5755078E-02  0.5967296E+03  0.7818609E-02  0.9912214E-01
        2   -1    0    0  501    0  0.00000000000E+00  0.00000000000E+00  0.21708592952E+03  0.21708592953E+03  0.25500000920E-02 0.  1.
       -2   -1    0    0    0  501  0.00000000000E+00  0.00000000000E+00 -0.41007514931E+03  0.41007514932E+03  0.25500000920E-02 0. -1.
    10030    2    1    2    0    0  0.00000000000E+00  0.00000000000E+00 -0.19298921979E+03  0.62716107886E+03  0.59672957014E+03 0.  0.
        2    1    3    3  502    0  0.16610287236E+03 -0.23796107294E+03 -0.16935463040E+03  0.33600093346E+03  0.25500000920E-02 0.  1.
       -2    1    3    3    0  502 -0.16610287236E+03  0.23796107294E+03 -0.23634589399E+02  0.29116014539E+03  0.25500000920E-02 0. -1.
</event>
<event>
 5   0  0.2388000E-02  0.6040115E+03  0.7818609E-02  0.9897118E-01
        4   -1    0    0  501    0  0.00000000000E+00  0.00000000000E+00  0.54946912218E+03  0.54947058987E+03  0.12699999809E+01 0.  1.
       -4   -1    0    0    0  501  0.00000000000E+00  0.00000000000E+00 -0.16598788870E+03  0.16599274712E+03  0.12699999809E+01 0. -1.
    10030    2    1    2    0    0  0.00000000000E+00  0.00000000000E+00  0.38348123348E+03  0.71546333698E+03  0.60401153146E+03 0.  0.
        4    1    3    3  502    0 -0.29699702322E+03 -0.52754601210E+02  0.20913288971E+03  0.36705375384E+03  0.12699999809E+01 0. -1.
       -4    1    3    3    0  502  0.29699702322E+03  0.52754601210E+02  0.17434834377E+03  0.34840958314E+03  0.12699999809E+01 0.  1.
</event>
<event>
 5   0  0.2388000E-02  0.6044670E+03  0.7818609E-02  0.9896182E-01
        4   -1    0    0  501    0  0.00000000000E+00  0.00000000000E+00  0.32891611714E+03  0.32891856897E+03  0.12699999809E+01 0.  1.
       -4   -1    0    0    0  501  0.00000000000E+00  0.00000000000E+00 -0.27771049393E+03  0.27771339784E+03  0.12699999809E+01 0. -1.
    10030    2    1    2    0    0  0.00000000000E+00  0.00000000000E+00  0.51205623209E+02  0.60663196681E+03  0.60446697785E+03 0.  0.
        5    1    3    3  502    0 -0.11837629087E+03 -0.17015477563E+03 -0.19508796024E+03  0.28468754124E+03  0.46999998093E+01 0. -1.
       -5    1    3    3    0  502  0.11837629087E+03  0.17015477563E+03  0.24629358345E+03  0.32194442557E+03  0.46999998093E+01 0.  1.
</event>
<event>
 5   0  0.6007360E-02  0.5987102E+03  0.7818609E-02  0.9908086E-01
       -2   -1    0    0    0  501  0.00000000000E+00  0.00000000000E+00  0.71886587884E+03  0.71886587884E+03  0.25500000920E-02 0.  1.
        2   -1    0    0  501    0  0.00000000000E+00  0.00000000000E+00 -0.12465951281E+03  0.12465951284E+03  0.25500000920E-02 0. -1.
    10030    2    1    2    0    0  0.00000000000E+00  0.00000000000E+00  0.59420636602E+03  0.84352539168E+03  0.59871018113E+03 0.  0.
        4    1    3    3  502    0 -0.11060785226E+03 -0.19598236921E+03  0.57522772679E+03  0.61768255325E+03  0.12699999809E+01 0.  1.
       -4    1    3    3    0  502  0.11060785226E+03  0.19598236921E+03  0.18978639235E+02  0.22584283843E+03  0.12699999809E+01 0. -1.
</event>
<event>
 5   0  0.3640827E-02  0.5958807E+03  0.7818609E-02  0.9913989E-01
       -1   -1    0    0    0  501  0.00000000000E+00  0.00000000000E+00  0.31239189782E+03  0.31239189786E+03  0.50400001928E-02 0.  1.
        1   -1    0    0  501    0  0.00000000000E+00  0.00000000000E+00 -0.28415733707E+03  0.28415733712E+03  0.50400001928E-02 0. -1.
    10030    2    1    2    0    0  0.00000000000E+00  0.00000000000E+00  0.28234560747E+02  0.59654923498E+03  0.59588069220E+03 0.  0.
        3    1    3    3  502    0 -0.14072955800E+03  0.20553555863E+03  0.17775942851E+03  0.30601976894E+03  0.10100000352E+00 0.  1.
       -3    1    3    3    0  502  0.14072955800E+03 -0.20553555863E+03 -0.14952486777E+03  0.29052946604E+03  0.10100000352E+00 0. -1.
</event>
<event>
 5   0  0.5872632E-02  0.5885794E+03  0.7818609E-02  0.9929388E-01
       -2   -1    0    0    0  501  0.00000000000E+00  0.00000000000E+00  0.10151199359E+03  0.10151199363E+03  0.25500000920E-02 0.  1.
        2   -1    0    0  501    0  0.00000000000E+00  0.00000000000E+00 -0.85316435062E+03  0.85316435062E+03  0.25500000920E-02 0. -1.
    10030    2    1    2    0    0  0.00000000000E+00  0.00000000000E+00 -0.75165235702E+03  0.95467634425E+03  0.58857935442E+03 0.  0.
        1    1    3    3  502    0  0.13589393021E+03  0.19759656044E+03 -0.65249436389E+03  0.69516937210E+03  0.50400001928E-02 0. -1.
       -1    1    3    3    0  502 -0.13589393021E+03 -0.19759656044E+03 -0.99157993131E+02  0.25950697215E+03  0.50400001928E-02 0.  1.
</event>
<event>
 5   0  0.2388000E-02  0.5918004E+03  0.7818609E-02  0.9922565E-01
        4   -1    0    0  501    0  0.00000000000E+00  0.00000000000E+00  0.19760763517E+03  0.19761171620E+03  0.12699999809E+01 0. -1.
       -4   -1    0    0    0  501  0.00000000000E+00  0.00000000000E+00 -0.44307525142E+03  0.44307707154E+03  0.12699999809E+01 0.  1.
    10030    2    1    2    0    0  0.00000000000E+00  0.00000000000E+00 -0.24546761625E+03  0.64068878774E+03  0.59180044956E+03 0.  0.
        1    1    3    3  502    0 -0.13979048044E+03  0.31869105073E+02  0.15749255499E+03  0.21298103949E+03  0.50400001928E-02 0. -1.
       -1    1    3    3    0  502  0.13979048044E+03 -0.31869105073E+02 -0.40296017123E+03  0.42770774824E+03  0.50400001928E-02 0.  1.
</event>
<event>
 5   0  0.3767635E-02  0.5938432E+03  0.7818609E-02  0.9918262E-01
        1   -1    0    0  501    0  0.00000000000E+00  0.00000000000E+00  0.24972675215E+03  0.24972675220E+03  0.50400001928E-02 0. -1.
       -1   -1    0    0    0  501  0.00000000000E+00  0.00000000000E+00 -0.35303558909E+03  0.35303558913E+03  0.50400001928E-02 0.  1.
    10030    2    1    2    0    0  0.00000000000E+00  0.00000000000E+00 -0.10330883694E+03  0.60276234133E+03  0.59384318160E+03 0.  0.
        2    1    3    3  502    0 -0.93264480490E+02 -0.28177838126E+03 -0.59844788896E+02  0.30278493726E+03  0.25500000920E-02 0.  1.
       -2    1    3    3    0  502  0.93264480490E+02  0.28177838126E+03 -0.43464048048E+02  0.29997740406E+03  0.25500000920E-02 0. -1.
</event>
<event>
 5   0  0.6007360E-02  0.6026192E+03  0.7818609E-02  0.9899987E-01
       -2   -1    0    0    0  501  0.00000000000E+00  0.00000000000E+00  0.55116984353E+02  0.55116984412E+02  0.25500000920E-02 0.  1.
        2   -1    0    0  501    0  0.00000000000E+00  0.00000000000E+00 -0.16471775974E+04  0.16471775974E+04  0.25500000920E-02 0. -1.
    10030    2    1    2    0    0  0.00000000000E+00  0.00000000000E+00 -0.15920606130E+04  0.17022945818E+04  0.60261915639E+03 0.  0.
        4    1    3    3  502    0  0.22343141847E+03 -0.65128135851E+01 -0.22529066614E+03  0.31736652730E+03  0.12699999809E+01 0.  1.
       -4    1    3    3    0  502 -0.22343141847E+03  0.65128135851E+01 -0.13667699469E+04  0.13849280545E+04  0.12699999809E+01 0. -1.
</event>
<event>
 5   0  0.5755078E-02  0.6105017E+03  0.7818609E-02  0.9883855E-01
       -2   -1    0    0    0  501  0.00000000000E+00  0.00000000000E+00  0.50235201004E+02  0.50235201069E+02  0.25500000920E-02 0.  1.
        2   -1    0    0  501    0  0.00000000000E+00  0.00000000000E+00 -0.18548366045E+04  0.18548366045E+04  0.25500000920E-02 0. -1.
    10030    2    1    2    0    0  0.00000000000E+00  0.00000000000E+00 -0.18046014035E+04  0.19050718056E+04  0.61050172717E+03 0.  0.
        2    1    3    3  502    0  0.87385814596E+02 -0.25428437059E+03 -0.45137718404E+03  0.52539336120E+03  0.25500000920E-02 0.  1.
       -2    1    3    3    0  502 -0.87385814596E+02  0.25428437059E+03 -0.13532242195E+04  0.13796784444E+04  0.25500000920E-02 0. -1.
</event>
<event>
 5   0  0.3703280E-02  0.5993538E+03  0.7818609E-02  0.9906748E-01
       -1   -1    0    0    0  501  0.00000000000E+00  0.00000000000E+00  0.92693153874E+02  0.92693154011E+02  0.50400001928E-02 0.  1.
        1   -1    0    0  501    0  0.00000000000E+00  0.00000000000E+00 -0.96885536331E+03  0.96885536332E+03  0.50400001928E-02 0. -1.
    10030    2    1    2    0    0  0.00000000000E+00  0.00000000000E+00 -0.87616220944E+03  0.10615485173E+04  0.59935384992E+03 0.  0.
        5    1    3    3  502    0 -0.17918704782E+03 -0.89412553640E+02 -0.43301971419E+02  0.20493841412E+03  0.46999998093E+01 0.  1.
       -5    1    3    3    0  502  0.17918704782E+03  0.89412553640E+02 -0.83286023802E+03  0.85661010321E+03  0.46999998093E+01 0. -1.
</event>
<event>
 5   0  0.5999117E-02  0.5992065E+03  0.7818609E-02  0.9907054E-01
        2   -1    0    0  501    0  0.00000000000E+00  0.00000000000E+00  0.10730329604E+04  0.10730329604E+04  0.25500000920E-02 0. -1.
       -2   -1    0    0    0  501  0.00000000000E+00  0.00000000000E+00 -0.83652713451E+02  0.83652713489E+02  0.25500000920E-02 0.  1.
    10030    2    1    2    0    0  0.00000000000E+00  0.00000000000E+00  0.98938024698E+03  0.11566856739E+04  0.59920653797E+03 0.  0.
        5    1    3    3  502    0 -0.73469930420E+00  0.39631949974E+02 -0.78496797787E+02  0.88062866764E+02  0.46999998093E+01 0.  1.
       -5    1    3    3    0  502  0.73469930420E+00 -0.39631949974E+02  0.10678770448E+04  0.10686228072E+04  0.46999998093E+01 0. -1.
</event>
<event>
 5   0  0.5755078E-02  0.6317555E+03  0.7818609E-02  0.9841629E-01
        2   -1    0    0  501    0  0.00000000000E+00  0.00000000000E+00  0.69545118058E+03  0.69545118058E+03  0.25500000920E-02 0. -1.
       -2   -1    0    0    0  501  0.00000000000E+00  0.00000000000E+00 -0.14347341049E+03  0.14347341052E+03  0.25500000920E-02 0.  1.
    10030    2    1    2    0    0  0.00000000000E+00  0.00000000000E+00  0.55197777009E+03  0.83892459110E+03  0.63175549929E+03 0.  0.
        2    1    3    3  502    0 -0.15158369416E+03  0.35931874101E+02 -0.88913107500E+02  0.17937183893E+03  0.25500000920E-02 0.  1.
       -2    1    3    3    0  502  0.15158369416E+03 -0.35931874101E+02  0.64089087758E+03  0.65955275216E+03  0.25500000920E-02 0. -1.
</event>
<event>
 5   0  0.5999117E-02  0.6070874E+03  0.7818609E-02  0.9890810E-01
       -2   -1    0    0    0  501  0.00000000000E+00  0.00000000000E+00  0.17601459523E+03  0.17601459525E+03  0.25500000920E-02 0. -1.
        2   -1    0    0  501    0  0.00000000000E+00  0.00000000000E+00 -0.52347229865E+03  0.52347229866E+03  0.25500000920E-02 0.  1.
    10030    2    1    2    0    0  0.00000000000E+00  0.00000000000E+00 -0.34745770342E+03  0.69948689391E+03  0.60708735705E+03 0.  0.
        5    1    3    3  502    0 -0.17099815411E+03  0.37782130798E+02 -0.45934657638E+03  0.49161898391E+03  0.46999998093E+01 0.  1.
       -5    1    3    3    0  502  0.17099815411E+03 -0.37782130798E+02  0.11188887296E+03  0.20786791000E+03  0.46999998093E+01 0. -1.
</event>
<event>
 5   0  0.3640827E-02  0.5992004E+03  0.7818609E-02  0.9907066E-01
        1   -1    0    0  501    0  0.00000000000E+00  0.00000000000E+00  0.35053371850E+03  0.35053371853E+03  0.50400001928E-02 0. -1.
       -1   -1    0    0    0  501  0.00000000000E+00  0.00000000000E+00 -0.25606746223E+03  0.25606746228E+03  0.50400001928E-02 0.  1.
    10030    2    1    2    0    0  0.00000000000E+00  0.00000000000E+00  0.94466256263E+02  0.60660118081E+03  0.59920039969E+03 0.  0.
        3    1    3    3  502    0 -0.56614093157E+02  0.19500937498E+03 -0.17577487655E+03  0.26857146032E+03  0.10100000352E+00 0.  1.
       -3    1    3    3    0  502  0.56614093157E+02 -0.19500937498E+03  0.27024113281E+03  0.33802972049E+03  0.10100000352E+00 0. -1.
</event>
<event>
 5   0  0.5872632E-02  0.5925998E+03  0.7818609E-02  0.9920879E-01
        2   -1    0    0  501    0  0.00000000000E+00  0.00000000000E+00  0.24697973419E+03  0.24697973420E+03  0.25500000920E-02 0.  1.
       -2   -1    0    0    0  501  0.00000000000E+00  0.00000000000E+00 -0.35546899615E+03  0.35546899616E+03  0.25500000920E-02 0. -1.
    10030    2    1    2    0    0  0.00000000000E+00  0.00000000000E+00 -0.10848926196E+03  0.60244873036E+03  0.59259982514E+03 0.  0.
        1    1    3    3  502    0  0.15799833446E+03 -0.49968037171E+02 -0.30395543302E+03  0.34619240852E+03  0.50400001928E-02 0. -1.
       -1    1    3    3    0  502 -0.15799833446E+03  0.49968037171E+02  0.19546617106E+03  0.25625632184E+03  0.50400001928E-02 0.  1.
</event>
<event>
 5   0  0.3640827E-02  0.5927238E+03  0.7818609E-02  0.9920618E-01
       -1   -1    0    0    0  501  0.00000000000E+00  0.00000000000E+00  0.58654411985E+03  0.58654411987E+03  0.50400001928E-02 0.  1.
        1   -1    0    0  501    0  0.00000000000E+00  0.00000000000E+00 -0.14974212200E+03  0.14974212208E+03  0.50400001928E-02 0. -1.
    10030    2    1    2    0    0  0.00000000000E+00  0.00000000000E+00  0.43680199786E+03  0.73628624196E+03  0.59272375080E+03 0.  0.
        3    1    3    3  502    0  0.27760714149E+03  0.42696050726E+02  0.10093727828E+03  0.29845773922E+03  0.10100000352E+00 0. -1.
       -3    1    3    3    0  502 -0.27760714149E+03 -0.42696050726E+02  0.33586471958E+03  0.43782850274E+03  0.10100000352E+00 0.  1.
</event>
<event>
 5   0  0.5755078E-02  0.5992488E+03  0.7818609E-02  0.9906966E-01
        2   -1    0    0  501    0  0.00000000000E+00  0.00000000000E+00  0.16542213257E+04  0.16542213257E+04  0.25500000920E-02 0.  1.
       -2   -1    0    0    0  501  0.00000000000E+00  0.00000000000E+00 -0.54270121131E+02  0.54270121191E+02  0.25500000920E-02 0. -1.
    10030    2    1    2    0    0  0.00000000000E+00  0.00000000000E+00  0.15999512045E+04  0.17084914468E+04  0.59924883571E+03 0.  0.
        2    1    3    3  502    0 -0.37494511643E+02  0.23380855513E+03  0.27657194622E+03  0.36409383447E+03  0.25500000920E-02 0. -1.
       -2    1    3    3    0  502  0.37494511643E+02 -0.23380855513E+03  0.13233792583E+04  0.13443976124E+04  0.25500000920E-02 0.  1.
</event>
<event>
 5   0  0.5935451E-02  0.6134134E+03  0.7818609E-02  0.9877962E-01
       -2   -1    0    0    0  501  0.00000000000E+00  0.00000000000E+00  0.53721537991E+02  0.53721538051E+02  0.25500000920E-02 0. -1.
        2   -1    0    0  501    0  0.00000000000E+00  0.00000000000E+00 -0.17510478818E+04  0.17510478818E+04  0.25500000920E-02 0.  1.
    10030    2    1    2    0    0  0.00000000000E+00  0.00000000000E+00 -0.16973263438E+04  0.18047694198E+04  0.61341335284E+03 0.  0.
        3    1    3    3  502    0 -0.28197441413E+03 -0.81610113087E+02 -0.58717027365E+03  0.65645923045E+03  0.10100000352E+00 0. -1.
       -3    1    3    3    0  502  0.28197441413E+03  0.81610113087E+02 -0.11101560702E+04  0.11483101894E+04  0.10100000352E+00 0.  1.
</event>
<event>
 5   0  0.5872632E-02  0.5923644E+03  0.7818609E-02  0.9921375E-01
        2   -1    0    0  501    0  0.00000000000E+00  0.00000000000E+00  0.32357432098E+03  0.32357432099E+03  0.25500000920E-02 0.  1.
       -2   -1    0    0    0  501  0.00000000000E+00  0.00000000000E+00 -0.27110892555E+03  0.27110892556E+03  0.25500000920E-02 0. -1.
    10030    2    1    2    0    0  0.00000000000E+00  0.00000000000E+00  0.52465395428E+02  0.59468324656E+03  0.59236436930E+03 0.  0.
        1    1    3    3  502    0 -0.15629728223E+03  0.13684314358E+03  0.23817283987E+03  0.31603985201E+03  0.50400001928E-02 0.  1.
       -1    1    3    3    0  502  0.15629728223E+03 -0.13684314358E+03 -0.18570744444E+03  0.27864339455E+03  0.50400001928E-02 0. -1.
</event>
<event>
 5   0  0.5999117E-02  0.5932644E+03  0.7818609E-02  0.9919480E-01
       -2   -1    0    0    0  501  0.00000000000E+00  0.00000000000E+00  0.67223892311E+02  0.67223892359E+02  0.25500000920E-02 0.  1.
        2   -1    0    0  501    0  0.00000000000E+00  0.00000000000E+00 -0.13089195712E+04  0.13089195712E+04  0.25500000920E-02 0. -1.
    10030    2    1    2    0    0  0.00000000000E+00  0.00000000000E+00 -0.12416956789E+04  0.13761434636E+04  0.59326442109E+03 0.  0.
        5    1    3    3  502    0 -0.51796492645E+01  0.23506623260E+03 -0.20148133084E+03  0.30967689477E+03  0.46999998093E+01 0.  1.
       -5    1    3    3    0  502  0.51796492645E+01 -0.23506623260E+03 -0.10402143480E+04  0.10664665688E+04  0.46999998093E+01 0. -1.
</event>
<event>
 5   0  0.3478183E-02  0.6570917E+03  0.7818609E-02  0.9793562E-01
        1   -1    0    0  501    0  0.00000000000E+00  0.00000000000E+00  0.46893818391E+03  0.46893818393E+03  0.50400001928E-02 0. -1.
       -1   -1    0    0    0  501  0.00000000000E+00  0.00000000000E+00 -0.23018462587E+03  0.23018462593E+03  0.50400001928E-02 0.  1.
    10030    2    1    2    0    0  0.00000000000E+00  0.00000000000E+00  0.23875355803E+03  0.69912280986E+03  0.65709165403E+03 0.  0.
        4    1    3    3  502    0 -0.24661445033E+03  0.21700893568E+03  0.11362917189E+03  0.34759857146E+03  0.12699999809E+01 0.  1.
       -4    1    3    3    0  502  0.24661445033E+03 -0.21700893568E+03  0.12512438614E+03  0.35152423840E+03  0.12699999809E+01 0. -1.
</event>
<event>
 5   0  0.3640827E-02  0.6036935E+03  0.7818609E-02  0.9897773E-01
        1   -1    0    0  501    0  0.00000000000E+00  0.00000000000E+00  0.47091381679E+03  0.47091381681E+03  0.50400001928E-02 0. -1.
       -1   -1    0    0    0  501  0.00000000000E+00  0.00000000000E+00 -0.19347796271E+03  0.19347796278E+03  0.50400001928E-02 0.  1.
    10030    2    1    2    0    0  0.00000000000E+00  0.00000000000E+00  0.27743585408E+03  0.66439177959E+03  0.60369345173E+03 0.  0.
        3    1    3    3  502    0  0.56998572006E+02 -0.13006763932E+03  0.43185362196E+03  0.45460311153E+03  0.10100000352E+00 0. -1.
       -3    1    3    3    0  502 -0.56998572006E+02  0.13006763932E+03 -0.15441776788E+03  0.20978866806E+03  0.10100000352E+00 0.  1.
</event>
<event>
 5   0  0.2388000E-02  0.5895499E+03  0.7818609E-02  0.9927327E-01
       -3   -1    0    0    0  501  0.00000000000E+00  0.00000000000E+00  0.26742883660E+03  0.26742885567E+03  0.10100000352E+00 0. -1.
        3   -1    0    0  501    0  0.00000000000E+00  0.00000000000E+00 -0.32491727329E+03  0.32491728899E+03  0.10100000352E+00 0.  1.
    10030    2    1    2    0    0  0.00000000000E+00  0.00000000000E+00 -0.57488436689E+02  0.59234614466E+03  0.58954985772E+03 0.  0.
        4    1    3    3  502    0 -0.22399487009E+03 -0.19136586415E+03 -0.18897223537E+02  0.29521740082E+03  0.12699999809E+01 0.  1.
       -4    1    3    3    0  502  0.22399487009E+03  0.19136586415E+03 -0.38591213152E+02  0.29712874385E+03  0.12699999809E+01 0. -1.
</event>
<event>
 5   0  0.6007360E-02  0.6056423E+03  0.7818609E-02  0.9893769E-01
       -2   -1    0    0    0  501  0.00000000000E+00  0.00000000000E+00  0.12353055412E+03  0.12353055415E+03  0.25500000920E-02 0. -1.
        2   -1    0    0  501    0  0.00000000000E+00  0.00000000000E+00 -0.74233175541E+03  0.74233175541E+03  0.25500000920E-02 0.  1.
    10030    2    1    2    0    0  0.00000000000E+00  0.00000000000E+00 -0.61880120128E+03  0.86586230956E+03  0.60564231392E+03 0.  0.
        4    1    3    3  502    0 -0.17827114658E+03 -0.19773167850E+03 -0.51569121692E+03  0.58035976988E+03  0.12699999809E+01 0.  1.
       -4    1    3    3    0  502  0.17827114658E+03  0.19773167850E+03 -0.10310998436E+03  0.28550253968E+03  0.12699999809E+01 0. -1.
</event>
<event>
 5   0  0.3478183E-02  0.6000796E+03  0.7818609E-02  0.9905241E-01
       -1   -1    0    0    0  501  0.00000000000E+00  0.00000000000E+00  0.10205039986E+03  0.10205039999E+03  0.50400001928E-02 0. -1.
        1   -1    0    0  501    0  0.00000000000E+00  0.00000000000E+00 -0.88215109365E+03  0.88215109367E+03  0.50400001928E-02 0.  1.
    10030    2    1    2    0    0  0.00000000000E+00  0.00000000000E+00 -0.78010069379E+03  0.98420149366E+03  0.60007956778E+03 0.  0.
        4    1    3    3  502    0 -0.25576186838E+03  0.54115885340E+02 -0.14855944187E+03  0.30068951268E+03  0.12699999809E+01 0. -1.
       -4    1    3    3    0  502  0.25576186838E+03 -0.54115885340E+02 -0.63154125192E+03  0.68351198098E+03  0.12699999809E+01 0.  1.
</event>
<event>
 5   0  0.2388000E-02  0.6081998E+03  0.7818609E-02  0.9888539E-01
       -3   -1    0    0    0  501  0.00000000000E+00  0.00000000000E+00  0.56926912230E+03  0.56926913126E+03  0.10100000352E+00 0.  1.
        3   -1    0    0  501    0  0.00000000000E+00  0.00000000000E+00 -0.16244816366E+03  0.16244819506E+03  0.10100000352E+00 0. -1.
    10030    2    1    2    0    0  0.00000000000E+00  0.00000000000E+00  0.40682095864E+03  0.73171732631E+03  0.60819976425E+03 0.  0.
        4    1    3    3  502    0 -0.13464281507E+03 -0.27175337061E+03  0.17660178488E+03  0.35095353739E+03  0.12699999809E+01 0.  1.
       -4    1    3    3    0  502  0.13464281507E+03  0.27175337061E+03  0.23021917376E+03  0.38076378892E+03  0.12699999809E+01 0. -1.
</event>
<event>
 5   0  0.3651984E-02  0.5937784E+03  0.7818609E-02  0.9918399E-01
       -1   -1    0    0    0  501  0.00000000000E+00  0.00000000000E+00  0.11044928809E+03  0.11044928820E+03  0.50400001928E-02 0.  1.
        1   -1    0    0  501    0  0.00000000000E+00  0.00000000000E+00 -0.79804221877E+03  0.79804221878E+03  0.50400001928E-02 0. -1.
    10030    2    1    2    0    0  0.00000000000E+00  0.00000000000E+00 -0.68759293068E+03  0.90849150699E+03  0.59377839295E+03 0.  0.
        1    1    3    3  502    0 -0.10834196853E+02  0.25001711107E+03 -0.99389546982E+02  0.26926607236E+03  0.50400001928E-02 0.  1.
       -1    1    3    3    0  502  0.10834196853E+02 -0.25001711107E+03 -0.58820338370E+03  0.63922543463E+03  0.50400001928E-02 0. -1.
</event>
<event>
 5   0  0.5872632E-02  0.5975887E+03  0.7818609E-02  0.9910421E-01
        2   -1    0    0  501    0  0.00000000000E+00  0.00000000000E+00  0.75199597559E+03  0.75199597559E+03  0.25500000920E-02 0.  1.
       -2   -1    0    0    0  501  0.00000000000E+00  0.00000000000E+00 -0.11872146433E+03  0.11872146436E+03  0.25500000920E-02 0. -1.
    10030    2    1    2    0    0  0.00000000000E+00  0.00000000000E+00  0.63327451125E+03  0.87071743995E+03  0.59758869939E+03 0.  0.
        1    1    3    3  502    0  0.22288020271E+03 -0.10514126105E+03  0.70452507873E+02  0.25630806742E+03  0.50400001928E-02 0. -1.
       -1    1    3    3    0  502 -0.22288020271E+03  0.10514126105E+03  0.56282200338E+03  0.61440937253E+03  0.50400001928E-02 0.  1.
</event>
<event>
 5   0  0.3703280E-02  0.5834581E+03  0.7818609E-02  0.9940332E-01
        1   -1    0    0  501    0  0.00000000000E+00  0.00000000000E+00  0.15607736819E+04  0.15607736819E+04  0.50400001928E-02 0.  1.
       -1   -1    0    0    0  501  0.00000000000E+00  0.00000000000E+00 -0.54527989913E+02  0.54527990146E+02  0.50400001928E-02 0. -1.
    10030    2    1    2    0    0  0.00000000000E+00  0.00000000000E+00  0.15062456920E+04  0.16153016721E+04  0.58345814513E+03 0.  0.
        5    1    3    3  502    0  0.67523782873E+02 -0.24083848178E+03  0.11685921935E+04  0.11950700566E+04  0.46999998093E+01 0.  1.
       -5    1    3    3    0  502 -0.67523782873E+02  0.24083848178E+03  0.33765349850E+03  0.42023161543E+03  0.46999998093E+01 0. -1.
</event>
<event>
 5   0  0.6007360E-02  0.5972693E+03  0.7818609E-02  0.9911088E-01
        2   -1    0    0  501    0  0.00000000000E+00  0.00000000000E+00  0.69679819526E+03  0.69679819527E+03  0.25500000920E-02 0. -1.
       -2   -1    0    0    0  501  0.00000000000E+00  0.00000000000E+00 -0.12798922207E+03  0.12798922209E+03  0.25500000920E-02 0.  1.
    10030    2    1    2    0    0  0.00000000000E+00  0.00000000000E+00  0.56880897320E+03  0.82478741736E+03  0.59726931601E+03 0.  0.
        4    1    3    3  502    0  0.41203957561E+01 -0.88558052768E+02  0.67820349595E+03  0.68397448870E+03  0.12699999809E+01 0. -1.
       -4    1    3    3    0  502 -0.41203957561E+01  0.88558052768E+02 -0.10939452275E+03  0.14081292866E+03  0.12699999809E+01 0.  1.
</event>
<event>
 5   0  0.5872632E-02  0.6040025E+03  0.7818609E-02  0.9897137E-01
       -2   -1    0    0    0  501  0.00000000000E+00  0.00000000000E+00  0.65407266563E+03  0.65407266563E+03  0.25500000920E-02 0.  1.
        2   -1    0    0  501    0  0.00000000000E+00  0.00000000000E+00 -0.13944131394E+03  0.13944131396E+03  0.25500000920E-02 0. -1.
    10030    2    1    2    0    0  0.00000000000E+00  0.00000000000E+00  0.51463135169E+03  0.79351397959E+03  0.60400248978E+03 0.  0.
        1    1    3    3  502    0  0.88152996754E+02  0.15052612475E+03  0.58119318542E+03  0.60680687527E+03  0.50400001928E-02 0.  1.
       -1    1    3    3    0  502 -0.88152996754E+02 -0.15052612475E+03 -0.66561833732E+02  0.18670710432E+03  0.50400001928E-02 0. -1.
</event>
<event>
 5   0  0.5935451E-02  0.5987925E+03  0.7818609E-02  0.9907914E-01
       -2   -1    0    0    0  501  0.00000000000E+00  0.00000000000E+00  0.64368329706E+02  0.64368329756E+02  0.25500000920E-02 0. -1.
        2   -1    0    0  501    0  0.00000000000E+00  0.00000000000E+00 -0.13925810623E+04  0.13925810623E+04  0.25500000920E-02 0.  1.
    10030    2    1    2    0    0  0.00000000000E+00  0.00000000000E+00 -0.13282127326E+04  0.14569493921E+04  0.59879250830E+03 0.  0.
        3    1    3    3  502    0 -0.19816759015E+03 -0.16882096404E+03 -0.10239092572E+04  0.10564852526E+04  0.10100000352E+00 0.  1.
       -3    1    3    3    0  502  0.19816759015E+03  0.16882096404E+03 -0.30430347539E+03  0.40046413949E+03  0.10100000352E+00 0. -1.
</event>
<event>
 5   0  0.5755078E-02  0.5981653E+03  0.7818609E-02  0.9909220E-01
        2   -1    0    0  501    0  0.00000000000E+00  0.00000000000E+00  0.57132537931E+03  0.57132537931E+03  0.25500000920E-02 0. -1.
       -2   -1    0    0    0  501  0.00000000000E+00  0.00000000000E+00 -0.15656654540E+03  0.15656654542E+03  0.25500000920E-02 0.  1.
    10030    2    1    2    0    0  0.00000000000E+00  0.00000000000E+00  0.41475883391E+03  0.72789192473E+03  0.59816533148E+03 0.  0.
        2    1    3    3  502    0 -0.84857684891E+02  0.14337137452E+03 -0.94871796996E+02  0.19172072290E+03  0.25500000920E-02 0.  1.
       -2    1    3    3    0  502  0.84857684891E+02 -0.14337137452E+03  0.50963063090E+03  0.53617120184E+03  0.25500000920E-02 0. -1.
</event>
<event>
 5   0  0.5872632E-02  0.6002475E+03  0.7818609E-02  0.9904893E-01
        2   -1    0    0  501    0  0.00000000000E+00  0.00000000000E+00  0.15251895444E+04  0.15251895444E+04  0.25500000920E-02 0. -1.
       -2   -1    0    0    0  501  0.00000000000E+00  0.00000000000E+00 -0.59057743107E+02  0.59057743162E+02  0.25500000920E-02 0.  1.
    10030    2    1    2    0    0  0.00000000000E+00  0.00000000000E+00  0.14661318013E+04  0.15842472875E+04  0.60024745679E+03 0.  0.
        1    1    3    3  502    0 -0.26995428133E+03  0.11877889545E+03  0.87979217229E+03  0.92791055951E+03  0.50400001928E-02 0. -1.
       -1    1    3    3    0  502  0.26995428133E+03 -0.11877889545E+03  0.58633962897E+03  0.65633672801E+03  0.50400001928E-02 0.  1.
</event>
<event>
 5   0  0.5999117E-02  0.5927922E+03  0.7818609E-02  0.9920474E-01
        2   -1    0    0  501    0  0.00000000000E+00  0.00000000000E+00  0.63324262554E+03  0.63324262554E+03  0.25500000920E-02 0.  1.
       -2   -1    0    0    0  501  0.00000000000E+00  0.00000000000E+00 -0.13873144162E+03  0.13873144164E+03  0.25500000920E-02 0. -1.
    10030    2    1    2    0    0  0.00000000000E+00  0.00000000000E+00  0.49451118392E+03  0.77197406719E+03  0.59279224808E+03 0.  0.
        5    1    3    3  502    0  0.25979269707E+03  0.13965026558E+03  0.28486678621E+03  0.41008001416E+03  0.46999998093E+01 0.  1.
       -5    1    3    3    0  502 -0.25979269707E+03 -0.13965026558E+03  0.20964439771E+03  0.36189405303E+03  0.46999998093E+01 0. -1.
</event>
<event>
 5   0  0.2388000E-02  0.5896200E+03  0.7818609E-02  0.9927178E-01
       -3   -1    0    0    0  501  0.00000000000E+00  0.00000000000E+00  0.20547021365E+03  0.20547023847E+03  0.10100000352E+00 0.  1.
        3   -1    0    0  501    0  0.00000000000E+00  0.00000000000E+00 -0.42299520807E+03  0.42299522012E+03  0.10100000352E+00 0. -1.
    10030    2    1    2    0    0  0.00000000000E+00  0.00000000000E+00 -0.21752499442E+03  0.62846545860E+03  0.58961997036E+03 0.  0.
        3    1    3    3  502    0  0.83597118910E+02 -0.22375013106E+03  0.75423428343E+02  0.25048214145E+03  0.10100000352E+00 0. -1.
       -3    1    3    3    0  502 -0.83597118910E+02  0.22375013106E+03 -0.29294842276E+03  0.37798331715E+03  0.10100000352E+00 0.  1.
</event>
<event>
 5   0  0.5755078E-02  0.5976722E+03  0.7818609E-02  0.9910247E-01
       -2   -1    0    0    0  501  0.00000000000E+00  0.00000000000E+00  0.83276448624E+02  0.83276448663E+02  0.25500000920E-02 0. -1.
        2   -1    0    0  501    0  0.00000000000E+00  0.00000000000E+00 -0.10723681966E+04  0.10723681966E+04  0.25500000920E-02 0.  1.
    10030    2    1    2    0    0  0.00000000000E+00  0.00000000000E+00 -0.98909174801E+03  0.11556446453E+04  0.59767220132E+03 0.  0.
        2    1    3    3  502    0  0.18760045659E+03 -0.22145687739E+03 -0.35692285852E+03  0.46003370181E+03  0.25500000920E-02 0. -1.
       -2    1    3    3    0  502 -0.18760045659E+03  0.22145687739E+03 -0.63216888948E+03  0.69561094349E+03  0.25500000920E-02 0.  1.
</event>
<event>
 5   0  0.3640827E-02  0.6000058E+03  0.7818609E-02  0.9905394E-01
        1   -1    0    0  501    0  0.00000000000E+00  0.00000000000E+00  0.38194485403E+03  0.38194485406E+03  0.50400001928E-02 0. -1.
       -1   -1    0    0    0  501  0.00000000000E+00  0.00000000000E+00 -0.23564069443E+03  0.23564069449E+03  0.50400001928E-02 0.  1.
    10030    2    1    2    0    0  0.00000000000E+00  0.00000000000E+00  0.14630415959E+03  0.61758554855E+03  0.60000583552E+03 0.  0.
        3    1    3    3  502    0 -0.23654455518E+03  0.16514119783E+03 -0.11581185353E+02  0.28871971852E+03  0.10100000352E+00 0. -1.
       -3    1    3    3    0  502  0.23654455518E+03 -0.16514119783E+03  0.15788534495E+03  0.32886583002E+03  0.10100000352E+00 0.  1.
</event>
<event>
 5   0  0.3651984E-02  0.6043611E+03  0.7818609E-02  0.9896399E-01
        1   -1    0    0  501    0  0.00000000000E+00  0.00000000000E+00  0.61881217810E+03  0.61881217812E+03  0.50400001928E-02 0. -1.
       -1   -1    0    0    0  501  0.00000000000E+00  0.00000000000E+00 -0.14756187812E+03  0.14756187820E+03  0.50400001928E-02 0.  1.
    10030    2    1    2    0    0  0.00000000000E+00  0.00000000000E+00  0.47125029998E+03  0.76637405632E+03  0.60436110809E+03 0.  0.
        1    1    3    3  502    0  0.14924048027E+03 -0.57090500702E+02 -0.89607888496E+02  0.18319830766E+03  0.50400001928E-02 0.  1.
       -1    1    3    3    0  502 -0.14924048027E+03  0.57090500702E+02  0.56085818848E+03  0.58317574866E+03  0.50400001928E-02 0. -1.
</event>
<event>
 5   0  0.5755078E-02  0.5044835E+03  0.7818609E-02  0.1012615E+00
       -2   -1    0    0    0  501  0.00000000000E+00  0.00000000000E+00  0.36086768833E+03  0.36086768833E+03  0.25500000920E-02 0. -1.
        2   -1    0    0  501    0  0.00000000000E+00  0.00000000000E+00 -0.17631368645E+03  0.17631368647E+03  0.25500000920E-02 0.  1.
    10030    2    1    2    0    0  0.00000000000E+00  0.00000000000E+00  0.18455400187E+03  0.53718137481E+03  0.50448354763E+03 0.  0.
        2    1    3    3  502    0 -0.22140730816E+03 -0.94663889621E+02  0.12284950028E+02  0.24110862305E+03  0.25500000920E-02 0. -1.
       -2    1    3    3    0  502  0.22140730816E+03  0.94663889621E+02  0.17226905184E+03  0.29607275176E+03  0.25500000920E-02 0.  1.
</event>
<event>
 5   0  0.5999117E-02  0.6024391E+03  0.7818609E-02  0.9900359E-01
       -2   -1    0    0    0  501  0.00000000000E+00  0.00000000000E+00  0.27957896625E+03  0.27957896626E+03  0.25500000920E-02 0. -1.
        2   -1    0    0  501    0  0.00000000000E+00  0.00000000000E+00 -0.32453521560E+03  0.32453521561E+03  0.25500000920E-02 0.  1.
    10030    2    1    2    0    0  0.00000000000E+00  0.00000000000E+00 -0.44956249358E+02  0.60411418187E+03  0.60243910927E+03 0.  0.
        5    1    3    3  502    0 -0.19960579499E+03 -0.21584339055E+03  0.43127691343E+02  0.29717491549E+03  0.46999998093E+01 0. -1.
       -5    1    3    3    0  502  0.19960579499E+03  0.21584339055E+03 -0.88083940701E+02  0.30693926638E+03  0.46999998093E+01 0.  1.
</event>
<event>
 5   0  0.5999117E-02  0.5926250E+03  0.7818609E-02  0.9920826E-01
       -2   -1    0    0    0  501  0.00000000000E+00  0.00000000000E+00  0.53304157632E+02  0.53304157693E+02  0.25500000920E-02 0. -1.
        2   -1    0    0  501    0  0.00000000000E+00  0.00000000000E+00 -0.16471715237E+04  0.16471715237E+04  0.25500000920E-02 0.  1.
    10030    2    1    2    0    0  0.00000000000E+00  0.00000000000E+00 -0.15938673661E+04  0.17004756814E+04  0.59262497619E+03 0.  0.
        5    1    3    3  502    0  0.26903428256E+03 -0.11108460487E+03 -0.63821261403E+03  0.70146750839E+03  0.46999998093E+01 0. -1.
       -5    1    3    3    0  502 -0.26903428256E+03  0.11108460487E+03 -0.95565475204E+03  0.99900817300E+03  0.46999998093E+01 0.  1.
</event>
<event>
 5   0  0.3478183E-02  0.6023264E+03  0.7818609E-02  0.9900591E-01
       -1   -1    0    0    0  501  0.00000000000E+00  0.00000000000E+00  0.24368578119E+03  0.24368578124E+03  0.50400001928E-02 0.  1.
        1   -1    0    0  501    0  0.00000000000E+00  0.00000000000E+00 -0.37219767658E+03  0.37219767662E+03  0.50400001928E-02 0. -1.
    10030    2    1    2    0    0  0.00000000000E+00  0.00000000000E+00 -0.12851189540E+03  0.61588345786E+03  0.60232642844E+03 0.  0.
        4    1    3    3  502    0  0.12070780540E+03 -0.82262342955E+02 -0.33354691901E+03  0.36413270580E+03  0.12699999809E+01 0. -1.
       -4    1    3    3    0  502 -0.12070780540E+03  0.82262342955E+02  0.20503502361E+03  0.25175075206E+03  0.12699999809E+01 0.  1.
</event>
<event>
 5   0  0.3703280E-02  0.6006641E+03  0.7818609E-02  0.9904029E-01
       -1   -1    0    0    0  501  0.00000000000E+00  0.00000000000E+00  0.39675399376E+02  0.39675399696E+02  0.50400001928E-02 0.  1.
        1   -1    0    0  501    0  0.00000000000E+00  0.00000000000E+00 -0.22734323949E+04  0.22734323949E+04  0.50400001928E-02 0. -1.
    10030    2    1    2    0    0  0.00000000000E+00  0.00000000000E+00 -0.22337569955E+04  0.23131077946E+04  0.60066409448E+03 0.  0.
        5    1    3    3  502    0  0.14854986378E+03 -0.77159194400E+02 -0.15679725861E+03  0.22940809405E+03  0.46999998093E+01 0.  1.
       -5    1    3    3    0  502 -0.14854986378E+03  0.77159194400E+02 -0.20769597369E+04  0.20836997005E+04  0.46999998093E+01 0. -1.
</event>
<event>
 5   0  0.5872632E-02  0.6149107E+03  0.7818609E-02  0.9874945E-01
       -2   -1    0    0    0  501  0.00000000000E+00  0.00000000000E+00  0.41236701789E+03  0.41236701790E+03  0.25500000920E-02 0.  1.
        2   -1    0    0  501    0  0.00000000000E+00  0.00000000000E+00 -0.22923458977E+03  0.22923458978E+03  0.25500000920E-02 0. -1.
    10030    2    1    2    0    0  0.00000000000E+00  0.00000000000E+00  0.18313242812E+03  0.64160160768E+03  0.61491067380E+03 0.  0.
        1    1    3    3  502    0 -0.17954673423E+02 -0.80524744871E+02  0.40060153390E+03  0.40900879431E+03  0.50400001928E-02 0.  1.
       -1    1    3    3    0  502  0.17954673423E+02  0.80524744871E+02 -0.21746910578E+03  0.23259281337E+03  0.50400001928E-02 0. -1.
</event>
<event>
 5   0  0.6007360E-02  0.5946614E+03  0.7818609E-02  0.9916544E-01
       -2   -1    0    0    0  501  0.00000000000E+00  0.00000000000E+00  0.21889212717E+03  0.21889212719E+03  0.25500000920E-02 0. -1.
        2   -1    0    0  501    0  0.00000000000E+00  0.00000000000E+00 -0.40387724188E+03  0.40387724189E+03  0.25500000920E-02 0.  1.
    10030    2    1    2    0    0  0.00000000000E+00  0.00000000000E+00 -0.18498511471E+03  0.62276936907E+03  0.59466141155E+03 0.  0.
        4    1    3    3  502    0  0.13317656817E+03  0.62684993908E+02 -0.36304147510E+03  0.39174753645E+03  0.12699999809E+01 0.  1.
       -4    1    3    3    0  502 -0.13317656817E+03 -0.62684993908E+02  0.17805636039E+03  0.23102183262E+03  0.12699999809E+01 0. -1.
</event>
<event>
 5   0  0.5755078E-02  0.5976636E+03  0.7818609E-02  0.9910265E-01
        2   -1    0    0  501    0  0.00000000000E+00  0.00000000000E+00  0.10490160666E+04  0.10490160666E+04  0.25500000920E-02 0. -1.
       -2   -1    0    0    0  501  0.00000000000E+00  0.00000000000E+00 -0.85127821783E+02  0.85127821821E+02  0.25500000920E-02 0.  1.
    10030    2    1    2    0    0  0.00000000000E+00  0.00000000000E+00  0.96388824483E+03  0.11341438884E+04  0.59766362710E+03 0.  0.
        2    1    3    3  502    0  0.77120920371E+02 -0.12244494573E+03 -0.14205336339E+02  0.14540355113E+03  0.25500000920E-02 0.  1.
       -2    1    3    3    0  502 -0.77120920371E+02  0.12244494573E+03  0.97809358117E+03  0.98874033731E+03  0.25500000920E-02 0. -1.
</event>
<event>
 5   0  0.5755078E-02  0.6123087E+03  0.7818609E-02  0.9880193E-01
        2   -1    0    0  501    0  0.00000000000E+00  0.00000000000E+00  0.53864102335E+03  0.53864102335E+03  0.25500000920E-02 0.  1.
       -2   -1    0    0    0  501  0.00000000000E+00  0.00000000000E+00 -0.17401290934E+03  0.17401290936E+03  0.25500000920E-02 0. -1.
    10030    2    1    2    0    0  0.00000000000E+00  0.00000000000E+00  0.36462811401E+03  0.71265393271E+03  0.61230871812E+03 0.  0.
        2    1    3    3  502    0 -0.11343319884E+02 -0.18166755056E+03  0.46882418239E+03  0.50291936116E+03  0.25500000920E-02 0.  1.
       -2    1    3    3    0  502  0.11343319884E+02  0.18166755056E+03 -0.10419606838E+03  0.20973457155E+03  0.25500000920E-02 0. -1.
</event>
<event>
 5   0  0.2388000E-02  0.6013416E+03  0.7818609E-02  0.9902627E-01
       -4   -1    0    0    0  501  0.00000000000E+00  0.00000000000E+00  0.25186045427E+03  0.25186365622E+03  0.12699999809E+01 0.  1.
        4   -1    0    0  501    0  0.00000000000E+00  0.00000000000E+00 -0.35893391475E+03  0.35893616153E+03  0.12699999809E+01 0. -1.
    10030    2    1    2    0    0  0.00000000000E+00  0.00000000000E+00 -0.10707346047E+03  0.61079981776E+03  0.60134157634E+03 0.  0.
        4    1    3    3  502    0  0.14275742525E+03  0.20465862731E+03  0.11684087164E+03  0.27553264486E+03  0.12699999809E+01 0.  1.
       -4    1    3    3    0  502 -0.14275742525E+03 -0.20465862731E+03 -0.22391433211E+03  0.33526717290E+03  0.12699999809E+01 0. -1.
</event>
<event>
 5   0  0.3651984E-02  0.6026753E+03  0.7818609E-02  0.9899871E-01
        1   -1    0    0  501    0  0.00000000000E+00  0.00000000000E+00  0.36048449066E+03  0.36048449070E+03  0.50400001928E-02 0.  1.
       -1   -1    0    0    0  501  0.00000000000E+00  0.00000000000E+00 -0.25189534624E+03  0.25189534629E+03  0.50400001928E-02 0. -1.
    10030    2    1    2    0    0  0.00000000000E+00  0.00000000000E+00  0.10858914442E+03  0.61237983699E+03  0.60267525456E+03 0.  0.
        1    1    3    3  502    0 -0.17749697743E+03 -0.15311244332E+03 -0.13811073144E+03  0.27207199683E+03  0.50400001928E-02 0. -1.
       -1    1    3    3    0  502  0.17749697743E+03  0.15311244332E+03  0.24669987586E+03  0.34030784016E+03  0.50400001928E-02 0.  1.
</event>
<event>
 5   0  0.5999117E-02  0.5946723E+03  0.7818609E-02  0.9916521E-01
        2   -1    0    0  501    0  0.00000000000E+00  0.00000000000E+00  0.98063695102E+03  0.98063695102E+03  0.25500000920E-02 0. -1.
       -2   -1    0    0    0  501  0.00000000000E+00  0.00000000000E+00 -0.90154436137E+02  0.90154436173E+02  0.25500000920E-02 0.  1.
    10030    2    1    2    0    0  0.00000000000E+00  0.00000000000E+00  0.89048251488E+03  0.10707913872E+04  0.59467225056E+03 0.  0.
        5    1    3    3  502    0 -0.83036331281E+02 -0.58497196699E+01  0.95915774095E+03  0.96277459125E+03  0.46999998093E+01 0. -1.
       -5    1    3    3    0  502  0.83036331281E+02  0.58497196699E+01 -0.68675226068E+02  0.10801679595E+03  0.46999998093E+01 0.  1.
</event>
<event>
 5   0  0.5872632E-02  0.6266909E+03  0.7818609E-02  0.9851528E-01
       -2   -1    0    0    0  501  0.00000000000E+00  0.00000000000E+00  0.70709895272E+02  0.70709895318E+02  0.25500000920E-02 0.  1.
        2   -1    0    0  501    0  0.00000000000E+00  0.00000000000E+00 -0.13885663576E+04  0.13885663576E+04  0.25500000920E-02 0. -1.
    10030    2    1    2    0    0  0.00000000000E+00  0.00000000000E+00 -0.13178564624E+04  0.14592762529E+04  0.62669093423E+03 0.  0.
        1    1    3    3  502    0 -0.47099113083E+02  0.15873017073E+03 -0.12783895424E+04  0.12890668779E+04  0.50400001928E-02 0. -1.
       -1    1    3    3    0  502  0.47099113083E+02 -0.15873017073E+03 -0.39466919929E+02  0.17020937502E+03  0.50400001928E-02 0.  1.
</event>
<event>
 5   0  0.3478183E-02  0.5977190E+03  0.7818609E-02  0.9910150E-01
        1   -1    0    0  501    0  0.00000000000E+00  0.00000000000E+00  0.12011800561E+04  0.12011800561E+04  0.50400001928E-02 0. -1.
       -1   -1    0    0    0  501  0.00000000000E+00  0.00000000000E+00 -0.74357716967E+02  0.74357717138E+02  0.50400001928E-02 0.  1.
    10030    2    1    2    0    0  0.00000000000E+00  0.00000000000E+00  0.11268223391E+04  0.12755377732E+04  0.59771902011E+03 0.  0.
        4    1    3    3  502    0 -0.29753704349E+03  0.17998927698E+02  0.60933652115E+03  0.67833978400E+03  0.12699999809E+01 0.  1.
       -4    1    3    3    0  502  0.29753704349E+03 -0.17998927698E+02  0.51748581795E+03  0.59719798922E+03  0.12699999809E+01 0. -1.
</event>
<event>
 5   0  0.3640827E-02  0.5856023E+03  0.7818609E-02  0.9935735E-01
       -1   -1    0    0    0  501  0.00000000000E+00  0.00000000000E+00  0.99218347855E+02  0.99218347983E+02  0.50400001928E-02 0.  1.
        1   -1    0    0  501    0  0.00000000000E+00  0.00000000000E+00 -0.86407914789E+03  0.86407914791E+03  0.50400001928E-02 0. -1.
    10030    2    1    2    0    0  0.00000000000E+00  0.00000000000E+00 -0.76486080004E+03  0.96329749589E+03  0.58560227301E+03 0.  0.
        3    1    3    3  502    0 -0.10146624188E+03  0.17910024070E+03 -0.39896688536E+02  0.20967606067E+03  0.10100000352E+00 0.  1.
       -3    1    3    3    0  502  0.10146624188E+03 -0.17910024070E+03 -0.72496411150E+03  0.75362143522E+03  0.10100000352E+00 0. -1.
</event>
<event>
 5   0  0.5999117E-02  0.6025984E+03  0.7818609E-02  0.9900030E-01
       -2   -1    0    0    0  501  0.00000000000E+00  0.00000000000E+00  0.10445433714E+03  0.10445433717E+03  0.25500000920E-02 0. -1.
        2   -1    0    0  501    0  0.00000000000E+00  0.00000000000E+00 -0.86909943388E+03  0.86909943388E+03  0.25500000920E-02 0.  1.
    10030    2    1    2    0    0  0.00000000000E+00  0.00000000000E+00 -0.76464509674E+03  0.97355377106E+03  0.60259839128E+03 0.  0.
        5    1    3    3  502    0  0.26513034755E+03  0.56495982679E+02 -0.59465608970E+03  0.65354713087E+03  0.46999998093E+01 0.  1.
       -5    1    3    3    0  502 -0.26513034755E+03 -0.56495982679E+02 -0.16998900704E+03  0.32000664019E+03  0.46999998093E+01 0. -1.
</event>
<event>
 5   0  0.5999117E-02  0.5903019E+03  0.7818609E-02  0.9925733E-01
        2   -1    0    0  501    0  0.00000000000E+00  0.00000000000E+00  0.37461598478E+03  0.37461598479E+03  0.25500000920E-02 0.  1.
       -2   -1    0    0    0  501  0.00000000000E+00  0.00000000000E+00 -0.23254233342E+03  0.23254233344E+03  0.25500000920E-02 0. -1.
    10030    2    1    2    0    0  0.00000000000E+00  0.00000000000E+00  0.14207365136E+03  0.60715831823E+03  0.59030187276E+03 0.  0.
        5    1    3    3  502    0 -0.24141836036E+03  0.12462460407E+03  0.18955691535E+03  0.33131258777E+03  0.46999998093E+01 0.  1.
       -5    1    3    3    0  502  0.24141836036E+03 -0.12462460407E+03 -0.47483263993E+02  0.27584573046E+03  0.46999998093E+01 0. -1.
</event>
<event>
 5   0  0.5755078E-02  0.6018293E+03  0.7818609E-02  0.9901618E-01
       -2   -1    0    0    0  501  0.00000000000E+00  0.00000000000E+00  0.71745975659E+02  0.71745975705E+02  0.25500000920E-02 0. -1.
        2   -1    0    0  501    0  0.00000000000E+00  0.00000000000E+00 -0.12620864480E+04  0.12620864480E+04  0.25500000920E-02 0.  1.
    10030    2    1    2    0    0  0.00000000000E+00  0.00000000000E+00 -0.11903404723E+04  0.13338324237E+04  0.60182929011E+03 0.  0.
        2    1    3    3  502    0  0.19877970271E+03  0.20348272397E+03 -0.37766765368E+03  0.47281227333E+03  0.25500000920E-02 0. -1.
       -2    1    3    3    0  502 -0.19877970271E+03 -0.20348272397E+03 -0.81267281864E+03  0.86102015036E+03  0.25500000920E-02 0.  1.
</event>
<event>
 5   0  0.6007360E-02  0.5954375E+03  0.7818609E-02  0.9914917E-01
        2   -1    0    0  501    0  0.00000000000E+00  0.00000000000E+00  0.50053935373E+03  0.50053935373E+03  0.25500000920E-02 0.  1.
       -2   -1    0    0    0  501  0.00000000000E+00  0.00000000000E+00 -0.17708189217E+03  0.17708189219E+03  0.25500000920E-02 0. -1.
    10030    2    1    2    0    0  0.00000000000E+00  0.00000000000E+00  0.32345746155E+03  0.67762124593E+03  0.59543750595E+03 0.  0.
        4    1    3    3  502    0  0.14311311382E+03 -0.20619123290E+03 -0.20492278370E+02  0.25182877962E+03  0.12699999809E+01 0. -1.
       -4    1    3    3    0  502 -0.14311311382E+03  0.20619123290E+03  0.34394973992E+03  0.42579246631E+03  0.12699999809E+01 0.  1.
</event>
<event>
 5   0  0.3651984E-02  0.6026588E+03  0.7818609E-02  0.9899905E-01
        1   -1    0    0  501    0  0.00000000000E+00  0.00000000000E+00  0.58468999620E+03  0.58468999623E+03  0.50400001928E-02 0.  1.
       -1   -1    0    0    0  501  0.00000000000E+00  0.00000000000E+00 -0.15529493861E+03  0.15529493870E+03  0.50400001928E-02 0. -1.
    10030    2    1    2    0    0  0.00000000000E+00  0.00000000000E+00  0.42939505759E+03  0.73998493492E+03  0.60265876616E+03 0.  0.
        1    1    3    3  502    0 -0.20586678917E+03  0.13726806474E+03  0.35338524934E+01  0.24745937974E+03  0.50400001928E-02 0. -1.
       -1    1    3    3    0  502  0.20586678917E+03 -0.13726806474E+03  0.42586120510E+03  0.49252555519E+03  0.50400001928E-02 0.  1.
</event>
<event>
 5   0  0.3651984E-02  0.6009916E+03  0.7818609E-02  0.9903351E-01
        1   -1    0    0  501    0  0.00000000000E+00  0.00000000000E+00  0.22643921500E+03  0.22643921505E+03  0.50400001928E-02 0.  1.
       -1   -1    0    0    0  501  0.00000000000E+00  0.00000000000E+00 -0.39877252034E+03  0.39877252037E+03  0.50400001928E-02 0. -1.
    10030    2    1    2    0    0  0.00000000000E+00  0.00000000000E+00 -0.17233330534E+03  0.62521173543E+03  0.60099163554E+03 0.  0.
        1    1    3    3  502    0 -0.75981849766E+02  0.25029575964E+03 -0.24003450389E+03  0.35501798809E+03  0.50400001928E-02 0. -1.
       -1    1    3    3    0  502  0.75981849766E+02 -0.25029575964E+03  0.67701198547E+02  0.27019374733E+03  0.50400001928E-02 0.  1.
</event>
<event>
 5   0  0.3640827E-02  0.5947126E+03  0.7818609E-02  0.9916437E-01
        1   -1    0    0  501    0  0.00000000000E+00  0.00000000000E+00  0.53332307399E+03  0.53332307402E+03  0.50400001928E-02 0.  1.
       -1   -1    0    0    0  501  0.00000000000E+00  0.00000000000E+00 -0.16579211711E+03  0.16579211719E+03  0.50400001928E-02 0. -1.
    10030    2    1    2    0    0  0.00000000000E+00  0.00000000000E+00  0.36753095688E+03  0.69911519121E+03  0.59471257454E+03 0.  0.
        3    1    3    3  502    0 -0.22683214447E+03  0.26000448660E+02 -0.40182170861E+02  0.23182636208E+03  0.10100000352E+00 0. -1.
       -3    1    3    3    0  502  0.22683214447E+03 -0.26000448660E+02  0.40771312774E+03  0.46728882913E+03  0.10100000352E+00 0.  1.
</event>
<event>
 5   0  0.5872632E-02  0.6013576E+03  0.7818609E-02  0.9902594E-01
       -2   -1    0    0    0  501  0.00000000000E+00  0.00000000000E+00  0.22903498575E+03  0.22903498576E+03  0.25500000920E-02 0. -1.
        2   -1    0    0  501    0  0.00000000000E+00  0.00000000000E+00 -0.39473327879E+03  0.39473327880E+03  0.25500000920E-02 0.  1.
    10030    2    1    2    0    0  0.00000000000E+00  0.00000000000E+00 -0.16569829304E+03  0.62376826456E+03  0.60135756714E+03 0.  0.
        1    1    3    3  502    0  0.12929878956E+03  0.47790091439E+02  0.19432761558E+03  0.23825467891E+03  0.50400001928E-02 0. -1.
       -1    1    3    3    0  502 -0.12929878956E+03 -0.47790091439E+02 -0.36002590861E+03  0.38551358565E+03  0.50400001928E-02 0.  1.
</event>
<event>
 5   0  0.3703280E-02  0.6002737E+03  0.7818609E-02  0.9904838E-01
       -1   -1    0    0    0  501  0.00000000000E+00  0.00000000000E+00  0.56168539124E+02  0.56168539351E+02  0.50400001928E-02 0.  1.
        1   -1    0    0  501    0  0.00000000000E+00  0.00000000000E+00 -0.16037826157E+04  0.16037826157E+04  0.50400001928E-02 0. -1.
    10030    2    1    2    0    0  0.00000000000E+00  0.00000000000E+00 -0.15476140766E+04  0.16599511550E+04  0.60027369355E+03 0.  0.
        5    1    3    3  502    0  0.27179401583E+03  0.19745249896E+02 -0.11213827781E+04  0.11540291535E+04  0.46999998093E+01 0. -1.
       -5    1    3    3    0  502 -0.27179401583E+03 -0.19745249896E+02 -0.42623129843E+03  0.50592200159E+03  0.46999998093E+01 0.  1.
</event>
<event>
 5   0  0.5755078E-02  0.5996820E+03  0.7818609E-02  0.9906066E-01
       -2   -1    0    0    0  501  0.00000000000E+00  0.00000000000E+00  0.84339609912E+02  0.84339609951E+02  0.25500000920E-02 0. -1.
        2   -1    0    0  501    0  0.00000000000E+00  0.00000000000E+00 -0.10659834457E+04  0.10659834457E+04  0.25500000920E-02 0.  1.
    10030    2    1    2    0    0  0.00000000000E+00  0.00000000000E+00 -0.98164383575E+03  0.11503230556E+04  0.59968200908E+03 0.  0.
        2    1    3    3  502    0 -0.50111142985E+02  0.14901527787E+03 -0.10628781732E+01  0.15721898551E+03  0.25500000920E-02 0. -1.
       -2    1    3    3    0  502  0.50111142985E+02 -0.14901527787E+03 -0.98058095757E+03  0.99310407010E+03  0.25500000920E-02 0.  1.
</event>
<event>
 5   0  0.3478183E-02  0.6027251E+03  0.7818609E-02  0.9899768E-01
        1   -1    0    0  501    0  0.00000000000E+00  0.00000000000E+00  0.85224022879E+03  0.85224022880E+03  0.50400001928E-02 0. -1.
       -1   -1    0    0    0  501  0.00000000000E+00  0.00000000000E+00 -0.10656548839E+03  0.10656548851E+03  0.50400001928E-02 0.  1.
    10030    2    1    2    0    0  0.00000000000E+00  0.00000000000E+00  0.74567474040E+03  0.95880571731E+03  0.60272513228E+03 0.  0.
        4    1    3    3  502    0  0.80497233837E+02 -0.99038989036E+02 -0.61447511510E+02  0.14165428188E+03  0.12699999809E+01 0.  1.
       -4    1    3    3    0  502 -0.80497233837E+02  0.99038989036E+02  0.80712225191E+03  0.81715143543E+03  0.12699999809E+01 0. -1.
</event>
<event>
 5   0  0.3703280E-02  0.6008763E+03  0.7818609E-02  0.9903590E-01
       -1   -1    0    0    0  501  0.00000000000E+00  0.00000000000E+00  0.29022574974E+03  0.29022574979E+03  0.50400001928E-02 0.  1.
        1   -1    0    0  501    0  0.00000000000E+00  0.00000000000E+00 -0.31100987433E+03  0.31100987437E+03  0.50400001928E-02 0. -1.
    10030    2    1    2    0    0  0.00000000000E+00  0.00000000000E+00 -0.20784124588E+02  0.60123562416E+03  0.60087627339E+03 0.  0.
        5    1    3    3  502    0 -0.23920245783E+03  0.55790537761E+02  0.16265813409E+03  0.29463563688E+03  0.46999998093E+01 0.  1.
       -5    1    3    3    0  502  0.23920245783E+03 -0.55790537761E+02 -0.18344225868E+03  0.30659998728E+03  0.46999998093E+01 0. -1.
</event>
<event>
 5   0  0.5872632E-02  0.6028842E+03  0.7818609E-02  0.9899440E-01
       -2   -1    0    0    0  501  0.00000000000E+00  0.00000000000E+00  0.18951494765E+03  0.18951494766E+03  0.25500000920E-02 0.  1.
        2   -1    0    0  501    0  0.00000000000E+00  0.00000000000E+00 -0.47947313068E+03  0.47947313069E+03  0.25500000920E-02 0. -1.
    10030    2    1    2    0    0  0.00000000000E+00  0.00000000000E+00 -0.28995818303E+03  0.66898807835E+03  0.60288415228E+03 0.  0.
        1    1    3    3  502    0 -0.67685153805E+02  0.20901375413E+03 -0.37400558321E+03  0.43376053965E+03  0.50400001928E-02 0. -1.
       -1    1    3    3    0  502  0.67685153805E+02 -0.20901375413E+03  0.84047400177E+02  0.23522753870E+03  0.50400001928E-02 0.  1.
</event>
<event>
 5   0  0.3640827E-02  0.6140109E+03  0.7818609E-02  0.9876757E-01
        1   -1    0    0  501    0  0.00000000000E+00  0.00000000000E+00  0.39217367936E+03  0.39217367939E+03  0.50400001928E-02 0. -1.
       -1   -1    0    0    0  501  0.00000000000E+00  0.00000000000E+00 -0.24033320679E+03  0.24033320684E+03  0.50400001928E-02 0.  1.
    10030    2    1    2    0    0  0.00000000000E+00  0.00000000000E+00  0.15184047258E+03  0.63250688623E+03  0.61401093803E+03 0.  0.
        3    1    3    3  502    0  0.24680016662E+03  0.18216078072E+03  0.88929004546E+02  0.31937634591E+03  0.10100000352E+00 0. -1.
       -3    1    3    3    0  502 -0.24680016662E+03 -0.18216078072E+03  0.62911468030E+02  0.31313054033E+03  0.10100000352E+00 0.  1.
</event>
<event>
 5   0  0.5755078E-02  0.6028773E+03  0.7818609E-02  0.9899455E-01
        2   -1    0    0  501    0  0.00000000000E+00  0.00000000000E+00  0.13549967633E+04  0.13549967633E+04  0.25500000920E-02 0.  1.
       -2   -1    0    0    0  501  0.00000000000E+00  0.00000000000E+00 -0.67059384918E+02  0.67059384967E+02  0.25500000920E-02 0. -1.
    10030    2    1    2    0    0  0.00000000000E+00  0.00000000000E+00  0.12879373784E+04  0.14220561483E+04  0.60287726628E+03 0.  0.
        2    1    3    3  502    0 -0.12530545605E+03  0.14403828234E+03  0.11942112740E+04  0.12093754798E+04  0.25500000920E-02 0.  1.
       -2    1    3    3    0  502  0.12530545605E+03 -0.14403828234E+03  0.93726104328E+02  0.21268066845E+03  0.25500000920E-02 0. -1.
</event>
<event>
 5   0  0.5755078E-02  0.5933629E+03  0.7818609E-02  0.9919272E-01
       -2   -1    0    0    0  501  0.00000000000E+00  0.00000000000E+00  0.24544257328E+03  0.24544257330E+03  0.25500000920E-02 0.  1.
        2   -1    0    0  501    0  0.00000000000E+00  0.00000000000E+00 -0.35861702220E+03  0.35861702221E+03  0.25500000920E-02 0. -1.
    10030    2    1    2    0    0  0.00000000000E+00  0.00000000000E+00 -0.11317444892E+03  0.60405959551E+03  0.59336290669E+03 0.  0.
        2    1    3    3  502    0 -0.29335616379E+03 -0.12866283449E+02 -0.99736506034E+02  0.31011409308E+03  0.25500000920E-02 0. -1.
       -2    1    3    3    0  502  0.29335616379E+03  0.12866283449E+02 -0.13437942885E+02  0.29394550243E+03  0.25500000920E-02 0.  1.
</event>
<event>
 5   0  0.6007360E-02  0.6071218E+03  0.7818609E-02  0.9890740E-01
       -2   -1    0    0    0  501  0.00000000000E+00  0.00000000000E+00  0.27097631222E+03  0.27097631223E+03  0.25500000920E-02 0. -1.
        2   -1    0    0  501    0  0.00000000000E+00  0.00000000000E+00 -0.34006374480E+03  0.34006374481E+03  0.25500000920E-02 0.  1.
    10030    2    1    2    0    0  0.00000000000E+00  0.00000000000E+00 -0.69087432584E+02  0.61104005704E+03  0.60712179829E+03 0.  0.
        4    1    3    3  502    0  0.17086512599E+03 -0.15131351354E+03 -0.23597768911E+03  0.32829522281E+03  0.12699999809E+01 0.  1.
       -4    1    3    3    0  502 -0.17086512599E+03  0.15131351354E+03  0.16689025653E+03  0.28274483423E+03  0.12699999809E+01 0. -1.
</event>
<event>
 5   0  0.5935451E-02  0.5363836E+03  0.7818609E-02  0.1004696E+00
        2   -1    0    0  501    0  0.00000000000E+00  0.00000000000E+00  0.23588641908E+04  0.23588641908E+04  0.25500000920E-02 0.  1.
       -2   -1    0    0    0  501  0.00000000000E+00  0.00000000000E+00 -0.30492154062E+02  0.30492154169E+02  0.25500000920E-02 0. -1.
    10030    2    1    2    0    0  0.00000000000E+00  0.00000000000E+00  0.23283720368E+04  0.23893563450E+04  0.53638363304E+03 0.  0.
        3    1    3    3  502    0  0.77710778201E+02 -0.37941825744E+02  0.22950519396E+04  0.22966806402E+04  0.10100000352E+00 0.  1.
       -3    1    3    3    0  502 -0.77710778201E+02  0.37941825744E+02  0.33320097140E+02  0.92675704820E+02  0.10100000352E+00 0. -1.
</event>
<event>
 5   0  0.5872632E-02  0.5973971E+03  0.7818609E-02  0.9910821E-01
       -2   -1    0    0    0  501  0.00000000000E+00  0.00000000000E+00  0.33314155588E+03  0.33314155589E+03  0.25500000920E-02 0. -1.
        2   -1    0    0  501    0  0.00000000000E+00  0.00000000000E+00 -0.26781659023E+03  0.26781659024E+03  0.25500000920E-02 0.  1.
    10030    2    1    2    0    0  0.00000000000E+00  0.00000000000E+00  0.65324965646E+02  0.60095814613E+03  0.59739713948E+03 0.  0.
        1    1    3    3  502    0  0.21343204183E+03  0.13438331384E+03 -0.12831867910E+03  0.28298020240E+03  0.50400001928E-02 0.  1.
       -1    1    3    3    0  502 -0.21343204183E+03 -0.13438331384E+03  0.19364364475E+03  0.31797794373E+03  0.50400001928E-02 0. -1.
</event>
<event>
 5   0  0.5999117E-02  0.5980278E+03  0.7818609E-02  0.9909506E-01
       -2   -1    0    0    0  501  0.00000000000E+00  0.00000000000E+00  0.32203684715E+03  0.32203684716E+03  0.25500000920E-02 0. -1.
        2   -1    0    0  501    0  0.00000000000E+00  0.00000000000E+00 -0.27763694196E+03  0.27763694197E+03  0.25500000920E-02 0.  1.
    10030    2    1    2    0    0  0.00000000000E+00  0.00000000000E+00  0.44399905190E+02  0.59967378914E+03  0.59802784366E+03 0.  0.
        5    1    3    3  502    0 -0.17582487394E+02 -0.11476701056E+03  0.29846980947E+03  0.32029194142E+03  0.46999998093E+01 0. -1.
       -5    1    3    3    0  502  0.17582487394E+02  0.11476701056E+03 -0.25406990428E+03  0.27938184772E+03  0.46999998093E+01 0.  1.
</event>
<event>
 5   0  0.3478183E-02  0.5954578E+03  0.7818609E-02  0.9914875E-01
       -1   -1    0    0    0  501  0.00000000000E+00  0.00000000000E+00  0.46495197025E+03  0.46495197028E+03  0.50400001928E-02 0. -1.
        1   -1    0    0  501    0  0.00000000000E+00  0.00000000000E+00 -0.19064874812E+03  0.19064874819E+03  0.50400001928E-02 0.  1.
    10030    2    1    2    0    0  0.00000000000E+00  0.00000000000E+00  0.27430322213E+03  0.65560071847E+03  0.59545784434E+03 0.  0.
        4    1    3    3  502    0  0.16865457501E+03  0.23774166724E+03  0.70402942583E+02  0.29987272840E+03  0.12699999809E+01 0.  1.
       -4    1    3    3    0  502 -0.16865457501E+03 -0.23774166724E+03  0.20390027955E+03  0.35572799007E+03  0.12699999809E+01 0. -1.
</event>
<event>
 5   0  0.3640827E-02  0.5990044E+03  0.7818609E-02  0.9907474E-01
       -1   -1    0    0    0  501  0.00000000000E+00  0.00000000000E+00  0.10221145944E+04  0.10221145945E+04  0.50400001928E-02 0.  1.
        1   -1    0    0  501    0  0.00000000000E+00  0.00000000000E+00 -0.87760767426E+02  0.87760767571E+02  0.50400001928E-02 0. -1.
    10030    2    1    2    0    0  0.00000000000E+00  0.00000000000E+00  0.93435382702E+03  0.11098753620E+04  0.59900437826E+03 0.  0.
        3    1    3    3  502    0 -0.17143887009E+02  0.99134115064E+02 -0.55515696471E+02  0.11490643318E+03  0.10100000352E+00 0. -1.
       -3    1    3    3    0  502  0.17143887009E+02 -0.99134115064E+02  0.98986952349E+03  0.99496892884E+03  0.10100000352E+00 0.  1.
</event>
<event>
 5   0  0.6007360E-02  0.5953631E+03  0.7818609E-02  0.9915073E-01
       -2   -1    0    0    0  501  0.00000000000E+00  0.00000000000E+00  0.92539574874E+02  0.92539574909E+02  0.25500000920E-02 0. -1.
        2   -1    0    0  501    0  0.00000000000E+00  0.00000000000E+00 -0.95758282115E+03  0.95758282115E+03  0.25500000920E-02 0.  1.
    10030    2    1    2    0    0  0.00000000000E+00  0.00000000000E+00 -0.86504324628E+03  0.10501223961E+04  0.59536310667E+03 0.  0.
        4    1    3    3  502    0  0.26986338472E+03  0.84572649724E+02 -0.26862806595E+03  0.39005311203E+03  0.12699999809E+01 0.  1.
       -4    1    3    3    0  502 -0.26986338472E+03 -0.84572649724E+02 -0.59641518033E+03  0.66006928403E+03  0.12699999809E+01 0. -1.
</event>
<event>
 5   0  0.5755078E-02  0.5950508E+03  0.7818609E-02  0.9915728E-01
       -2   -1    0    0    0  501  0.00000000000E+00  0.00000000000E+00  0.10158859799E+03  0.10158859802E+03  0.25500000920E-02 0.  1.
        2   -1    0    0  501    0  0.00000000000E+00  0.00000000000E+00 -0.87137111660E+03  0.87137111660E+03  0.25500000920E-02 0. -1.
    10030    2    1    2    0    0  0.00000000000E+00  0.00000000000E+00 -0.76978251861E+03  0.97295971462E+03  0.59505082163E+03 0.  0.
        2    1    3    3  502    0 -0.14966252328E+03  0.39137169319E+02 -0.80044392063E+03  0.81525521095E+03  0.25500000920E-02 0. -1.
       -2    1    3    3    0  502  0.14966252328E+03 -0.39137169319E+02  0.30661402028E+02  0.15770450367E+03  0.25500000920E-02 0.  1.
</event>
<event>
 5   0  0.3703280E-02  0.6009048E+03  0.7818609E-02  0.9903531E-01
       -1   -1    0    0    0  501  0.00000000000E+00  0.00000000000E+00  0.27827581586E+03  0.27827581590E+03  0.50400001928E-02 0.  1.
        1   -1    0    0  501    0  0.00000000000E+00  0.00000000000E+00 -0.32439624921E+03  0.32439624925E+03  0.50400001928E-02 0. -1.
    10030    2    1    2    0    0  0.00000000000E+00  0.00000000000E+00 -0.46120433358E+02  0.60267206515E+03  0.60090475430E+03 0.  0.
        5    1    3    3  502    0 -0.94201750381E+01 -0.32693468586E+02  0.27630037290E+03  0.27842698980E+03  0.46999998093E+01 0.  1.
       -5    1    3    3    0  502  0.94201750381E+01  0.32693468586E+02 -0.32242080626E+03  0.32424507536E+03  0.46999998093E+01 0. -1.
</event>
<event>
 5   0  0.3767635E-02  0.5921716E+03  0.7818609E-02  0.9921782E-01
        1   -1    0    0  501    0  0.00000000000E+00  0.00000000000E+00  0.99433701211E+03  0.99433701213E+03  0.50400001928E-02 0. -1.
       -1   -1    0    0    0  501  0.00000000000E+00  0.00000000000E+00 -0.88166082563E+02  0.88166082707E+02  0.50400001928E-02 0.  1.
    10030    2    1    2    0    0  0.00000000000E+00  0.00000000000E+00  0.90617092955E+03  0.10825030948E+04  0.59217159402E+03 0.  0.
        2    1    3    3  502    0  0.25004684901E+03 -0.12584856472E+03  0.27674511621E+03  0.39363580540E+03  0.25500000920E-02 0.  1.
       -2    1    3    3    0  502 -0.25004684901E+03  0.12584856472E+03  0.62942581334E+03  0.68886728943E+03  0.25500000920E-02 0. -1.
</event>
<event>
 5   0  0.5999117E-02  0.6037758E+03  0.7818609E-02  0.9897603E-01
        2   -1    0    0  501    0  0.00000000000E+00  0.00000000000E+00  0.16434955587E+04  0.16434955587E+04  0.25500000920E-02 0.  1.
       -2   -1    0    0    0  501  0.00000000000E+00  0.00000000000E+00 -0.55452717893E+02  0.55452717952E+02  0.25500000920E-02 0. -1.
    10030    2    1    2    0    0  0.00000000000E+00  0.00000000000E+00  0.15880428408E+04  0.16989482767E+04  0.60377577172E+03 0.  0.
        5    1    3    3  502    0  0.25490957961E+03 -0.97539681778E+02  0.43124649507E+03  0.51038075278E+03  0.46999998093E+01 0.  1.
       -5    1    3    3    0  502 -0.25490957961E+03  0.97539681778E+02  0.11567963458E+04  0.11885675239E+04  0.46999998093E+01 0. -1.
</event>
<event>
 5   0  0.3767635E-02  0.5986525E+03  0.7818609E-02  0.9908206E-01
        1   -1    0    0  501    0  0.00000000000E+00  0.00000000000E+00  0.41223253411E+03  0.41223253415E+03  0.50400001928E-02 0. -1.
       -1   -1    0    0    0  501  0.00000000000E+00  0.00000000000E+00 -0.21734387926E+03  0.21734387932E+03  0.50400001928E-02 0.  1.
    10030    2    1    2    0    0  0.00000000000E+00  0.00000000000E+00  0.19488865486E+03  0.62957641346E+03  0.59865254747E+03 0.  0.
        2    1    3    3  502    0  0.18390030595E+03 -0.10640842287E+03  0.31917702272E+03  0.38342671637E+03  0.25500000920E-02 0. -1.
       -2    1    3    3    0  502 -0.18390030595E+03  0.10640842287E+03 -0.12428836786E+03  0.24614969709E+03  0.25500000920E-02 0.  1.
</event>
<event>
 5   0  0.3651984E-02  0.6235565E+03  0.7818609E-02  0.9857704E-01
        1   -1    0    0  501    0  0.00000000000E+00  0.00000000000E+00  0.54167738883E+03  0.54167738885E+03  0.50400001928E-02 0.  1.
       -1   -1    0    0    0  501  0.00000000000E+00  0.00000000000E+00 -0.17945308359E+03  0.17945308366E+03  0.50400001928E-02 0. -1.
    10030    2    1    2    0    0  0.00000000000E+00  0.00000000000E+00  0.36222430524E+03  0.72113047251E+03  0.62355650191E+03 0.  0.
        1    1    3    3  502    0 -0.20411662897E+03  0.18661264193E+03  0.14652160985E+02  0.27695227422E+03  0.50400001928E-02 0. -1.
       -1    1    3    3    0  502  0.20411662897E+03 -0.18661264193E+03  0.34757214425E+03  0.44417819829E+03  0.50400001928E-02 0.  1.
</event>
<event>
 5   0  0.3651984E-02  0.5960838E+03  0.7818609E-02  0.9913564E-01
        1   -1    0    0  501    0  0.00000000000E+00  0.00000000000E+00  0.24197754956E+03  0.24197754961E+03  0.50400001928E-02 0.  1.
       -1   -1    0    0    0  501  0.00000000000E+00  0.00000000000E+00 -0.36709596915E+03  0.36709596918E+03  0.50400001928E-02 0. -1.
    10030    2    1    2    0    0  0.00000000000E+00  0.00000000000E+00 -0.12511841958E+03  0.60907351879E+03  0.59608382999E+03 0.  0.
        1    1    3    3  502    0 -0.78285691483E+02 -0.20455967378E+02  0.23053989926E+03  0.24432711939E+03  0.50400001928E-02 0.  1.
       -1    1    3    3    0  502  0.78285691483E+02  0.20455967378E+02 -0.35565831884E+03  0.36474639941E+03  0.50400001928E-02 0. -1.
</event>
<event>
 5   0  0.5872632E-02  0.5853358E+03  0.7818609E-02  0.9936306E-01
        2   -1    0    0  501    0  0.00000000000E+00  0.00000000000E+00  0.79397000289E+03  0.79397000289E+03  0.25500000920E-02 0.  1.
       -2   -1    0    0    0  501  0.00000000000E+00  0.00000000000E+00 -0.10788126694E+03  0.10788126697E+03  0.25500000920E-02 0. -1.
    10030    2    1    2    0    0  0.00000000000E+00  0.00000000000E+00  0.68608873595E+03  0.90185126986E+03  0.58533576634E+03 0.  0.
        1    1    3    3  502    0  0.85335218875E+02  0.25887584011E+03  0.50723055467E+03  0.57583125635E+03  0.50400001928E-02 0.  1.
       -1    1    3    3    0  502 -0.85335218875E+02 -0.25887584011E+03  0.17885818128E+03  0.32602001351E+03  0.50400001928E-02 0. -1.
</event>
<event>
 5   0  0.2388000E-02  0.5999757E+03  0.7818609E-02  0.9905457E-01
        3   -1    0    0  501    0  0.00000000000E+00  0.00000000000E+00  0.17977411675E+03  0.17977414512E+03  0.10100000352E+00 0.  1.
       -3   -1    0    0    0  501  0.00000000000E+00  0.00000000000E+00 -0.50058755056E+03  0.50058756075E+03  0.10100000352E+00 0. -1.
    10030    2    1    2    0    0  0.00000000000E+00  0.00000000000E+00 -0.32081343381E+03  0.68036170587E+03  0.59997565910E+03 0.  0.
        2    1    3    3  502    0  0.27531437767E+03  0.11833371973E+03 -0.17611235339E+03  0.34758658893E+03  0.25500000920E-02 0.  1.
       -2    1    3    3    0  502 -0.27531437767E+03 -0.11833371973E+03 -0.14470108042E+03  0.33277511695E+03  0.25500000920E-02 0. -1.
</event>
<event>
 5   0  0.5935451E-02  0.6079874E+03  0.7818609E-02  0.9888972E-01
        2   -1    0    0  501    0  0.00000000000E+00  0.00000000000E+00  0.53528858135E+03  0.53528858136E+03  0.25500000920E-02 0. -1.
       -2   -1    0    0    0  501  0.00000000000E+00  0.00000000000E+00 -0.17263988307E+03  0.17263988309E+03  0.25500000920E-02 0.  1.
    10030    2    1    2    0    0  0.00000000000E+00  0.00000000000E+00  0.36264869828E+03  0.70792846445E+03  0.60798736205E+03 0.  0.
        3    1    3    3  502    0  0.15701488218E+03 -0.21004794814E+03  0.23036467480E+01  0.26225775629E+03  0.10100000352E+00 0.  1.
       -3    1    3    3    0  502 -0.15701488218E+03  0.21004794814E+03  0.36034505153E+03  0.44567070816E+03  0.10100000352E+00 0. -1.
</event>
<event>
 5   0  0.5999117E-02  0.6211782E+03  0.7818609E-02  0.9862417E-01
        2   -1    0    0  501    0  0.00000000000E+00  0.00000000000E+00  0.18232156644E+04  0.18232156644E+04  0.25500000920E-02 0.  1.
       -2   -1    0    0    0  501  0.00000000000E+00  0.00000000000E+00 -0.52909586657E+02  0.52909586718E+02  0.25500000920E-02 0. -1.
    10030    2    1    2    0    0  0.00000000000E+00  0.00000000000E+00  0.17703060777E+04  0.18761252511E+04  0.62117819424E+03 0.  0.
        5    1    3    3  502    0  0.15134964434E+03 -0.42572372575E+02  0.16940235722E+04  0.17013103994E+04  0.46999998093E+01 0.  1.
       -5    1    3    3    0  502 -0.15134964434E+03  0.42572372575E+02  0.76282505531E+02  0.17481485176E+03  0.46999998093E+01 0. -1.
</event>
<event>
 5   0  0.6007360E-02  0.5826307E+03  0.7818609E-02  0.9942112E-01
        2   -1    0    0  501    0  0.00000000000E+00  0.00000000000E+00  0.13486786396E+04  0.13486786396E+04  0.25500000920E-02 0. -1.
       -2   -1    0    0    0  501  0.00000000000E+00  0.00000000000E+00 -0.62924280253E+02  0.62924280305E+02  0.25500000920E-02 0.  1.
    10030    2    1    2    0    0  0.00000000000E+00  0.00000000000E+00  0.12857543594E+04  0.14116029199E+04  0.58263069857E+03 0.  0.
        4    1    3    3  502    0  0.49932573741E+02  0.28664371500E+03  0.67757824723E+03  0.73740882506E+03  0.12699999809E+01 0. -1.
       -4    1    3    3    0  502 -0.49932573741E+02 -0.28664371500E+03  0.60817611214E+03  0.67419409486E+03  0.12699999809E+01 0.  1.
</event>
<event>
 5   0  0.5872632E-02  0.6057936E+03  0.7818609E-02  0.9893458E-01
       -2   -1    0    0    0  501  0.00000000000E+00  0.00000000000E+00  0.57887386850E+02  0.57887386906E+02  0.25500000920E-02 0. -1.
        2   -1    0    0  501    0  0.00000000000E+00  0.00000000000E+00 -0.15849132273E+04  0.15849132273E+04  0.25500000920E-02 0.  1.
    10030    2    1    2    0    0  0.00000000000E+00  0.00000000000E+00 -0.15270258404E+04  0.16428006142E+04  0.60579364526E+03 0.  0.
        1    1    3    3  502    0 -0.23715015651E+03 -0.11515491061E+03 -0.35904642993E+03  0.44543819890E+03  0.50400001928E-02 0. -1.
       -1    1    3    3    0  502  0.23715015651E+03  0.11515491061E+03 -0.11679794105E+04  0.11973624153E+04  0.50400001928E-02 0.  1.
</event>
<event>
 5   0  0.3767635E-02  0.6022471E+03  0.7818609E-02  0.9900755E-01
        1   -1    0    0  501    0  0.00000000000E+00  0.00000000000E+00  0.81474741871E+03  0.81474741872E+03  0.50400001928E-02 0. -1.
       -1   -1    0    0    0  501  0.00000000000E+00  0.00000000000E+00 -0.11129263845E+03  0.11129263857E+03  0.50400001928E-02 0.  1.
    10030    2    1    2    0    0  0.00000000000E+00  0.00000000000E+00  0.70345478025E+03  0.92604005729E+03  0.60224709202E+03 0.  0.
        2    1    3    3  502    0 -0.22947077905E+03 -0.18694347361E+03  0.26652083808E+03  0.39829393405E+03  0.25500000920E-02 0. -1.
       -2    1    3    3    0  502  0.22947077905E+03  0.18694347361E+03  0.43693394218E+03  0.52774612324E+03  0.25500000920E-02 0.  1.
</event>
<event>
 5   0  0.3640827E-02  0.6028070E+03  0.7818609E-02  0.9899599E-01
       -1   -1    0    0    0  501  0.00000000000E+00  0.00000000000E+00  0.51087671853E+03  0.51087671855E+03  0.50400001928E-02 0. -1.
        1   -1    0    0  501    0  0.00000000000E+00  0.00000000000E+00 -0.17781996406E+03  0.17781996414E+03  0.50400001928E-02 0.  1.
    10030    2    1    2    0    0  0.00000000000E+00  0.00000000000E+00  0.33305675446E+03  0.68869668269E+03  0.60280703301E+03 0.  0.
        3    1    3    3  502    0 -0.22387256022E+03  0.15529374439E+03  0.31376688718E+03  0.41555353441E+03  0.10100000352E+00 0. -1.
       -3    1    3    3    0  502  0.22387256022E+03 -0.15529374439E+03  0.19289867279E+02  0.27314314827E+03  0.10100000352E+00 0.  1.
</event>
<event>
 5   0  0.2388000E-02  0.5864642E+03  0.7818609E-02  0.9933893E-01
        3   -1    0    0  501    0  0.00000000000E+00  0.00000000000E+00  0.48060879830E+02  0.48060985955E+02  0.10100000352E+00 0.  1.
       -3   -1    0    0    0  501  0.00000000000E+00  0.00000000000E+00 -0.17890840213E+04  0.17890840241E+04  0.10100000352E+00 0. -1.
    10030    2    1    2    0    0  0.00000000000E+00  0.00000000000E+00 -0.17410231415E+04  0.18371450101E+04  0.58646415834E+03 0.  0.
        4    1    3    3  502    0  0.18251584455E+02 -0.18581720544E+03 -0.16222812497E+03  0.24734739053E+03  0.12699999809E+01 0.  1.
       -4    1    3    3    0  502 -0.18251584455E+02  0.18581720544E+03 -0.15787950165E+04  0.15897976196E+04  0.12699999809E+01 0. -1.
</event>
<event>
 5   0  0.5935451E-02  0.5974320E+03  0.7818609E-02  0.9910748E-01
        2   -1    0    0  501    0  0.00000000000E+00  0.00000000000E+00  0.50044104187E+03  0.50044104187E+03  0.25500000920E-02 0.  1.
       -2   -1    0    0    0  501  0.00000000000E+00  0.00000000000E+00 -0.17830520706E+03  0.17830520708E+03  0.25500000920E-02 0. -1.
    10030    2    1    2    0    0  0.00000000000E+00  0.00000000000E+00  0.32213583481E+03  0.67874624895E+03  0.59743198307E+03 0.  0.
        3    1    3    3  502    0 -0.26391954714E+03 -0.91644326542E+02  0.40946372945E+02  0.28236293243E+03  0.10100000352E+00 0.  1.
       -3    1    3    3    0  502  0.26391954714E+03  0.91644326542E+02  0.28118946186E+03  0.39638331652E+03  0.10100000352E+00 0. -1.
</event>
<event>
 5   0  0.5935451E-02  0.6048712E+03  0.7818609E-02  0.9895351E-01
       -2   -1    0    0    0  501  0.00000000000E+00  0.00000000000E+00  0.96252540570E+02  0.96252540604E+02  0.25500000920E-02 0. -1.
        2   -1    0    0  501    0  0.00000000000E+00  0.00000000000E+00 -0.95028450487E+03  0.95028450487E+03  0.25500000920E-02 0.  1.
    10030    2    1    2    0    0  0.00000000000E+00  0.00000000000E+00 -0.85403196430E+03  0.10465370455E+04  0.60487121895E+03 0.  0.
        3    1    3    3  502    0 -0.23321335785E+03 -0.19128802359E+03 -0.38880640234E+03  0.49208739768E+03  0.10100000352E+00 0. -1.
       -3    1    3    3    0  502  0.23321335785E+03  0.19128802359E+03 -0.46522556196E+03  0.55444964780E+03  0.10100000352E+00 0.  1.
</event>
<event>
 5   0  0.3767635E-02  0.5968689E+03  0.7818609E-02  0.9911923E-01
        1   -1    0    0  501    0  0.00000000000E+00  0.00000000000E+00  0.10145355048E+04  0.10145355048E+04  0.50400001928E-02 0. -1.
       -1   -1    0    0    0  501  0.00000000000E+00  0.00000000000E+00 -0.87787102501E+02  0.87787102646E+02  0.50400001928E-02 0.  1.
    10030    2    1    2    0    0  0.00000000000E+00  0.00000000000E+00  0.92674840226E+03  0.11023226074E+04  0.59686893849E+03 0.  0.
        2    1    3    3  502    0 -0.18262069065E+03  0.63311180933E+02  0.88332068553E+03  0.90422013679E+03  0.25500000920E-02 0. -1.
       -2    1    3    3    0  502  0.18262069065E+03 -0.63311180933E+02  0.43427716731E+02  0.19810247063E+03  0.25500000920E-02 0.  1.
</event>
<event>
 5   0  0.3651984E-02  0.5980707E+03  0.7818609E-02  0.9909417E-01
        1   -1    0    0  501    0  0.00000000000E+00  0.00000000000E+00  0.16952284540E+04  0.16952284540E+04  0.50400001928E-02 0.  1.
       -1   -1    0    0    0  501  0.00000000000E+00  0.00000000000E+00 -0.52749318167E+02  0.52749318407E+02  0.50400001928E-02 0. -1.
    10030    2    1    2    0    0  0.00000000000E+00  0.00000000000E+00  0.16424791359E+04  0.17479777725E+04  0.59807071590E+03 0.  0.
        1    1    3    3  502    0 -0.25695906741E+02  0.17835454644E+03  0.12375270367E+03  0.21859861745E+03  0.50400001928E-02 0. -1.
       -1    1    3    3    0  502  0.25695906741E+02 -0.17835454644E+03  0.15187264322E+04  0.15293791550E+04  0.50400001928E-02 0.  1.
</event>
<event>
 5   0  0.5999117E-02  0.6006425E+03  0.7818609E-02  0.9904074E-01
       -2   -1    0    0    0  501  0.00000000000E+00  0.00000000000E+00  0.36595295168E+03  0.36595295169E+03  0.25500000920E-02 0.  1.
        2   -1    0    0  501    0  0.00000000000E+00  0.00000000000E+00 -0.24646023861E+03  0.24646023862E+03  0.25500000920E-02 0. -1.
    10030    2    1    2    0    0  0.00000000000E+00  0.00000000000E+00  0.11949271307E+03  0.61241319031E+03  0.60064249532E+03 0.  0.
        5    1    3    3  502    0 -0.30929037072E+02 -0.14780426776E+03  0.32438635479E+03  0.35784256884E+03  0.46999998093E+01 0.  1.
       -5    1    3    3    0  502  0.30929037072E+02  0.14780426776E+03 -0.20489364172E+03  0.25457062147E+03  0.46999998093E+01 0. -1.
</event>
<event>
 5   0  0.2388000E-02  0.6059425E+03  0.7818609E-02  0.9893153E-01
        3   -1    0    0  501    0  0.00000000000E+00  0.00000000000E+00  0.99243395108E+02  0.99243446502E+02  0.10100000352E+00 0.  1.
       -3   -1    0    0    0  501  0.00000000000E+00  0.00000000000E+00 -0.92491345766E+03  0.92491346318E+03  0.10100000352E+00 0. -1.
    10030    2    1    2    0    0  0.00000000000E+00  0.00000000000E+00 -0.82567006256E+03  0.10241569097E+04  0.60594250837E+03 0.  0.
        5    1    3    3  502    0  0.76499415407E+02  0.19342941794E+03 -0.40600506677E+02  0.21198488489E+03  0.46999998093E+01 0.  1.
       -5    1    3    3    0  502 -0.76499415407E+02 -0.19342941794E+03 -0.78506955588E+03  0.81217202479E+03  0.46999998093E+01 0. -1.
</event>
<event>
 5   0  0.3478183E-02  0.6012219E+03  0.7818609E-02  0.9902874E-01
        1   -1    0    0  501    0  0.00000000000E+00  0.00000000000E+00  0.17455930229E+03  0.17455930236E+03  0.50400001928E-02 0. -1.
       -1   -1    0    0    0  501  0.00000000000E+00  0.00000000000E+00 -0.51768617437E+03  0.51768617439E+03  0.50400001928E-02 0.  1.
    10030    2    1    2    0    0  0.00000000000E+00  0.00000000000E+00 -0.34312687208E+03  0.69224547675E+03  0.60122188063E+03 0.  0.
        4    1    3    3  502    0  0.22412046320E+03  0.15726521331E+03 -0.28664847586E+02  0.27529187371E+03  0.12699999809E+01 0. -1.
       -4    1    3    3    0  502 -0.22412046320E+03 -0.15726521331E+03 -0.31446202449E+03  0.41695360304E+03  0.12699999809E+01 0.  1.
</event>
<event>
 5   0  0.3478183E-02  0.5937416E+03  0.7818609E-02  0.9918476E-01
        1   -1    0    0  501    0  0.00000000000E+00  0.00000000000E+00  0.51506524155E+03  0.51506524158E+03  0.50400001928E-02 0.  1.
       -1   -1    0    0    0  501  0.00000000000E+00  0.00000000000E+00 -0.17110894194E+03  0.17110894202E+03  0.50400001928E-02 0. -1.
    10030    2    1    2    0    0  0.00000000000E+00  0.00000000000E+00  0.34395629961E+03  0.68617418359E+03  0.59374158873E+03 0.  0.
        4    1    3    3  502    0  0.88163745929E+02  0.42930565412E+02  0.49580481118E+03  0.50541062834E+03  0.12699999809E+01 0.  1.
       -4    1    3    3    0  502 -0.88163745929E+02 -0.42930565412E+02 -0.15184851157E+03  0.18076355526E+03  0.12699999809E+01 0. -1.
</event>
<event>
 5   0  0.6007360E-02  0.5898862E+03  0.7818609E-02  0.9926614E-01
        2   -1    0    0  501    0  0.00000000000E+00  0.00000000000E+00  0.26200174343E+03  0.26200174344E+03  0.25500000920E-02 0.  1.
       -2   -1    0    0    0  501  0.00000000000E+00  0.00000000000E+00 -0.33202615732E+03  0.33202615733E+03  0.25500000920E-02 0. -1.
    10030    2    1    2    0    0  0.00000000000E+00  0.00000000000E+00 -0.70024413897E+02  0.59402790077E+03  0.58988619949E+03 0.  0.
        4    1    3    3  502    0  0.27842945848E+03  0.37777344539E+02 -0.12530628914E+03  0.30765787835E+03  0.12699999809E+01 0. -1.
       -4    1    3    3    0  502 -0.27842945848E+03 -0.37777344539E+02  0.55281875241E+02  0.28637002242E+03  0.12699999809E+01 0.  1.
</event>
<event>
 5   0  0.3651984E-02  0.5746120E+03  0.7818609E-02  0.9959525E-01
        1   -1    0    0  501    0  0.00000000000E+00  0.00000000000E+00  0.28171555481E+03  0.28171555485E+03  0.50400001928E-02 0. -1.
       -1   -1    0    0    0  501  0.00000000000E+00  0.00000000000E+00 -0.29300739454E+03  0.29300739458E+03  0.50400001928E-02 0.  1.
    10030    2    1    2    0    0  0.00000000000E+00  0.00000000000E+00 -0.11291839732E+02  0.57472294944E+03  0.57461201081E+03 0.  0.
        1    1    3    3  502    0  0.36219243830E+02 -0.28306084550E+03  0.27669140970E+02  0.28670691877E+03  0.50400001928E-02 0. -1.
       -1    1    3    3    0  502 -0.36219243830E+02  0.28306084550E+03 -0.38960980702E+02  0.28801603067E+03  0.50400001928E-02 0.  1.
</event>
<event>
 5   0  0.3651984E-02  0.6033764E+03  0.7818609E-02  0.9898426E-01
        1   -1    0    0  501    0  0.00000000000E+00  0.00000000000E+00  0.67551101660E+03  0.67551101662E+03  0.50400001928E-02 0. -1.
       -1   -1    0    0    0  501  0.00000000000E+00  0.00000000000E+00 -0.13473619310E+03  0.13473619320E+03  0.50400001928E-02 0.  1.
    10030    2    1    2    0    0  0.00000000000E+00  0.00000000000E+00  0.54077482350E+03  0.81024720982E+03  0.60337644243E+03 0.  0.
        1    1    3    3  502    0 -0.10161478483E+03  0.19649765554E+03 -0.50743558115E+01  0.22127503754E+03  0.50400001928E-02 0.  1.
       -1    1    3    3    0  502  0.10161478483E+03 -0.19649765554E+03  0.54584917931E+03  0.58897217227E+03  0.50400001928E-02 0. -1.
</event>
<event>
 5   0  0.3651984E-02  0.5929393E+03  0.7818609E-02  0.9920164E-01
       -1   -1    0    0    0  501  0.00000000000E+00  0.00000000000E+00  0.24332826653E+03  0.24332826658E+03  0.50400001928E-02 0. -1.
        1   -1    0    0  501    0  0.00000000000E+00  0.00000000000E+00 -0.36121681143E+03  0.36121681147E+03  0.50400001928E-02 0.  1.
    10030    2    1    2    0    0  0.00000000000E+00  0.00000000000E+00 -0.11788854490E+03  0.60454507805E+03  0.59293932436E+03 0.  0.
        1    1    3    3  502    0 -0.95143528740E+02  0.22082642844E+03 -0.23576796029E+03  0.33675381763E+03  0.50400001928E-02 0.  1.
       -1    1    3    3    0  502  0.95143528740E+02 -0.22082642844E+03  0.11787941539E+03  0.26779126042E+03  0.50400001928E-02 0. -1.
</event>
<event>
 5   0  0.3703280E-02  0.5961356E+03  0.7818609E-02  0.9913456E-01
       -1   -1    0    0    0  501  0.00000000000E+00  0.00000000000E+00  0.29946115224E+03  0.29946115228E+03  0.50400001928E-02 0.  1.
        1   -1    0    0  501    0  0.00000000000E+00  0.00000000000E+00 -0.29668090762E+03  0.29668090767E+03  0.50400001928E-02 0. -1.
    10030    2    1    2    0    0  0.00000000000E+00  0.00000000000E+00  0.27802446133E+01  0.59614205995E+03  0.59613557676E+03 0.  0.
        5    1    3    3  502    0  0.12581682697E+03  0.23870238022E+03  0.12793641624E+03  0.29866120751E+03  0.46999998093E+01 0. -1.
       -5    1    3    3    0  502 -0.12581682697E+03 -0.23870238022E+03 -0.12515617163E+03  0.29748085244E+03  0.46999998093E+01 0.  1.
</event>
<event>
 5   0  0.3640827E-02  0.5964261E+03  0.7818609E-02  0.9912849E-01
        1   -1    0    0  501    0  0.00000000000E+00  0.00000000000E+00  0.13066700520E+04  0.13066700520E+04  0.50400001928E-02 0. -1.
       -1   -1    0    0    0  501  0.00000000000E+00  0.00000000000E+00 -0.68059284565E+02  0.68059284752E+02  0.50400001928E-02 0.  1.
    10030    2    1    2    0    0  0.00000000000E+00  0.00000000000E+00  0.12386107674E+04  0.13747293368E+04  0.59642611960E+03 0.  0.
        3    1    3    3  502    0  0.61079462950E+02  0.20413807282E+03  0.13841650961E+03  0.25409091661E+03  0.10100000352E+00 0.  1.
       -3    1    3    3    0  502 -0.61079462950E+02 -0.20413807282E+03  0.11001942578E+04  0.11206384201E+04  0.10100000352E+00 0. -1.
</event>
<event>
 5   0  0.3767635E-02  0.5892332E+03  0.7818609E-02  0.9927999E-01
        1   -1    0    0  501    0  0.00000000000E+00  0.00000000000E+00  0.51410262384E+03  0.51410262387E+03  0.50400001928E-02 0. -1.
       -1   -1    0    0    0  501  0.00000000000E+00  0.00000000000E+00 -0.16883580438E+03  0.16883580446E+03  0.50400001928E-02 0.  1.
    10030    2    1    2    0    0  0.00000000000E+00  0.00000000000E+00  0.34526681946E+03  0.68293842832E+03  0.58923316290E+03 0.  0.
        2    1    3    3  502    0  0.11872999450E+03 -0.18259370872E+03 -0.57315338601E+02  0.22521616750E+03  0.25500000920E-02 0.  1.
       -2    1    3    3    0  502 -0.11872999450E+03  0.18259370872E+03  0.40258215806E+03  0.45772226082E+03  0.25500000920E-02 0. -1.
</event>
<event>
 5   0  0.3767635E-02  0.6032812E+03  0.7818609E-02  0.9898622E-01
        1   -1    0    0  501    0  0.00000000000E+00  0.00000000000E+00  0.26660137316E+03  0.26660137321E+03  0.50400001928E-02 0.  1.
       -1   -1    0    0    0  501  0.00000000000E+00  0.00000000000E+00 -0.34128503663E+03  0.34128503666E+03  0.50400001928E-02 0. -1.
    10030    2    1    2    0    0  0.00000000000E+00  0.00000000000E+00 -0.74683663468E+02  0.60788640987E+03  0.60328122606E+03 0.  0.
        2    1    3    3  502    0 -0.78570206341E+02  0.21768761037E+03  0.15759265159E+03  0.27999395864E+03  0.25500000920E-02 0.  1.
       -2    1    3    3    0  502  0.78570206341E+02 -0.21768761037E+03 -0.23227631505E+03  0.32789245123E+03  0.25500000920E-02 0. -1.
</event>
<event>
 5   0  0.3767635E-02  0.5945331E+03  0.7818609E-02  0.9916814E-01
       -1   -1    0    0    0  501  0.00000000000E+00  0.00000000000E+00  0.68290524514E+03  0.68290524516E+03  0.50400001928E-02 0.  1.
        1   -1    0    0  501    0  0.00000000000E+00  0.00000000000E+00 -0.12939920282E+03  0.12939920292E+03  0.50400001928E-02 0. -1.
    10030    2    1    2    0    0  0.00000000000E+00  0.00000000000E+00  0.55350604233E+03  0.81230444808E+03  0.59453307518E+03 0.  0.
        2    1    3    3  502    0 -0.25249825100E+03 -0.33342949731E+02  0.48620250096E+03  0.54887156148E+03  0.25500000920E-02 0.  1.
       -2    1    3    3    0  502  0.25249825100E+03  0.33342949731E+02  0.67303541370E+02  0.26343288660E+03  0.25500000920E-02 0. -1.
</event>
<event>
 5   0  0.5999117E-02  0.5978594E+03  0.7818609E-02  0.9909857E-01
        2   -1    0    0  501    0  0.00000000000E+00  0.00000000000E+00  0.19395605524E+04  0.19395605524E+04  0.25500000920E-02 0. -1.
       -2   -1    0    0    0  501  0.00000000000E+00  0.00000000000E+00 -0.46071758839E+02  0.46071758909E+02  0.25500000920E-02 0.  1.
    10030    2    1    2    0    0  0.00000000000E+00  0.00000000000E+00  0.18934887936E+04  0.19856323113E+04  0.59785940185E+03 0.  0.
        5    1    3    3  502    0  0.69090296070E+02 -0.15500174562E+03  0.17639161039E+04  0.17720669067E+04  0.46999998093E+01 0. -1.
       -5    1    3    3    0  502 -0.69090296070E+02  0.15500174562E+03  0.12957268970E+03  0.21356540466E+03  0.46999998093E+01 0.  1.
</event>
<event>
 5   0  0.3651984E-02  0.6069694E+03  0.7818609E-02  0.9891051E-01
       -1   -1    0    0    0  501  0.00000000000E+00  0.00000000000E+00  0.22782325803E+03  0.22782325809E+03  0.50400001928E-02 0.  1.
        1   -1    0    0  501    0  0.00000000000E+00  0.00000000000E+00 -0.40427380590E+03  0.40427380593E+03  0.50400001928E-02 0. -1.
    10030    2    1    2    0    0  0.00000000000E+00  0.00000000000E+00 -0.17645054787E+03  0.63209706402E+03  0.60696944116E+03 0.  0.
        1    1    3    3  502    0  0.20088392838E+03  0.19023596665E+03  0.41673900294E+02  0.27978704344E+03  0.50400001928E-02 0.  1.
       -1    1    3    3    0  502 -0.20088392838E+03 -0.19023596665E+03 -0.21812444816E+03  0.35231002058E+03  0.50400001928E-02 0. -1.
</event>
<event>
 5   0  0.3703280E-02  0.5981525E+03  0.7818609E-02  0.9909246E-01
       -1   -1    0    0    0  501  0.00000000000E+00  0.00000000000E+00  0.29396436364E+03  0.29396436368E+03  0.50400001928E-02 0.  1.
        1   -1    0    0  501    0  0.00000000000E+00  0.00000000000E+00 -0.30427707288E+03  0.30427707292E+03  0.50400001928E-02 0. -1.
    10030    2    1    2    0    0  0.00000000000E+00  0.00000000000E+00 -0.10312709247E+02  0.59824143660E+03  0.59815254283E+03 0.  0.
        5    1    3    3  502    0  0.19641235323E+03 -0.16218914717E+03  0.15152385821E+03  0.29641980629E+03  0.46999998093E+01 0.  1.
       -5    1    3    3    0  502 -0.19641235323E+03  0.16218914717E+03 -0.16183656745E+03  0.30182163031E+03  0.46999998093E+01 0. -1.
</event>
<event>
 5   0  0.5935451E-02  0.5993133E+03  0.7818609E-02  0.9906832E-01
        2   -1    0    0  501    0  0.00000000000E+00  0.00000000000E+00  0.32428575617E+03  0.32428575618E+03  0.25500000920E-02 0.  1.
       -2   -1    0    0    0  501  0.00000000000E+00  0.00000000000E+00 -0.27689806165E+03  0.27689806166E+03  0.25500000920E-02 0. -1.
    10030    2    1    2    0    0  0.00000000000E+00  0.00000000000E+00  0.47387694516E+02  0.60118381784E+03  0.59931326470E+03 0.  0.
        3    1    3    3  502    0 -0.17122675178E+03 -0.11739136308E+03 -0.19307029421E+03  0.28350569899E+03  0.10100000352E+00 0. -1.
       -3    1    3    3    0  502  0.17122675178E+03  0.11739136308E+03  0.24045798873E+03  0.31767811885E+03  0.10100000352E+00 0.  1.
</event>
<event>
 5   0  0.3478183E-02  0.6283639E+03  0.7818609E-02  0.9848247E-01
       -1   -1    0    0    0  501  0.00000000000E+00  0.00000000000E+00  0.71684670021E+02  0.71684670198E+02  0.50400001928E-02 0. -1.
        1   -1    0    0  501    0  0.00000000000E+00  0.00000000000E+00 -0.13770071463E+04  0.13770071463E+04  0.50400001928E-02 0.  1.
    10030    2    1    2    0    0  0.00000000000E+00  0.00000000000E+00 -0.13053224763E+04  0.14486918165E+04  0.62836391696E+03 0.  0.
        4    1    3    3  502    0 -0.25622491306E+03  0.17654681621E+03 -0.55246603743E+03  0.63406649478E+03  0.12699999809E+01 0. -1.
       -4    1    3    3    0  502  0.25622491306E+03 -0.17654681621E+03 -0.75285643885E+03  0.81462532173E+03  0.12699999809E+01 0.  1.
</event>
<event>
 5   0  0.6007360E-02  0.6058465E+03  0.7818609E-02  0.9893350E-01
       -2   -1    0    0    0  501  0.00000000000E+00  0.00000000000E+00  0.25843968114E+03  0.25843968116E+03  0.25500000920E-02 0.  1.
        2   -1    0    0  501    0  0.00000000000E+00  0.00000000000E+00 -0.35506354683E+03  0.35506354684E+03  0.25500000920E-02 0. -1.
    10030    2    1    2    0    0  0.00000000000E+00  0.00000000000E+00 -0.96623865690E+02  0.61350322800E+03  0.60584654769E+03 0.  0.
        4    1    3    3  502    0  0.84161719683E+01  0.52145940193E+02  0.25373756868E+03  0.25918024170E+03  0.12699999809E+01 0.  1.
       -4    1    3    3    0  502 -0.84161719683E+01 -0.52145940193E+02 -0.35036143437E+03  0.35432298630E+03  0.12699999809E+01 0. -1.
</event>
<event>
 5   0  0.5872632E-02  0.5955554E+03  0.7818609E-02  0.9914670E-01
       -2   -1    0    0    0  501  0.00000000000E+00  0.00000000000E+00  0.70157706659E+02  0.70157706706E+02  0.25500000920E-02 0.  1.
        2   -1    0    0  501    0  0.00000000000E+00  0.00000000000E+00 -0.12638892001E+04  0.12638892001E+04  0.25500000920E-02 0. -1.
    10030    2    1    2    0    0  0.00000000000E+00  0.00000000000E+00 -0.11937314934E+04  0.13340469068E+04  0.59555543078E+03 0.  0.
        1    1    3    3  502    0 -0.45208081253E+02  0.29427763846E+03 -0.58491397377E+03  0.65632877116E+03  0.50400001928E-02 0.  1.
       -1    1    3    3    0  502  0.45208081253E+02 -0.29427763846E+03 -0.60881751967E+03  0.67771813565E+03  0.50400001928E-02 0. -1.
</event>
<event>
 5   0  0.3640827E-02  0.5969613E+03  0.7818609E-02  0.9911730E-01
        1   -1    0    0  501    0  0.00000000000E+00  0.00000000000E+00  0.43801134567E+03  0.43801134570E+03  0.50400001928E-02 0. -1.
       -1   -1    0    0    0  501  0.00000000000E+00  0.00000000000E+00 -0.20339816659E+03  0.20339816665E+03  0.50400001928E-02 0.  1.
    10030    2    1    2    0    0  0.00000000000E+00  0.00000000000E+00  0.23461317908E+03  0.64140951236E+03  0.59696132098E+03 0.  0.
        3    1    3    3  502    0  0.22516595168E+03 -0.15158010216E+03  0.25070583705E+03  0.36949920176E+03  0.10100000352E+00 0.  1.
       -3    1    3    3    0  502 -0.22516595168E+03  0.15158010216E+03 -0.16092657968E+02  0.27191031060E+03  0.10100000352E+00 0. -1.
</event>
<event>
 5   0  0.5935451E-02  0.6416929E+03  0.7818609E-02  0.9822493E-01
       -2   -1    0    0    0  501  0.00000000000E+00  0.00000000000E+00  0.51276605404E+02  0.51276605467E+02  0.25500000920E-02 0.  1.
        2   -1    0    0  501    0  0.00000000000E+00  0.00000000000E+00 -0.20075910557E+04  0.20075910557E+04  0.25500000920E-02 0. -1.
    10030    2    1    2    0    0  0.00000000000E+00  0.00000000000E+00 -0.19563144503E+04  0.20588676611E+04  0.64169293105E+03 0.  0.
        3    1    3    3  502    0 -0.19251894306E+03  0.25541119936E+03 -0.10595809319E+04  0.11068017824E+04  0.10100000352E+00 0. -1.
       -3    1    3    3    0  502  0.19251894306E+03 -0.25541119936E+03 -0.89673351838E+03  0.95206587870E+03  0.10100000352E+00 0.  1.
</event>
<event>
 5   0  0.3478183E-02  0.5968728E+03  0.7818609E-02  0.9911915E-01
       -1   -1    0    0    0  501  0.00000000000E+00  0.00000000000E+00  0.17266247734E+03  0.17266247741E+03  0.50400001928E-02 0. -1.
        1   -1    0    0  501    0  0.00000000000E+00  0.00000000000E+00 -0.51582890136E+03  0.51582890139E+03  0.50400001928E-02 0.  1.
    10030    2    1    2    0    0  0.00000000000E+00  0.00000000000E+00 -0.34316642403E+03  0.68849137880E+03  0.59687283746E+03 0.  0.
        4    1    3    3  502    0  0.22954489499E+03 -0.51939814310E+02  0.40089347210E+02  0.23874122347E+03  0.12699999809E+01 0. -1.
       -4    1    3    3    0  502 -0.22954489499E+03  0.51939814310E+02 -0.38325577124E+03  0.44975015532E+03  0.12699999809E+01 0.  1.
</event>
<event>
 5   0  0.5755078E-02  0.6090993E+03  0.7818609E-02  0.9886706E-01
        2   -1    0    0  501    0  0.00000000000E+00  0.00000000000E+00  0.13556327817E+04  0.13556327817E+04  0.25500000920E-02 0.  1.
       -2   -1    0    0    0  501  0.00000000000E+00  0.00000000000E+00 -0.68418599189E+02  0.68418599236E+02  0.25500000920E-02 0. -1.
    10030    2    1    2    0    0  0.00000000000E+00  0.00000000000E+00  0.12872141825E+04  0.14240513809E+04  0.60909932186E+03 0.  0.
        2    1    3    3  502    0  0.19212496961E+03 -0.23012437940E+03  0.76910281308E+03  0.82546251946E+03  0.25500000920E-02 0.  1.
       -2    1    3    3    0  502 -0.19212496961E+03  0.23012437940E+03  0.51811136940E+03  0.59858886145E+03  0.25500000920E-02 0. -1.
</event>
<event>
 5   0  0.3478183E-02  0.5986339E+03  0.7818609E-02  0.9908244E-01
        1   -1    0    0  501    0  0.00000000000E+00  0.00000000000E+00  0.13059949129E+03  0.13059949139E+03  0.50400001928E-02 0. -1.
       -1   -1    0    0    0  501  0.00000000000E+00  0.00000000000E+00 -0.68599519641E+03  0.68599519643E+03  0.50400001928E-02 0.  1.
    10030    2    1    2    0    0  0.00000000000E+00  0.00000000000E+00 -0.55539570512E+03  0.81659468782E+03  0.59863385714E+03 0.  0.
        4    1    3    3  502    0 -0.14215914362E+02 -0.26619752398E+03 -0.92031278808E+02  0.28201876387E+03  0.12699999809E+01 0. -1.
       -4    1    3    3    0  502  0.14215914362E+02  0.26619752398E+03 -0.46336442631E+03  0.53457592395E+03  0.12699999809E+01 0.  1.
</event>
<event>
 5   0  0.3478183E-02  0.5679426E+03  0.7818609E-02  0.9974242E-01
        1   -1    0    0  501    0  0.00000000000E+00  0.00000000000E+00  0.13170620769E+03  0.13170620779E+03  0.50400001928E-02 0. -1.
       -1   -1    0    0    0  501  0.00000000000E+00  0.00000000000E+00 -0.61226954290E+03  0.61226954292E+03  0.50400001928E-02 0.  1.
    10030    2    1    2    0    0  0.00000000000E+00  0.00000000000E+00 -0.48056333521E+03  0.74397575071E+03  0.56794260141E+03 0.  0.
        4    1    3    3  502    0 -0.52449278912E+02  0.17380145804E+03 -0.52631946661E+03  0.55675099237E+03  0.12699999809E+01 0.  1.
       -4    1    3    3    0  502  0.52449278912E+02 -0.17380145804E+03  0.45756131401E+02  0.18722475834E+03  0.12699999809E+01 0. -1.
</event>
<event>
 5   0  0.3767635E-02  0.5943941E+03  0.7818609E-02  0.9917105E-01
       -1   -1    0    0    0  501  0.00000000000E+00  0.00000000000E+00  0.12245934176E+03  0.12245934186E+03  0.50400001928E-02 0. -1.
        1   -1    0    0  501    0  0.00000000000E+00  0.00000000000E+00 -0.72126870119E+03  0.72126870121E+03  0.50400001928E-02 0.  1.
    10030    2    1    2    0    0  0.00000000000E+00  0.00000000000E+00 -0.59880935943E+03  0.84372804307E+03  0.59439411313E+03 0.  0.
        2    1    3    3  502    0 -0.88026622693E+02  0.28707587125E+02  0.10146412140E+03  0.13736003713E+03  0.25500000920E-02 0. -1.
       -2    1    3    3    0  502  0.88026622693E+02 -0.28707587125E+02 -0.70027348083E+03  0.70636800595E+03  0.25500000920E-02 0.  1.
</event>
<event>
 5   0  0.5755078E-02  0.6277782E+03  0.7818609E-02  0.9849394E-01
        2   -1    0    0  501    0  0.00000000000E+00  0.00000000000E+00  0.64608616875E+03  0.64608616875E+03  0.25500000920E-02 0.  1.
       -2   -1    0    0    0  501  0.00000000000E+00  0.00000000000E+00 -0.15249726687E+03  0.15249726689E+03  0.25500000920E-02 0. -1.
    10030    2    1    2    0    0  0.00000000000E+00  0.00000000000E+00  0.49358890188E+03  0.79858343565E+03  0.62777822488E+03 0.  0.
        2    1    3    3  502    0  0.83394405202E+01 -0.98190510548E+02  0.62589840653E+03  0.63360850526E+03  0.25500000920E-02 0.  1.
       -2    1    3    3    0  502 -0.83394405202E+01  0.98190510548E+02 -0.13230950465E+03  0.16497493039E+03  0.25500000920E-02 0. -1.
</event>
<event>
 5   0  0.5872632E-02  0.5606575E+03  0.7818609E-02  0.9990568E-01
        2   -1    0    0  501    0  0.00000000000E+00  0.00000000000E+00  0.13947466753E+03  0.13947466756E+03  0.25500000920E-02 0.  1.
       -2   -1    0    0    0  501  0.00000000000E+00  0.00000000000E+00 -0.56343001872E+03  0.56343001873E+03  0.25500000920E-02 0. -1.
    10030    2    1    2    0    0  0.00000000000E+00  0.00000000000E+00 -0.42395535119E+03  0.70290468629E+03  0.56065752309E+03 0.  0.
        1    1    3    3  502    0  0.94374320672E+02 -0.21296305233E+03 -0.16444607765E+02  0.23351702124E+03  0.50400001928E-02 0.  1.
       -1    1    3    3    0  502 -0.94374320672E+02  0.21296305233E+03 -0.40751074343E+03  0.46938766504E+03  0.50400001928E-02 0. -1.
</event>
<event>
 5   0  0.5999117E-02  0.5964564E+03  0.7818609E-02  0.9912785E-01
       -2   -1    0    0    0  501  0.00000000000E+00  0.00000000000E+00  0.12894878654E+03  0.12894878657E+03  0.25500000920E-02 0.  1.
        2   -1    0    0  501    0  0.00000000000E+00  0.00000000000E+00 -0.68973166220E+03  0.68973166220E+03  0.25500000920E-02 0. -1.
    10030    2    1    2    0    0  0.00000000000E+00  0.00000000000E+00 -0.56078287566E+03  0.81868044877E+03  0.59645640542E+03 0.  0.
        5    1    3    3  502    0 -0.71530973682E+02  0.28539542804E+03 -0.21384297272E+03  0.36375560136E+03  0.46999998093E+01 0. -1.
       -5    1    3    3    0  502  0.71530973682E+02 -0.28539542804E+03 -0.34693990293E+03  0.45492484741E+03  0.46999998093E+01 0.  1.
</event>
<event>
 5   0  0.5872632E-02  0.6041593E+03  0.7818609E-02  0.9896814E-01
       -2   -1    0    0    0  501  0.00000000000E+00  0.00000000000E+00  0.16541046966E+03  0.16541046968E+03  0.25500000920E-02 0. -1.
        2   -1    0    0  501    0  0.00000000000E+00  0.00000000000E+00 -0.55167068053E+03  0.55167068054E+03  0.25500000920E-02 0.  1.
    10030    2    1    2    0    0  0.00000000000E+00  0.00000000000E+00 -0.38626021087E+03  0.71708115022E+03  0.60415927164E+03 0.  0.
        1    1    3    3  502    0  0.16150950304E+03 -0.93568886500E+02  0.88773911348E+02  0.20669122733E+03  0.50400001928E-02 0. -1.
       -1    1    3    3    0  502 -0.16150950304E+03  0.93568886500E+02 -0.47503412222E+03  0.51038992289E+03  0.50400001928E-02 0.  1.
</event>
<event>
 5   0  0.3651984E-02  0.6005357E+03  0.7818609E-02  0.9904295E-01
       -1   -1    0    0    0  501  0.00000000000E+00  0.00000000000E+00  0.12405348601E+03  0.12405348611E+03  0.50400001928E-02 0.  1.
        1   -1    0    0  501    0  0.00000000000E+00  0.00000000000E+00 -0.72678965545E+03  0.72678965547E+03  0.50400001928E-02 0. -1.
    10030    2    1    2    0    0  0.00000000000E+00  0.00000000000E+00 -0.60273616944E+03  0.85084314158E+03  0.60053572885E+03 0.  0.
        1    1    3    3  502    0 -0.42331023984E+02  0.28571812249E+03 -0.18510331076E+03  0.34305975688E+03  0.50400001928E-02 0.  1.
       -1    1    3    3    0  502  0.42331023984E+02 -0.28571812249E+03 -0.41763285868E+03  0.50778338471E+03  0.50400001928E-02 0. -1.
</event>
<event>
 5   0  0.5999117E-02  0.5913596E+03  0.7818609E-02  0.9923496E-01
       -2   -1    0    0    0  501  0.00000000000E+00  0.00000000000E+00  0.19604591228E+03  0.19604591230E+03  0.25500000920E-02 0. -1.
        2   -1    0    0  501    0  0.00000000000E+00  0.00000000000E+00 -0.44594936274E+03  0.44594936275E+03  0.25500000920E-02 0.  1.
    10030    2    1    2    0    0  0.00000000000E+00  0.00000000000E+00 -0.24990345046E+03  0.64199527505E+03  0.59135961870E+03 0.  0.
        5    1    3    3  502    0  0.14404552271E+03 -0.20031065580E+03  0.51878654669E+02  0.25216454202E+03  0.46999998093E+01 0. -1.
       -5    1    3    3    0  502 -0.14404552271E+03  0.20031065580E+03 -0.30178210513E+03  0.38983073303E+03  0.46999998093E+01 0.  1.
</event>
<event>
 5   0  0.3703280E-02  0.6001905E+03  0.7818609E-02  0.9905011E-01
       -1   -1    0    0    0  501  0.00000000000E+00  0.00000000000E+00  0.67779339606E+02  0.67779339794E+02  0.50400001928E-02 0. -1.
        1   -1    0    0  501    0  0.00000000000E+00  0.00000000000E+00 -0.13286814965E+04  0.13286814965E+04  0.50400001928E-02 0.  1.
    10030    2    1    2    0    0  0.00000000000E+00  0.00000000000E+00 -0.12609021569E+04  0.13964608363E+04  0.60019048482E+03 0.  0.
        5    1    3    3  502    0  0.19367852017E+02 -0.24052753125E+03 -0.21549961039E+03  0.32355954484E+03  0.46999998093E+01 0. -1.
       -5    1    3    3    0  502 -0.19367852017E+02  0.24052753125E+03 -0.10454025465E+04  0.10729012915E+04  0.46999998093E+01 0.  1.
</event>
<event>
 5   0  0.6007360E-02  0.6026294E+03  0.7818609E-02  0.9899966E-01
       -2   -1    0    0    0  501  0.00000000000E+00  0.00000000000E+00  0.74714066330E+02  0.74714066374E+02  0.25500000920E-02 0. -1.
        2   -1    0    0  501    0  0.00000000000E+00  0.00000000000E+00 -0.12151735669E+04  0.12151735669E+04  0.25500000920E-02 0.  1.
    10030    2    1    2    0    0  0.00000000000E+00  0.00000000000E+00 -0.11404595005E+04  0.12898876332E+04  0.60262943342E+03 0.  0.
        4    1    3    3  502    0 -0.16628384084E+02  0.10435869570E+03 -0.11742024053E+04  0.11789487444E+04  0.12699999809E+01 0.  1.
       -4    1    3    3    0  502  0.16628384084E+02 -0.10435869570E+03  0.33742904759E+02  0.11093888880E+03  0.12699999809E+01 0. -1.
</event>
<event>
 5   0  0.6007360E-02  0.5949066E+03  0.7818609E-02  0.9916030E-01
       -2   -1    0    0    0  501  0.00000000000E+00  0.00000000000E+00  0.16981524469E+03  0.16981524471E+03  0.25500000920E-02 0.  1.
        2   -1    0    0  501    0  0.00000000000E+00  0.00000000000E+00 -0.52102778051E+03  0.52102778051E+03  0.25500000920E-02 0. -1.
    10030    2    1    2    0    0  0.00000000000E+00  0.00000000000E+00 -0.35121253582E+03  0.69084302522E+03  0.59490658105E+03 0.  0.
        4    1    3    3  502    0 -0.26807735576E+03 -0.11337644142E+03 -0.24678668150E+03  0.38160839247E+03  0.12699999809E+01 0. -1.
       -4    1    3    3    0  502  0.26807735576E+03  0.11337644142E+03 -0.10442585432E+03  0.30923463275E+03  0.12699999809E+01 0.  1.
</event>
<event>
 5   0  0.2388000E-02  0.5974868E+03  0.7818609E-02  0.9910634E-01
        4   -1    0    0  501    0  0.00000000000E+00  0.00000000000E+00  0.17420997734E+03  0.17421460646E+03  0.12699999809E+01 0. -1.
       -4   -1    0    0    0  501  0.00000000000E+00  0.00000000000E+00 -0.51228692337E+03  0.51228849758E+03  0.12699999809E+01 0.  1.
    10030    2    1    2    0    0  0.00000000000E+00  0.00000000000E+00 -0.33807694603E+03  0.68650310404E+03  0.59748681192E+03 0.  0.
        3    1    3    3  502    0 -0.24371841678E+03 -0.97868179169E+02 -0.54512976890E+01  0.26269102386E+03  0.10100000352E+00 0. -1.
       -3    1    3    3    0  502  0.24371841678E+03  0.97868179169E+02 -0.33262564835E+03  0.42381208018E+03  0.10100000352E+00 0.  1.
</event>
<event>
 5   0  0.2388000E-02  0.5985211E+03  0.7818609E-02  0.9908479E-01
        3   -1    0    0  501    0  0.00000000000E+00  0.00000000000E+00  0.32676176349E+03  0.32676177910E+03  0.10100000352E+00 0.  1.
       -3   -1    0    0    0  501  0.00000000000E+00  0.00000000000E+00 -0.27407391380E+03  0.27407393241E+03  0.10100000352E+00 0. -1.
    10030    2    1    2    0    0  0.00000000000E+00  0.00000000000E+00  0.52687849693E+02  0.60083571151E+03  0.59852112972E+03 0.  0.
        3    1    3    3  502    0  0.23419745056E+03  0.10713623168E+03 -0.12666024345E+03  0.28700077606E+03  0.10100000352E+00 0. -1.
       -3    1    3    3    0  502 -0.23419745056E+03 -0.10713623168E+03  0.17934809315E+03  0.31383493544E+03  0.10100000352E+00 0.  1.
</event>
<event>
 5   0  0.3651984E-02  0.5745303E+03  0.7818609E-02  0.9959703E-01
        1   -1    0    0  501    0  0.00000000000E+00  0.00000000000E+00  0.15260134964E+04  0.15260134964E+04  0.50400001928E-02 0. -1.
       -1   -1    0    0    0  501  0.00000000000E+00  0.00000000000E+00 -0.54076370214E+02  0.54076370449E+02  0.50400001928E-02 0.  1.
    10030    2    1    2    0    0  0.00000000000E+00  0.00000000000E+00  0.14719371262E+04  0.15800898669E+04  0.57453031591E+03 0.  0.
        1    1    3    3  502    0 -0.27498861210E+02  0.39586436999E+02 -0.42875655670E+02  0.64510427348E+02  0.50400001928E-02 0.  1.
       -1    1    3    3    0  502  0.27498861210E+02 -0.39586436999E+02  0.15148127819E+04  0.15155794395E+04  0.50400001928E-02 0. -1.
</event>
<event>
 5   0  0.3703280E-02  0.5986997E+03  0.7818609E-02  0.9908107E-01
        1   -1    0    0  501    0  0.00000000000E+00  0.00000000000E+00  0.53071285288E+03  0.53071285290E+03  0.50400001928E-02 0. -1.
       -1   -1    0    0    0  501  0.00000000000E+00  0.00000000000E+00 -0.16884899149E+03  0.16884899156E+03  0.50400001928E-02 0.  1.
    10030    2    1    2    0    0  0.00000000000E+00  0.00000000000E+00  0.36186386139E+03  0.69956184446E+03  0.59869969104E+03 0.  0.
        5    1    3    3  502    0  0.41906118375E+02 -0.14025147021E+03 -0.12412935989E+03  0.19198121168E+03  0.46999998093E+01 0.  1.
       -5    1    3    3    0  502 -0.41906118375E+02  0.14025147021E+03  0.48599322128E+03  0.50758063279E+03  0.46999998093E+01 0. -1.
</event>
<event>
 5   0  0.6007360E-02  0.6046889E+03  0.7818609E-02  0.9895726E-01
       -2   -1    0    0    0  501  0.00000000000E+00  0.00000000000E+00  0.69373042169E+03  0.69373042169E+03  0.25500000920E-02 0.  1.
        2   -1    0    0  501    0  0.00000000000E+00  0.00000000000E+00 -0.13176899515E+03  0.13176899517E+03  0.25500000920E-02 0. -1.
    10030    2    1    2    0    0  0.00000000000E+00  0.00000000000E+00  0.56196142654E+03  0.82549941687E+03  0.60468888061E+03 0.  0.
        4    1    3    3  502    0 -0.26293386038E+03 -0.13428623415E+03  0.19205058028E+03  0.35221022970E+03  0.12699999809E+01 0.  1.
       -4    1    3    3    0  502  0.26293386038E+03  0.13428623415E+03  0.36991084626E+03  0.47328918717E+03  0.12699999809E+01 0. -1.
</event>
<event>
 5   0  0.5999117E-02  0.5997433E+03  0.7818609E-02  0.9905939E-01
        2   -1    0    0  501    0  0.00000000000E+00  0.00000000000E+00  0.13030432230E+04  0.13030432230E+04  0.25500000920E-02 0. -1.
       -2   -1    0    0    0  501  0.00000000000E+00  0.00000000000E+00 -0.69009997563E+02  0.69009997610E+02  0.25500000920E-02 0.  1.
    10030    2    1    2    0    0  0.00000000000E+00  0.00000000000E+00  0.12340332254E+04  0.13720532206E+04  0.59974331068E+03 0.  0.
        5    1    3    3  502    0  0.23349789207E+03 -0.17958289674E+03  0.74499968983E+03  0.80113538821E+03  0.46999998093E+01 0. -1.
       -5    1    3    3    0  502 -0.23349789207E+03  0.17958289674E+03  0.48903353558E+03  0.57091783238E+03  0.46999998093E+01 0.  1.
</event>
<event>
 5   0  0.5872632E-02  0.6003813E+03  0.7818609E-02  0.9904615E-01
        2   -1    0    0  501    0  0.00000000000E+00  0.00000000000E+00  0.54719798687E+03  0.54719798688E+03  0.25500000920E-02 0.  1.
       -2   -1    0    0    0  501  0.00000000000E+00  0.00000000000E+00 -0.16468338376E+03  0.16468338378E+03  0.25500000920E-02 0. -1.
    10030    2    1    2    0    0  0.00000000000E+00  0.00000000000E+00  0.38251460311E+03  0.71188137066E+03  0.60038126578E+03 0.  0.
        1    1    3    3  502    0  0.86706008685E+02 -0.28267417953E+03  0.25277516901E+03  0.38899602801E+03  0.50400001928E-02 0. -1.
       -1    1    3    3    0  502 -0.86706008685E+02  0.28267417953E+03  0.12973943410E+03  0.32288534265E+03  0.50400001928E-02 0.  1.
</event>
<event>
 5   0  0.5872632E-02  0.5581473E+03  0.7818609E-02  0.9996255E-01
       -2   -1    0    0    0  501  0.00000000000E+00  0.00000000000E+00  0.71134741024E+02  0.71134741069E+02  0.25500000920E-02 0.  1.
        2   -1    0    0  501    0  0.00000000000E+00  0.00000000000E+00 -0.10948533124E+04  0.10948533124E+04  0.25500000920E-02 0. -1.
    10030    2    1    2    0    0  0.00000000000E+00  0.00000000000E+00 -0.10237185713E+04  0.11659880534E+04  0.55814731697E+03 0.  0.
        1    1    3    3  502    0 -0.88353984888E+02  0.86903317404E+02  0.10497063439E+02  0.12437363703E+03  0.50400001928E-02 0.  1.
       -1    1    3    3    0  502  0.88353984888E+02 -0.86903317404E+02 -0.10342156348E+04  0.10416144164E+04  0.50400001928E-02 0. -1.
</event>
<event>
 5   0  0.3703280E-02  0.5948430E+03  0.7818609E-02  0.9916163E-01
       -1   -1    0    0    0  501  0.00000000000E+00  0.00000000000E+00  0.19907850534E+03  0.19907850541E+03  0.50400001928E-02 0. -1.
        1   -1    0    0  501    0  0.00000000000E+00  0.00000000000E+00 -0.44434498419E+03  0.44434498421E+03  0.50400001928E-02 0.  1.
    10030    2    1    2    0    0  0.00000000000E+00  0.00000000000E+00 -0.24526647884E+03  0.64342348962E+03  0.59484295520E+03 0.  0.
        5    1    3    3  502    0  0.16697148296E+03 -0.21622144908E+03  0.44629475629E+01  0.27326397323E+03  0.46999998093E+01 0. -1.
       -5    1    3    3    0  502 -0.16697148296E+03  0.21622144908E+03 -0.24972942641E+03  0.37015951639E+03  0.46999998093E+01 0.  1.
</event>
<event>
 5   0  0.3703280E-02  0.6086863E+03  0.7818609E-02  0.9887547E-01
        1   -1    0    0  501    0  0.00000000000E+00  0.00000000000E+00  0.22556456677E+04  0.22556456677E+04  0.50400001928E-02 0.  1.
       -1   -1    0    0    0  501  0.00000000000E+00  0.00000000000E+00 -0.41063514999E+02  0.41063515309E+02  0.50400001928E-02 0. -1.
    10030    2    1    2    0    0  0.00000000000E+00  0.00000000000E+00  0.22145821527E+04  0.22967091830E+04  0.60868625767E+03 0.  0.
        5    1    3    3  502    0 -0.83482455255E+02 -0.22971273691E+03  0.42325045385E+03  0.48877428177E+03  0.46999998093E+01 0. -1.
       -5    1    3    3    0  502  0.83482455255E+02  0.22971273691E+03  0.17913316988E+04  0.18079349012E+04  0.46999998093E+01 0.  1.
</event>
<event>
 5   0  0.6007360E-02  0.6026560E+03  0.7818609E-02  0.9899911E-01
       -2   -1    0    0    0  501  0.00000000000E+00  0.00000000000E+00  0.67817565969E+02  0.67817566017E+02  0.25500000920E-02 0. -1.
        2   -1    0    0  501    0  0.00000000000E+00  0.00000000000E+00 -0.13388650617E+04  0.13388650617E+04  0.25500000920E-02 0.  1.
    10030    2    1    2    0    0  0.00000000000E+00  0.00000000000E+00 -0.12710474957E+04  0.14066826277E+04  0.60265602024E+03 0.  0.
        4    1    3    3  502    0 -0.60210817118E+02  0.15442069751E+03 -0.48146417029E+02  0.17260007152E+03  0.12699999809E+01 0. -1.
       -4    1    3    3    0  502  0.60210817118E+02 -0.15442069751E+03 -0.12229010787E+04  0.12340825562E+04  0.12699999809E+01 0.  1.
</event>
<event>
 5   0  0.3478183E-02  0.6828023E+03  0.7818609E-02  0.9747103E-01
       -1   -1    0    0    0  501  0.00000000000E+00  0.00000000000E+00  0.41371136385E+03  0.41371136388E+03  0.50400001928E-02 0. -1.
        1   -1    0    0  501    0  0.00000000000E+00  0.00000000000E+00 -0.28172961002E+03  0.28172961007E+03  0.50400001928E-02 0.  1.
    10030    2    1    2    0    0  0.00000000000E+00  0.00000000000E+00  0.13198175383E+03  0.69544097394E+03  0.68280228829E+03 0.  0.
        4    1    3    3  502    0 -0.12109377432E+03 -0.18288482496E+03  0.33244868538E+03  0.39828921991E+03  0.12699999809E+01 0. -1.
       -4    1    3    3    0  502  0.12109377432E+03  0.18288482496E+03 -0.20046693156E+03  0.29715175404E+03  0.12699999809E+01 0.  1.
</event>
<event>
 5   0  0.6007360E-02  0.5992223E+03  0.7818609E-02  0.9907021E-01
       -2   -1    0    0    0  501  0.00000000000E+00  0.00000000000E+00  0.12179459210E+03  0.12179459212E+03  0.25500000920E-02 0. -1.
        2   -1    0    0  501    0  0.00000000000E+00  0.00000000000E+00 -0.73703473525E+03  0.73703473526E+03  0.25500000920E-02 0.  1.
    10030    2    1    2    0    0  0.00000000000E+00  0.00000000000E+00 -0.61524014316E+03  0.85882932738E+03  0.59922231252E+03 0.  0.
        4    1    3    3  502    0 -0.12232294336E+03 -0.11020730916E+03 -0.66637888152E+03  0.68641895378E+03  0.12699999809E+01 0.  1.
       -4    1    3    3    0  502  0.12232294336E+03  0.11020730916E+03  0.51138738366E+02  0.17241037360E+03  0.12699999809E+01 0. -1.
</event>
<event>
 5   0  0.3640827E-02  0.5911034E+03  0.7818609E-02  0.9924038E-01
        1   -1    0    0  501    0  0.00000000000E+00  0.00000000000E+00  0.49774395527E+03  0.49774395529E+03  0.50400001928E-02 0. -1.
       -1   -1    0    0    0  501  0.00000000000E+00  0.00000000000E+00 -0.17549344827E+03  0.17549344834E+03  0.50400001928E-02 0.  1.
    10030    2    1    2    0    0  0.00000000000E+00  0.00000000000E+00  0.32225050700E+03  0.67323740364E+03  0.59110338554E+03 0.  0.
        3    1    3    3  502    0 -0.15830949697E+02 -0.26689616335E+03  0.17659947361E+02  0.26794787725E+03  0.10100000352E+00 0.  1.
       -3    1    3    3    0  502  0.15830949697E+02  0.26689616335E+03  0.30459055963E+03  0.40528952639E+03  0.10100000352E+00 0. -1.
</event>
<event>
 5   0  0.3478183E-02  0.6158533E+03  0.7818609E-02  0.9873051E-01
        1   -1    0    0  501    0  0.00000000000E+00  0.00000000000E+00  0.74747873800E+03  0.74747873802E+03  0.50400001928E-02 0.  1.
       -1   -1    0    0    0  501  0.00000000000E+00  0.00000000000E+00 -0.12685153620E+03  0.12685153630E+03  0.50400001928E-02 0. -1.
    10030    2    1    2    0    0  0.00000000000E+00  0.00000000000E+00  0.62062720180E+03  0.87433027432E+03  0.61585331449E+03 0.  0.
        4    1    3    3  502    0 -0.26491541465E+03 -0.22931116829E+02  0.53076235505E+03  0.59364661498E+03  0.12699999809E+01 0.  1.
       -4    1    3    3    0  502  0.26491541465E+03  0.22931116829E+02  0.89864846748E+02  0.28068365934E+03  0.12699999809E+01 0. -1.
</event>
<event>
 5   0  0.3767635E-02  0.5895096E+03  0.7818609E-02  0.9927412E-01
       -1   -1    0    0    0  501  0.00000000000E+00  0.00000000000E+00  0.75459908866E+02  0.75459909034E+02  0.50400001928E-02 0. -1.
        1   -1    0    0  501    0  0.00000000000E+00  0.00000000000E+00 -0.11513451516E+04  0.11513451516E+04  0.50400001928E-02 0.  1.
    10030    2    1    2    0    0  0.00000000000E+00  0.00000000000E+00 -0.10758852427E+04  0.12268050606E+04  0.58950962782E+03 0.  0.
        2    1    3    3  502    0 -0.25057394993E+01  0.96501684030E+02  0.41630033484E+02  0.10512808115E+03  0.25500000920E-02 0. -1.
       -2    1    3    3    0  502  0.25057394993E+01 -0.96501684030E+02 -0.11175152762E+04  0.11216769795E+04  0.25500000920E-02 0.  1.
</event>
<event>
 5   0  0.5872632E-02  0.6005610E+03  0.7818609E-02  0.9904243E-01
       -2   -1    0    0    0  501  0.00000000000E+00  0.00000000000E+00  0.54871041894E+02  0.54871041953E+02  0.25500000920E-02 0. -1.
        2   -1    0    0  501    0  0.00000000000E+00  0.00000000000E+00 -0.16432782574E+04  0.16432782574E+04  0.25500000920E-02 0.  1.
    10030    2    1    2    0    0  0.00000000000E+00  0.00000000000E+00 -0.15884072155E+04  0.16981492994E+04  0.60056103823E+03 0.  0.
        1    1    3    3  502    0  0.16762805499E+03 -0.24712519654E+03 -0.88354708624E+03  0.93264434873E+03  0.50400001928E-02 0. -1.
       -1    1    3    3    0  502 -0.16762805499E+03  0.24712519654E+03 -0.70486012930E+03  0.76550495066E+03  0.50400001928E-02 0.  1.
</event>
<event>
 5   0  0.3651984E-02  0.6018755E+03  0.7818609E-02  0.9901523E-01
       -1   -1    0    0    0  501  0.00000000000E+00  0.00000000000E+00  0.10562141943E+03  0.10562141955E+03  0.50400001928E-02 0.  1.
        1   -1    0    0  501    0  0.00000000000E+00  0.00000000000E+00 -0.85743533278E+03  0.85743533280E+03  0.50400001928E-02 0. -1.
    10030    2    1    2    0    0  0.00000000000E+00  0.00000000000E+00 -0.75181391335E+03  0.96305675235E+03  0.60187552528E+03 0.  0.
        1    1    3    3  502    0 -0.13238342867E+03 -0.19834616844E+03 -0.82182186475E+02  0.25223101816E+03  0.50400001928E-02 0.  1.
       -1    1    3    3    0  502  0.13238342867E+03  0.19834616844E+03 -0.66963172688E+03  0.71082573419E+03  0.50400001928E-02 0. -1.
</event>
<event>
 5   0  0.5872632E-02  0.6081050E+03  0.7818609E-02  0.9888732E-01
        2   -1    0    0  501    0  0.00000000000E+00  0.00000000000E+00  0.18757790686E+03  0.18757790688E+03  0.25500000920E-02 0. -1.
       -2   -1    0    0    0  501  0.00000000000E+00  0.00000000000E+00 -0.49285083994E+03  0.49285083995E+03  0.25500000920E-02 0.  1.
    10030    2    1    2    0    0  0.00000000000E+00  0.00000000000E+00 -0.30527293308E+03  0.68042874682E+03  0.60810502040E+03 0.  0.
        1    1    3    3  502    0  0.70322162926E+02 -0.24707627891E+03 -0.33463439325E+03  0.42186736230E+03  0.50400001928E-02 0.  1.
       -1    1    3    3    0  502 -0.70322162926E+02  0.24707627891E+03  0.29361460169E+02  0.25856138453E+03  0.50400001928E-02 0. -1.
</event>
<event>
 5   0  0.5755078E-02  0.6012952E+03  0.7818609E-02  0.9902723E-01
        2   -1    0    0  501    0  0.00000000000E+00  0.00000000000E+00  0.26370223383E+03  0.26370223384E+03  0.25500000920E-02 0.  1.
       -2   -1    0    0    0  501  0.00000000000E+00  0.00000000000E+00 -0.34276907598E+03  0.34276907599E+03  0.25500000920E-02 0. -1.
    10030    2    1    2    0    0  0.00000000000E+00  0.00000000000E+00 -0.79066842151E+02  0.60647130983E+03  0.60129517221E+03 0.  0.
        2    1    3    3  502    0  0.19507243695E+03 -0.76655881822E+01  0.19107633777E+03  0.27317061292E+03  0.25500000920E-02 0.  1.
       -2    1    3    3    0  502 -0.19507243695E+03  0.76655881822E+01 -0.27014317993E+03  0.33330069692E+03  0.25500000920E-02 0. -1.
</event>
<event>
 5   0  0.6007360E-02  0.6007532E+03  0.7818609E-02  0.9903845E-01
        2   -1    0    0  501    0  0.00000000000E+00  0.00000000000E+00  0.59281003478E+03  0.59281003478E+03  0.25500000920E-02 0. -1.
       -2   -1    0    0    0  501  0.00000000000E+00  0.00000000000E+00 -0.15220071672E+03  0.15220071674E+03  0.25500000920E-02 0.  1.
    10030    2    1    2    0    0  0.00000000000E+00  0.00000000000E+00  0.44060931806E+03  0.74501075152E+03  0.60075323446E+03 0.  0.
        4    1    3    3  502    0 -0.45141808000E+02 -0.26086949176E+02 -0.14654304387E+03  0.15554674009E+03  0.12699999809E+01 0.  1.
       -4    1    3    3    0  502  0.45141808000E+02  0.26086949176E+02  0.58715236193E+03  0.58946401143E+03  0.12699999809E+01 0. -1.
</event>
<event>
 5   0  0.3767635E-02  0.5807453E+03  0.7818609E-02  0.9946179E-01
        1   -1    0    0  501    0  0.00000000000E+00  0.00000000000E+00  0.29999384582E+03  0.29999384586E+03  0.50400001928E-02 0.  1.
       -1   -1    0    0    0  501  0.00000000000E+00  0.00000000000E+00 -0.28105998739E+03  0.28105998743E+03  0.50400001928E-02 0. -1.
    10030    2    1    2    0    0  0.00000000000E+00  0.00000000000E+00  0.18933858431E+02  0.58105383330E+03  0.58074526790E+03 0.  0.
        2    1    3    3  502    0  0.18642761192E+03  0.50567855155E+01 -0.21321691382E+03  0.28327067959E+03  0.25500000920E-02 0. -1.
       -2    1    3    3    0  502 -0.18642761192E+03 -0.50567855155E+01  0.23215077225E+03  0.29778315371E+03  0.25500000920E-02 0.  1.
</event>
<event>
 5   0  0.3651984E-02  0.6007010E+03  0.7818609E-02  0.9903953E-01
       -1   -1    0    0    0  501  0.00000000000E+00  0.00000000000E+00  0.12345691895E+04  0.12345691895E+04  0.50400001928E-02 0. -1.
        1   -1    0    0  501    0  0.00000000000E+00  0.00000000000E+00 -0.73070368899E+02  0.73070369073E+02  0.50400001928E-02 0.  1.
    10030    2    1    2    0    0  0.00000000000E+00  0.00000000000E+00  0.11614988206E+04  0.13076395585E+04  0.60070101124E+03 0.  0.
        1    1    3    3  502    0  0.29214202834E+03  0.68917025803E+02  0.60398218825E+03  0.67445608079E+03  0.50400001928E-02 0.  1.
       -1    1    3    3    0  502 -0.29214202834E+03 -0.68917025803E+02  0.55751663231E+03  0.63318347775E+03  0.50400001928E-02 0. -1.
</event>
<event>
 5   0  0.6007360E-02  0.5780471E+03  0.7818609E-02  0.9952028E-01
        2   -1    0    0  501    0  0.00000000000E+00  0.00000000000E+00  0.75246672011E+03  0.75246672012E+03  0.25500000920E-02 0. -1.
       -2   -1    0    0    0  501  0.00000000000E+00  0.00000000000E+00 -0.11101435742E+03  0.11101435745E+03  0.25500000920E-02 0.  1.
    10030    2    1    2    0    0  0.00000000000E+00  0.00000000000E+00  0.64145236269E+03  0.86348107756E+03  0.57804708952E+03 0.  0.
        4    1    3    3  502    0 -0.22329863172E+03 -0.14985085892E+03  0.47892299038E+03  0.54925986788E+03  0.12699999809E+01 0. -1.
       -4    1    3    3    0  502  0.22329863172E+03  0.14985085892E+03  0.16252937231E+03  0.31422120968E+03  0.12699999809E+01 0.  1.
</event>
<event>
 5   0  0.5999117E-02  0.6047455E+03  0.7818609E-02  0.9895609E-01
       -2   -1    0    0    0  501  0.00000000000E+00  0.00000000000E+00  0.10520731338E+03  0.10520731341E+03  0.25500000920E-02 0.  1.
        2   -1    0    0  501    0  0.00000000000E+00  0.00000000000E+00 -0.86903906615E+03  0.86903906616E+03  0.25500000920E-02 0. -1.
    10030    2    1    2    0    0  0.00000000000E+00  0.00000000000E+00 -0.76383175277E+03  0.97424637957E+03  0.60474545187E+03 0.  0.
        5    1    3    3  502    0  0.19607156750E+03 -0.42307911628E+02 -0.17483215066E+02  0.20139953271E+03  0.46999998093E+01 0.  1.
       -5    1    3    3    0  502 -0.19607156750E+03  0.42307911628E+02 -0.74634853771E+03  0.77284684686E+03  0.46999998093E+01 0. -1.
</event>
<event>
 5   0  0.2388000E-02  0.6039450E+03  0.7818609E-02  0.9897255E-01
       -4   -1    0    0    0  501  0.00000000000E+00  0.00000000000E+00  0.25804742813E+03  0.25805055332E+03  0.12699999809E+01 0.  1.
        4   -1    0    0  501    0  0.00000000000E+00  0.00000000000E+00 -0.35336808895E+03  0.35337037112E+03  0.12699999809E+01 0. -1.
    10030    2    1    2    0    0  0.00000000000E+00  0.00000000000E+00 -0.95320660814E+02  0.61142092444E+03  0.60394496311E+03 0.  0.
        1    1    3    3  502    0  0.19864698310E+03 -0.15145355478E+03 -0.21943259006E+03  0.33248979646E+03  0.50400001928E-02 0. -1.
       -1    1    3    3    0  502 -0.19864698310E+03  0.15145355478E+03  0.12411192924E+03  0.27893112798E+03  0.50400001928E-02 0.  1.
</event>
<event>
 5   0  0.2388000E-02  0.6136952E+03  0.7818609E-02  0.9877393E-01
        3   -1    0    0  501    0  0.00000000000E+00  0.00000000000E+00  0.26555212163E+03  0.26555214084E+03  0.10100000352E+00 0.  1.
       -3   -1    0    0    0  501  0.00000000000E+00  0.00000000000E+00 -0.35456479954E+03  0.35456481393E+03  0.10100000352E+00 0. -1.
    10030    2    1    2    0    0  0.00000000000E+00  0.00000000000E+00 -0.89012677910E+02  0.62011695477E+03  0.61369518555E+03 0.  0.
        2    1    3    3  502    0 -0.22883262293E+03 -0.15226187113E+03 -0.18234267442E+03  0.32984374731E+03  0.25500000920E-02 0. -1.
       -2    1    3    3    0  502  0.22883262293E+03  0.15226187113E+03  0.93329996512E+02  0.29027320746E+03  0.25500000920E-02 0.  1.
</event>
<event>
 5   0  0.3640827E-02  0.5976318E+03  0.7818609E-02  0.9910331E-01
        1   -1    0    0  501    0  0.00000000000E+00  0.00000000000E+00  0.71615573476E+03  0.71615573478E+03  0.50400001928E-02 0. -1.
       -1   -1    0    0    0  501  0.00000000000E+00  0.00000000000E+00 -0.12468090997E+03  0.12468091007E+03  0.50400001928E-02 0.  1.
    10030    2    1    2    0    0  0.00000000000E+00  0.00000000000E+00  0.59147482479E+03  0.84083664485E+03  0.59763182225E+03 0.  0.
        3    1    3    3  502    0  0.16782842228E+03 -0.21766978409E+03  0.46068318638E+03  0.53644712941E+03  0.10100000352E+00 0.  1.
       -3    1    3    3    0  502 -0.16782842228E+03  0.21766978409E+03  0.13079163841E+03  0.30438951544E+03  0.10100000352E+00 0. -1.
</event>
<event>
 5   0  0.5755078E-02  0.6043971E+03  0.7818609E-02  0.9896325E-01
       -2   -1    0    0    0  501  0.00000000000E+00  0.00000000000E+00  0.19834002421E+03  0.19834002423E+03  0.25500000920E-02 0. -1.
        2   -1    0    0  501    0  0.00000000000E+00  0.00000000000E+00 -0.46044142689E+03  0.46044142690E+03  0.25500000920E-02 0.  1.
    10030    2    1    2    0    0  0.00000000000E+00  0.00000000000E+00 -0.26210140268E+03  0.65878145113E+03  0.60439710047E+03 0.  0.
        2    1    3    3  502    0  0.22834887763E+03 -0.80537240397E+02  0.66035575448E+02  0.25097839397E+03  0.25500000920E-02 0. -1.
       -2    1    3    3    0  502 -0.22834887763E+03  0.80537240397E+02 -0.32813697813E+03  0.40780305716E+03  0.25500000920E-02 0.  1.
</event>
<event>
 5   0  0.6007360E-02  0.5999859E+03  0.7818609E-02  0.9905435E-01
       -2   -1    0    0    0  501  0.00000000000E+00  0.00000000000E+00  0.22939375185E+03  0.22939375186E+03  0.25500000920E-02 0.  1.
        2   -1    0    0  501    0  0.00000000000E+00  0.00000000000E+00 -0.39232008533E+03  0.39232008534E+03  0.25500000920E-02 0. -1.
    10030    2    1    2    0    0  0.00000000000E+00  0.00000000000E+00 -0.16292633349E+03  0.62171383720E+03  0.59998592086E+03 0.  0.
        4    1    3    3  502    0 -0.21158378668E+02 -0.28984411763E+03 -0.43583001343E+01  0.29065081660E+03  0.12699999809E+01 0.  1.
       -4    1    3    3    0  502  0.21158378668E+02  0.28984411763E+03 -0.15856803335E+03  0.33106302060E+03  0.12699999809E+01 0. -1.
</event>
<event>
 5   0  0.3651984E-02  0.6059634E+03  0.7818609E-02  0.9893111E-01
        1   -1    0    0  501    0  0.00000000000E+00  0.00000000000E+00  0.14928076131E+04  0.14928076131E+04  0.50400001928E-02 0.  1.
       -1   -1    0    0    0  501  0.00000000000E+00  0.00000000000E+00 -0.61493464432E+02  0.61493464638E+02  0.50400001928E-02 0. -1.
    10030    2    1    2    0    0  0.00000000000E+00  0.00000000000E+00  0.14313141487E+04  0.15543010777E+04  0.60596340492E+03 0.  0.
        1    1    3    3  502    0 -0.13447045615E+02  0.11735304408E+03  0.14313143557E+04  0.14361801227E+04  0.50400001928E-02 0.  1.
       -1    1    3    3    0  502  0.13447045615E+02 -0.11735304408E+03 -0.20704931399E-03  0.11812095503E+03  0.50400001928E-02 0. -1.
</event>
<event>
 5   0  0.3651984E-02  0.5478651E+03  0.7818609E-02  0.1001989E+00
        1   -1    0    0  501    0  0.00000000000E+00  0.00000000000E+00  0.28703596944E+03  0.28703596948E+03  0.50400001928E-02 0. -1.
       -1   -1    0    0    0  501  0.00000000000E+00  0.00000000000E+00 -0.26142728831E+03  0.26142728836E+03  0.50400001928E-02 0.  1.
    10030    2    1    2    0    0  0.00000000000E+00  0.00000000000E+00  0.25608681131E+02  0.54846325784E+03  0.54786507523E+03 0.  0.
        1    1    3    3  502    0 -0.23856471537E+03  0.13373801567E+02 -0.12130854201E+03  0.26796967063E+03  0.50400001928E-02 0.  1.
       -1    1    3    3    0  502  0.23856471537E+03 -0.13373801567E+02  0.14691722314E+03  0.28049358721E+03  0.50400001928E-02 0. -1.
</event>
<event>
 5   0  0.5935451E-02  0.6021557E+03  0.7818609E-02  0.9900944E-01
        2   -1    0    0  501    0  0.00000000000E+00  0.00000000000E+00  0.17633034550E+03  0.17633034552E+03  0.25500000920E-02 0. -1.
       -2   -1    0    0    0  501  0.00000000000E+00  0.00000000000E+00 -0.51407980528E+03  0.51407980529E+03  0.25500000920E-02 0.  1.
    10030    2    1    2    0    0  0.00000000000E+00  0.00000000000E+00 -0.33774945978E+03  0.69041015081E+03  0.60215569312E+03 0.  0.
        3    1    3    3  502    0 -0.28903993195E+03  0.12621359327E+02 -0.26442197959E+03  0.39194690261E+03  0.10100000352E+00 0.  1.
       -3    1    3    3    0  502  0.28903993195E+03 -0.12621359327E+02 -0.73327480189E+02  0.29846324820E+03  0.10100000352E+00 0. -1.
</event>
<event>
 5   0  0.3478183E-02  0.5932714E+03  0.7818609E-02  0.9919465E-01
       -1   -1    0    0    0  501  0.00000000000E+00  0.00000000000E+00  0.10355729635E+03  0.10355729648E+03  0.50400001928E-02 0.  1.
        1   -1    0    0  501    0  0.00000000000E+00  0.00000000000E+00 -0.84970092922E+03  0.84970092924E+03  0.50400001928E-02 0. -1.
    10030    2    1    2    0    0  0.00000000000E+00  0.00000000000E+00 -0.74614363287E+03  0.95325822571E+03  0.59327137469E+03 0.  0.
        4    1    3    3  502    0  0.60407754921E+02  0.14697582434E+03 -0.77553843846E+03  0.79165173670E+03  0.12699999809E+01 0. -1.
       -4    1    3    3    0  502 -0.60407754921E+02 -0.14697582434E+03  0.29394805591E+02  0.16160648901E+03  0.12699999809E+01 0.  1.
</event>
<event>
 5   0  0.3651984E-02  0.6054471E+03  0.7818609E-02  0.9894169E-01
       -1   -1    0    0    0  501  0.00000000000E+00  0.00000000000E+00  0.95818992489E+02  0.95818992621E+02  0.50400001928E-02 0. -1.
        1   -1    0    0  501    0  0.00000000000E+00  0.00000000000E+00 -0.95640272099E+03  0.95640272101E+03  0.50400001928E-02 0.  1.
    10030    2    1    2    0    0  0.00000000000E+00  0.00000000000E+00 -0.86058372850E+03  0.10522217136E+04  0.60544709171E+03 0.  0.
        1    1    3    3  502    0 -0.20143982142E+03 -0.75243911286E+02 -0.59979627330E+02  0.22324247705E+03  0.50400001928E-02 0. -1.
       -1    1    3    3    0  502  0.20143982142E+03  0.75243911286E+02 -0.80060410117E+03  0.82897923658E+03  0.50400001928E-02 0.  1.
</event>
<event>
 5   0  0.2388000E-02  0.6043579E+03  0.7818609E-02  0.9896406E-01
       -3   -1    0    0    0  501  0.00000000000E+00  0.00000000000E+00  0.51857725165E+03  0.51857726148E+03  0.10100000352E+00 0.  1.
        3   -1    0    0  501    0  0.00000000000E+00  0.00000000000E+00 -0.17608194775E+03  0.17608197671E+03  0.10100000352E+00 0. -1.
    10030    2    1    2    0    0  0.00000000000E+00  0.00000000000E+00  0.34249530390E+03  0.69465923820E+03  0.60435786089E+03 0.  0.
        4    1    3    3  502    0 -0.14906815309E+03 -0.18511390354E+03  0.38573645734E+03  0.45308133814E+03  0.12699999809E+01 0.  1.
       -4    1    3    3    0  502  0.14906815309E+03  0.18511390354E+03 -0.43241153437E+02  0.24157790006E+03  0.12699999809E+01 0. -1.
</event>
<event>
 5   0  0.3651984E-02  0.5886988E+03  0.7818609E-02  0.9929134E-01
       -1   -1    0    0    0  501  0.00000000000E+00  0.00000000000E+00  0.80081085566E+02  0.80081085725E+02  0.50400001928E-02 0. -1.
        1   -1    0    0  501    0  0.00000000000E+00  0.00000000000E+00 -0.10819230035E+04  0.10819230035E+04  0.50400001928E-02 0.  1.
    10030    2    1    2    0    0  0.00000000000E+00  0.00000000000E+00 -0.10018419179E+04  0.11620040892E+04  0.58869879808E+03 0.  0.
        1    1    3    3  502    0 -0.64740301733E+02 -0.19988153438E+03 -0.94012344269E+02  0.23017874653E+03  0.50400001928E-02 0. -1.
       -1    1    3    3    0  502  0.64740301733E+02  0.19988153438E+03 -0.90782957364E+03  0.93182534268E+03  0.50400001928E-02 0.  1.
</event>
<event>
 5   0  0.3640827E-02  0.6290079E+03  0.7818609E-02  0.9846987E-01
       -1   -1    0    0    0  501  0.00000000000E+00  0.00000000000E+00  0.62617128500E+02  0.62617128703E+02  0.50400001928E-02 0. -1.
        1   -1    0    0  501    0  0.00000000000E+00  0.00000000000E+00 -0.15796431820E+04  0.15796431820E+04  0.50400001928E-02 0.  1.
    10030    2    1    2    0    0  0.00000000000E+00  0.00000000000E+00 -0.15170260535E+04  0.16422603107E+04  0.62900785460E+03 0.  0.
        3    1    3    3  502    0 -0.12837389095E+03  0.26369308700E+03 -0.10550376431E+04  0.10950426195E+04  0.10100000352E+00 0.  1.
       -3    1    3    3    0  502  0.12837389095E+03 -0.26369308700E+03 -0.46198841044E+03  0.54721769123E+03  0.10100000352E+00 0. -1.
</event>
<event>
 5   0  0.5999117E-02  0.6009258E+03  0.7818609E-02  0.9903487E-01
        2   -1    0    0  501    0  0.00000000000E+00  0.00000000000E+00  0.45549263633E+03  0.45549263634E+03  0.25500000920E-02 0.  1.
       -2   -1    0    0    0  501  0.00000000000E+00  0.00000000000E+00 -0.19819846932E+03  0.19819846934E+03  0.25500000920E-02 0. -1.
    10030    2    1    2    0    0  0.00000000000E+00  0.00000000000E+00  0.25729416701E+03  0.65369110568E+03  0.60092576352E+03 0.  0.
        5    1    3    3  502    0  0.49828293599E+02 -0.29614794017E+03  0.11958545028E+03  0.32327887532E+03  0.46999998093E+01 0. -1.
       -5    1    3    3    0  502 -0.49828293599E+02  0.29614794017E+03  0.13770871674E+03  0.33041223036E+03  0.46999998093E+01 0.  1.
</event>
<event>
 5   0  0.3478183E-02  0.5986048E+03  0.7818609E-02  0.9908305E-01
       -1   -1    0    0    0  501  0.00000000000E+00  0.00000000000E+00  0.62613233657E+03  0.62613233659E+03  0.50400001928E-02 0. -1.
        1   -1    0    0  501    0  0.00000000000E+00  0.00000000000E+00 -0.14307189226E+03  0.14307189235E+03  0.50400001928E-02 0.  1.
    10030    2    1    2    0    0  0.00000000000E+00  0.00000000000E+00  0.48306044431E+03  0.76920422893E+03  0.59860483873E+03 0.  0.
        4    1    3    3  502    0 -0.17609064969E+03  0.24201127369E+03  0.23932248410E+03  0.38321565443E+03  0.12699999809E+01 0.  1.
       -4    1    3    3    0  502  0.17609064969E+03 -0.24201127369E+03  0.24373796020E+03  0.38598857450E+03  0.12699999809E+01 0. -1.
</event>
<event>
 5   0  0.3651984E-02  0.5965306E+03  0.7818609E-02  0.9912630E-01
        1   -1    0    0  501    0  0.00000000000E+00  0.00000000000E+00  0.11291100034E+04  0.11291100034E+04  0.50400001928E-02 0.  1.
       -1   -1    0    0    0  501  0.00000000000E+00  0.00000000000E+00 -0.78789647615E+02  0.78789647776E+02  0.50400001928E-02 0. -1.
    10030    2    1    2    0    0  0.00000000000E+00  0.00000000000E+00  0.10503203557E+04  0.12078996512E+04  0.59653056716E+03 0.  0.
        1    1    3    3  502    0  0.51840987569E+02 -0.26844336185E+03  0.76656102133E+03  0.81385817312E+03  0.50400001928E-02 0.  1.
       -1    1    3    3    0  502 -0.51840987569E+02  0.26844336185E+03  0.28375933442E+03  0.39404147803E+03  0.50400001928E-02 0. -1.
</event>
<event>
 5   0  0.3651984E-02  0.6222203E+03  0.7818609E-02  0.9860349E-01
        1   -1    0    0  501    0  0.00000000000E+00  0.00000000000E+00  0.98737949817E+02  0.98737949945E+02  0.50400001928E-02 0. -1.
       -1   -1    0    0    0  501  0.00000000000E+00  0.00000000000E+00 -0.98026664410E+03  0.98026664411E+03  0.50400001928E-02 0.  1.
    10030    2    1    2    0    0  0.00000000000E+00  0.00000000000E+00 -0.88152869428E+03  0.10790045941E+04  0.62222027864E+03 0.  0.
        1    1    3    3  502    0 -0.18107152119E+03  0.12693663768E+03 -0.61274422556E+02  0.22946538008E+03  0.50400001928E-02 0. -1.
       -1    1    3    3    0  502  0.18107152119E+03 -0.12693663768E+03 -0.82025427172E+03  0.84953921397E+03  0.50400001928E-02 0.  1.
</event>
<event>
 5   0  0.5999117E-02  0.6004421E+03  0.7818609E-02  0.9904489E-01
        2   -1    0    0  501    0  0.00000000000E+00  0.00000000000E+00  0.45990470038E+03  0.45990470039E+03  0.25500000920E-02 0.  1.
       -2   -1    0    0    0  501  0.00000000000E+00  0.00000000000E+00 -0.19598117702E+03  0.19598117704E+03  0.25500000920E-02 0. -1.
    10030    2    1    2    0    0  0.00000000000E+00  0.00000000000E+00  0.26392352336E+03  0.65588587743E+03  0.60044205218E+03 0.  0.
        5    1    3    3  502    0 -0.84015931976E+02 -0.22040756166E+03  0.33477344393E+03  0.40955282787E+03  0.46999998093E+01 0.  1.
       -5    1    3    3    0  502  0.84015931976E+02  0.22040756166E+03 -0.70849920566E+02  0.24633304956E+03  0.46999998093E+01 0. -1.
</event>
<event>
 5   0  0.2388000E-02  0.5953493E+03  0.7818609E-02  0.9915102E-01
        3   -1    0    0  501    0  0.00000000000E+00  0.00000000000E+00  0.17612971911E+04  0.17612971940E+04  0.10100000352E+00 0.  1.
       -3   -1    0    0    0  501  0.00000000000E+00  0.00000000000E+00 -0.50309573440E+02  0.50309674822E+02  0.10100000352E+00 0. -1.
    10030    2    1    2    0    0  0.00000000000E+00  0.00000000000E+00  0.17109876176E+04  0.18116068688E+04  0.59534932549E+03 0.  0.
        5    1    3    3  502    0  0.24459397774E+03  0.91643035925E+02  0.42126580924E+03  0.49569308247E+03  0.46999998093E+01 0. -1.
       -5    1    3    3    0  502 -0.24459397774E+03 -0.91643035925E+02  0.12897218084E+04  0.13159137863E+04  0.46999998093E+01 0.  1.
</event>
<event>
 5   0  0.6007360E-02  0.6097132E+03  0.7818609E-02  0.9885457E-01
       -2   -1    0    0    0  501  0.00000000000E+00  0.00000000000E+00  0.17545010530E+03  0.17545010532E+03  0.25500000920E-02 0.  1.
        2   -1    0    0  501    0  0.00000000000E+00  0.00000000000E+00 -0.52970935165E+03  0.52970935166E+03  0.25500000920E-02 0. -1.
    10030    2    1    2    0    0  0.00000000000E+00  0.00000000000E+00 -0.35425924635E+03  0.70515945698E+03  0.60971324912E+03 0.  0.
        4    1    3    3  502    0 -0.74980564453E+02  0.88079825601E+02 -0.50333990656E+03  0.51646182352E+03  0.12699999809E+01 0. -1.
       -4    1    3    3    0  502  0.74980564453E+02 -0.88079825601E+02  0.14908066021E+03  0.18869763346E+03  0.12699999809E+01 0.  1.
</event>
<event>
 5   0  0.3703280E-02  0.5887112E+03  0.7818609E-02  0.9929107E-01
       -1   -1    0    0    0  501  0.00000000000E+00  0.00000000000E+00  0.12066761390E+03  0.12066761401E+03  0.50400001928E-02 0.  1.
        1   -1    0    0  501    0  0.00000000000E+00  0.00000000000E+00 -0.71804870696E+03  0.71804870697E+03  0.50400001928E-02 0. -1.
    10030    2    1    2    0    0  0.00000000000E+00  0.00000000000E+00 -0.59738109305E+03  0.83871632098E+03  0.58871121676E+03 0.  0.
        5    1    3    3  502    0 -0.17615876800E+03 -0.15632366740E+02 -0.63385599743E+03  0.65808190820E+03  0.46999998093E+01 0. -1.
       -5    1    3    3    0  502  0.17615876800E+03  0.15632366740E+02  0.36474904372E+02  0.18063441278E+03  0.46999998093E+01 0.  1.
</event>
<event>
 5   0  0.6007360E-02  0.6005943E+03  0.7818609E-02  0.9904174E-01
       -2   -1    0    0    0  501  0.00000000000E+00  0.00000000000E+00  0.18423291817E+03  0.18423291819E+03  0.25500000920E-02 0. -1.
        2   -1    0    0  501    0  0.00000000000E+00  0.00000000000E+00 -0.48948034992E+03  0.48948034992E+03  0.25500000920E-02 0.  1.
    10030    2    1    2    0    0  0.00000000000E+00  0.00000000000E+00 -0.30524743174E+03  0.67371326812E+03  0.60059434983E+03 0.  0.
        4    1    3    3  502    0  0.21892026563E+03  0.19254796129E+03 -0.71920625800E+02  0.30029150740E+03  0.12699999809E+01 0. -1.
       -4    1    3    3    0  502 -0.21892026563E+03 -0.19254796129E+03 -0.23332680594E+03  0.37342176071E+03  0.12699999809E+01 0.  1.
</event>
<event>
 5   0  0.3640827E-02  0.5991185E+03  0.7818609E-02  0.9907237E-01
       -1   -1    0    0    0  501  0.00000000000E+00  0.00000000000E+00  0.15894020701E+03  0.15894020709E+03  0.50400001928E-02 0. -1.
        1   -1    0    0  501    0  0.00000000000E+00  0.00000000000E+00 -0.56458811073E+03  0.56458811076E+03  0.50400001928E-02 0.  1.
    10030    2    1    2    0    0  0.00000000000E+00  0.00000000000E+00 -0.40564790372E+03  0.72352831785E+03  0.59911852328E+03 0.  0.
        3    1    3    3  502    0 -0.86986199151E+02  0.10390473774E+03  0.11980965472E+03  0.18087884601E+03  0.10100000352E+00 0. -1.
       -3    1    3    3    0  502  0.86986199151E+02 -0.10390473774E+03 -0.52545755844E+03  0.54264947184E+03  0.10100000352E+00 0.  1.
</event>
<event>
 5   0  0.5755078E-02  0.6027381E+03  0.7818609E-02  0.9899742E-01
       -2   -1    0    0    0  501  0.00000000000E+00  0.00000000000E+00  0.50942926819E+02  0.50942926883E+02  0.25500000920E-02 0.  1.
        2   -1    0    0  501    0  0.00000000000E+00  0.00000000000E+00 -0.17828444587E+04  0.17828444587E+04  0.25500000920E-02 0. -1.
    10030    2    1    2    0    0  0.00000000000E+00  0.00000000000E+00 -0.17319015319E+04  0.18337873856E+04  0.60273813502E+03 0.  0.
        2    1    3    3  502    0  0.27302458249E+03  0.57519541393E+02 -0.12124724255E+04  0.12441624905E+04  0.25500000920E-02 0.  1.
       -2    1    3    3    0  502 -0.27302458249E+03 -0.57519541393E+02 -0.51942910642E+03  0.58962489507E+03  0.25500000920E-02 0. -1.
</event>
<event>
 5   0  0.5872632E-02  0.5968052E+03  0.7818609E-02  0.9912056E-01
        2   -1    0    0  501    0  0.00000000000E+00  0.00000000000E+00  0.66154317323E+03  0.66154317324E+03  0.25500000920E-02 0.  1.
       -2   -1    0    0    0  501  0.00000000000E+00  0.00000000000E+00 -0.13460060712E+03  0.13460060715E+03  0.25500000920E-02 0. -1.
    10030    2    1    2    0    0  0.00000000000E+00  0.00000000000E+00  0.52694256611E+03  0.79614378038E+03  0.59680520362E+03 0.  0.
        1    1    3    3  502    0 -0.25639583124E+03 -0.98337047520E+02  0.10769967011E+03  0.29497155145E+03  0.50400001928E-02 0. -1.
       -1    1    3    3    0  502  0.25639583124E+03  0.98337047520E+02  0.41924289599E+03  0.50117222894E+03  0.50400001928E-02 0.  1.
</event>
<event>
 5   0  0.2388000E-02  0.5996051E+03  0.7818609E-02  0.9906226E-01
       -3   -1    0    0    0  501  0.00000000000E+00  0.00000000000E+00  0.65974089318E+03  0.65974090091E+03  0.10100000352E+00 0.  1.
        3   -1    0    0  501    0  0.00000000000E+00  0.00000000000E+00 -0.13623766889E+03  0.13623770633E+03  0.10100000352E+00 0. -1.
    10030    2    1    2    0    0  0.00000000000E+00  0.00000000000E+00  0.52350322428E+03  0.79597860724E+03  0.59960513453E+03 0.  0.
        3    1    3    3  502    0  0.55665698532E+02 -0.21235952476E+03  0.53279130154E+03  0.57624805331E+03  0.10100000352E+00 0.  1.
       -3    1    3    3    0  502 -0.55665698532E+02  0.21235952476E+03 -0.92880772574E+01  0.21973055393E+03  0.10100000352E+00 0. -1.
</event>
<event>
 5   0  0.3478183E-02  0.5214052E+03  0.7818609E-02  0.1008338E+00
       -1   -1    0    0    0  501  0.00000000000E+00  0.00000000000E+00  0.77160191307E+02  0.77160191472E+02  0.50400001928E-02 0.  1.
        1   -1    0    0  501    0  0.00000000000E+00  0.00000000000E+00 -0.88084088837E+03  0.88084088838E+03  0.50400001928E-02 0. -1.
    10030    2    1    2    0    0  0.00000000000E+00  0.00000000000E+00 -0.80368069706E+03  0.95800107985E+03  0.52140522262E+03 0.  0.
        4    1    3    3  502    0  0.83042246610E+02 -0.16490814947E+03 -0.73999925135E+03  0.76268684097E+03  0.12699999809E+01 0. -1.
       -4    1    3    3    0  502 -0.83042246610E+02  0.16490814947E+03 -0.63681445705E+02  0.19531423888E+03  0.12699999809E+01 0.  1.
</event>
<event>
 5   0  0.5872632E-02  0.5858718E+03  0.7818609E-02  0.9935159E-01
       -2   -1    0    0    0  501  0.00000000000E+00  0.00000000000E+00  0.10154085008E+03  0.10154085011E+03  0.25500000920E-02 0.  1.
        2   -1    0    0  501    0  0.00000000000E+00  0.00000000000E+00 -0.84509274696E+03  0.84509274697E+03  0.25500000920E-02 0. -1.
    10030    2    1    2    0    0  0.00000000000E+00  0.00000000000E+00 -0.74355189689E+03  0.94663359708E+03  0.58587178099E+03 0.  0.
        1    1    3    3  502    0  0.28489808799E+03 -0.33212239199E+02 -0.46793068000E+03  0.54884341546E+03  0.50400001928E-02 0.  1.
       -1    1    3    3    0  502 -0.28489808799E+03  0.33212239199E+02 -0.27562121688E+03  0.39779018162E+03  0.50400001928E-02 0. -1.
</event>
<event>
 5   0  0.2388000E-02  0.5749579E+03  0.7818609E-02  0.9958767E-01
        4   -1    0    0  501    0  0.00000000000E+00  0.00000000000E+00  0.19279372028E+03  0.19279790320E+03  0.12699999809E+01 0. -1.
       -4   -1    0    0    0  501  0.00000000000E+00  0.00000000000E+00 -0.42865643762E+03  0.42865831895E+03  0.12699999809E+01 0.  1.
    10030    2    1    2    0    0  0.00000000000E+00  0.00000000000E+00 -0.23586271734E+03  0.62145622216E+03  0.57495792422E+03 0.  0.
        4    1    3    3  502    0 -0.84143967102E+02  0.73662754019E+02  0.16831856720E+03  0.20208701466E+03  0.12699999809E+01 0. -1.
       -4    1    3    3    0  502  0.84143967102E+02 -0.73662754019E+02 -0.40418128453E+03  0.41936920750E+03  0.12699999809E+01 0.  1.
</event>
<event>
 5   0  0.6007360E-02  0.5970343E+03  0.7818609E-02  0.9911578E-01
       -2   -1    0    0    0  501  0.00000000000E+00  0.00000000000E+00  0.15903091729E+03  0.15903091731E+03  0.25500000920E-02 0.  1.
        2   -1    0    0  501    0  0.00000000000E+00  0.00000000000E+00 -0.56034689086E+03  0.56034689086E+03  0.25500000920E-02 0. -1.
    10030    2    1    2    0    0  0.00000000000E+00  0.00000000000E+00 -0.40131597357E+03  0.71937780817E+03  0.59703427058E+03 0.  0.
        4    1    3    3  502    0  0.28697324055E+03 -0.82144040393E+02 -0.20438798303E+03  0.36176973985E+03  0.12699999809E+01 0.  1.
       -4    1    3    3    0  502 -0.28697324055E+03  0.82144040393E+02 -0.19692799054E+03  0.35760806831E+03  0.12699999809E+01 0. -1.
</event>
<event>
 5   0  0.5935451E-02  0.6149693E+03  0.7818609E-02  0.9874827E-01
       -2   -1    0    0    0  501  0.00000000000E+00  0.00000000000E+00  0.83225969513E+02  0.83225969552E+02  0.25500000920E-02 0.  1.
        2   -1    0    0  501    0  0.00000000000E+00  0.00000000000E+00 -0.11360252914E+04  0.11360252914E+04  0.25500000920E-02 0. -1.
    10030    2    1    2    0    0  0.00000000000E+00  0.00000000000E+00 -0.10527993219E+04  0.12192512609E+04  0.61496928799E+03 0.  0.
        3    1    3    3  502    0 -0.26679819437E+03 -0.11157051629E+03 -0.31924144063E+03  0.43074860910E+03  0.10100000352E+00 0. -1.
       -3    1    3    3    0  502  0.26679819437E+03  0.11157051629E+03 -0.73355788124E+03  0.78850265184E+03  0.10100000352E+00 0.  1.
</event>
<event>
 5   0  0.3767635E-02  0.6007764E+03  0.7818609E-02  0.9903797E-01
       -1   -1    0    0    0  501  0.00000000000E+00  0.00000000000E+00  0.59737400979E+02  0.59737401191E+02  0.50400001928E-02 0. -1.
        1   -1    0    0  501    0  0.00000000000E+00  0.00000000000E+00 -0.15104952265E+04  0.15104952265E+04  0.50400001928E-02 0.  1.
    10030    2    1    2    0    0  0.00000000000E+00  0.00000000000E+00 -0.14507578255E+04  0.15702326277E+04  0.60077636170E+03 0.  0.
        2    1    3    3  502    0 -0.61699266592E+02 -0.18785328253E+03 -0.13433397890E+03  0.23904240868E+03  0.25500000920E-02 0. -1.
       -2    1    3    3    0  502  0.61699266592E+02  0.18785328253E+03 -0.13164238466E+04  0.13311902190E+04  0.25500000920E-02 0.  1.
</event>
<event>
 5   0  0.3478183E-02  0.6021811E+03  0.7818609E-02  0.9900891E-01
        1   -1    0    0  501    0  0.00000000000E+00  0.00000000000E+00  0.42336322567E+03  0.42336322570E+03  0.50400001928E-02 0. -1.
       -1   -1    0    0    0  501  0.00000000000E+00  0.00000000000E+00 -0.21413177685E+03  0.21413177691E+03  0.50400001928E-02 0.  1.
    10030    2    1    2    0    0  0.00000000000E+00  0.00000000000E+00  0.20923144882E+03  0.63749500261E+03  0.60218110164E+03 0.  0.
        4    1    3    3  502    0  0.50106010863E+02 -0.13458404550E+03  0.38476729207E+03  0.41069570192E+03  0.12699999809E+01 0. -1.
       -4    1    3    3    0  502 -0.50106010863E+02  0.13458404550E+03 -0.17553584325E+03  0.22679930069E+03  0.12699999809E+01 0.  1.
</event>
<event>
 5   0  0.3640827E-02  0.5958437E+03  0.7818609E-02  0.9914067E-01
       -1   -1    0    0    0  501  0.00000000000E+00  0.00000000000E+00  0.12890232999E+03  0.12890233009E+03  0.50400001928E-02 0. -1.
        1   -1    0    0  501    0  0.00000000000E+00  0.00000000000E+00 -0.68856330394E+03  0.68856330396E+03  0.50400001928E-02 0.  1.
    10030    2    1    2    0    0  0.00000000000E+00  0.00000000000E+00 -0.55966097395E+03  0.81746563405E+03  0.59584365155E+03 0.  0.
        3    1    3    3  502    0  0.12832372668E+03  0.20138168309E+03 -0.35424293648E+02  0.24140516128E+03  0.10100000352E+00 0. -1.
       -3    1    3    3    0  502 -0.12832372668E+03 -0.20138168309E+03 -0.52423668030E+03  0.57606047277E+03  0.10100000352E+00 0.  1.
</event>
<event>
 5   0  0.3640827E-02  0.5999489E+03  0.7818609E-02  0.9905512E-01
       -1   -1    0    0    0  501  0.00000000000E+00  0.00000000000E+00  0.67169582983E+03  0.67169582985E+03  0.50400001928E-02 0.  1.
        1   -1    0    0  501    0  0.00000000000E+00  0.00000000000E+00 -0.13396640942E+03  0.13396640952E+03  0.50400001928E-02 0. -1.
    10030    2    1    2    0    0  0.00000000000E+00  0.00000000000E+00  0.53772942040E+03  0.80566223936E+03  0.59994892646E+03 0.  0.
        3    1    3    3  502    0  0.22773435235E+03  0.12584155216E+03  0.68393850073E+02  0.26902929286E+03  0.10100000352E+00 0. -1.
       -3    1    3    3    0  502 -0.22773435235E+03 -0.12584155216E+03  0.46933557033E+03  0.53663294650E+03  0.10100000352E+00 0.  1.
</event>
<event>
 5   0  0.5872632E-02  0.5830065E+03  0.7818609E-02  0.9941303E-01
        2   -1    0    0  501    0  0.00000000000E+00  0.00000000000E+00  0.86639603053E+03  0.86639603053E+03  0.25500000920E-02 0.  1.
       -2   -1    0    0    0  501  0.00000000000E+00  0.00000000000E+00 -0.98077728374E+02  0.98077728407E+02  0.25500000920E-02 0. -1.
    10030    2    1    2    0    0  0.00000000000E+00  0.00000000000E+00  0.76831830215E+03  0.96447375894E+03  0.58300653363E+03 0.  0.
        1    1    3    3  502    0 -0.18920788236E+03  0.21453938809E+03  0.29134979184E+03  0.40830316313E+03  0.50400001928E-02 0. -1.
       -1    1    3    3    0  502  0.18920788236E+03 -0.21453938809E+03  0.47696851031E+03  0.55617059581E+03  0.50400001928E-02 0.  1.
</event>
<event>
 5   0  0.5999117E-02  0.6062607E+03  0.7818609E-02  0.9892501E-01
        2   -1    0    0  501    0  0.00000000000E+00  0.00000000000E+00  0.66814215138E+03  0.66814215139E+03  0.25500000920E-02 0. -1.
       -2   -1    0    0    0  501  0.00000000000E+00  0.00000000000E+00 -0.13752764908E+03  0.13752764910E+03  0.25500000920E-02 0.  1.
    10030    2    1    2    0    0  0.00000000000E+00  0.00000000000E+00  0.53061450231E+03  0.80566980049E+03  0.60626073381E+03 0.  0.
        5    1    3    3  502    0  0.17860282003E+03  0.67572896947E+02  0.57809945454E+03  0.60883998971E+03  0.46999998093E+01 0. -1.
       -5    1    3    3    0  502 -0.17860282003E+03 -0.67572896947E+02 -0.47484952240E+02  0.19682981078E+03  0.46999998093E+01 0.  1.
</event>
<event>
 5   0  0.5755078E-02  0.6004731E+03  0.7818609E-02  0.9904425E-01
       -2   -1    0    0    0  501  0.00000000000E+00  0.00000000000E+00  0.14729416838E+03  0.14729416840E+03  0.25500000920E-02 0. -1.
        2   -1    0    0  501    0  0.00000000000E+00  0.00000000000E+00 -0.61198604951E+03  0.61198604952E+03  0.25500000920E-02 0.  1.
    10030    2    1    2    0    0  0.00000000000E+00  0.00000000000E+00 -0.46469188113E+03  0.75928021792E+03  0.60047306762E+03 0.  0.
        2    1    3    3  502    0 -0.65766423148E+02 -0.14560946044E+03 -0.55376676627E+03  0.57635489831E+03  0.25500000920E-02 0.  1.
       -2    1    3    3    0  502  0.65766423148E+02  0.14560946044E+03  0.89074885137E+02  0.18292531961E+03  0.25500000920E-02 0. -1.
</event>
<event>
 5   0  0.3651984E-02  0.6022656E+03  0.7818609E-02  0.9900717E-01
       -1   -1    0    0    0  501  0.00000000000E+00  0.00000000000E+00  0.14719448546E+03  0.14719448555E+03  0.50400001928E-02 0. -1.
        1   -1    0    0  501    0  0.00000000000E+00  0.00000000000E+00 -0.61606214656E+03  0.61606214658E+03  0.50400001928E-02 0.  1.
    10030    2    1    2    0    0  0.00000000000E+00  0.00000000000E+00 -0.46886766109E+03  0.76325663213E+03  0.60226555843E+03 0.  0.
        1    1    3    3  502    0 -0.24748403873E+02 -0.14853013059E+03  0.96057614034E+02  0.17860780617E+03  0.50400001928E-02 0. -1.
       -1    1    3    3    0  502  0.24748403873E+02  0.14853013059E+03 -0.56492527513E+03  0.58464882596E+03  0.50400001928E-02 0.  1.
</event>
<event>
 5   0  0.5755078E-02  0.5714304E+03  0.7818609E-02  0.9966518E-01
       -2   -1    0    0    0  501  0.00000000000E+00  0.00000000000E+00  0.49407188817E+02  0.49407188882E+02  0.25500000920E-02 0.  1.
        2   -1    0    0  501    0  0.00000000000E+00  0.00000000000E+00 -0.16522527056E+04  0.16522527056E+04  0.25500000920E-02 0. -1.
    10030    2    1    2    0    0  0.00000000000E+00  0.00000000000E+00 -0.16028455168E+04  0.17016598945E+04  0.57143035081E+03 0.  0.
        2    1    3    3  502    0 -0.30110511472E+02  0.64237795147E+01 -0.16472984486E+04  0.16475861393E+04  0.25500000920E-02 0. -1.
       -2    1    3    3    0  502  0.30110511472E+02 -0.64237795147E+01  0.44452931793E+02  0.54073755148E+02  0.25500000920E-02 0.  1.
</event>
<event>
 5   0  0.3651984E-02  0.5851141E+03  0.7818609E-02  0.9936780E-01
       -1   -1    0    0    0  501  0.00000000000E+00  0.00000000000E+00  0.92282242406E+02  0.92282242544E+02  0.50400001928E-02 0.  1.
        1   -1    0    0  501    0  0.00000000000E+00  0.00000000000E+00 -0.92747661477E+03  0.92747661478E+03  0.50400001928E-02 0. -1.
    10030    2    1    2    0    0  0.00000000000E+00  0.00000000000E+00 -0.83519437236E+03  0.10197588573E+04  0.58511408073E+03 0.  0.
        1    1    3    3  502    0  0.82869373387E+02  0.16295870772E+03 -0.81566202722E+03  0.83589916626E+03  0.50400001928E-02 0. -1.
       -1    1    3    3    0  502 -0.82869373387E+02 -0.16295870772E+03 -0.19532345140E+02  0.18385969107E+03  0.50400001928E-02 0.  1.
</event>
<event>
 5   0  0.3703280E-02  0.6000685E+03  0.7818609E-02  0.9905264E-01
       -1   -1    0    0    0  501  0.00000000000E+00  0.00000000000E+00  0.44719031637E+03  0.44719031639E+03  0.50400001928E-02 0.  1.
        1   -1    0    0  501    0  0.00000000000E+00  0.00000000000E+00 -0.20130258177E+03  0.20130258183E+03  0.50400001928E-02 0. -1.
    10030    2    1    2    0    0  0.00000000000E+00  0.00000000000E+00  0.24588773459E+03  0.64849289823E+03  0.60006854694E+03 0.  0.
        5    1    3    3  502    0 -0.21918386908E+03  0.10935862679E+03 -0.64231027634E+02  0.25327572451E+03  0.46999998093E+01 0. -1.
       -5    1    3    3    0  502  0.21918386908E+03 -0.10935862679E+03  0.31011876223E+03  0.39521717372E+03  0.46999998093E+01 0.  1.
</event>
<event>
 5   0  0.6007360E-02  0.5969409E+03  0.7818609E-02  0.9911773E-01
        2   -1    0    0  501    0  0.00000000000E+00  0.00000000000E+00  0.78237941377E+03  0.78237941378E+03  0.25500000920E-02 0.  1.
       -2   -1    0    0    0  501  0.00000000000E+00  0.00000000000E+00 -0.11386369325E+03  0.11386369328E+03  0.25500000920E-02 0. -1.
    10030    2    1    2    0    0  0.00000000000E+00  0.00000000000E+00  0.66851572052E+03  0.89624310706E+03  0.59694090022E+03 0.  0.
        4    1    3    3  502    0  0.78573332572E+02  0.23020353928E+03  0.59394057981E+03  0.64182120823E+03  0.12699999809E+01 0.  1.
       -4    1    3    3    0  502 -0.78573332572E+02 -0.23020353928E+03  0.74575140711E+02  0.25442189882E+03  0.12699999809E+01 0. -1.
</event>
<event>
 5   0  0.3651984E-02  0.6269695E+03  0.7818609E-02  0.9850980E-01
        1   -1    0    0  501    0  0.00000000000E+00  0.00000000000E+00  0.19871886250E+03  0.19871886257E+03  0.50400001928E-02 0. -1.
       -1   -1    0    0    0  501  0.00000000000E+00  0.00000000000E+00 -0.49453132655E+03  0.49453132658E+03  0.50400001928E-02 0.  1.
    10030    2    1    2    0    0  0.00000000000E+00  0.00000000000E+00 -0.29581246405E+03  0.69325018914E+03  0.62696954540E+03 0.  0.
        1    1    3    3  502    0  0.44252014112E+02  0.11348809824E+03 -0.46729339812E+03  0.48290880003E+03  0.50400001928E-02 0.  1.
       -1    1    3    3    0  502 -0.44252014112E+02 -0.11348809824E+03  0.17148093408E+03  0.21034138911E+03  0.50400001928E-02 0. -1.
</event>
<event>
 5   0  0.3703280E-02  0.6055190E+03  0.7818609E-02  0.9894022E-01
       -1   -1    0    0    0  501  0.00000000000E+00  0.00000000000E+00  0.93402093613E+02  0.93402093749E+02  0.50400001928E-02 0.  1.
        1   -1    0    0  501    0  0.00000000000E+00  0.00000000000E+00 -0.98138394255E+03  0.98138394256E+03  0.50400001928E-02 0. -1.
    10030    2    1    2    0    0  0.00000000000E+00  0.00000000000E+00 -0.88798184893E+03  0.10747860363E+04  0.60551900037E+03 0.  0.
        5    1    3    3  502    0 -0.15621594062E+03 -0.13074833379E+02 -0.90366308937E+03  0.91717143460E+03  0.46999998093E+01 0. -1.
       -5    1    3    3    0  502  0.15621594062E+03  0.13074833379E+02  0.15681240433E+02  0.15761460171E+03  0.46999998093E+01 0.  1.
</event>
<event>
 5   0  0.3651984E-02  0.6024851E+03  0.7818609E-02  0.9900264E-01
       -1   -1    0    0    0  501  0.00000000000E+00  0.00000000000E+00  0.10479032607E+03  0.10479032620E+03  0.50400001928E-02 0.  1.
        1   -1    0    0  501    0  0.00000000000E+00  0.00000000000E+00 -0.86598710553E+03  0.86598710555E+03  0.50400001928E-02 0. -1.
    10030    2    1    2    0    0  0.00000000000E+00  0.00000000000E+00 -0.76119677946E+03  0.97077743174E+03  0.60248509104E+03 0.  0.
        1    1    3    3  502    0  0.16646580757E+02 -0.15416969916E+03 -0.79674054208E+03  0.81169014791E+03  0.50400001928E-02 0. -1.
       -1    1    3    3    0  502 -0.16646580757E+02  0.15416969916E+03  0.35543762624E+02  0.15908728383E+03  0.50400001928E-02 0.  1.
</event>
<event>
 5   0  0.3767635E-02  0.6036429E+03  0.7818609E-02  0.9897877E-01
        1   -1    0    0  501    0  0.00000000000E+00  0.00000000000E+00  0.59729055951E+03  0.59729055953E+03  0.50400001928E-02 0.  1.
       -1   -1    0    0    0  501  0.00000000000E+00  0.00000000000E+00 -0.15251569238E+03  0.15251569246E+03  0.50400001928E-02 0. -1.
    10030    2    1    2    0    0  0.00000000000E+00  0.00000000000E+00  0.44477486713E+03  0.74980625200E+03  0.60364288541E+03 0.  0.
        2    1    3    3  502    0  0.13073611273E+03 -0.23028548493E+03  0.42501306858E+02  0.26819712309E+03  0.25500000920E-02 0. -1.
       -2    1    3    3    0  502 -0.13073611273E+03  0.23028548493E+03  0.40227356027E+03  0.48160912890E+03  0.25500000920E-02 0.  1.
</event>
<event>
 5   0  0.3767635E-02  0.5974734E+03  0.7818609E-02  0.9910662E-01
        1   -1    0    0  501    0  0.00000000000E+00  0.00000000000E+00  0.14137083468E+04  0.14137083468E+04  0.50400001928E-02 0. -1.
       -1   -1    0    0    0  501  0.00000000000E+00  0.00000000000E+00 -0.63127314533E+02  0.63127314734E+02  0.50400001928E-02 0.  1.
    10030    2    1    2    0    0  0.00000000000E+00  0.00000000000E+00  0.13505810323E+04  0.14768356615E+04  0.59747338559E+03 0.  0.
        2    1    3    3  502    0 -0.19072863711E+03 -0.16679761151E+03  0.28411469433E+03  0.38068361635E+03  0.25500000920E-02 0.  1.
       -2    1    3    3    0  502  0.19072863711E+03  0.16679761151E+03  0.10664663379E+04  0.10961520452E+04  0.25500000920E-02 0. -1.
</event>
<event>
 5   0  0.2388000E-02  0.6718656E+03  0.7818609E-02  0.9766594E-01
        3   -1    0    0  501    0  0.00000000000E+00  0.00000000000E+00  0.66039296451E+03  0.66039297223E+03  0.10100000352E+00 0.  1.
       -3   -1    0    0    0  501  0.00000000000E+00  0.00000000000E+00 -0.17088434225E+03  0.17088437209E+03  0.10100000352E+00 0. -1.
    10030    2    1    2    0    0  0.00000000000E+00  0.00000000000E+00  0.48950862226E+03  0.83127734433E+03  0.67186556090E+03 0.  0.
        3    1    3    3  502    0 -0.32833637686E+03 -0.10745109205E+02  0.33163294177E+03  0.46679829906E+03  0.10100000352E+00 0.  1.
       -3    1    3    3    0  502  0.32833637686E+03  0.10745109205E+02  0.15787568049E+03  0.36447904526E+03  0.10100000352E+00 0. -1.
</event>
<event>
 5   0  0.2388000E-02  0.5843069E+03  0.7818609E-02  0.9938510E-01
       -3   -1    0    0    0  501  0.00000000000E+00  0.00000000000E+00  0.27917085729E+03  0.27917087556E+03  0.10100000352E+00 0.  1.
        3   -1    0    0  501    0  0.00000000000E+00  0.00000000000E+00 -0.30573978799E+03  0.30573980468E+03  0.10100000352E+00 0. -1.
    10030    2    1    2    0    0  0.00000000000E+00  0.00000000000E+00 -0.26568930701E+02  0.58491068024E+03  0.58430693627E+03 0.  0.
        5    1    3    3  502    0 -0.10406580980E+02 -0.23090082229E+03  0.16552841267E+03  0.28433295986E+03  0.46999998093E+01 0.  1.
       -5    1    3    3    0  502  0.10406580980E+02  0.23090082229E+03 -0.19209734337E+03  0.30057772038E+03  0.46999998093E+01 0. -1.
</event>
<event>
 5   0  0.3703280E-02  0.5944522E+03  0.7818609E-02  0.9916983E-01
        1   -1    0    0  501    0  0.00000000000E+00  0.00000000000E+00  0.59081280369E+03  0.59081280371E+03  0.50400001928E-02 0.  1.
       -1   -1    0    0    0  501  0.00000000000E+00  0.00000000000E+00 -0.14952851391E+03  0.14952851400E+03  0.50400001928E-02 0. -1.
    10030    2    1    2    0    0  0.00000000000E+00  0.00000000000E+00  0.44128428978E+03  0.74034131770E+03  0.59445222037E+03 0.  0.
        5    1    3    3  502    0 -0.19020045313E+03 -0.12082774434E+02 -0.63354232564E+02  0.20089314222E+03  0.46999998093E+01 0. -1.
       -5    1    3    3    0  502  0.19020045313E+03  0.12082774434E+02  0.50463852234E+03  0.53944817549E+03  0.46999998093E+01 0.  1.
</event>
<event>
 5   0  0.5872632E-02  0.6023810E+03  0.7818609E-02  0.9900479E-01
        2   -1    0    0  501    0  0.00000000000E+00  0.00000000000E+00  0.47497835534E+03  0.47497835535E+03  0.25500000920E-02 0.  1.
       -2   -1    0    0    0  501  0.00000000000E+00  0.00000000000E+00 -0.19098914187E+03  0.19098914189E+03  0.25500000920E-02 0. -1.
    10030    2    1    2    0    0  0.00000000000E+00  0.00000000000E+00  0.28398921347E+03  0.66596749723E+03  0.60238097082E+03 0.  0.
        1    1    3    3  502    0 -0.13733996404E+03  0.24578683469E+03  0.26025463367E+03  0.38341349507E+03  0.50400001928E-02 0.  1.
       -1    1    3    3    0  502  0.13733996404E+03 -0.24578683469E+03  0.23734579800E+02  0.28255400216E+03  0.50400001928E-02 0. -1.
</event>
<event>
 5   0  0.3767635E-02  0.5931761E+03  0.7818609E-02  0.9919665E-01
        1   -1    0    0  501    0  0.00000000000E+00  0.00000000000E+00  0.34168352856E+03  0.34168352860E+03  0.50400001928E-02 0.  1.
       -1   -1    0    0    0  501  0.00000000000E+00  0.00000000000E+00 -0.25744430086E+03  0.25744430091E+03  0.50400001928E-02 0. -1.
    10030    2    1    2    0    0  0.00000000000E+00  0.00000000000E+00  0.84239227707E+02  0.59912782951E+03  0.59317611938E+03 0.  0.
        2    1    3    3  502    0 -0.18888777101E+03 -0.15673040365E+03 -0.12604861276E+03  0.27591894145E+03  0.25500000920E-02 0. -1.
       -2    1    3    3    0  502  0.18888777101E+03  0.15673040365E+03  0.21028784047E+03  0.32320888806E+03  0.25500000920E-02 0.  1.
</event>
<event>
 5   0  0.5935451E-02  0.5966449E+03  0.7818609E-02  0.9912391E-01
       -2   -1    0    0    0  501  0.00000000000E+00  0.00000000000E+00  0.10447743983E+03  0.10447743986E+03  0.25500000920E-02 0.  1.
        2   -1    0    0  501    0  0.00000000000E+00  0.00000000000E+00 -0.85182307851E+03  0.85182307851E+03  0.25500000920E-02 0. -1.
    10030    2    1    2    0    0  0.00000000000E+00  0.00000000000E+00 -0.74734563868E+03  0.95630051837E+03  0.59664493444E+03 0.  0.
        3    1    3    3  502    0 -0.53885309198E+02 -0.23066023971E+02  0.95157171302E+02  0.11176119837E+03  0.10100000352E+00 0.  1.
       -3    1    3    3    0  502  0.53885309198E+02  0.23066023971E+02 -0.84250280998E+03  0.84453932001E+03  0.10100000352E+00 0. -1.
</event>
<event>
 5   0  0.3478183E-02  0.6000526E+03  0.7818609E-02  0.9905297E-01
        1   -1    0    0  501    0  0.00000000000E+00  0.00000000000E+00  0.19593814166E+03  0.19593814172E+03  0.50400001928E-02 0. -1.
       -1   -1    0    0    0  501  0.00000000000E+00  0.00000000000E+00 -0.45940920042E+03  0.45940920045E+03  0.50400001928E-02 0.  1.
    10030    2    1    2    0    0  0.00000000000E+00  0.00000000000E+00 -0.26347105876E+03  0.65534734217E+03  0.60005261443E+03 0.  0.
        4    1    3    3  502    0 -0.14248746689E+02  0.21280282729E+03 -0.36219234080E+03  0.42032484428E+03  0.12699999809E+01 0.  1.
       -4    1    3    3    0  502  0.14248746689E+02 -0.21280282729E+03  0.98721282041E+02  0.23502249789E+03  0.12699999809E+01 0. -1.
</event>
<event>
 5   0  0.5872632E-02  0.5985058E+03  0.7818609E-02  0.9908511E-01
       -2   -1    0    0    0  501  0.00000000000E+00  0.00000000000E+00  0.80843624002E+02  0.80843624043E+02  0.25500000920E-02 0.  1.
        2   -1    0    0  501    0  0.00000000000E+00  0.00000000000E+00 -0.11077223567E+04  0.11077223567E+04  0.25500000920E-02 0. -1.
    10030    2    1    2    0    0  0.00000000000E+00  0.00000000000E+00 -0.10268787327E+04  0.11885659807E+04  0.59850577183E+03 0.  0.
        1    1    3    3  502    0 -0.14224692137E+03  0.26033570369E+03 -0.59145787430E+03  0.66168820630E+03  0.50400001928E-02 0. -1.
       -1    1    3    3    0  502  0.14224692137E+03 -0.26033570369E+03 -0.43542085837E+03  0.52687777443E+03  0.50400001928E-02 0.  1.
</event>
<event>
 5   0  0.3651984E-02  0.5955969E+03  0.7818609E-02  0.9914583E-01
       -1   -1    0    0    0  501  0.00000000000E+00  0.00000000000E+00  0.38086648569E+03  0.38086648573E+03  0.50400001928E-02 0. -1.
        1   -1    0    0  501    0  0.00000000000E+00  0.00000000000E+00 -0.23284781011E+03  0.23284781016E+03  0.50400001928E-02 0.  1.
    10030    2    1    2    0    0  0.00000000000E+00  0.00000000000E+00  0.14801867559E+03  0.61371429589E+03  0.59559693473E+03 0.  0.
        1    1    3    3  502    0 -0.16501934187E+01  0.40293946976E+02 -0.23002114957E+03  0.23352955825E+03  0.50400001928E-02 0.  1.
       -1    1    3    3    0  502  0.16501934187E+01 -0.40293946976E+02  0.37803982516E+03  0.38018473764E+03  0.50400001928E-02 0. -1.
</event>
<event>
 5   0  0.6007360E-02  0.6050660E+03  0.7818609E-02  0.9894951E-01
        2   -1    0    0  501    0  0.00000000000E+00  0.00000000000E+00  0.10926949347E+04  0.10926949347E+04  0.25500000920E-02 0.  1.
       -2   -1    0    0    0  501  0.00000000000E+00  0.00000000000E+00 -0.83761911160E+02  0.83761911199E+02  0.25500000920E-02 0. -1.
    10030    2    1    2    0    0  0.00000000000E+00  0.00000000000E+00  0.10089330235E+04  0.11764568459E+04  0.60506599993E+03 0.  0.
        4    1    3    3  502    0 -0.10241331680E+03 -0.26921613097E+03  0.32458793177E+03  0.43396399734E+03  0.12699999809E+01 0. -1.
       -4    1    3    3    0  502  0.10241331680E+03  0.26921613097E+03  0.68434509173E+03  0.74249284853E+03  0.12699999809E+01 0.  1.
</event>
<event>
 5   0  0.2388000E-02  0.5765576E+03  0.7818609E-02  0.9955272E-01
       -3   -1    0    0    0  501  0.00000000000E+00  0.00000000000E+00  0.62942849202E+03  0.62942850013E+03  0.10100000352E+00 0.  1.
        3   -1    0    0  501    0  0.00000000000E+00  0.00000000000E+00 -0.13203191832E+03  0.13203195695E+03  0.10100000352E+00 0. -1.
    10030    2    1    2    0    0  0.00000000000E+00  0.00000000000E+00  0.49739657370E+03  0.76146045708E+03  0.57655760871E+03 0.  0.
        2    1    3    3  502    0  0.35939634871E+02 -0.23038518235E+03  0.24818243432E+02  0.23448866670E+03  0.25500000920E-02 0. -1.
       -2    1    3    3    0  502 -0.35939634871E+02  0.23038518235E+03  0.47257833027E+03  0.52697179037E+03  0.25500000920E-02 0.  1.
</event>
<event>
 5   0  0.5755078E-02  0.6010251E+03  0.7818609E-02  0.9903282E-01
        2   -1    0    0  501    0  0.00000000000E+00  0.00000000000E+00  0.89566069594E+03  0.89566069594E+03  0.25500000920E-02 0. -1.
       -2   -1    0    0    0  501  0.00000000000E+00  0.00000000000E+00 -0.10082812338E+03  0.10082812342E+03  0.25500000920E-02 0.  1.
    10030    2    1    2    0    0  0.00000000000E+00  0.00000000000E+00  0.79483257255E+03  0.99648881936E+03  0.60102508160E+03 0.  0.
        2    1    3    3  502    0  0.11175729859E+03 -0.21837263049E+03  0.10961672923E+03  0.26868592607E+03  0.25500000920E-02 0.  1.
       -2    1    3    3    0  502 -0.11175729859E+03  0.21837263049E+03  0.68521584332E+03  0.72780289329E+03  0.25500000920E-02 0. -1.
</event>
<event>
 5   0  0.5999117E-02  0.5891567E+03  0.7818609E-02  0.9928161E-01
        2   -1    0    0  501    0  0.00000000000E+00  0.00000000000E+00  0.71334127631E+03  0.71334127632E+03  0.25500000920E-02 0. -1.
       -2   -1    0    0    0  501  0.00000000000E+00  0.00000000000E+00 -0.12164779171E+03  0.12164779173E+03  0.25500000920E-02 0.  1.
    10030    2    1    2    0    0  0.00000000000E+00  0.00000000000E+00  0.59169348460E+03  0.83498906805E+03  0.58915665493E+03 0.  0.
        5    1    3    3  502    0 -0.16491124591E+03 -0.16408884126E+02  0.64094143091E+03  0.66203699168E+03  0.46999998093E+01 0. -1.
       -5    1    3    3    0  502  0.16491124591E+03  0.16408884126E+02 -0.49247946304E+02  0.17295207637E+03  0.46999998093E+01 0.  1.
</event>
<event>
 5   0  0.5755078E-02  0.6191333E+03  0.7818609E-02  0.9866487E-01
        2   -1    0    0  501    0  0.00000000000E+00  0.00000000000E+00  0.18626509597E+04  0.18626509597E+04  0.25500000920E-02 0.  1.
       -2   -1    0    0    0  501  0.00000000000E+00  0.00000000000E+00 -0.51448988269E+02  0.51448988332E+02  0.25500000920E-02 0. -1.
    10030    2    1    2    0    0  0.00000000000E+00  0.00000000000E+00  0.18112019715E+04  0.19140999481E+04  0.61913328917E+03 0.  0.
        2    1    3    3  502    0 -0.11683535004E+03  0.24018432659E+03  0.13894356651E+04  0.14148747214E+04  0.25500000920E-02 0.  1.
       -2    1    3    3    0  502  0.11683535004E+03 -0.24018432659E+03  0.42176630634E+03  0.49922522665E+03  0.25500000920E-02 0. -1.
</event>
<event>
 5   0  0.5935451E-02  0.5975326E+03  0.7818609E-02  0.9910538E-01
        2   -1    0    0  501    0  0.00000000000E+00  0.00000000000E+00  0.24379019833E+03  0.24379019834E+03  0.25500000920E-02 0.  1.
       -2   -1    0    0    0  501  0.00000000000E+00  0.00000000000E+00 -0.36613983399E+03  0.36613983399E+03  0.25500000920E-02 0. -1.
    10030    2    1    2    0    0  0.00000000000E+00  0.00000000000E+00 -0.12234963566E+03  0.60993003234E+03  0.59753260246E+03 0.  0.
        3    1    3    3  502    0  0.94292722459E+02  0.51838244083E+02 -0.34567419945E+03  0.36203450585E+03  0.10100000352E+00 0. -1.
       -3    1    3    3    0  502 -0.94292722459E+02 -0.51838244083E+02  0.22332456379E+03  0.24789552649E+03  0.10100000352E+00 0.  1.
</event>
<event>
 5   0  0.5935451E-02  0.6019590E+03  0.7818609E-02  0.9901350E-01
       -2   -1    0    0    0  501  0.00000000000E+00  0.00000000000E+00  0.14551719666E+03  0.14551719668E+03  0.25500000920E-02 0.  1.
        2   -1    0    0  501    0  0.00000000000E+00  0.00000000000E+00 -0.62252892112E+03  0.62252892112E+03  0.25500000920E-02 0. -1.
    10030    2    1    2    0    0  0.00000000000E+00  0.00000000000E+00 -0.47701172446E+03  0.76804611780E+03  0.60195901339E+03 0.  0.
        3    1    3    3  502    0 -0.18820193518E+03 -0.14051684473E+03 -0.47864743159E+03  0.53316819675E+03  0.10100000352E+00 0. -1.
       -3    1    3    3    0  502  0.18820193518E+03  0.14051684473E+03  0.16357071359E+01  0.23487792105E+03  0.10100000352E+00 0.  1.
</event>
<event>
 5   0  0.5755078E-02  0.5971920E+03  0.7818609E-02  0.9911249E-01
       -2   -1    0    0    0  501  0.00000000000E+00  0.00000000000E+00  0.20409374841E+03  0.20409374843E+03  0.25500000920E-02 0.  1.
        2   -1    0    0  501    0  0.00000000000E+00  0.00000000000E+00 -0.43685602428E+03  0.43685602428E+03  0.25500000920E-02 0. -1.
    10030    2    1    2    0    0  0.00000000000E+00  0.00000000000E+00 -0.23276227586E+03  0.64094977271E+03  0.59719204121E+03 0.  0.
        2    1    3    3  502    0 -0.18112580673E+03  0.88404073558E+02  0.12007456143E+03  0.23460549523E+03  0.25500000920E-02 0.  1.
       -2    1    3    3    0  502  0.18112580673E+03 -0.88404073558E+02 -0.35283683729E+03  0.40634427748E+03  0.25500000920E-02 0. -1.
</event>
<event>
 5   0  0.3703280E-02  0.5975790E+03  0.7818609E-02  0.9910442E-01
       -1   -1    0    0    0  501  0.00000000000E+00  0.00000000000E+00  0.26952297113E+03  0.26952297118E+03  0.50400001928E-02 0.  1.
        1   -1    0    0  501    0  0.00000000000E+00  0.00000000000E+00 -0.33123393675E+03  0.33123393679E+03  0.50400001928E-02 0. -1.
    10030    2    1    2    0    0  0.00000000000E+00  0.00000000000E+00 -0.61710965621E+02  0.60075690797E+03  0.59757896482E+03 0.  0.
        5    1    3    3  502    0 -0.65352604741E+02 -0.25345960354E+03 -0.17563639737E+03  0.31525064259E+03  0.46999998093E+01 0. -1.
       -5    1    3    3    0  502  0.65352604741E+02  0.25345960354E+03  0.11392543175E+03  0.28550626538E+03  0.46999998093E+01 0.  1.
</event>
<event>
 5   0  0.5999117E-02  0.6036887E+03  0.7818609E-02  0.9897783E-01
       -2   -1    0    0    0  501  0.00000000000E+00  0.00000000000E+00  0.13169131721E+03  0.13169131724E+03  0.25500000920E-02 0. -1.
        2   -1    0    0  501    0  0.00000000000E+00  0.00000000000E+00 -0.69184520748E+03  0.69184520748E+03  0.25500000920E-02 0.  1.
    10030    2    1    2    0    0  0.00000000000E+00  0.00000000000E+00 -0.56015389026E+03  0.82353652472E+03  0.60368868366E+03 0.  0.
        5    1    3    3  502    0  0.10885858736E+03 -0.61432242061E+02 -0.65482481936E+03  0.66666464317E+03  0.46999998093E+01 0.  1.
       -5    1    3    3    0  502 -0.10885858736E+03  0.61432242061E+02  0.94670929100E+02  0.15687188155E+03  0.46999998093E+01 0. -1.
</event>
<event>
 5   0  0.5935451E-02  0.6032437E+03  0.7818609E-02  0.9898699E-01
       -2   -1    0    0    0  501  0.00000000000E+00  0.00000000000E+00  0.18651121406E+03  0.18651121408E+03  0.25500000920E-02 0.  1.
        2   -1    0    0  501    0  0.00000000000E+00  0.00000000000E+00 -0.48777629320E+03  0.48777629321E+03  0.25500000920E-02 0. -1.
    10030    2    1    2    0    0  0.00000000000E+00  0.00000000000E+00 -0.30126507914E+03  0.67428750729E+03  0.60324372734E+03 0.  0.
        3    1    3    3  502    0 -0.22947861798E+03  0.28575603008E+02 -0.36708404982E+03  0.43385217648E+03  0.10100000352E+00 0. -1.
       -3    1    3    3    0  502  0.22947861798E+03 -0.28575603008E+02  0.65818970679E+02  0.24043533081E+03  0.10100000352E+00 0.  1.
</event>
<event>
 5   0  0.3478183E-02  0.5942556E+03  0.7818609E-02  0.9917396E-01
        1   -1    0    0  501    0  0.00000000000E+00  0.00000000000E+00  0.23172204377E+03  0.23172204383E+03  0.50400001928E-02 0.  1.
       -1   -1    0    0    0  501  0.00000000000E+00  0.00000000000E+00 -0.38099491587E+03  0.38099491590E+03  0.50400001928E-02 0. -1.
    10030    2    1    2    0    0  0.00000000000E+00  0.00000000000E+00 -0.14927287210E+03  0.61271695973E+03  0.59425556993E+03 0.  0.
        4    1    3    3  502    0  0.29682849571E+02 -0.15467907001E+03  0.18513628420E+03  0.24307147690E+03  0.12699999809E+01 0.  1.
       -4    1    3    3    0  502 -0.29682849571E+02  0.15467907001E+03 -0.33440915629E+03  0.36964548282E+03  0.12699999809E+01 0. -1.
</event>
<event>
 5   0  0.5872632E-02  0.6026849E+03  0.7818609E-02  0.9899851E-01
       -2   -1    0    0    0  501  0.00000000000E+00  0.00000000000E+00  0.19490927092E+03  0.19490927094E+03  0.25500000920E-02 0.  1.
        2   -1    0    0  501    0  0.00000000000E+00  0.00000000000E+00 -0.46589502206E+03  0.46589502206E+03  0.25500000920E-02 0. -1.
    10030    2    1    2    0    0  0.00000000000E+00  0.00000000000E+00 -0.27098575113E+03  0.66080429300E+03  0.60268485656E+03 0.  0.
        1    1    3    3  502    0  0.27269228303E+03  0.84635440100E+02 -0.29853160237E+02  0.28708091219E+03  0.50400001928E-02 0.  1.
       -1    1    3    3    0  502 -0.27269228303E+03 -0.84635440100E+02 -0.24113259090E+03  0.37372338081E+03  0.50400001928E-02 0. -1.
</event>
<event>
 5   0  0.5755078E-02  0.5993086E+03  0.7818609E-02  0.9906842E-01
       -2   -1    0    0    0  501  0.00000000000E+00  0.00000000000E+00  0.93997374102E+02  0.93997374136E+02  0.25500000920E-02 0.  1.
        2   -1    0    0  501    0  0.00000000000E+00  0.00000000000E+00 -0.95526801488E+03  0.95526801489E+03  0.25500000920E-02 0. -1.
    10030    2    1    2    0    0  0.00000000000E+00  0.00000000000E+00 -0.86127064078E+03  0.10492653890E+04  0.59930855152E+03 0.  0.
        2    1    3    3  502    0  0.69731618357E+02  0.51580515156E+02 -0.93280982858E+03  0.93683361620E+03  0.25500000920E-02 0. -1.
       -2    1    3    3    0  502 -0.69731618357E+02 -0.51580515156E+02  0.71539187799E+02  0.11243177282E+03  0.25500000920E-02 0.  1.
</event>
<event>
 5   0  0.3767635E-02  0.6018167E+03  0.7818609E-02  0.9901644E-01
        1   -1    0    0  501    0  0.00000000000E+00  0.00000000000E+00  0.30725717647E+03  0.30725717651E+03  0.50400001928E-02 0.  1.
       -1   -1    0    0    0  501  0.00000000000E+00  0.00000000000E+00 -0.29469066569E+03  0.29469066573E+03  0.50400001928E-02 0. -1.
    10030    2    1    2    0    0  0.00000000000E+00  0.00000000000E+00  0.12566510778E+02  0.60194784224E+03  0.60181665612E+03 0.  0.
        2    1    3    3  502    0 -0.22381299421E+03  0.10878242174E+03 -0.16292794089E+03  0.29744139858E+03  0.25500000920E-02 0.  1.
       -2    1    3    3    0  502  0.22381299421E+03 -0.10878242174E+03  0.17549445167E+03  0.30450644366E+03  0.25500000920E-02 0. -1.
</event>
<event>
 5   0  0.5999117E-02  0.6025166E+03  0.7818609E-02  0.9900199E-01
       -2   -1    0    0    0  501  0.00000000000E+00  0.00000000000E+00  0.93125800740E+02  0.93125800775E+02  0.25500000920E-02 0. -1.
        2   -1    0    0  501    0  0.00000000000E+00  0.00000000000E+00 -0.97455879873E+03  0.97455879874E+03  0.25500000920E-02 0.  1.
    10030    2    1    2    0    0  0.00000000000E+00  0.00000000000E+00 -0.88143299799E+03  0.10676845995E+04  0.60251661727E+03 0.  0.
        5    1    3    3  502    0 -0.19196513629E+03 -0.23210762632E+03 -0.44629625746E+03  0.53844870059E+03  0.46999998093E+01 0. -1.
       -5    1    3    3    0  502  0.19196513629E+03  0.23210762632E+03 -0.43513674054E+03  0.52923589892E+03  0.46999998093E+01 0.  1.
</event>
<event>
 5   0  0.3640827E-02  0.5975508E+03  0.7818609E-02  0.9910501E-01
        1   -1    0    0  501    0  0.00000000000E+00  0.00000000000E+00  0.41721178990E+03  0.41721178994E+03  0.50400001928E-02 0.  1.
       -1   -1    0    0    0  501  0.00000000000E+00  0.00000000000E+00 -0.21396021726E+03  0.21396021732E+03  0.50400001928E-02 0. -1.
    10030    2    1    2    0    0  0.00000000000E+00  0.00000000000E+00  0.20325157264E+03  0.63117200726E+03  0.59755075179E+03 0.  0.
        3    1    3    3  502    0 -0.49691413191E+02  0.28228166248E+02 -0.20813311625E+03  0.21583667482E+03  0.10100000352E+00 0. -1.
       -3    1    3    3    0  502  0.49691413191E+02 -0.28228166248E+02  0.41138468889E+03  0.41533533244E+03  0.10100000352E+00 0.  1.
</event>
<event>
 5   0  0.3640827E-02  0.5808440E+03  0.7818609E-02  0.9945965E-01
       -1   -1    0    0    0  501  0.00000000000E+00  0.00000000000E+00  0.96451331895E+02  0.96451332027E+02  0.50400001928E-02 0.  1.
        1   -1    0    0  501    0  0.00000000000E+00  0.00000000000E+00 -0.87448197437E+03  0.87448197439E+03  0.50400001928E-02 0. -1.
    10030    2    1    2    0    0  0.00000000000E+00  0.00000000000E+00 -0.77803064248E+03  0.97093330642E+03  0.58084404522E+03 0.  0.
        3    1    3    3  502    0  0.68188175990E+02  0.26345350233E+03 -0.55856078339E+03  0.62132723598E+03  0.10100000352E+00 0.  1.
       -3    1    3    3    0  502 -0.68188175990E+02 -0.26345350233E+03 -0.21946985909E+03  0.34960607043E+03  0.10100000352E+00 0. -1.
</event>
<event>
 5   0  0.3478183E-02  0.6019315E+03  0.7818609E-02  0.9901407E-01
        1   -1    0    0  501    0  0.00000000000E+00  0.00000000000E+00  0.98259742713E+03  0.98259742714E+03  0.50400001928E-02 0.  1.
       -1   -1    0    0    0  501  0.00000000000E+00  0.00000000000E+00 -0.92184629312E+02  0.92184629449E+02  0.50400001928E-02 0. -1.
    10030    2    1    2    0    0  0.00000000000E+00  0.00000000000E+00  0.89041279782E+03  0.10747820566E+04  0.60193149000E+03 0.  0.
        4    1    3    3  502    0 -0.61030624677E+02 -0.51875735958E+02 -0.72798403596E+02  0.10824532136E+03  0.12699999809E+01 0. -1.
       -4    1    3    3    0  502  0.61030624677E+02  0.51875735958E+02  0.96321120142E+03  0.96653673524E+03  0.12699999809E+01 0.  1.
</event>
<event>
 5   0  0.6007360E-02  0.6059964E+03  0.7818609E-02  0.9893043E-01
        2   -1    0    0  501    0  0.00000000000E+00  0.00000000000E+00  0.34541726927E+03  0.34541726928E+03  0.25500000920E-02 0.  1.
       -2   -1    0    0    0  501  0.00000000000E+00  0.00000000000E+00 -0.26578840205E+03  0.26578840206E+03  0.25500000920E-02 0. -1.
    10030    2    1    2    0    0  0.00000000000E+00  0.00000000000E+00  0.79628867223E+02  0.61120567134E+03  0.60599638298E+03 0.  0.
        4    1    3    3  502    0 -0.21626547587E+02 -0.30038494373E+03  0.73379164161E+02  0.30997570326E+03  0.12699999809E+01 0.  1.
       -4    1    3    3    0  502  0.21626547587E+02  0.30038494373E+03  0.62497030617E+01  0.30122996808E+03  0.12699999809E+01 0. -1.
</event>
<event>
 5   0  0.5755078E-02  0.6033505E+03  0.7818609E-02  0.9898479E-01
        2   -1    0    0  501    0  0.00000000000E+00  0.00000000000E+00  0.48712841200E+03  0.48712841200E+03  0.25500000920E-02 0. -1.
       -2   -1    0    0    0  501  0.00000000000E+00  0.00000000000E+00 -0.18682537812E+03  0.18682537814E+03  0.25500000920E-02 0.  1.
    10030    2    1    2    0    0  0.00000000000E+00  0.00000000000E+00  0.30030303387E+03  0.67395379014E+03  0.60335047783E+03 0.  0.
        2    1    3    3  502    0 -0.92560255916E+02 -0.14864391467E+03 -0.12424780351E+03  0.21470894491E+03  0.25500000920E-02 0.  1.
       -2    1    3    3    0  502  0.92560255916E+02  0.14864391467E+03  0.42455083738E+03  0.45924484523E+03  0.25500000920E-02 0. -1.
</event>
<event>
 5   0  0.6007360E-02  0.6095201E+03  0.7818609E-02  0.9885849E-01
       -2   -1    0    0    0  501  0.00000000000E+00  0.00000000000E+00  0.59745877622E+02  0.59745877677E+02  0.25500000920E-02 0.  1.
        2   -1    0    0  501    0  0.00000000000E+00  0.00000000000E+00 -0.15545621976E+04  0.15545621976E+04  0.25500000920E-02 0. -1.
    10030    2    1    2    0    0  0.00000000000E+00  0.00000000000E+00 -0.14948163200E+04  0.16143080753E+04  0.60952008289E+03 0.  0.
        4    1    3    3  502    0 -0.29251145656E+03 -0.81301157066E+02 -0.81769250829E+03  0.87223590924E+03  0.12699999809E+01 0. -1.
       -4    1    3    3    0  502  0.29251145656E+03  0.81301157066E+02 -0.67712381171E+03  0.74207216606E+03  0.12699999809E+01 0.  1.
</event>
<event>
 5   0  0.5872632E-02  0.5988977E+03  0.7818609E-02  0.9907696E-01
       -2   -1    0    0    0  501  0.00000000000E+00  0.00000000000E+00  0.14008895371E+03  0.14008895374E+03  0.25500000920E-02 0. -1.
        2   -1    0    0  501    0  0.00000000000E+00  0.00000000000E+00 -0.64009053453E+03  0.64009053453E+03  0.25500000920E-02 0.  1.
    10030    2    1    2    0    0  0.00000000000E+00  0.00000000000E+00 -0.50000158082E+03  0.78017948827E+03  0.59889769836E+03 0.  0.
        1    1    3    3  502    0  0.19590401541E+03 -0.11808254728E+03  0.17518644854E+01  0.22874645414E+03  0.50400001928E-02 0. -1.
       -1    1    3    3    0  502 -0.19590401541E+03  0.11808254728E+03 -0.50175344530E+03  0.55143303413E+03  0.50400001928E-02 0.  1.
</event>
<event>
 5   0  0.5935451E-02  0.6010846E+03  0.7818609E-02  0.9903158E-01
        2   -1    0    0  501    0  0.00000000000E+00  0.00000000000E+00  0.34011398445E+03  0.34011398446E+03  0.25500000920E-02 0.  1.
       -2   -1    0    0    0  501  0.00000000000E+00  0.00000000000E+00 -0.26557467559E+03  0.26557467560E+03  0.25500000920E-02 0. -1.
    10030    2    1    2    0    0  0.00000000000E+00  0.00000000000E+00  0.74539308858E+02  0.60568866006E+03  0.60108455675E+03 0.  0.
        3    1    3    3  502    0 -0.16388062887E+03 -0.18288291104E+03 -0.13732793706E+03  0.28135741001E+03  0.10100000352E+00 0. -1.
       -3    1    3    3    0  502  0.16388062887E+03  0.18288291104E+03  0.21186724592E+03  0.32433125005E+03  0.10100000352E+00 0.  1.
</event>
<event>
 5   0  0.3651984E-02  0.5352764E+03  0.7818609E-02  0.1004960E+00
       -1   -1    0    0    0  501  0.00000000000E+00  0.00000000000E+00  0.61107509670E+03  0.61107509672E+03  0.50400001928E-02 0. -1.
        1   -1    0    0  501    0  0.00000000000E+00  0.00000000000E+00 -0.11721996550E+03  0.11721996561E+03  0.50400001928E-02 0.  1.
    10030    2    1    2    0    0  0.00000000000E+00  0.00000000000E+00  0.49385513120E+03  0.72829506232E+03  0.53527638393E+03 0.  0.
        1    1    3    3  502    0 -0.19724713939E+03 -0.14596734296E+02  0.16021949395E+01  0.19779298699E+03  0.50400001928E-02 0.  1.
       -1    1    3    3    0  502  0.19724713939E+03  0.14596734296E+02  0.49225293626E+03  0.53050207533E+03  0.50400001928E-02 0. -1.
</event>
<event>
 5   0  0.5755078E-02  0.6077254E+03  0.7818609E-02  0.9889507E-01
        2   -1    0    0  501    0  0.00000000000E+00  0.00000000000E+00  0.27275184478E+03  0.27275184479E+03  0.25500000920E-02 0. -1.
       -2   -1    0    0    0  501  0.00000000000E+00  0.00000000000E+00 -0.33852210614E+03  0.33852210615E+03  0.25500000920E-02 0.  1.
    10030    2    1    2    0    0  0.00000000000E+00  0.00000000000E+00 -0.65770261361E+02  0.61127395094E+03  0.60772536216E+03 0.  0.
        2    1    3    3  502    0 -0.11797371388E+03 -0.25011525779E+03  0.93775098046E+02  0.29200891830E+03  0.25500000920E-02 0. -1.
       -2    1    3    3    0  502  0.11797371388E+03  0.25011525779E+03 -0.15954535941E+03  0.31926503264E+03  0.25500000920E-02 0.  1.
</event>
<event>
 5   0  0.3767635E-02  0.6118394E+03  0.7818609E-02  0.9881143E-01
        1   -1    0    0  501    0  0.00000000000E+00  0.00000000000E+00  0.39845984284E+03  0.39845984287E+03  0.50400001928E-02 0.  1.
       -1   -1    0    0    0  501  0.00000000000E+00  0.00000000000E+00 -0.23487147261E+03  0.23487147266E+03  0.50400001928E-02 0. -1.
    10030    2    1    2    0    0  0.00000000000E+00  0.00000000000E+00  0.16358837023E+03  0.63333131553E+03  0.61183935829E+03 0.  0.
        2    1    3    3  502    0 -0.23823786109E+03 -0.19064106198E+03  0.58984792924E+02  0.31077403169E+03  0.25500000920E-02 0. -1.
       -2    1    3    3    0  502  0.23823786109E+03  0.19064106198E+03  0.10460357731E+03  0.32255728384E+03  0.25500000920E-02 0.  1.
</event>
<event>
 5   0  0.5755078E-02  0.6070768E+03  0.7818609E-02  0.9890832E-01
        2   -1    0    0  501    0  0.00000000000E+00  0.00000000000E+00  0.52134946068E+03  0.52134946068E+03  0.25500000920E-02 0. -1.
       -2   -1    0    0    0  501  0.00000000000E+00  0.00000000000E+00 -0.17672515638E+03  0.17672515640E+03  0.25500000920E-02 0.  1.
    10030    2    1    2    0    0  0.00000000000E+00  0.00000000000E+00  0.34462430430E+03  0.69807461708E+03  0.60707681548E+03 0.  0.
        2    1    3    3  502    0 -0.26606429535E+03 -0.12530478973E+03  0.85923993463E+02  0.30638934748E+03  0.25500000920E-02 0. -1.
       -2    1    3    3    0  502  0.26606429535E+03  0.12530478973E+03  0.25870031084E+03  0.39168526960E+03  0.25500000920E-02 0.  1.
</event>
<event>
 5   0  0.6007360E-02  0.6195901E+03  0.7818609E-02  0.9865576E-01
       -2   -1    0    0    0  501  0.00000000000E+00  0.00000000000E+00  0.22298480215E+03  0.22298480216E+03  0.25500000920E-02 0.  1.
        2   -1    0    0  501    0  0.00000000000E+00  0.00000000000E+00 -0.43040135369E+03  0.43040135370E+03  0.25500000920E-02 0. -1.
    10030    2    1    2    0    0  0.00000000000E+00  0.00000000000E+00 -0.20741655154E+03  0.65338615586E+03  0.61959006030E+03 0.  0.
        4    1    3    3  502    0 -0.25984371222E+03 -0.27696137786E+02 -0.27917380274E+03  0.38239437217E+03  0.12699999809E+01 0. -1.
       -4    1    3    3    0  502  0.25984371222E+03  0.27696137786E+02  0.71757251200E+02  0.27099178369E+03  0.12699999809E+01 0.  1.
</event>
<event>
 5   0  0.3478183E-02  0.5636702E+03  0.7818609E-02  0.9983784E-01
        1   -1    0    0  501    0  0.00000000000E+00  0.00000000000E+00  0.13816074331E+03  0.13816074340E+03  0.50400001928E-02 0.  1.
       -1   -1    0    0    0  501  0.00000000000E+00  0.00000000000E+00 -0.57491735904E+03  0.57491735906E+03  0.50400001928E-02 0. -1.
    10030    2    1    2    0    0  0.00000000000E+00  0.00000000000E+00 -0.43675661573E+03  0.71307810246E+03  0.56367015074E+03 0.  0.
        4    1    3    3  502    0 -0.23439503580E+03 -0.73794594714E+02 -0.39295110642E+03  0.46346397914E+03  0.12699999809E+01 0. -1.
       -4    1    3    3    0  502  0.23439503580E+03  0.73794594714E+02 -0.43805509303E+02  0.24961412333E+03  0.12699999809E+01 0.  1.
</event>
<event>
 5   0  0.3640827E-02  0.5989109E+03  0.7818609E-02  0.9907668E-01
       -1   -1    0    0    0  501  0.00000000000E+00  0.00000000000E+00  0.24962544893E+03  0.24962544898E+03  0.50400001928E-02 0. -1.
        1   -1    0    0  501    0  0.00000000000E+00  0.00000000000E+00 -0.35923245984E+03  0.35923245988E+03  0.50400001928E-02 0.  1.
    10030    2    1    2    0    0  0.00000000000E+00  0.00000000000E+00 -0.10960701092E+03  0.60885790885E+03  0.59891089181E+03 0.  0.
        3    1    3    3  502    0 -0.69339056811E+02  0.27470959093E+03 -0.15336887630E+03  0.32217275889E+03  0.10100000352E+00 0.  1.
       -3    1    3    3    0  502  0.69339056811E+02 -0.27470959093E+03  0.43761865379E+02  0.28668514997E+03  0.10100000352E+00 0. -1.
</event>
<event>
 5   0  0.5935451E-02  0.6110409E+03  0.7818609E-02  0.9882761E-01
       -2   -1    0    0    0  501  0.00000000000E+00  0.00000000000E+00  0.49683987344E+03  0.49683987344E+03  0.25500000920E-02 0.  1.
        2   -1    0    0  501    0  0.00000000000E+00  0.00000000000E+00 -0.18787290846E+03  0.18787290847E+03  0.25500000920E-02 0. -1.
    10030    2    1    2    0    0  0.00000000000E+00  0.00000000000E+00  0.30896696498E+03  0.68471278192E+03  0.61104092193E+03 0.  0.
        3    1    3    3  502    0 -0.71691089133E+02  0.29279352614E+03  0.21023193506E+03  0.36751209222E+03  0.10100000352E+00 0.  1.
       -3    1    3    3    0  502  0.71691089133E+02 -0.29279352614E+03  0.98735029921E+02  0.31720068970E+03  0.10100000352E+00 0. -1.
</event>
<event>
 5   0  0.3703280E-02  0.6046585E+03  0.7818609E-02  0.9895788E-01
        1   -1    0    0  501    0  0.00000000000E+00  0.00000000000E+00  0.56277086606E+03  0.56277086608E+03  0.50400001928E-02 0. -1.
       -1   -1    0    0    0  501  0.00000000000E+00  0.00000000000E+00 -0.16241597009E+03  0.16241597017E+03  0.50400001928E-02 0.  1.
    10030    2    1    2    0    0  0.00000000000E+00  0.00000000000E+00  0.40035489597E+03  0.72518683625E+03  0.60465850258E+03 0.  0.
        5    1    3    3  502    0 -0.21968413639E+03  0.20764886747E+03  0.19860717099E+03  0.36172651314E+03  0.46999998093E+01 0. -1.
       -5    1    3    3    0  502  0.21968413639E+03 -0.20764886747E+03  0.20174772498E+03  0.36346032311E+03  0.46999998093E+01 0.  1.
</event>
<event>
 5   0  0.3478183E-02  0.6046561E+03  0.7818609E-02  0.9895793E-01
       -1   -1    0    0    0  501  0.00000000000E+00  0.00000000000E+00  0.17710462152E+03  0.17710462159E+03  0.50400001928E-02 0.  1.
        1   -1    0    0  501    0  0.00000000000E+00  0.00000000000E+00 -0.51609187984E+03  0.51609187986E+03  0.50400001928E-02 0. -1.
    10030    2    1    2    0    0  0.00000000000E+00  0.00000000000E+00 -0.33898725832E+03  0.69319650145E+03  0.60465612403E+03 0.  0.
        4    1    3    3  502    0  0.11634658363E+03  0.21654396253E+03 -0.37125515025E+03  0.44526375859E+03  0.12699999809E+01 0. -1.
       -4    1    3    3    0  502 -0.11634658363E+03 -0.21654396253E+03  0.32267891924E+02  0.24793274286E+03  0.12699999809E+01 0.  1.
</event>
<event>
 5   0  0.6007360E-02  0.6016320E+03  0.7818609E-02  0.9902026E-01
       -2   -1    0    0    0  501  0.00000000000E+00  0.00000000000E+00  0.62583498866E+02  0.62583498918E+02  0.25500000920E-02 0.  1.
        2   -1    0    0  501    0  0.00000000000E+00  0.00000000000E+00 -0.14459126260E+04  0.14459126260E+04  0.25500000920E-02 0. -1.
    10030    2    1    2    0    0  0.00000000000E+00  0.00000000000E+00 -0.13833291272E+04  0.15084961250E+04  0.60163201787E+03 0.  0.
        4    1    3    3  502    0 -0.17684272587E+03  0.10420696069E+03 -0.14029927485E+03  0.24863213745E+03  0.12699999809E+01 0.  1.
       -4    1    3    3    0  502  0.17684272587E+03 -0.10420696069E+03 -0.12430298523E+04  0.12598639875E+04  0.12699999809E+01 0. -1.
</event>
<event>
 5   0  0.5872632E-02  0.6268508E+03  0.7818609E-02  0.9851214E-01
       -2   -1    0    0    0  501  0.00000000000E+00  0.00000000000E+00  0.85543157008E+02  0.85543157046E+02  0.25500000920E-02 0.  1.
        2   -1    0    0  501    0  0.00000000000E+00  0.00000000000E+00 -0.11483731667E+04  0.11483731667E+04  0.25500000920E-02 0. -1.
    10030    2    1    2    0    0  0.00000000000E+00  0.00000000000E+00 -0.10628300097E+04  0.12339163237E+04  0.62685075138E+03 0.  0.
        1    1    3    3  502    0 -0.38590653967E+02 -0.31000402427E+03 -0.48147204635E+03  0.57393994902E+03  0.50400001928E-02 0. -1.
       -1    1    3    3    0  502  0.38590653967E+02  0.31000402427E+03 -0.58135796333E+03  0.65997637472E+03  0.50400001928E-02 0.  1.
</event>
<event>
 5   0  0.3767635E-02  0.6062167E+03  0.7818609E-02  0.9892592E-01
        1   -1    0    0  501    0  0.00000000000E+00  0.00000000000E+00  0.12920610190E+04  0.12920610190E+04  0.50400001928E-02 0.  1.
       -1   -1    0    0    0  501  0.00000000000E+00  0.00000000000E+00 -0.71107079471E+02  0.71107079650E+02  0.50400001928E-02 0. -1.
    10030    2    1    2    0    0  0.00000000000E+00  0.00000000000E+00  0.12209539395E+04  0.13631680986E+04  0.60621674568E+03 0.  0.
        2    1    3    3  502    0 -0.18177874730E+03 -0.14697626902E+03  0.17660355487E+03  0.29297500273E+03  0.25500000920E-02 0. -1.
       -2    1    3    3    0  502  0.18177874730E+03  0.14697626902E+03  0.10443503846E+04  0.10701930959E+04  0.25500000920E-02 0.  1.
</event>
<event>
 5   0  0.5755078E-02  0.5991367E+03  0.7818609E-02  0.9907199E-01
       -2   -1    0    0    0  501  0.00000000000E+00  0.00000000000E+00  0.92578265655E+02  0.92578265691E+02  0.25500000920E-02 0.  1.
        2   -1    0    0  501    0  0.00000000000E+00  0.00000000000E+00 -0.96935493953E+03  0.96935493954E+03  0.25500000920E-02 0. -1.
    10030    2    1    2    0    0  0.00000000000E+00  0.00000000000E+00 -0.87677667388E+03  0.10619332052E+04  0.59913670936E+03 0.  0.
        2    1    3    3  502    0  0.25105804809E+03  0.64807833975E+02 -0.17245752009E+03  0.31140294651E+03  0.25500000920E-02 0.  1.
       -2    1    3    3    0  502 -0.25105804809E+03 -0.64807833975E+02 -0.70431915378E+03  0.75053025872E+03  0.25500000920E-02 0. -1.
</event>
<event>
 5   0  0.2388000E-02  0.6133560E+03  0.7818609E-02  0.9878078E-01
        3   -1    0    0  501    0  0.00000000000E+00  0.00000000000E+00  0.19959010527E+03  0.19959013082E+03  0.10100000352E+00 0. -1.
       -3   -1    0    0    0  501  0.00000000000E+00  0.00000000000E+00 -0.47122272904E+03  0.47122273986E+03  0.10100000352E+00 0.  1.
    10030    2    1    2    0    0  0.00000000000E+00  0.00000000000E+00 -0.27163262377E+03  0.67081287068E+03  0.61335603460E+03 0.  0.
        4    1    3    3  502    0 -0.91557315263E+01  0.16626758954E+03  0.14583673652E+03  0.22135651192E+03  0.12699999809E+01 0. -1.
       -4    1    3    3    0  502  0.91557315263E+01 -0.16626758954E+03 -0.41746936029E+03  0.44945635876E+03  0.12699999809E+01 0.  1.
</event>
<event>
 5   0  0.5872632E-02  0.5938470E+03  0.7818609E-02  0.9918255E-01
       -2   -1    0    0    0  501  0.00000000000E+00  0.00000000000E+00  0.11244889271E+03  0.11244889274E+03  0.25500000920E-02 0. -1.
        2   -1    0    0  501    0  0.00000000000E+00  0.00000000000E+00 -0.78403219118E+03  0.78403219118E+03  0.25500000920E-02 0.  1.
    10030    2    1    2    0    0  0.00000000000E+00  0.00000000000E+00 -0.67158329846E+03  0.89648108392E+03  0.59384695592E+03 0.  0.
        1    1    3    3  502    0  0.21408130216E+03 -0.23008971071E+02 -0.27137541537E+02  0.21701765567E+03  0.50400001928E-02 0.  1.
       -1    1    3    3    0  502 -0.21408130216E+03  0.23008971071E+02 -0.64444575693E+03  0.67946342825E+03  0.50400001928E-02 0. -1.
</event>
<event>
 5   0  0.5935451E-02  0.6041904E+03  0.7818609E-02  0.9896750E-01
        2   -1    0    0  501    0  0.00000000000E+00  0.00000000000E+00  0.81254933548E+03  0.81254933548E+03  0.25500000920E-02 0. -1.
       -2   -1    0    0    0  501  0.00000000000E+00  0.00000000000E+00 -0.11231503569E+03  0.11231503572E+03  0.25500000920E-02 0.  1.
    10030    2    1    2    0    0  0.00000000000E+00  0.00000000000E+00  0.70023429979E+03  0.92486437120E+03  0.60419039261E+03 0.  0.
        3    1    3    3  502    0  0.42975175604E+02 -0.23476146771E+02  0.80643341256E+03  0.80791884140E+03  0.10100000352E+00 0. -1.
       -3    1    3    3    0  502 -0.42975175604E+02  0.23476146771E+02 -0.10619911278E+03  0.11694552980E+03  0.10100000352E+00 0.  1.
</event>
<event>
 5   0  0.5755078E-02  0.6086366E+03  0.7818609E-02  0.9887648E-01
        2   -1    0    0  501    0  0.00000000000E+00  0.00000000000E+00  0.26114215437E+03  0.26114215439E+03  0.25500000920E-02 0. -1.
       -2   -1    0    0    0  501  0.00000000000E+00  0.00000000000E+00 -0.35463298140E+03  0.35463298141E+03  0.25500000920E-02 0.  1.
    10030    2    1    2    0    0  0.00000000000E+00  0.00000000000E+00 -0.93490827025E+02  0.61577513579E+03  0.60863657721E+03 0.  0.
        2    1    3    3  502    0 -0.18625234935E+03  0.69690360361E+02 -0.27980112005E+03  0.34327154084E+03  0.25500000920E-02 0.  1.
       -2    1    3    3    0  502  0.18625234935E+03 -0.69690360361E+02  0.18631029303E+03  0.27250359495E+03  0.25500000920E-02 0. -1.
</event>
<event>
 5   0  0.3703280E-02  0.5991459E+03  0.7818609E-02  0.9907180E-01
        1   -1    0    0  501    0  0.00000000000E+00  0.00000000000E+00  0.11625803252E+03  0.11625803263E+03  0.50400001928E-02 0. -1.
       -1   -1    0    0    0  501  0.00000000000E+00  0.00000000000E+00 -0.77193773508E+03  0.77193773509E+03  0.50400001928E-02 0.  1.
    10030    2    1    2    0    0  0.00000000000E+00  0.00000000000E+00 -0.65567970256E+03  0.88819576772E+03  0.59914593335E+03 0.  0.
        5    1    3    3  502    0 -0.22441428446E+03  0.19428790432E+03 -0.38736501012E+03  0.48804026668E+03  0.46999998093E+01 0.  1.
       -5    1    3    3    0  502  0.22441428446E+03 -0.19428790432E+03 -0.26831469244E+03  0.40015550104E+03  0.46999998093E+01 0. -1.
</event>
<event>
 5   0  0.6007360E-02  0.5971862E+03  0.7818609E-02  0.9911261E-01
       -2   -1    0    0    0  501  0.00000000000E+00  0.00000000000E+00  0.43169738851E+03  0.43169738851E+03  0.25500000920E-02 0. -1.
        2   -1    0    0  501    0  0.00000000000E+00  0.00000000000E+00 -0.20652857861E+03  0.20652857862E+03  0.25500000920E-02 0.  1.
    10030    2    1    2    0    0  0.00000000000E+00  0.00000000000E+00  0.22516880990E+03  0.63822596714E+03  0.59718622906E+03 0.  0.
        4    1    3    3  502    0  0.26460590639E+03 -0.91335706077E+02  0.22363760646E+03  0.35829302090E+03  0.12699999809E+01 0.  1.
       -4    1    3    3    0  502 -0.26460590639E+03  0.91335706077E+02  0.15312034340E+01  0.27993294623E+03  0.12699999809E+01 0. -1.
</event>
<event>
 5   0  0.3640827E-02  0.6010338E+03  0.7818609E-02  0.9903264E-01
       -1   -1    0    0    0  501  0.00000000000E+00  0.00000000000E+00  0.69281885179E+02  0.69281885362E+02  0.50400001928E-02 0. -1.
        1   -1    0    0  501    0  0.00000000000E+00  0.00000000000E+00 -0.13035212462E+04  0.13035212462E+04  0.50400001928E-02 0.  1.
    10030    2    1    2    0    0  0.00000000000E+00  0.00000000000E+00 -0.12342393610E+04  0.13728031315E+04  0.60103380749E+03 0.  0.
        3    1    3    3  502    0 -0.59350363108E+01  0.28579514578E+03 -0.40534922306E+03  0.49600614194E+03  0.10100000352E+00 0.  1.
       -3    1    3    3    0  502  0.59350363108E+01 -0.28579514578E+03 -0.82889013793E+03  0.87679698959E+03  0.10100000352E+00 0. -1.
</event>
<event>
 5   0  0.3651984E-02  0.5960327E+03  0.7818609E-02  0.9913671E-01
       -1   -1    0    0    0  501  0.00000000000E+00  0.00000000000E+00  0.46452774653E+03  0.46452774655E+03  0.50400001928E-02 0.  1.
        1   -1    0    0  501    0  0.00000000000E+00  0.00000000000E+00 -0.19119147270E+03  0.19119147277E+03  0.50400001928E-02 0. -1.
    10030    2    1    2    0    0  0.00000000000E+00  0.00000000000E+00  0.27333627383E+03  0.65571921932E+03  0.59603269709E+03 0.  0.
        1    1    3    3  502    0 -0.17088367252E+02 -0.29706678762E+03  0.15484727093E+03  0.33543757384E+03  0.50400001928E-02 0. -1.
       -1    1    3    3    0  502  0.17088367252E+02  0.29706678762E+03  0.11848900289E+03  0.32028164548E+03  0.50400001928E-02 0.  1.
</event>
<event>
 5   0  0.5935451E-02  0.5999361E+03  0.7818609E-02  0.9905539E-01
       -2   -1    0    0    0  501  0.00000000000E+00  0.00000000000E+00  0.32403165225E+03  0.32403165226E+03  0.25500000920E-02 0. -1.
        2   -1    0    0  501    0  0.00000000000E+00  0.00000000000E+00 -0.27769150304E+03  0.27769150305E+03  0.25500000920E-02 0.  1.
    10030    2    1    2    0    0  0.00000000000E+00  0.00000000000E+00  0.46340149217E+02  0.60172315531E+03  0.59993611844E+03 0.  0.
        3    1    3    3  502    0  0.15038278409E+03  0.17973689969E+02 -0.23652741911E+03  0.28086164828E+03  0.10100000352E+00 0.  1.
       -3    1    3    3    0  502 -0.15038278409E+03 -0.17973689969E+02  0.28286756833E+03  0.32086150703E+03  0.10100000352E+00 0. -1.
</event>
<event>
 5   0  0.3703280E-02  0.6040845E+03  0.7818609E-02  0.9896968E-01
       -1   -1    0    0    0  501  0.00000000000E+00  0.00000000000E+00  0.39082468968E+03  0.39082468971E+03  0.50400001928E-02 0. -1.
        1   -1    0    0  501    0  0.00000000000E+00  0.00000000000E+00 -0.23342824937E+03  0.23342824942E+03  0.50400001928E-02 0.  1.
    10030    2    1    2    0    0  0.00000000000E+00  0.00000000000E+00  0.15739644032E+03  0.62425293913E+03  0.60408450782E+03 0.  0.
        5    1    3    3  502    0  0.13990609003E+03 -0.72006415379E+02  0.34508118816E+03  0.37929112078E+03  0.46999998093E+01 0. -1.
       -5    1    3    3    0  502 -0.13990609003E+03  0.72006415379E+02 -0.18768474784E+03  0.24496181836E+03  0.46999998093E+01 0.  1.
</event>
<event>
 5   0  0.3640827E-02  0.5689720E+03  0.7818609E-02  0.9971956E-01
       -1   -1    0    0    0  501  0.00000000000E+00  0.00000000000E+00  0.13885627513E+03  0.13885627522E+03  0.50400001928E-02 0. -1.
        1   -1    0    0  501    0  0.00000000000E+00  0.00000000000E+00 -0.58284920926E+03  0.58284920928E+03  0.50400001928E-02 0.  1.
    10030    2    1    2    0    0  0.00000000000E+00  0.00000000000E+00 -0.44399293413E+03  0.72170548451E+03  0.56897195081E+03 0.  0.
        3    1    3    3  502    0 -0.17655666749E+03  0.19032433926E+01 -0.50493594002E+03  0.53491699627E+03  0.10100000352E+00 0.  1.
       -3    1    3    3    0  502  0.17655666749E+03 -0.19032433926E+01  0.60943005886E+02  0.18678848824E+03  0.10100000352E+00 0. -1.
</event>
<event>
 5   0  0.3478183E-02  0.6000220E+03  0.7818609E-02  0.9905360E-01
       -1   -1    0    0    0  501  0.00000000000E+00  0.00000000000E+00  0.18335668961E+03  0.18335668968E+03  0.50400001928E-02 0.  1.
        1   -1    0    0  501    0  0.00000000000E+00  0.00000000000E+00 -0.49088263180E+03  0.49088263182E+03  0.50400001928E-02 0. -1.
    10030    2    1    2    0    0  0.00000000000E+00  0.00000000000E+00 -0.30752594218E+03  0.67423932151E+03  0.60002204755E+03 0.  0.
        4    1    3    3  502    0  0.22817033516E+01  0.42796529438E+02  0.17989613699E+03  0.18493507539E+03  0.12699999809E+01 0.  1.
       -4    1    3    3    0  502 -0.22817033516E+01 -0.42796529438E+02 -0.48742207918E+03  0.48930424612E+03  0.12699999809E+01 0. -1.
</event>
<event>
 5   0  0.3703280E-02  0.6029859E+03  0.7818609E-02  0.9899231E-01
        1   -1    0    0  501    0  0.00000000000E+00  0.00000000000E+00  0.98473655714E+03  0.98473655715E+03  0.50400001928E-02 0. -1.
       -1   -1    0    0    0  501  0.00000000000E+00  0.00000000000E+00 -0.92306914573E+02  0.92306914711E+02  0.50400001928E-02 0.  1.
    10030    2    1    2    0    0  0.00000000000E+00  0.00000000000E+00  0.89242964256E+03  0.10770434719E+04  0.60298588155E+03 0.  0.
        5    1    3    3  502    0  0.11030181394E+03  0.26130225481E+03  0.26379182454E+03  0.38736749376E+03  0.46999998093E+01 0.  1.
       -5    1    3    3    0  502 -0.11030181394E+03 -0.26130225481E+03  0.62863781802E+03  0.68967597810E+03  0.46999998093E+01 0. -1.
</event>
<event>
 5   0  0.3478183E-02  0.6051316E+03  0.7818609E-02  0.9894817E-01
       -1   -1    0    0    0  501  0.00000000000E+00  0.00000000000E+00  0.10465113950E+03  0.10465113962E+03  0.50400001928E-02 0. -1.
        1   -1    0    0  501    0  0.00000000000E+00  0.00000000000E+00 -0.87477358216E+03  0.87477358217E+03  0.50400001928E-02 0.  1.
    10030    2    1    2    0    0  0.00000000000E+00  0.00000000000E+00 -0.77012244266E+03  0.97942472180E+03  0.60513156336E+03 0.  0.
        4    1    3    3  502    0 -0.21384716683E+03  0.16729771834E+03 -0.60115372651E+03  0.65962607068E+03  0.12699999809E+01 0.  1.
       -4    1    3    3    0  502  0.21384716683E+03 -0.16729771834E+03 -0.16896871615E+03  0.31979865112E+03  0.12699999809E+01 0. -1.
</event>
<event>
 5   0  0.5935451E-02  0.6015308E+03  0.7818609E-02  0.9902235E-01
       -2   -1    0    0    0  501  0.00000000000E+00  0.00000000000E+00  0.38097247799E+02  0.38097247884E+02  0.25500000920E-02 0.  1.
        2   -1    0    0  501    0  0.00000000000E+00  0.00000000000E+00 -0.23744454980E+04  0.23744454980E+04  0.25500000920E-02 0. -1.
    10030    2    1    2    0    0  0.00000000000E+00  0.00000000000E+00 -0.23363482502E+04  0.24125427459E+04  0.60153084252E+03 0.  0.
        3    1    3    3  502    0 -0.24263311972E+03  0.15266123981E+03 -0.15332012986E+04  0.15597700206E+04  0.10100000352E+00 0. -1.
       -3    1    3    3    0  502  0.24263311972E+03 -0.15266123981E+03 -0.80314695161E+03  0.85277272530E+03  0.10100000352E+00 0.  1.
</event>
<event>
 5   0  0.3478183E-02  0.6007030E+03  0.7818609E-02  0.9903949E-01
       -1   -1    0    0    0  501  0.00000000000E+00  0.00000000000E+00  0.44289354468E+03  0.44289354471E+03  0.50400001928E-02 0. -1.
        1   -1    0    0  501    0  0.00000000000E+00  0.00000000000E+00 -0.20368557561E+03  0.20368557568E+03  0.50400001928E-02 0.  1.
    10030    2    1    2    0    0  0.00000000000E+00  0.00000000000E+00  0.23920796906E+03  0.64657912038E+03  0.60070301019E+03 0.  0.
        4    1    3    3  502    0  0.22121548241E+03 -0.10924302990E+03 -0.64763846531E+02  0.25508096353E+03  0.12699999809E+01 0.  1.
       -4    1    3    3    0  502 -0.22121548241E+03  0.10924302990E+03  0.30397181560E+03  0.39149815685E+03  0.12699999809E+01 0. -1.
</event>
<event>
 5   0  0.5935451E-02  0.5984126E+03  0.7818609E-02  0.9908705E-01
       -2   -1    0    0    0  501  0.00000000000E+00  0.00000000000E+00  0.77011114017E+02  0.77011114059E+02  0.25500000920E-02 0.  1.
        2   -1    0    0  501    0  0.00000000000E+00  0.00000000000E+00 -0.11624870237E+04  0.11624870237E+04  0.25500000920E-02 0. -1.
    10030    2    1    2    0    0  0.00000000000E+00  0.00000000000E+00 -0.10854759097E+04  0.12394981378E+04  0.59841263608E+03 0.  0.
        3    1    3    3  502    0  0.21816849356E+02  0.22315195687E+03 -0.95310646301E+03  0.97912446135E+03  0.10100000352E+00 0. -1.
       -3    1    3    3    0  502 -0.21816849356E+02 -0.22315195687E+03 -0.13236944672E+03  0.26037367646E+03  0.10100000352E+00 0.  1.
</event>
<event>
 5   0  0.6007360E-02  0.6136838E+03  0.7818609E-02  0.9877416E-01
       -2   -1    0    0    0  501  0.00000000000E+00  0.00000000000E+00  0.20458342318E+03  0.20458342320E+03  0.25500000920E-02 0. -1.
        2   -1    0    0  501    0  0.00000000000E+00  0.00000000000E+00 -0.46021299528E+03  0.46021299529E+03  0.25500000920E-02 0.  1.
    10030    2    1    2    0    0  0.00000000000E+00  0.00000000000E+00 -0.25562957210E+03  0.66479641848E+03  0.61368379472E+03 0.  0.
        4    1    3    3  502    0  0.13109316241E+03 -0.27687752224E+03 -0.10893454499E+03  0.32513832064E+03  0.12699999809E+01 0.  1.
       -4    1    3    3    0  502 -0.13109316241E+03  0.27687752224E+03 -0.14669502711E+03  0.33965809785E+03  0.12699999809E+01 0. -1.
</event>
<event>
 5   0  0.3478183E-02  0.5986438E+03  0.7818609E-02  0.9908224E-01
        1   -1    0    0  501    0  0.00000000000E+00  0.00000000000E+00  0.60670467659E+03  0.60670467661E+03  0.50400001928E-02 0.  1.
       -1   -1    0    0    0  501  0.00000000000E+00  0.00000000000E+00 -0.14767250302E+03  0.14767250310E+03  0.50400001928E-02 0. -1.
    10030    2    1    2    0    0  0.00000000000E+00  0.00000000000E+00  0.45903217357E+03  0.75437717971E+03  0.59864379467E+03 0.  0.
        4    1    3    3  502    0 -0.49223825304E+02  0.60604876091E+02 -0.13461102866E+03  0.15562030047E+03  0.12699999809E+01 0. -1.
       -4    1    3    3    0  502  0.49223825304E+02 -0.60604876091E+02  0.59364320223E+03  0.59875687924E+03  0.12699999809E+01 0.  1.
</event>
<event>
 5   0  0.3651984E-02  0.6016012E+03  0.7818609E-02  0.9902090E-01
       -1   -1    0    0    0  501  0.00000000000E+00  0.00000000000E+00  0.51253554815E+03  0.51253554817E+03  0.50400001928E-02 0. -1.
        1   -1    0    0  501    0  0.00000000000E+00  0.00000000000E+00 -0.17653606389E+03  0.17653606397E+03  0.50400001928E-02 0.  1.
    10030    2    1    2    0    0  0.00000000000E+00  0.00000000000E+00  0.33599948425E+03  0.68907161214E+03  0.60160122443E+03 0.  0.
        1    1    3    3  502    0  0.18681841454E+03  0.44823121173E+02  0.43310577818E+03  0.47380465102E+03  0.50400001928E-02 0. -1.
       -1    1    3    3    0  502 -0.18681841454E+03 -0.44823121173E+02 -0.97106293930E+02  0.21526696112E+03  0.50400001928E-02 0.  1.
</event>
<event>
 5   0  0.5755078E-02  0.5853127E+03  0.7818609E-02  0.9936355E-01
       -2   -1    0    0    0  501  0.00000000000E+00  0.00000000000E+00  0.89597606775E+02  0.89597606811E+02  0.25500000920E-02 0. -1.
        2   -1    0    0  501    0  0.00000000000E+00  0.00000000000E+00 -0.95591562239E+03  0.95591562239E+03  0.25500000920E-02 0.  1.
    10030    2    1    2    0    0  0.00000000000E+00  0.00000000000E+00 -0.86631801561E+03  0.10455132292E+04  0.58531274398E+03 0.  0.
        2    1    3    3  502    0 -0.29793904140E+02 -0.23402233632E+03 -0.74251319967E+03  0.77908920049E+03  0.25500000920E-02 0.  1.
       -2    1    3    3    0  502  0.29793904140E+02  0.23402233632E+03 -0.12380481594E+03  0.26642402871E+03  0.25500000920E-02 0. -1.
</event>
<event>
 5   0  0.5935451E-02  0.5880257E+03  0.7818609E-02  0.9930565E-01
       -2   -1    0    0    0  501  0.00000000000E+00  0.00000000000E+00  0.36762108825E+03  0.36762108826E+03  0.25500000920E-02 0. -1.
        2   -1    0    0  501    0  0.00000000000E+00  0.00000000000E+00 -0.23514305296E+03  0.23514305298E+03  0.25500000920E-02 0.  1.
    10030    2    1    2    0    0  0.00000000000E+00  0.00000000000E+00  0.13247803529E+03  0.60276414123E+03  0.58802566281E+03 0.  0.
        3    1    3    3  502    0  0.75044800775E+02 -0.21768861997E+03  0.25364219255E+03  0.34257032771E+03  0.10100000352E+00 0. -1.
       -3    1    3    3    0  502 -0.75044800775E+02  0.21768861997E+03 -0.12116415727E+03  0.26019381352E+03  0.10100000352E+00 0.  1.
</event>
<event>
 5   0  0.3478183E-02  0.5738008E+03  0.7818609E-02  0.9961303E-01
        1   -1    0    0  501    0  0.00000000000E+00  0.00000000000E+00  0.10407455929E+04  0.10407455929E+04  0.50400001928E-02 0. -1.
       -1   -1    0    0    0  501  0.00000000000E+00  0.00000000000E+00 -0.79089312802E+02  0.79089312962E+02  0.50400001928E-02 0.  1.
    10030    2    1    2    0    0  0.00000000000E+00  0.00000000000E+00  0.96165628009E+03  0.11198349059E+04  0.57380084991E+03 0.  0.
        4    1    3    3  502    0  0.20894635433E+03 -0.19184177935E+03  0.39692271395E+03  0.48786381403E+03  0.12699999809E+01 0.  1.
       -4    1    3    3    0  502 -0.20894635433E+03  0.19184177935E+03  0.56473356613E+03  0.63197109183E+03  0.12699999809E+01 0. -1.
</event>
<event>
 5   0  0.3767635E-02  0.5746829E+03  0.7818609E-02  0.9959369E-01
        1   -1    0    0  501    0  0.00000000000E+00  0.00000000000E+00  0.13718227634E+04  0.13718227635E+04  0.50400001928E-02 0. -1.
       -1   -1    0    0    0  501  0.00000000000E+00  0.00000000000E+00 -0.60186425061E+02  0.60186425272E+02  0.50400001928E-02 0.  1.
    10030    2    1    2    0    0  0.00000000000E+00  0.00000000000E+00  0.13116363384E+04  0.14320091887E+04  0.57468289728E+03 0.  0.
        2    1    3    3  502    0 -0.10797824122E+03 -0.20313204138E+03  0.22679579974E+03  0.32304529342E+03  0.25500000920E-02 0.  1.
       -2    1    3    3    0  502  0.10797824122E+03  0.20313204138E+03  0.10848405386E+04  0.11089638953E+04  0.25500000920E-02 0. -1.
</event>
<event>
 5   0  0.3651984E-02  0.5844539E+03  0.7818609E-02  0.9938195E-01
        1   -1    0    0  501    0  0.00000000000E+00  0.00000000000E+00  0.62317045576E+02  0.62317045780E+02  0.50400001928E-02 0. -1.
       -1   -1    0    0    0  501  0.00000000000E+00  0.00000000000E+00 -0.13703570063E+04  0.13703570063E+04  0.50400001928E-02 0.  1.
    10030    2    1    2    0    0  0.00000000000E+00  0.00000000000E+00 -0.13080399607E+04  0.14326740521E+04  0.58445393375E+03 0.  0.
        1    1    3    3  502    0  0.17962798361E+03  0.21988431945E+03 -0.48452028886E+03  0.56158279602E+03  0.50400001928E-02 0. -1.
       -1    1    3    3    0  502 -0.17962798361E+03 -0.21988431945E+03 -0.82351967186E+03  0.87109125607E+03  0.50400001928E-02 0.  1.
</event>
<event>
 5   0  0.5755078E-02  0.6003800E+03  0.7818609E-02  0.9904618E-01
        2   -1    0    0  501    0  0.00000000000E+00  0.00000000000E+00  0.10616571880E+04  0.10616571880E+04  0.25500000920E-02 0. -1.
       -2   -1    0    0    0  501  0.00000000000E+00  0.00000000000E+00 -0.84880543841E+02  0.84880543879E+02  0.25500000920E-02 0.  1.
    10030    2    1    2    0    0  0.00000000000E+00  0.00000000000E+00  0.97677664415E+03  0.11465377319E+04  0.60038001137E+03 0.  0.
        2    1    3    3  502    0  0.12025278765E+03 -0.37141329511E+02  0.10088395426E+04  0.10166599402E+04  0.25500000920E-02 0. -1.
       -2    1    3    3    0  502 -0.12025278765E+03  0.37141329511E+02 -0.32062898485E+02  0.12987779164E+03  0.25500000920E-02 0.  1.
</event>
<event>
 5   0  0.2388000E-02  0.5953579E+03  0.7818609E-02  0.9915084E-01
        3   -1    0    0  501    0  0.00000000000E+00  0.00000000000E+00  0.60259423002E+02  0.60259507644E+02  0.10100000352E+00 0. -1.
       -3   -1    0    0    0  501  0.00000000000E+00  0.00000000000E+00 -0.14705198518E+04  0.14705198552E+04  0.10100000352E+00 0.  1.
    10030    2    1    2    0    0  0.00000000000E+00  0.00000000000E+00 -0.14102604288E+04  0.15307793629E+04  0.59535785951E+03 0.  0.
        1    1    3    3  502    0  0.20284902649E+03 -0.18532684121E+03 -0.99962969647E+03  0.10367030895E+04  0.50400001928E-02 0.  1.
       -1    1    3    3    0  502 -0.20284902649E+03  0.18532684121E+03 -0.41063073230E+03  0.49407627341E+03  0.50400001928E-02 0. -1.
</event>
<event>
 5   0  0.3640827E-02  0.6064783E+03  0.7818609E-02  0.9892056E-01
       -1   -1    0    0    0  501  0.00000000000E+00  0.00000000000E+00  0.13296710990E+03  0.13296711000E+03  0.50400001928E-02 0. -1.
        1   -1    0    0  501    0  0.00000000000E+00  0.00000000000E+00 -0.69155444928E+03  0.69155444930E+03  0.50400001928E-02 0.  1.
    10030    2    1    2    0    0  0.00000000000E+00  0.00000000000E+00 -0.55858733937E+03  0.82452155929E+03  0.60647834754E+03 0.  0.
        3    1    3    3  502    0 -0.19240826787E+03 -0.21671843467E+03 -0.15795161071E+03  0.33005536353E+03  0.10100000352E+00 0. -1.
       -3    1    3    3    0  502  0.19240826787E+03  0.21671843467E+03 -0.40063572866E+03  0.49446619576E+03  0.10100000352E+00 0.  1.
</event>
<event>
 5   0  0.3651984E-02  0.6097791E+03  0.7818609E-02  0.9885323E-01
        1   -1    0    0  501    0  0.00000000000E+00  0.00000000000E+00  0.21030606095E+03  0.21030606101E+03  0.50400001928E-02 0. -1.
       -1   -1    0    0    0  501  0.00000000000E+00  0.00000000000E+00 -0.44201123926E+03  0.44201123929E+03  0.50400001928E-02 0.  1.
    10030    2    1    2    0    0  0.00000000000E+00  0.00000000000E+00 -0.23170517831E+03  0.65231730030E+03  0.60977911624E+03 0.  0.
        1    1    3    3  502    0 -0.22331853022E+03  0.28960898940E+02  0.10402861496E+03  0.24805614760E+03  0.50400001928E-02 0. -1.
       -1    1    3    3    0  502  0.22331853022E+03 -0.28960898940E+02 -0.33573379328E+03  0.40426115270E+03  0.50400001928E-02 0.  1.
</event>
<event>
 5   0  0.5935451E-02  0.5945211E+03  0.7818609E-02  0.9916839E-01
       -2   -1    0    0    0  501  0.00000000000E+00  0.00000000000E+00  0.52851739578E+02  0.52851739640E+02  0.25500000920E-02 0. -1.
        2   -1    0    0  501    0  0.00000000000E+00  0.00000000000E+00 -0.16719188578E+04  0.16719188578E+04  0.25500000920E-02 0.  1.
    10030    2    1    2    0    0  0.00000000000E+00  0.00000000000E+00 -0.16190671182E+04  0.17247705974E+04  0.59452105134E+03 0.  0.
        3    1    3    3  502    0 -0.23747063161E+03 -0.96543429589E+02 -0.12461565467E+04  0.12722496153E+04  0.10100000352E+00 0.  1.
       -3    1    3    3    0  502  0.23747063161E+03  0.96543429589E+02 -0.37291057149E+03  0.45252098206E+03  0.10100000352E+00 0. -1.
</event>
<event>
 5   0  0.5935451E-02  0.5941222E+03  0.7818609E-02  0.9917676E-01
        2   -1    0    0  501    0  0.00000000000E+00  0.00000000000E+00  0.55236837151E+03  0.55236837151E+03  0.25500000920E-02 0.  1.
       -2   -1    0    0    0  501  0.00000000000E+00  0.00000000000E+00 -0.15975808184E+03  0.15975808186E+03  0.25500000920E-02 0. -1.
    10030    2    1    2    0    0  0.00000000000E+00  0.00000000000E+00  0.39261028967E+03  0.71212645338E+03  0.59412224840E+03 0.  0.
        3    1    3    3  502    0  0.20568477549E+03  0.71248140373E+02  0.43860058513E+03  0.48964579837E+03  0.10100000352E+00 0.  1.
       -3    1    3    3    0  502 -0.20568477549E+03 -0.71248140373E+02 -0.45990295468E+02  0.22248065501E+03  0.10100000352E+00 0. -1.
</event>
<event>
 5   0  0.3651984E-02  0.5996026E+03  0.7818609E-02  0.9906231E-01
        1   -1    0    0  501    0  0.00000000000E+00  0.00000000000E+00  0.82594724670E+03  0.82594724671E+03  0.50400001928E-02 0. -1.
       -1   -1    0    0    0  501  0.00000000000E+00  0.00000000000E+00 -0.10882148412E+03  0.10882148423E+03  0.50400001928E-02 0.  1.
    10030    2    1    2    0    0  0.00000000000E+00  0.00000000000E+00  0.71712576258E+03  0.93476873095E+03  0.59960255252E+03 0.  0.
        1    1    3    3  502    0 -0.36889019164E+02  0.18047739178E+03  0.72731341923E+03  0.75027841398E+03  0.50400001928E-02 0. -1.
       -1    1    3    3    0  502  0.36889019164E+02 -0.18047739178E+03 -0.10187656645E+02  0.18449031696E+03  0.50400001928E-02 0.  1.
</event>
<event>
 5   0  0.2388000E-02  0.5928549E+03  0.7818609E-02  0.9920342E-01
        3   -1    0    0  501    0  0.00000000000E+00  0.00000000000E+00  0.33492332083E+03  0.33492333606E+03  0.10100000352E+00 0.  1.
       -3   -1    0    0    0  501  0.00000000000E+00  0.00000000000E+00 -0.26235626181E+03  0.26235628125E+03  0.10100000352E+00 0. -1.
    10030    2    1    2    0    0  0.00000000000E+00  0.00000000000E+00  0.72567059022E+02  0.59727961732E+03  0.59285492594E+03 0.  0.
        5    1    3    3  502    0  0.36853515037E+02  0.17993381845E+03  0.27064122868E+03  0.32711332172E+03  0.46999998093E+01 0.  1.
       -5    1    3    3    0  502 -0.36853515037E+02 -0.17993381845E+03 -0.19807416965E+03  0.27016629559E+03  0.46999998093E+01 0. -1.
</event>
<event>
 5   0  0.5872632E-02  0.5654543E+03  0.7818609E-02  0.9979788E-01
       -2   -1    0    0    0  501  0.00000000000E+00  0.00000000000E+00  0.55238832072E+02  0.55238832131E+02  0.25500000920E-02 0.  1.
        2   -1    0    0  501    0  0.00000000000E+00  0.00000000000E+00 -0.14470734696E+04  0.14470734696E+04  0.25500000920E-02 0. -1.
    10030    2    1    2    0    0  0.00000000000E+00  0.00000000000E+00 -0.13918346375E+04  0.15023123017E+04  0.56545432505E+03 0.  0.
        1    1    3    3  502    0  0.73047318787E+02  0.58180001229E+02 -0.14049150574E+04  0.14080153202E+04  0.50400001928E-02 0. -1.
       -1    1    3    3    0  502 -0.73047318787E+02 -0.58180001229E+02  0.13080419852E+02  0.94296981573E+02  0.50400001928E-02 0.  1.
</event>
<event>
 5   0  0.3767635E-02  0.6003737E+03  0.7818609E-02  0.9904631E-01
        1   -1    0    0  501    0  0.00000000000E+00  0.00000000000E+00  0.24811551056E+03  0.24811551061E+03  0.50400001928E-02 0.  1.
       -1   -1    0    0    0  501  0.00000000000E+00  0.00000000000E+00 -0.36318626934E+03  0.36318626937E+03  0.50400001928E-02 0. -1.
    10030    2    1    2    0    0  0.00000000000E+00  0.00000000000E+00 -0.11507075877E+03  0.61130177998E+03  0.60037370586E+03 0.  0.
        2    1    3    3  502    0 -0.13784912745E+02  0.44536163599E+02  0.24440688059E+03  0.24881361894E+03  0.25500000920E-02 0.  1.
       -2    1    3    3    0  502  0.13784912745E+02 -0.44536163599E+02 -0.35947763936E+03  0.36248816104E+03  0.25500000920E-02 0. -1.
</event>
<event>
 5   0  0.3651984E-02  0.6198740E+03  0.7818609E-02  0.9865011E-01
       -1   -1    0    0    0  501  0.00000000000E+00  0.00000000000E+00  0.77379094150E+03  0.77379094151E+03  0.50400001928E-02 0.  1.
        1   -1    0    0  501    0  0.00000000000E+00  0.00000000000E+00 -0.12414325911E+03  0.12414325921E+03  0.50400001928E-02 0. -1.
    10030    2    1    2    0    0  0.00000000000E+00  0.00000000000E+00  0.64964768239E+03  0.89793420073E+03  0.61987395300E+03 0.  0.
        1    1    3    3  502    0  0.18954041914E+03  0.19486547261E+03  0.54047584738E+03  0.60498947473E+03  0.50400001928E-02 0.  1.
       -1    1    3    3    0  502 -0.18954041914E+03 -0.19486547261E+03  0.10917183500E+03  0.29294472600E+03  0.50400001928E-02 0. -1.
</event>
<event>
 5   0  0.2388000E-02  0.5940286E+03  0.7818609E-02  0.9917873E-01
       -4   -1    0    0    0  501  0.00000000000E+00  0.00000000000E+00  0.11153090256E+03  0.11153813305E+03  0.12699999809E+01 0. -1.
        4   -1    0    0  501    0  0.00000000000E+00  0.00000000000E+00 -0.79093576318E+03  0.79093678280E+03  0.12699999809E+01 0.  1.
    10030    2    1    2    0    0  0.00000000000E+00  0.00000000000E+00 -0.67940486062E+03  0.90247491585E+03  0.59402862650E+03 0.  0.
        2    1    3    3  502    0  0.45392946245E+02 -0.10126780599E+03  0.78853831362E+02  0.13613821956E+03  0.25500000920E-02 0. -1.
       -2    1    3    3    0  502 -0.45392946245E+02  0.10126780599E+03 -0.75825869199E+03  0.76633669629E+03  0.25500000920E-02 0.  1.
</event>
<event>
 5   0  0.5872632E-02  0.6012145E+03  0.7818609E-02  0.9902890E-01
       -2   -1    0    0    0  501  0.00000000000E+00  0.00000000000E+00  0.54808390396E+02  0.54808390456E+02  0.25500000920E-02 0.  1.
        2   -1    0    0  501    0  0.00000000000E+00  0.00000000000E+00 -0.16487386817E+04  0.16487386817E+04  0.25500000920E-02 0. -1.
    10030    2    1    2    0    0  0.00000000000E+00  0.00000000000E+00 -0.15939302913E+04  0.17035470721E+04  0.60121448213E+03 0.  0.
        1    1    3    3  502    0 -0.16304679435E+03 -0.14343512082E+03 -0.20798471053E+03  0.30069175391E+03  0.50400001928E-02 0.  1.
       -1    1    3    3    0  502  0.16304679435E+03  0.14343512082E+03 -0.13859455808E+04  0.14028553182E+04  0.50400001928E-02 0. -1.
</event>
<event>
 5   0  0.3767635E-02  0.6009826E+03  0.7818609E-02  0.9903370E-01
        1   -1    0    0  501    0  0.00000000000E+00  0.00000000000E+00  0.12272059758E+04  0.12272059758E+04  0.50400001928E-02 0.  1.
       -1   -1    0    0    0  501  0.00000000000E+00  0.00000000000E+00 -0.73577711678E+02  0.73577711851E+02  0.50400001928E-02 0. -1.
    10030    2    1    2    0    0  0.00000000000E+00  0.00000000000E+00  0.11536282641E+04  0.13007836876E+04  0.60098255406E+03 0.  0.
        2    1    3    3  502    0 -0.55722777147E+02 -0.18237232725E+02 -0.61077032914E+02  0.84664210305E+02  0.25500000920E-02 0. -1.
       -2    1    3    3    0  502  0.55722777147E+02  0.18237232725E+02  0.12147052970E+04  0.12161194773E+04  0.25500000920E-02 0.  1.
</event>
<event>
 5   0  0.3767635E-02  0.5943895E+03  0.7818609E-02  0.9917115E-01
        1   -1    0    0  501    0  0.00000000000E+00  0.00000000000E+00  0.24533489688E+03  0.24533489693E+03  0.50400001928E-02 0.  1.
       -1   -1    0    0    0  501  0.00000000000E+00  0.00000000000E+00 -0.36001691760E+03  0.36001691763E+03  0.50400001928E-02 0. -1.
    10030    2    1    2    0    0  0.00000000000E+00  0.00000000000E+00 -0.11468202072E+03  0.60535181456E+03  0.59438947965E+03 0.  0.
        2    1    3    3  502    0  0.11537305650E+02 -0.19455236566E+03 -0.28584699117E+03  0.34596565548E+03  0.25500000920E-02 0. -1.
       -2    1    3    3    0  502 -0.11537305650E+02  0.19455236566E+03  0.17116497046E+03  0.25938615908E+03  0.25500000920E-02 0.  1.
</event>
<event>
 5   0  0.5755078E-02  0.6090482E+03  0.7818609E-02  0.9886810E-01
       -2   -1    0    0    0  501  0.00000000000E+00  0.00000000000E+00  0.98773027614E+02  0.98773027647E+02  0.25500000920E-02 0. -1.
        2   -1    0    0  501    0  0.00000000000E+00  0.00000000000E+00 -0.93886900500E+03  0.93886900501E+03  0.25500000920E-02 0.  1.
    10030    2    1    2    0    0  0.00000000000E+00  0.00000000000E+00 -0.84009597739E+03  0.10376420327E+04  0.60904822199E+03 0.  0.
        2    1    3    3  502    0 -0.66878920154E+02  0.27058182490E+03 -0.62904004895E+03  0.68802521547E+03  0.25500000920E-02 0.  1.
       -2    1    3    3    0  502  0.66878920154E+02 -0.27058182490E+03 -0.21105592844E+03  0.34961681719E+03  0.25500000920E-02 0. -1.
</event>
<event>
 5   0  0.2388000E-02  0.6069276E+03  0.7818609E-02  0.9891137E-01
        3   -1    0    0  501    0  0.00000000000E+00  0.00000000000E+00  0.17666384704E+03  0.17666387591E+03  0.10100000352E+00 0.  1.
       -3   -1    0    0    0  501  0.00000000000E+00  0.00000000000E+00 -0.52127390132E+03  0.52127391110E+03  0.10100000352E+00 0. -1.
    10030    2    1    2    0    0  0.00000000000E+00  0.00000000000E+00 -0.34461005428E+03  0.69793778701E+03  0.60692756160E+03 0.  0.
        2    1    3    3  502    0  0.18162188768E+03  0.20826651689E+02 -0.45084525156E+03  0.48649943512E+03  0.25500000920E-02 0. -1.
       -2    1    3    3    0  502 -0.18162188768E+03 -0.20826651689E+02  0.10623519728E+03  0.21143835190E+03  0.25500000920E-02 0.  1.
</event>
<event>
 5   0  0.3651984E-02  0.5927702E+03  0.7818609E-02  0.9920520E-01
       -1   -1    0    0    0  501  0.00000000000E+00  0.00000000000E+00  0.79608807836E+02  0.79608807995E+02  0.50400001928E-02 0. -1.
        1   -1    0    0  501    0  0.00000000000E+00  0.00000000000E+00 -0.11034473695E+04  0.11034473695E+04  0.50400001928E-02 0.  1.
    10030    2    1    2    0    0  0.00000000000E+00  0.00000000000E+00 -0.10238385617E+04  0.11830561775E+04  0.59277020741E+03 0.  0.
        1    1    3    3  502    0 -0.53039984057E+02 -0.26025515860E+03 -0.77441288803E+03  0.81869488130E+03  0.50400001928E-02 0.  1.
       -1    1    3    3    0  502  0.53039984057E+02  0.26025515860E+03 -0.24942567364E+03  0.36436129622E+03  0.50400001928E-02 0. -1.
</event>
<event>
 5   0  0.5999117E-02  0.6049320E+03  0.7818609E-02  0.9895226E-01
       -2   -1    0    0    0  501  0.00000000000E+00  0.00000000000E+00  0.14085962551E+03  0.14085962553E+03  0.25500000920E-02 0.  1.
        2   -1    0    0  501    0  0.00000000000E+00  0.00000000000E+00 -0.64948123313E+03  0.64948123313E+03  0.25500000920E-02 0. -1.
    10030    2    1    2    0    0  0.00000000000E+00  0.00000000000E+00 -0.50862160762E+03  0.79034085866E+03  0.60493200704E+03 0.  0.
        5    1    3    3  502    0 -0.26848567430E+03 -0.12119417382E+03 -0.16482771486E+03  0.33758384241E+03  0.46999998093E+01 0. -1.
       -5    1    3    3    0  502  0.26848567430E+03  0.12119417382E+03 -0.34379389276E+03  0.45275701625E+03  0.46999998093E+01 0.  1.
</event>
<event>
 5   0  0.3640827E-02  0.6284851E+03  0.7818609E-02  0.9848009E-01
       -1   -1    0    0    0  501  0.00000000000E+00  0.00000000000E+00  0.58087742109E+03  0.58087742111E+03  0.50400001928E-02 0.  1.
        1   -1    0    0  501    0  0.00000000000E+00  0.00000000000E+00 -0.16999867885E+03  0.16999867893E+03  0.50400001928E-02 0. -1.
    10030    2    1    2    0    0  0.00000000000E+00  0.00000000000E+00  0.41087874224E+03  0.75087610004E+03  0.62848514444E+03 0.  0.
        3    1    3    3  502    0  0.18506980817E+03 -0.18056122043E+03 -0.79318784792E+01  0.25868148970E+03  0.10100000352E+00 0. -1.
       -3    1    3    3    0  502 -0.18506980817E+03  0.18056122043E+03  0.41881062072E+03  0.49219461034E+03  0.10100000352E+00 0.  1.
</event>
<event>
 5   0  0.5755078E-02  0.5904822E+03  0.7818609E-02  0.9925352E-01
        2   -1    0    0  501    0  0.00000000000E+00  0.00000000000E+00  0.31401812611E+03  0.31401812612E+03  0.25500000920E-02 0.  1.
       -2   -1    0    0    0  501  0.00000000000E+00  0.00000000000E+00 -0.27758685589E+03  0.27758685590E+03  0.25500000920E-02 0. -1.
    10030    2    1    2    0    0  0.00000000000E+00  0.00000000000E+00  0.36431270223E+02  0.59160498202E+03  0.59048219051E+03 0.  0.
        2    1    3    3  502    0 -0.17371994282E+03  0.11185763030E+03 -0.19308003432E+03  0.28279081960E+03  0.25500000920E-02 0. -1.
       -2    1    3    3    0  502  0.17371994282E+03 -0.11185763030E+03  0.22951130454E+03  0.30881416242E+03  0.25500000920E-02 0.  1.
</event>
<event>
 5   0  0.5755078E-02  0.6020505E+03  0.7818609E-02  0.9901161E-01
       -2   -1    0    0    0  501  0.00000000000E+00  0.00000000000E+00  0.21506883777E+03  0.21506883779E+03  0.25500000920E-02 0.  1.
        2   -1    0    0  501    0  0.00000000000E+00  0.00000000000E+00 -0.42133585249E+03  0.42133585250E+03  0.25500000920E-02 0. -1.
    10030    2    1    2    0    0  0.00000000000E+00  0.00000000000E+00 -0.20626701472E+03  0.63640469029E+03  0.60205053647E+03 0.  0.
        2    1    3    3  502    0 -0.10933890393E+03  0.99557537612E+02  0.17402948197E+03  0.22837022531E+03  0.25500000920E-02 0.  1.
       -2    1    3    3    0  502  0.10933890393E+03 -0.99557537612E+02 -0.38029649669E+03  0.40803446497E+03  0.25500000920E-02 0. -1.
</event>
<event>
 5   0  0.3651984E-02  0.6040402E+03  0.7818609E-02  0.9897059E-01
        1   -1    0    0  501    0  0.00000000000E+00  0.00000000000E+00  0.31338220857E+03  0.31338220861E+03  0.50400001928E-02 0.  1.
       -1   -1    0    0    0  501  0.00000000000E+00  0.00000000000E+00 -0.29106992255E+03  0.29106992259E+03  0.50400001928E-02 0. -1.
    10030    2    1    2    0    0  0.00000000000E+00  0.00000000000E+00  0.22312286022E+02  0.60445213120E+03  0.60404018145E+03 0.  0.
        1    1    3    3  502    0  0.25279054654E+03 -0.90966867048E+02 -0.12691659263E+03  0.29712935370E+03  0.50400001928E-02 0. -1.
       -1    1    3    3    0  502 -0.25279054654E+03  0.90966867048E+02  0.14922887865E+03  0.30732277750E+03  0.50400001928E-02 0.  1.
</event>
<event>
 5   0  0.5935451E-02  0.6015953E+03  0.7818609E-02  0.9902102E-01
       -2   -1    0    0    0  501  0.00000000000E+00  0.00000000000E+00  0.47807872455E+02  0.47807872523E+02  0.25500000920E-02 0. -1.
        2   -1    0    0  501    0  0.00000000000E+00  0.00000000000E+00 -0.18925592303E+04  0.18925592303E+04  0.25500000920E-02 0.  1.
    10030    2    1    2    0    0  0.00000000000E+00  0.00000000000E+00 -0.18447513579E+04  0.19403671028E+04  0.60159531369E+03 0.  0.
        3    1    3    3  502    0 -0.29435610796E+03  0.35334916665E+01 -0.11217550720E+04  0.11597380978E+04  0.10100000352E+00 0. -1.
       -3    1    3    3    0  502  0.29435610796E+03 -0.35334916665E+01 -0.72299628587E+03  0.78062900499E+03  0.10100000352E+00 0.  1.
</event>
<event>
 5   0  0.5755078E-02  0.5432027E+03  0.7818609E-02  0.1003080E+00
       -2   -1    0    0    0  501  0.00000000000E+00  0.00000000000E+00  0.50592496088E+03  0.50592496089E+03  0.25500000920E-02 0. -1.
        2   -1    0    0  501    0  0.00000000000E+00  0.00000000000E+00 -0.14580677706E+03  0.14580677709E+03  0.25500000920E-02 0.  1.
    10030    2    1    2    0    0  0.00000000000E+00  0.00000000000E+00  0.36011818382E+03  0.65173173797E+03  0.54320268038E+03 0.  0.
        2    1    3    3  502    0 -0.17240424223E+03  0.76759368405E+02 -0.54291464465E+02  0.19637409834E+03  0.25500000920E-02 0.  1.
       -2    1    3    3    0  502  0.17240424223E+03 -0.76759368405E+02  0.41440964828E+03  0.45535763963E+03  0.25500000920E-02 0. -1.
</event>
<event>
 5   0  0.3640827E-02  0.5978441E+03  0.7818609E-02  0.9909889E-01
        1   -1    0    0  501    0  0.00000000000E+00  0.00000000000E+00  0.41551583923E+03  0.41551583926E+03  0.50400001928E-02 0.  1.
       -1   -1    0    0    0  501  0.00000000000E+00  0.00000000000E+00 -0.21504450052E+03  0.21504450058E+03  0.50400001928E-02 0. -1.
    10030    2    1    2    0    0  0.00000000000E+00  0.00000000000E+00  0.20047133871E+03  0.63056033984E+03  0.59784411391E+03 0.  0.
        3    1    3    3  502    0 -0.93812352120E+02  0.23336145610E+02  0.39857345258E+03  0.41012941909E+03  0.10100000352E+00 0.  1.
       -3    1    3    3    0  502  0.93812352120E+02 -0.23336145610E+02 -0.19810211387E+03  0.22043092075E+03  0.10100000352E+00 0. -1.
</event>
<event>
 5   0  0.3640827E-02  0.6066299E+03  0.7818609E-02  0.9891746E-01
       -1   -1    0    0    0  501  0.00000000000E+00  0.00000000000E+00  0.88098355150E+02  0.88098355294E+02  0.50400001928E-02 0.  1.
        1   -1    0    0  501    0  0.00000000000E+00  0.00000000000E+00 -0.10442868649E+04  0.10442868649E+04  0.50400001928E-02 0. -1.
    10030    2    1    2    0    0  0.00000000000E+00  0.00000000000E+00 -0.95618850974E+03  0.11323852202E+04  0.60662988779E+03 0.  0.
        3    1    3    3  502    0  0.49114284239E+02  0.14897731616E+01 -0.10368079031E+04  0.10379716135E+04  0.10100000352E+00 0. -1.
       -3    1    3    3    0  502 -0.49114284239E+02 -0.14897731616E+01  0.80619393356E+02  0.94413606680E+02  0.10100000352E+00 0.  1.
</event>
<event>
 5   0  0.3478183E-02  0.5969102E+03  0.7818609E-02  0.9911837E-01
       -1   -1    0    0    0  501  0.00000000000E+00  0.00000000000E+00  0.55962105240E+02  0.55962105466E+02  0.50400001928E-02 0.  1.
        1   -1    0    0  501    0  0.00000000000E+00  0.00000000000E+00 -0.15917098095E+04  0.15917098095E+04  0.50400001928E-02 0. -1.
    10030    2    1    2    0    0  0.00000000000E+00  0.00000000000E+00 -0.15357477043E+04  0.16476719150E+04  0.59691015091E+03 0.  0.
        4    1    3    3  502    0  0.19388058960E+03 -0.16510584829E+03 -0.33825191245E+03  0.42339767753E+03  0.12699999809E+01 0.  1.
       -4    1    3    3    0  502 -0.19388058960E+03  0.16510584829E+03 -0.11974957918E+04  0.12242742375E+04  0.12699999809E+01 0. -1.
</event>
<event>
 5   0  0.5935451E-02  0.5912381E+03  0.7818609E-02  0.9923753E-01
       -2   -1    0    0    0  501  0.00000000000E+00  0.00000000000E+00  0.11571505492E+03  0.11571505495E+03  0.25500000920E-02 0. -1.
        2   -1    0    0  501    0  0.00000000000E+00  0.00000000000E+00 -0.75522254934E+03  0.75522254935E+03  0.25500000920E-02 0.  1.
    10030    2    1    2    0    0  0.00000000000E+00  0.00000000000E+00 -0.63950749443E+03  0.87093760429E+03  0.59123808668E+03 0.  0.
        3    1    3    3  502    0 -0.25195941056E+03 -0.14785620172E+03 -0.25312896430E+03  0.38654790612E+03  0.10100000352E+00 0. -1.
       -3    1    3    3    0  502  0.25195941056E+03  0.14785620172E+03 -0.38637853013E+03  0.48438969818E+03  0.10100000352E+00 0.  1.
</event>
<event>
 5   0  0.5755078E-02  0.6025374E+03  0.7818609E-02  0.9900156E-01
       -2   -1    0    0    0  501  0.00000000000E+00  0.00000000000E+00  0.67674415834E+02  0.67674415882E+02  0.25500000920E-02 0.  1.
        2   -1    0    0  501    0  0.00000000000E+00  0.00000000000E+00 -0.13411691410E+04  0.13411691410E+04  0.25500000920E-02 0. -1.
    10030    2    1    2    0    0  0.00000000000E+00  0.00000000000E+00 -0.12734947252E+04  0.14088435569E+04  0.60253742851E+03 0.  0.
        2    1    3    3  502    0  0.19895234773E+03 -0.12725631796E+03 -0.19939668560E+03  0.30908776321E+03  0.25500000920E-02 0.  1.
       -2    1    3    3    0  502 -0.19895234773E+03  0.12725631796E+03 -0.10740980396E+04  0.10997557937E+04  0.25500000920E-02 0. -1.
</event>
<event>
 5   0  0.6007360E-02  0.6050959E+03  0.7818609E-02  0.9894890E-01
        2   -1    0    0  501    0  0.00000000000E+00  0.00000000000E+00  0.53203096663E+03  0.53203096663E+03  0.25500000920E-02 0.  1.
       -2   -1    0    0    0  501  0.00000000000E+00  0.00000000000E+00 -0.17204874071E+03  0.17204874073E+03  0.25500000920E-02 0. -1.
    10030    2    1    2    0    0  0.00000000000E+00  0.00000000000E+00  0.35998222592E+03  0.70407970736E+03  0.60509588607E+03 0.  0.
        4    1    3    3  502    0 -0.24448067680E+03  0.13682781150E+02  0.38675448473E+03  0.45775393410E+03  0.12699999809E+01 0.  1.
       -4    1    3    3    0  502  0.24448067680E+03 -0.13682781150E+02 -0.26772258815E+02  0.24632577326E+03  0.12699999809E+01 0. -1.
</event>
<event>
 5   0  0.3767635E-02  0.5896194E+03  0.7818609E-02  0.9927180E-01
        1   -1    0    0  501    0  0.00000000000E+00  0.00000000000E+00  0.22580257562E+04  0.22580257562E+04  0.50400001928E-02 0. -1.
       -1   -1    0    0    0  501  0.00000000000E+00  0.00000000000E+00 -0.38490600246E+02  0.38490600576E+02  0.50400001928E-02 0.  1.
    10030    2    1    2    0    0  0.00000000000E+00  0.00000000000E+00  0.22195351560E+04  0.22965163568E+04  0.58961942680E+03 0.  0.
        2    1    3    3  502    0  0.24492983905E+03  0.15900379917E+03  0.95203885104E+03  0.99581665386E+03  0.25500000920E-02 0.  1.
       -2    1    3    3    0  502 -0.24492983905E+03 -0.15900379917E+03  0.12674963049E+04  0.13006997029E+04  0.25500000920E-02 0. -1.
</event>
<event>
 5   0  0.3703280E-02  0.5941119E+03  0.7818609E-02  0.9917698E-01
       -1   -1    0    0    0  501  0.00000000000E+00  0.00000000000E+00  0.18288022546E+03  0.18288022553E+03  0.50400001928E-02 0. -1.
        1   -1    0    0  501    0  0.00000000000E+00  0.00000000000E+00 -0.48251377753E+03  0.48251377756E+03  0.50400001928E-02 0.  1.
    10030    2    1    2    0    0  0.00000000000E+00  0.00000000000E+00 -0.29963355207E+03  0.66539400308E+03  0.59411186978E+03 0.  0.
        5    1    3    3  502    0  0.18512157225E+03  0.13564981383E+03 -0.36098374994E+03  0.42778759475E+03  0.46999998093E+01 0.  1.
       -5    1    3    3    0  502 -0.18512157225E+03 -0.13564981383E+03  0.61350197869E+02  0.23760640833E+03  0.46999998093E+01 0. -1.
</event>
<event>
 5   0  0.5872632E-02  0.6101216E+03  0.7818609E-02  0.9884627E-01
        2   -1    0    0  501    0  0.00000000000E+00  0.00000000000E+00  0.56303214875E+03  0.56303214876E+03  0.25500000920E-02 0.  1.
       -2   -1    0    0    0  501  0.00000000000E+00  0.00000000000E+00 -0.16528733120E+03  0.16528733122E+03  0.25500000920E-02 0. -1.
    10030    2    1    2    0    0  0.00000000000E+00  0.00000000000E+00  0.39774481756E+03  0.72831947998E+03  0.61012156577E+03 0.  0.
        1    1    3    3  502    0 -0.19437850189E+03  0.23172595044E+03  0.24635464664E+03  0.39009041266E+03  0.50400001928E-02 0.  1.
       -1    1    3    3    0  502  0.19437850189E+03 -0.23172595044E+03  0.15139017092E+03  0.33822906732E+03  0.50400001928E-02 0. -1.
</event>
<event>
 5   0  0.5755078E-02  0.5984904E+03  0.7818609E-02  0.9908543E-01
       -2   -1    0    0    0  501  0.00000000000E+00  0.00000000000E+00  0.28560316081E+03  0.28560316082E+03  0.25500000920E-02 0.  1.
        2   -1    0    0  501    0  0.00000000000E+00  0.00000000000E+00 -0.31353889611E+03  0.31353889612E+03  0.25500000920E-02 0. -1.
    10030    2    1    2    0    0  0.00000000000E+00  0.00000000000E+00 -0.27935735303E+02  0.59914205694E+03  0.59849043358E+03 0.  0.
        2    1    3    3  502    0 -0.28404299059E+03  0.24106550550E+02 -0.10509528872E+03  0.30381995656E+03  0.25500000920E-02 0. -1.
       -2    1    3    3    0  502  0.28404299059E+03 -0.24106550550E+02  0.77159553420E+02  0.29532210038E+03  0.25500000920E-02 0.  1.
</event>
<event>
 5   0  0.3651984E-02  0.6182739E+03  0.7818609E-02  0.9868202E-01
        1   -1    0    0  501    0  0.00000000000E+00  0.00000000000E+00  0.55276529083E+03  0.55276529085E+03  0.50400001928E-02 0.  1.
       -1   -1    0    0    0  501  0.00000000000E+00  0.00000000000E+00 -0.17288647019E+03  0.17288647027E+03  0.50400001928E-02 0. -1.
    10030    2    1    2    0    0  0.00000000000E+00  0.00000000000E+00  0.37987882064E+03  0.72565176112E+03  0.61827385522E+03 0.  0.
        1    1    3    3  502    0  0.38285663485E+02 -0.15027066554E+03 -0.12393564194E+03  0.19851223720E+03  0.50400001928E-02 0. -1.
       -1    1    3    3    0  502 -0.38285663485E+02  0.15027066554E+03  0.50381446258E+03  0.52713952392E+03  0.50400001928E-02 0.  1.
</event>
<event>
 5   0  0.3640827E-02  0.6121993E+03  0.7818609E-02  0.9880415E-01
       -1   -1    0    0    0  501  0.00000000000E+00  0.00000000000E+00  0.78659087541E+03  0.78659087542E+03  0.50400001928E-02 0. -1.
        1   -1    0    0  501    0  0.00000000000E+00  0.00000000000E+00 -0.11911784263E+03  0.11911784274E+03  0.50400001928E-02 0.  1.
    10030    2    1    2    0    0  0.00000000000E+00  0.00000000000E+00  0.66747303278E+03  0.90570871816E+03  0.61219934063E+03 0.  0.
        3    1    3    3  502    0 -0.28378250418E+03 -0.72364209932E+02  0.46546358583E+03  0.54993222173E+03  0.10100000352E+00 0. -1.
       -3    1    3    3    0  502  0.28378250418E+03  0.72364209932E+02  0.20200944694E+03  0.35577649643E+03  0.10100000352E+00 0.  1.
</event>
<event>
 5   0  0.3478183E-02  0.6161805E+03  0.7818609E-02  0.9872394E-01
       -1   -1    0    0    0  501  0.00000000000E+00  0.00000000000E+00  0.14214833796E+03  0.14214833805E+03  0.50400001928E-02 0.  1.
        1   -1    0    0  501    0  0.00000000000E+00  0.00000000000E+00 -0.66775035985E+03  0.66775035987E+03  0.50400001928E-02 0. -1.
    10030    2    1    2    0    0  0.00000000000E+00  0.00000000000E+00 -0.52560202189E+03  0.80989869792E+03  0.61618050559E+03 0.  0.
        4    1    3    3  502    0  0.55789254228E+02  0.30145319314E+03 -0.22268484638E+03  0.37891505941E+03  0.12699999809E+01 0. -1.
       -4    1    3    3    0  502 -0.55789254228E+02 -0.30145319314E+03 -0.30291717551E+03  0.43098363851E+03  0.12699999809E+01 0.  1.
</event>
<event>
 5   0  0.2388000E-02  0.6014951E+03  0.7818609E-02  0.9902309E-01
       -3   -1    0    0    0  501  0.00000000000E+00  0.00000000000E+00  0.47481861566E+02  0.47481968986E+02  0.10100000352E+00 0.  1.
        3   -1    0    0  501    0  0.00000000000E+00  0.00000000000E+00 -0.19049166984E+04  0.19049167011E+04  0.10100000352E+00 0. -1.
    10030    2    1    2    0    0  0.00000000000E+00  0.00000000000E+00 -0.18574348369E+04  0.19523986701E+04  0.60149513197E+03 0.  0.
        2    1    3    3  502    0  0.21599988470E+02  0.98348785419E+02 -0.88582341418E+01  0.10108170662E+03  0.25500000920E-02 0.  1.
       -2    1    3    3    0  502 -0.21599988470E+02 -0.98348785419E+02 -0.18485766027E+04  0.18513169635E+04  0.25500000920E-02 0. -1.
</event>
<event>
 5   0  0.3651984E-02  0.5951348E+03  0.7818609E-02  0.9915552E-01
       -1   -1    0    0    0  501  0.00000000000E+00  0.00000000000E+00  0.22748383716E+03  0.22748383722E+03  0.50400001928E-02 0. -1.
        1   -1    0    0  501    0  0.00000000000E+00  0.00000000000E+00 -0.38924236027E+03  0.38924236030E+03  0.50400001928E-02 0.  1.
    10030    2    1    2    0    0  0.00000000000E+00  0.00000000000E+00 -0.16175852310E+03  0.61672619752E+03  0.59513476030E+03 0.  0.
        1    1    3    3  502    0 -0.27541179864E+03  0.10326182159E+03 -0.12758874466E+03  0.32061433283E+03  0.50400001928E-02 0. -1.
       -1    1    3    3    0  502  0.27541179864E+03 -0.10326182159E+03 -0.34169778445E+02  0.29611186469E+03  0.50400001928E-02 0.  1.
</event>
<event>
 5   0  0.5935451E-02  0.5669377E+03  0.7818609E-02  0.9976478E-01
       -2   -1    0    0    0  501  0.00000000000E+00  0.00000000000E+00  0.16588803123E+03  0.16588803125E+03  0.25500000920E-02 0.  1.
        2   -1    0    0  501    0  0.00000000000E+00  0.00000000000E+00 -0.48439045330E+03  0.48439045330E+03  0.25500000920E-02 0. -1.
    10030    2    1    2    0    0  0.00000000000E+00  0.00000000000E+00 -0.31850242206E+03  0.65027848456E+03  0.56693766379E+03 0.  0.
        3    1    3    3  502    0  0.21650369146E+03 -0.17462449609E+03 -0.96563548072E+02  0.29443520861E+03  0.10100000352E+00 0.  1.
       -3    1    3    3    0  502 -0.21650369146E+03  0.17462449609E+03 -0.22193887399E+03  0.35584327595E+03  0.10100000352E+00 0. -1.
</event>
<event>
 5   0  0.3767635E-02  0.6047046E+03  0.7818609E-02  0.9895693E-01
       -1   -1    0    0    0  501  0.00000000000E+00  0.00000000000E+00  0.75214535964E+02  0.75214536133E+02  0.50400001928E-02 0.  1.
        1   -1    0    0  501    0  0.00000000000E+00  0.00000000000E+00 -0.12154157004E+04  0.12154157004E+04  0.50400001928E-02 0. -1.
    10030    2    1    2    0    0  0.00000000000E+00  0.00000000000E+00 -0.11402011645E+04  0.12906302366E+04  0.60470464866E+03 0.  0.
        2    1    3    3  502    0  0.29826940353E+03 -0.28188987436E+02 -0.65699818973E+03  0.72208439770E+03  0.25500000920E-02 0. -1.
       -2    1    3    3    0  502 -0.29826940353E+03  0.28188987436E+02 -0.48320297474E+03  0.56854583887E+03  0.25500000920E-02 0.  1.
</event>
<event>
 5   0  0.5872632E-02  0.5568686E+03  0.7818609E-02  0.9999165E-01
       -2   -1    0    0    0  501  0.00000000000E+00  0.00000000000E+00  0.17202876111E+03  0.17202876113E+03  0.25500000920E-02 0. -1.
        2   -1    0    0  501    0  0.00000000000E+00  0.00000000000E+00 -0.45065529681E+03  0.45065529682E+03  0.25500000920E-02 0.  1.
    10030    2    1    2    0    0  0.00000000000E+00  0.00000000000E+00 -0.27862653571E+03  0.62268405795E+03  0.55686864665E+03 0.  0.
        1    1    3    3  502    0 -0.22020406295E+03  0.15323433394E+03 -0.22265455723E+03  0.34863396611E+03  0.50400001928E-02 0.  1.
       -1    1    3    3    0  502  0.22020406295E+03 -0.15323433394E+03 -0.55971978472E+02  0.27405009184E+03  0.50400001928E-02 0. -1.
</event>
<event>
 5   0  0.3767635E-02  0.5914450E+03  0.7818609E-02  0.9923316E-01
       -1   -1    0    0    0  501  0.00000000000E+00  0.00000000000E+00  0.91877632112E+02  0.91877632251E+02  0.50400001928E-02 0. -1.
        1   -1    0    0  501    0  0.00000000000E+00  0.00000000000E+00 -0.95182903074E+03  0.95182903076E+03  0.50400001928E-02 0.  1.
    10030    2    1    2    0    0  0.00000000000E+00  0.00000000000E+00 -0.85995139863E+03  0.10437066630E+04  0.59144500201E+03 0.  0.
        2    1    3    3  502    0 -0.78461873804E+02 -0.28360120454E+03 -0.48190292676E+03  0.56463823788E+03  0.25500000920E-02 0.  1.
       -2    1    3    3    0  502  0.78461873804E+02  0.28360120454E+03 -0.37804847187E+03  0.47906842512E+03  0.25500000920E-02 0. -1.
</event>
<event>
 5   0  0.3640827E-02  0.6002950E+03  0.7818609E-02  0.9904794E-01
       -1   -1    0    0    0  501  0.00000000000E+00  0.00000000000E+00  0.23729461085E+03  0.23729461090E+03  0.50400001928E-02 0.  1.
        1   -1    0    0  501    0  0.00000000000E+00  0.00000000000E+00 -0.37964839011E+03  0.37964839015E+03  0.50400001928E-02 0. -1.
    10030    2    1    2    0    0  0.00000000000E+00  0.00000000000E+00 -0.14235377927E+03  0.61694300105E+03  0.60029498421E+03 0.  0.
        3    1    3    3  502    0 -0.13092354063E+02  0.25622241513E+03 -0.23127636284E+03  0.34541294411E+03  0.10100000352E+00 0. -1.
       -3    1    3    3    0  502  0.13092354063E+02 -0.25622241513E+03  0.88922583567E+02  0.27153005694E+03  0.10100000352E+00 0.  1.
</event>
<event>
 5   0  0.6007360E-02  0.5996626E+03  0.7818609E-02  0.9906106E-01
        2   -1    0    0  501    0  0.00000000000E+00  0.00000000000E+00  0.51905153402E+03  0.51905153402E+03  0.25500000920E-02 0.  1.
       -2   -1    0    0    0  501  0.00000000000E+00  0.00000000000E+00 -0.17319824549E+03  0.17319824551E+03  0.25500000920E-02 0. -1.
    10030    2    1    2    0    0  0.00000000000E+00  0.00000000000E+00  0.34585328853E+03  0.69224977953E+03  0.59966262188E+03 0.  0.
        4    1    3    3  502    0  0.88528272080E+02  0.10046887019E+03 -0.13675779802E+03  0.19140417199E+03  0.12699999809E+01 0. -1.
       -4    1    3    3    0  502 -0.88528272080E+02 -0.10046887019E+03  0.48261108655E+03  0.50084560754E+03  0.12699999809E+01 0.  1.
</event>
<event>
 5   0  0.3478183E-02  0.6136604E+03  0.7818609E-02  0.9877463E-01
        1   -1    0    0  501    0  0.00000000000E+00  0.00000000000E+00  0.12714191626E+04  0.12714191626E+04  0.50400001928E-02 0. -1.
       -1   -1    0    0    0  501  0.00000000000E+00  0.00000000000E+00 -0.74047001834E+02  0.74047002005E+02  0.50400001928E-02 0.  1.
    10030    2    1    2    0    0  0.00000000000E+00  0.00000000000E+00  0.11973721607E+04  0.13454661646E+04  0.61366041809E+03 0.  0.
        4    1    3    3  502    0  0.24925097697E+03  0.49986499806E+01  0.20652342438E+03  0.32373534521E+03  0.12699999809E+01 0.  1.
       -4    1    3    3    0  502 -0.24925097697E+03 -0.49986499806E+01  0.99084873634E+03  0.10217308194E+04  0.12699999809E+01 0. -1.
</event>
<event>
 5   0  0.5755078E-02  0.6106642E+03  0.7818609E-02  0.9883525E-01
       -2   -1    0    0    0  501  0.00000000000E+00  0.00000000000E+00  0.10480667054E+03  0.10480667057E+03  0.25500000920E-02 0. -1.
        2   -1    0    0  501    0  0.00000000000E+00  0.00000000000E+00 -0.88952048488E+03  0.88952048488E+03  0.25500000920E-02 0.  1.
    10030    2    1    2    0    0  0.00000000000E+00  0.00000000000E+00 -0.78471381434E+03  0.99432715545E+03  0.61066416437E+03 0.  0.
        2    1    3    3  502    0 -0.17997492176E+03  0.51982643924E+02 -0.78495111094E+03  0.80699530005E+03  0.25500000920E-02 0.  1.
       -2    1    3    3    0  502  0.17997492176E+03 -0.51982643924E+02  0.23729659980E+00  0.18733185540E+03  0.25500000920E-02 0. -1.
</event>
<event>
 5   0  0.3640827E-02  0.5759751E+03  0.7818609E-02  0.9956543E-01
        1   -1    0    0  501    0  0.00000000000E+00  0.00000000000E+00  0.21545694668E+03  0.21545694674E+03  0.50400001928E-02 0.  1.
       -1   -1    0    0    0  501  0.00000000000E+00  0.00000000000E+00 -0.38493457322E+03  0.38493457325E+03  0.50400001928E-02 0. -1.
    10030    2    1    2    0    0  0.00000000000E+00  0.00000000000E+00 -0.16947762654E+03  0.60039151999E+03  0.57597509615E+03 0.  0.
        3    1    3    3  502    0 -0.23357958180E+03 -0.40322510830E+02 -0.25523114321E+03  0.34832208167E+03  0.10100000352E+00 0. -1.
       -3    1    3    3    0  502  0.23357958180E+03  0.40322510830E+02  0.85753516673E+02  0.25206943832E+03  0.10100000352E+00 0.  1.
</event>
<event>
 5   0  0.5935451E-02  0.5930049E+03  0.7818609E-02  0.9920026E-01
       -2   -1    0    0    0  501  0.00000000000E+00  0.00000000000E+00  0.14044845961E+03  0.14044845963E+03  0.25500000920E-02 0. -1.
        2   -1    0    0  501    0  0.00000000000E+00  0.00000000000E+00 -0.62594993807E+03  0.62594993807E+03  0.25500000920E-02 0.  1.
    10030    2    1    2    0    0  0.00000000000E+00  0.00000000000E+00 -0.48550147846E+03  0.76639839770E+03  0.59300490590E+03 0.  0.
        3    1    3    3  502    0  0.29105153147E+03  0.52898354650E+02 -0.26874254840E+03  0.39966460616E+03  0.10100000352E+00 0.  1.
       -3    1    3    3    0  502 -0.29105153147E+03 -0.52898354650E+02 -0.21675893006E+03  0.36673379154E+03  0.10100000352E+00 0. -1.
</event>
<event>
 5   0  0.3767635E-02  0.6303870E+03  0.7818609E-02  0.9844294E-01
       -1   -1    0    0    0  501  0.00000000000E+00  0.00000000000E+00  0.91210319310E+02  0.91210319449E+02  0.50400001928E-02 0. -1.
        1   -1    0    0  501    0  0.00000000000E+00  0.00000000000E+00 -0.10892072403E+04  0.10892072403E+04  0.50400001928E-02 0.  1.
    10030    2    1    2    0    0  0.00000000000E+00  0.00000000000E+00 -0.99799692095E+03  0.11804175597E+04  0.63038699310E+03 0.  0.
        2    1    3    3  502    0  0.22778560128E+03  0.13491403942E+03 -0.17869831672E+03  0.31940752431E+03  0.25500000920E-02 0. -1.
       -2    1    3    3    0  502 -0.22778560128E+03 -0.13491403942E+03 -0.81929860422E+03  0.86101003540E+03  0.25500000920E-02 0.  1.
</event>
<event>
 5   0  0.5755078E-02  0.6005745E+03  0.7818609E-02  0.9904215E-01
        2   -1    0    0  501    0  0.00000000000E+00  0.00000000000E+00  0.75760938279E+03  0.75760938279E+03  0.25500000920E-02 0. -1.
       -2   -1    0    0    0  501  0.00000000000E+00  0.00000000000E+00 -0.11902232953E+03  0.11902232956E+03  0.25500000920E-02 0.  1.
    10030    2    1    2    0    0  0.00000000000E+00  0.00000000000E+00  0.63858705326E+03  0.87663171235E+03  0.60057450371E+03 0.  0.
        2    1    3    3  502    0 -0.13499838595E+02 -0.28926294810E+03  0.43530751557E+03  0.52282686609E+03  0.25500000920E-02 0. -1.
       -2    1    3    3    0  502  0.13499838595E+02  0.28926294810E+03  0.20327953768E+03  0.35380484626E+03  0.25500000920E-02 0.  1.
</event>
<event>
 5   0  0.5872632E-02  0.5962622E+03  0.7818609E-02  0.9913191E-01
       -2   -1    0    0    0  501  0.00000000000E+00  0.00000000000E+00  0.73739080470E+02  0.73739080514E+02  0.25500000920E-02 0. -1.
        2   -1    0    0  501    0  0.00000000000E+00  0.00000000000E+00 -0.12053600992E+04  0.12053600992E+04  0.25500000920E-02 0.  1.
    10030    2    1    2    0    0  0.00000000000E+00  0.00000000000E+00 -0.11316210187E+04  0.12790991797E+04  0.59626217515E+03 0.  0.
        1    1    3    3  502    0  0.19659699702E+03 -0.30692678018E+02 -0.10420716642E+04  0.10608985687E+04  0.50400001928E-02 0.  1.
       -1    1    3    3    0  502 -0.19659699702E+03  0.30692678018E+02 -0.89549354507E+02  0.21820061099E+03  0.50400001928E-02 0. -1.
</event>
<event>
 5   0  0.3651984E-02  0.5975284E+03  0.7818609E-02  0.9910547E-01
        1   -1    0    0  501    0  0.00000000000E+00  0.00000000000E+00  0.27895491595E+03  0.27895491599E+03  0.50400001928E-02 0.  1.
       -1   -1    0    0    0  501  0.00000000000E+00  0.00000000000E+00 -0.31998021918E+03  0.31998021922E+03  0.50400001928E-02 0. -1.
    10030    2    1    2    0    0  0.00000000000E+00  0.00000000000E+00 -0.41025303238E+02  0.59893513521E+03  0.59752842668E+03 0.  0.
        1    1    3    3  502    0  0.21354253043E+03 -0.33001962599E+02 -0.22732461759E+03  0.31363358179E+03  0.50400001928E-02 0. -1.
       -1    1    3    3    0  502 -0.21354253043E+03  0.33001962599E+02  0.18629931435E+03  0.28530155343E+03  0.50400001928E-02 0.  1.
</event>
<event>
 5   0  0.3767635E-02  0.6009192E+03  0.7818609E-02  0.9903501E-01
       -1   -1    0    0    0  501  0.00000000000E+00  0.00000000000E+00  0.10560989455E+03  0.10560989467E+03  0.50400001928E-02 0. -1.
        1   -1    0    0  501    0  0.00000000000E+00  0.00000000000E+00 -0.85480599211E+03  0.85480599213E+03  0.50400001928E-02 0.  1.
    10030    2    1    2    0    0  0.00000000000E+00  0.00000000000E+00 -0.74919609756E+03  0.96041588680E+03  0.60091919841E+03 0.  0.
        2    1    3    3  502    0  0.28578686263E+03 -0.47329914153E+02 -0.24712144003E+03  0.38076667101E+03  0.25500000920E-02 0. -1.
       -2    1    3    3    0  502 -0.28578686263E+03  0.47329914153E+02 -0.50207465752E+03  0.57964921579E+03  0.25500000920E-02 0.  1.
</event>
<event>
 5   0  0.5755078E-02  0.6110223E+03  0.7818609E-02  0.9882799E-01
       -2   -1    0    0    0  501  0.00000000000E+00  0.00000000000E+00  0.10539434561E+03  0.10539434564E+03  0.25500000920E-02 0. -1.
        2   -1    0    0  501    0  0.00000000000E+00  0.00000000000E+00 -0.88559839937E+03  0.88559839938E+03  0.25500000920E-02 0.  1.
    10030    2    1    2    0    0  0.00000000000E+00  0.00000000000E+00 -0.78020405376E+03  0.99099274502E+03  0.61102230333E+03 0.  0.
        2    1    3    3  502    0  0.28134586383E+03 -0.83541222461E+02 -0.52774467541E+03  0.60386179990E+03  0.25500000920E-02 0. -1.
       -2    1    3    3    0  502 -0.28134586383E+03  0.83541222461E+02 -0.25245937835E+03  0.38713094512E+03  0.25500000920E-02 0.  1.
</event>
<event>
 5   0  0.6007360E-02  0.5996097E+03  0.7818609E-02  0.9906216E-01
       -2   -1    0    0    0  501  0.00000000000E+00  0.00000000000E+00  0.11043591266E+03  0.11043591269E+03  0.25500000920E-02 0.  1.
        2   -1    0    0  501    0  0.00000000000E+00  0.00000000000E+00 -0.81389246474E+03  0.81389246474E+03  0.25500000920E-02 0. -1.
    10030    2    1    2    0    0  0.00000000000E+00  0.00000000000E+00 -0.70345655208E+03  0.92432837743E+03  0.59960973028E+03 0.  0.
        4    1    3    3  502    0  0.25328770755E+02  0.29754845262E+03 -0.31080553897E+03  0.43102009726E+03  0.12699999809E+01 0.  1.
       -4    1    3    3    0  502 -0.25328770755E+02 -0.29754845262E+03 -0.39265101311E+03  0.49330828017E+03  0.12699999809E+01 0. -1.
</event>
<event>
 5   0  0.5935451E-02  0.5969050E+03  0.7818609E-02  0.9911848E-01
        2   -1    0    0  501    0  0.00000000000E+00  0.00000000000E+00  0.99432020272E+03  0.99432020272E+03  0.25500000920E-02 0.  1.
       -2   -1    0    0    0  501  0.00000000000E+00  0.00000000000E+00 -0.89582706969E+02  0.89582707006E+02  0.25500000920E-02 0. -1.
    10030    2    1    2    0    0  0.00000000000E+00  0.00000000000E+00  0.90473749575E+03  0.10839029097E+04  0.59690500207E+03 0.  0.
        3    1    3    3  502    0 -0.18361471165E+03 -0.22349085578E+03  0.58594780892E+03  0.65345035766E+03  0.10100000352E+00 0.  1.
       -3    1    3    3    0  502  0.18361471165E+03  0.22349085578E+03  0.31878968683E+03  0.43045255207E+03  0.10100000352E+00 0. -1.
</event>
<event>
 5   0  0.5999117E-02  0.6190673E+03  0.7818609E-02  0.9866618E-01
        2   -1    0    0  501    0  0.00000000000E+00  0.00000000000E+00  0.16881721946E+03  0.16881721948E+03  0.25500000920E-02 0.  1.
       -2   -1    0    0    0  501  0.00000000000E+00  0.00000000000E+00 -0.56754336357E+03  0.56754336358E+03  0.25500000920E-02 0. -1.
    10030    2    1    2    0    0  0.00000000000E+00  0.00000000000E+00 -0.39872614411E+03  0.73636058306E+03  0.61906733905E+03 0.  0.
        5    1    3    3  502    0 -0.11147830912E+03 -0.31949080561E+02 -0.54068194415E+03  0.55299838325E+03  0.46999998093E+01 0. -1.
       -5    1    3    3    0  502  0.11147830912E+03  0.31949080561E+02  0.14195580004E+03  0.18336219980E+03  0.46999998093E+01 0.  1.
</event>
<event>
 5   0  0.3478183E-02  0.5663771E+03  0.7818609E-02  0.9977728E-01
       -1   -1    0    0    0  501  0.00000000000E+00  0.00000000000E+00  0.81122404483E+02  0.81122404640E+02  0.50400001928E-02 0. -1.
        1   -1    0    0  501    0  0.00000000000E+00  0.00000000000E+00 -0.98857717884E+03  0.98857717885E+03  0.50400001928E-02 0.  1.
    10030    2    1    2    0    0  0.00000000000E+00  0.00000000000E+00 -0.90745477435E+03  0.10696995835E+04  0.56637711061E+03 0.  0.
        4    1    3    3  502    0 -0.23889894806E+03  0.14457207828E+03 -0.54272267749E+03  0.61034687741E+03  0.12699999809E+01 0. -1.
       -4    1    3    3    0  502  0.23889894806E+03 -0.14457207828E+03 -0.36473209686E+03  0.45935270608E+03  0.12699999809E+01 0.  1.
</event>
<event>
 5   0  0.3640827E-02  0.5881658E+03  0.7818609E-02  0.9930267E-01
       -1   -1    0    0    0  501  0.00000000000E+00  0.00000000000E+00  0.11208960077E+03  0.11208960089E+03  0.50400001928E-02 0.  1.
        1   -1    0    0  501    0  0.00000000000E+00  0.00000000000E+00 -0.77156795523E+03  0.77156795525E+03  0.50400001928E-02 0. -1.
    10030    2    1    2    0    0  0.00000000000E+00  0.00000000000E+00 -0.65947835446E+03  0.88365755613E+03  0.58816577299E+03 0.  0.
        3    1    3    3  502    0  0.19924571983E+03  0.19746446482E+03 -0.46237322880E+03  0.54081427926E+03  0.10100000352E+00 0.  1.
       -3    1    3    3    0  502 -0.19924571983E+03 -0.19746446482E+03 -0.19710512566E+03  0.34284327688E+03  0.10100000352E+00 0. -1.
</event>
<event>
 5   0  0.3478183E-02  0.6100605E+03  0.7818609E-02  0.9884751E-01
        1   -1    0    0  501    0  0.00000000000E+00  0.00000000000E+00  0.23300645922E+03  0.23300645928E+03  0.50400001928E-02 0.  1.
       -1   -1    0    0    0  501  0.00000000000E+00  0.00000000000E+00 -0.39931709638E+03  0.39931709641E+03  0.50400001928E-02 0. -1.
    10030    2    1    2    0    0  0.00000000000E+00  0.00000000000E+00 -0.16631063715E+03  0.63232355568E+03  0.61006053064E+03 0.  0.
        4    1    3    3  502    0 -0.14735269312E+03 -0.95458022939E+02  0.17538022951E+03  0.24816302729E+03  0.12699999809E+01 0.  1.
       -4    1    3    3    0  502  0.14735269312E+03  0.95458022939E+02 -0.34169086666E+03  0.38416052839E+03  0.12699999809E+01 0. -1.
</event>
<event>
 5   0  0.6007360E-02  0.6036797E+03  0.7818609E-02  0.9897801E-01
        2   -1    0    0  501    0  0.00000000000E+00  0.00000000000E+00  0.30356100984E+03  0.30356100985E+03  0.25500000920E-02 0. -1.
       -2   -1    0    0    0  501  0.00000000000E+00  0.00000000000E+00 -0.30012849490E+03  0.30012849491E+03  0.25500000920E-02 0.  1.
    10030    2    1    2    0    0  0.00000000000E+00  0.00000000000E+00  0.34325149443E+01  0.60368950477E+03  0.60367974623E+03 0.  0.
        4    1    3    3  502    0 -0.15909165628E+02 -0.15760687354E+03 -0.25521720119E+03  0.30038385580E+03  0.12699999809E+01 0.  1.
       -4    1    3    3    0  502  0.15909165628E+02  0.15760687354E+03  0.25864971614E+03  0.30330564897E+03  0.12699999809E+01 0. -1.
</event>
<event>
 5   0  0.6007360E-02  0.6093916E+03  0.7818609E-02  0.9886111E-01
        2   -1    0    0  501    0  0.00000000000E+00  0.00000000000E+00  0.28683946418E+03  0.28683946419E+03  0.25500000920E-02 0. -1.
       -2   -1    0    0    0  501  0.00000000000E+00  0.00000000000E+00 -0.32366371320E+03  0.32366371321E+03  0.25500000920E-02 0.  1.
    10030    2    1    2    0    0  0.00000000000E+00  0.00000000000E+00 -0.36824249024E+02  0.61050317740E+03  0.60939158535E+03 0.  0.
        4    1    3    3  502    0 -0.19481463657E+03  0.13717560736E+03 -0.20867438239E+03  0.31672780213E+03  0.12699999809E+01 0.  1.
       -4    1    3    3    0  502  0.19481463657E+03 -0.13717560736E+03  0.17185013336E+03  0.29377537527E+03  0.12699999809E+01 0. -1.
</event>
<event>
 5   0  0.3703280E-02  0.6000364E+03  0.7818609E-02  0.9905330E-01
       -1   -1    0    0    0  501  0.00000000000E+00  0.00000000000E+00  0.30541101588E+03  0.30541101593E+03  0.50400001928E-02 0.  1.
        1   -1    0    0  501    0  0.00000000000E+00  0.00000000000E+00 -0.29472064688E+03  0.29472064692E+03  0.50400001928E-02 0. -1.
    10030    2    1    2    0    0  0.00000000000E+00  0.00000000000E+00  0.10690369002E+02  0.60013166285E+03  0.60003643953E+03 0.  0.
        5    1    3    3  502    0  0.83994272997E+02  0.21043576108E+03 -0.19128355986E+03  0.29656321031E+03  0.46999998093E+01 0. -1.
       -5    1    3    3    0  502 -0.83994272997E+02 -0.21043576108E+03  0.20197392886E+03  0.30356845254E+03  0.46999998093E+01 0.  1.
</event>
<event>
 5   0  0.5755078E-02  0.5986449E+03  0.7818609E-02  0.9908222E-01
        2   -1    0    0  501    0  0.00000000000E+00  0.00000000000E+00  0.23484469286E+03  0.23484469287E+03  0.25500000920E-02 0. -1.
       -2   -1    0    0    0  501  0.00000000000E+00  0.00000000000E+00 -0.38150284708E+03  0.38150284709E+03  0.25500000920E-02 0.  1.
    10030    2    1    2    0    0  0.00000000000E+00  0.00000000000E+00 -0.14665815422E+03  0.61634753996E+03  0.59864486619E+03 0.  0.
        2    1    3    3  502    0 -0.41037224914E+02 -0.56704335062E+01 -0.37853697889E+03  0.38079712714E+03  0.25500000920E-02 0.  1.
       -2    1    3    3    0  502  0.41037224914E+02  0.56704335062E+01  0.23187882467E+03  0.23555041282E+03  0.25500000920E-02 0. -1.
</event>
<event>
 5   0  0.3767635E-02  0.5919721E+03  0.7818609E-02  0.9922203E-01
       -1   -1    0    0    0  501  0.00000000000E+00  0.00000000000E+00  0.25548206603E+03  0.25548206608E+03  0.50400001928E-02 0.  1.
        1   -1    0    0  501    0  0.00000000000E+00  0.00000000000E+00 -0.34291150868E+03  0.34291150872E+03  0.50400001928E-02 0. -1.
    10030    2    1    2    0    0  0.00000000000E+00  0.00000000000E+00 -0.87429442649E+02  0.59839357480E+03  0.59197209640E+03 0.  0.
        2    1    3    3  502    0 -0.48530030034E+02 -0.21978885107E+03 -0.23801172115E+03  0.32758492377E+03  0.25500000920E-02 0.  1.
       -2    1    3    3    0  502  0.48530030034E+02  0.21978885107E+03  0.15058227850E+03  0.27080865103E+03  0.25500000920E-02 0. -1.
</event>
<event>
 5   0  0.3640827E-02  0.5951942E+03  0.7818609E-02  0.9915427E-01
        1   -1    0    0  501    0  0.00000000000E+00  0.00000000000E+00  0.50036070606E+03  0.50036070608E+03  0.50400001928E-02 0.  1.
       -1   -1    0    0    0  501  0.00000000000E+00  0.00000000000E+00 -0.17700036463E+03  0.17700036470E+03  0.50400001928E-02 0. -1.
    10030    2    1    2    0    0  0.00000000000E+00  0.00000000000E+00  0.32336034142E+03  0.67736107079E+03  0.59519417824E+03 0.  0.
        3    1    3    3  502    0  0.10205645177E+03  0.40647181202E+02 -0.15308145986E+03  0.18841883197E+03  0.10100000352E+00 0. -1.
       -3    1    3    3    0  502 -0.10205645177E+03 -0.40647181202E+02  0.47644180128E+03  0.48894223882E+03  0.10100000352E+00 0.  1.
</event>
<event>
 5   0  0.5999117E-02  0.5977825E+03  0.7818609E-02  0.9910017E-01
        2   -1    0    0  501    0  0.00000000000E+00  0.00000000000E+00  0.84853557127E+03  0.84853557127E+03  0.25500000920E-02 0.  1.
       -2   -1    0    0    0  501  0.00000000000E+00  0.00000000000E+00 -0.10528254143E+03  0.10528254146E+03  0.25500000920E-02 0. -1.
    10030    2    1    2    0    0  0.00000000000E+00  0.00000000000E+00  0.74325302984E+03  0.95381811273E+03  0.59778250712E+03 0.  0.
        5    1    3    3  502    0  0.22810673081E+03  0.11291242765E+03  0.62153948300E+03  0.67165118618E+03  0.46999998093E+01 0.  1.
       -5    1    3    3    0  502 -0.22810673081E+03 -0.11291242765E+03  0.12171354683E+03  0.28216692656E+03  0.46999998093E+01 0. -1.
</event>
<event>
 5   0  0.5872632E-02  0.5967386E+03  0.7818609E-02  0.9912196E-01
        2   -1    0    0  501    0  0.00000000000E+00  0.00000000000E+00  0.98479309922E+03  0.98479309922E+03  0.25500000920E-02 0.  1.
       -2   -1    0    0    0  501  0.00000000000E+00  0.00000000000E+00 -0.90398934124E+02  0.90398934160E+02  0.25500000920E-02 0. -1.
    10030    2    1    2    0    0  0.00000000000E+00  0.00000000000E+00  0.89439416510E+03  0.10751920334E+04  0.59673862460E+03 0.  0.
        1    1    3    3  502    0  0.10718420579E+03 -0.26580725642E+03  0.29772209369E+03  0.41325584888E+03  0.50400001928E-02 0.  1.
       -1    1    3    3    0  502 -0.10718420579E+03  0.26580725642E+03  0.59667207141E+03  0.66193618451E+03  0.50400001928E-02 0. -1.
</event>
<event>
 5   0  0.3478183E-02  0.6049727E+03  0.7818609E-02  0.9895143E-01
        1   -1    0    0  501    0  0.00000000000E+00  0.00000000000E+00  0.18318606448E+04  0.18318606448E+04  0.50400001928E-02 0. -1.
       -1   -1    0    0    0  501  0.00000000000E+00  0.00000000000E+00 -0.49948112244E+02  0.49948112498E+02  0.50400001928E-02 0.  1.
    10030    2    1    2    0    0  0.00000000000E+00  0.00000000000E+00  0.17819125326E+04  0.18818087573E+04  0.60497266499E+03 0.  0.
        4    1    3    3  502    0  0.64107964827E+02 -0.17678543087E+03  0.15398493150E+03  0.24305532652E+03  0.12699999809E+01 0.  1.
       -4    1    3    3    0  502 -0.64107964827E+02  0.17678543087E+03  0.16279276011E+04  0.16387534308E+04  0.12699999809E+01 0. -1.
</event>
<event>
 5   0  0.3478183E-02  0.6083210E+03  0.7818609E-02  0.9888291E-01
        1   -1    0    0  501    0  0.00000000000E+00  0.00000000000E+00  0.25057400365E+03  0.25057400370E+03  0.50400001928E-02 0. -1.
       -1   -1    0    0    0  501  0.00000000000E+00  0.00000000000E+00 -0.36920673190E+03  0.36920673193E+03  0.50400001928E-02 0.  1.
    10030    2    1    2    0    0  0.00000000000E+00  0.00000000000E+00 -0.11863272824E+03  0.61978073563E+03  0.60832099754E+03 0.  0.
        4    1    3    3  502    0 -0.72722485185E+02 -0.98302787754E+02  0.22442598560E+03  0.25557901683E+03  0.12699999809E+01 0. -1.
       -4    1    3    3    0  502  0.72722485185E+02  0.98302787754E+02 -0.34305871385E+03  0.36420171880E+03  0.12699999809E+01 0.  1.
</event>
<event>
 5   0  0.3640827E-02  0.4972534E+03  0.7818609E-02  0.1014498E+00
       -1   -1    0    0    0  501  0.00000000000E+00  0.00000000000E+00  0.67662733445E+02  0.67662733632E+02  0.50400001928E-02 0.  1.
        1   -1    0    0  501    0  0.00000000000E+00  0.00000000000E+00 -0.91357866415E+03  0.91357866417E+03  0.50400001928E-02 0. -1.
    10030    2    1    2    0    0  0.00000000000E+00  0.00000000000E+00 -0.84591593071E+03  0.98124139780E+03  0.49725337498E+03 0.  0.
        3    1    3    3  502    0  0.79066810848E+02  0.76952556534E+02  0.16707745051E+02  0.11159039152E+03  0.10100000352E+00 0.  1.
       -3    1    3    3    0  502 -0.79066810848E+02 -0.76952556534E+02 -0.86262367576E+03  0.86965100628E+03  0.10100000352E+00 0. -1.
</event>
<event>
 5   0  0.6007360E-02  0.5978621E+03  0.7818609E-02  0.9909852E-01
        2   -1    0    0  501    0  0.00000000000E+00  0.00000000000E+00  0.41452861504E+03  0.41452861505E+03  0.25500000920E-02 0.  1.
       -2   -1    0    0    0  501  0.00000000000E+00  0.00000000000E+00 -0.21556959847E+03  0.21556959849E+03  0.25500000920E-02 0. -1.
    10030    2    1    2    0    0  0.00000000000E+00  0.00000000000E+00  0.19895901657E+03  0.63009821354E+03  0.59786208145E+03 0.  0.
        4    1    3    3  502    0  0.88596189094E+02  0.21374081024E+03 -0.99997420709E+02  0.25206252346E+03  0.12699999809E+01 0. -1.
       -4    1    3    3    0  502 -0.88596189094E+02 -0.21374081024E+03  0.29895643728E+03  0.37803569008E+03  0.12699999809E+01 0.  1.
</event>
<event>
 5   0  0.3703280E-02  0.5769691E+03  0.7818609E-02  0.9954375E-01
       -1   -1    0    0    0  501  0.00000000000E+00  0.00000000000E+00  0.46902171968E+03  0.46902171971E+03  0.50400001928E-02 0.  1.
        1   -1    0    0  501    0  0.00000000000E+00  0.00000000000E+00 -0.17744023048E+03  0.17744023055E+03  0.50400001928E-02 0. -1.
    10030    2    1    2    0    0  0.00000000000E+00  0.00000000000E+00  0.29158148920E+03  0.64646195026E+03  0.57696905315E+03 0.  0.
        5    1    3    3  502    0 -0.24080512795E+03 -0.25103188811E+02 -0.29886819564E+02  0.24399301572E+03  0.46999998093E+01 0. -1.
       -5    1    3    3    0  502  0.24080512795E+03  0.25103188811E+02  0.32146830876E+03  0.40246893454E+03  0.46999998093E+01 0.  1.
</event>
<event>
 5   0  0.5935451E-02  0.5975977E+03  0.7818609E-02  0.9910403E-01
       -2   -1    0    0    0  501  0.00000000000E+00  0.00000000000E+00  0.83708767015E+02  0.83708767054E+02  0.25500000920E-02 0. -1.
        2   -1    0    0  501    0  0.00000000000E+00  0.00000000000E+00 -0.10665641144E+04  0.10665641144E+04  0.25500000920E-02 0.  1.
    10030    2    1    2    0    0  0.00000000000E+00  0.00000000000E+00 -0.98285534737E+03  0.11502728814E+04  0.59759774759E+03 0.  0.
        3    1    3    3  502    0  0.51682343189E+02 -0.27615286107E+03 -0.29561211455E+03  0.40782103887E+03  0.10100000352E+00 0.  1.
       -3    1    3    3    0  502 -0.51682343189E+02  0.27615286107E+03 -0.68724323282E+03  0.74245184257E+03  0.10100000352E+00 0. -1.
</event>
<event>
 5   0  0.5935451E-02  0.5941025E+03  0.7818609E-02  0.9917718E-01
       -2   -1    0    0    0  501  0.00000000000E+00  0.00000000000E+00  0.93380117966E+02  0.93380118001E+02  0.25500000920E-02 0.  1.
        2   -1    0    0  501    0  0.00000000000E+00  0.00000000000E+00 -0.94494903591E+03  0.94494903591E+03  0.25500000920E-02 0. -1.
    10030    2    1    2    0    0  0.00000000000E+00  0.00000000000E+00 -0.85156891794E+03  0.10383291539E+04  0.59410252470E+03 0.  0.
        3    1    3    3  502    0  0.20377152149E+03 -0.17168819056E+03 -0.65526160545E+03  0.70736655952E+03  0.10100000352E+00 0. -1.
       -3    1    3    3    0  502 -0.20377152149E+03  0.17168819056E+03 -0.19630731249E+03  0.33096259439E+03  0.10100000352E+00 0.  1.
</event>
<event>
 5   0  0.3703280E-02  0.6013244E+03  0.7818609E-02  0.9902662E-01
        1   -1    0    0  501    0  0.00000000000E+00  0.00000000000E+00  0.32187965082E+03  0.32187965086E+03  0.50400001928E-02 0. -1.
       -1   -1    0    0    0  501  0.00000000000E+00  0.00000000000E+00 -0.28084334660E+03  0.28084334665E+03  0.50400001928E-02 0.  1.
    10030    2    1    2    0    0  0.00000000000E+00  0.00000000000E+00  0.41036304221E+02  0.60272299751E+03  0.60132439952E+03 0.  0.
        5    1    3    3  502    0  0.17309542531E+02  0.23118933073E+03 -0.17131021093E+03  0.28830089364E+03  0.46999998093E+01 0.  1.
       -5    1    3    3    0  502 -0.17309542531E+02 -0.23118933073E+03  0.21234651515E+03  0.31442210387E+03  0.46999998093E+01 0. -1.
</event>
<event>
 5   0  0.2388000E-02  0.5918523E+03  0.7818609E-02  0.9922456E-01
        3   -1    0    0  501    0  0.00000000000E+00  0.00000000000E+00  0.48148527210E+03  0.48148528270E+03  0.10100000352E+00 0.  1.
       -3   -1    0    0    0  501  0.00000000000E+00  0.00000000000E+00 -0.18187944864E+03  0.18187947668E+03  0.10100000352E+00 0. -1.
    10030    2    1    2    0    0  0.00000000000E+00  0.00000000000E+00  0.29960582347E+03  0.66336475938E+03  0.59185230804E+03 0.  0.
        3    1    3    3  502    0  0.13004786963E+03 -0.17586318419E+03  0.37321625254E+03  0.43258604845E+03  0.10100000352E+00 0.  1.
       -3    1    3    3    0  502 -0.13004786963E+03  0.17586318419E+03 -0.73610429078E+02  0.23077871093E+03  0.10100000352E+00 0. -1.
</event>
<event>
 5   0  0.2388000E-02  0.5993521E+03  0.7818609E-02  0.9906751E-01
       -3   -1    0    0    0  501  0.00000000000E+00  0.00000000000E+00  0.11233156875E+03  0.11233161415E+03  0.10100000352E+00 0. -1.
        3   -1    0    0  501    0  0.00000000000E+00  0.00000000000E+00 -0.79946984972E+03  0.79946985610E+03  0.10100000352E+00 0.  1.
    10030    2    1    2    0    0  0.00000000000E+00  0.00000000000E+00 -0.68713828097E+03  0.91180147025E+03  0.59935207014E+03 0.  0.
        1    1    3    3  502    0 -0.48397846679E+02 -0.19199161293E+03 -0.68578857772E+03  0.71379906441E+03  0.50400001928E-02 0.  1.
       -1    1    3    3    0  502  0.48397846679E+02  0.19199161293E+03 -0.13497032578E+01  0.19800240585E+03  0.50400001928E-02 0. -1.
</event>
<event>
 5   0  0.3703280E-02  0.6117155E+03  0.7818609E-02  0.9881394E-01
        1   -1    0    0  501    0  0.00000000000E+00  0.00000000000E+00  0.89438052464E+03  0.89438052466E+03  0.50400001928E-02 0. -1.
       -1   -1    0    0    0  501  0.00000000000E+00  0.00000000000E+00 -0.10459636344E+03  0.10459636356E+03  0.50400001928E-02 0.  1.
    10030    2    1    2    0    0  0.00000000000E+00  0.00000000000E+00  0.78978416120E+03  0.99897688822E+03  0.61171545829E+03 0.  0.
        5    1    3    3  502    0 -0.12088914787E+03  0.17925946051E+03  0.41684388177E+02  0.22024490567E+03  0.46999998093E+01 0.  1.
       -5    1    3    3    0  502  0.12088914787E+03 -0.17925946051E+03  0.74809977303E+03  0.77873198256E+03  0.46999998093E+01 0. -1.
</event>
<event>
 5   0  0.5935451E-02  0.6041211E+03  0.7818609E-02  0.9896893E-01
       -2   -1    0    0    0  501  0.00000000000E+00  0.00000000000E+00  0.47853687118E+02  0.47853687186E+02  0.25500000920E-02 0. -1.
        2   -1    0    0  501    0  0.00000000000E+00  0.00000000000E+00 -0.19066570365E+04  0.19066570365E+04  0.25500000920E-02 0.  1.
    10030    2    1    2    0    0  0.00000000000E+00  0.00000000000E+00 -0.18588033494E+04  0.19545107237E+04  0.60412107837E+03 0.  0.
        3    1    3    3  502    0  0.18811974228E+03  0.41794770736E+02 -0.16819452300E+04  0.16929487905E+04  0.10100000352E+00 0.  1.
       -3    1    3    3    0  502 -0.18811974228E+03 -0.41794770736E+02 -0.17685811931E+03  0.26156193313E+03  0.10100000352E+00 0. -1.
</event>
<event>
 5   0  0.3703280E-02  0.5983057E+03  0.7818609E-02  0.9908927E-01
       -1   -1    0    0    0  501  0.00000000000E+00  0.00000000000E+00  0.31661384734E+03  0.31661384738E+03  0.50400001928E-02 0.  1.
        1   -1    0    0  501    0  0.00000000000E+00  0.00000000000E+00 -0.28265480817E+03  0.28265480821E+03  0.50400001928E-02 0. -1.
    10030    2    1    2    0    0  0.00000000000E+00  0.00000000000E+00  0.33959039171E+02  0.59926865560E+03  0.59830569548E+03 0.  0.
        5    1    3    3  502    0 -0.78910763698E+02 -0.10862305195E+03 -0.25074164502E+03  0.28446324646E+03  0.46999998093E+01 0. -1.
       -5    1    3    3    0  502  0.78910763698E+02  0.10862305195E+03  0.28470068419E+03  0.31480540913E+03  0.46999998093E+01 0.  1.
</event>
<event>
 5   0  0.5755078E-02  0.6006496E+03  0.7818609E-02  0.9904059E-01
        2   -1    0    0  501    0  0.00000000000E+00  0.00000000000E+00  0.27704556320E+03  0.27704556321E+03  0.25500000920E-02 0.  1.
       -2   -1    0    0    0  501  0.00000000000E+00  0.00000000000E+00 -0.32556009835E+03  0.32556009836E+03  0.25500000920E-02 0. -1.
    10030    2    1    2    0    0  0.00000000000E+00  0.00000000000E+00 -0.48514535151E+02  0.60260566156E+03  0.60064958439E+03 0.  0.
        2    1    3    3  502    0 -0.20880804557E+03  0.13662525397E+03  0.14340285310E+03  0.28780486132E+03  0.25500000920E-02 0.  1.
       -2    1    3    3    0  502  0.20880804557E+03 -0.13662525397E+03 -0.19191738825E+03  0.31480080025E+03  0.25500000920E-02 0. -1.
</event>
<event>
 5   0  0.5872632E-02  0.6041796E+03  0.7818609E-02  0.9896773E-01
        2   -1    0    0  501    0  0.00000000000E+00  0.00000000000E+00  0.11067687370E+04  0.11067687370E+04  0.25500000920E-02 0.  1.
       -2   -1    0    0    0  501  0.00000000000E+00  0.00000000000E+00 -0.82454656226E+02  0.82454656266E+02  0.25500000920E-02 0. -1.
    10030    2    1    2    0    0  0.00000000000E+00  0.00000000000E+00  0.10243140807E+04  0.11892233932E+04  0.60417956190E+03 0.  0.
        1    1    3    3  502    0 -0.14174910560E+03  0.37522954730E+02  0.10320246104E+04  0.10423893598E+04  0.50400001928E-02 0.  1.
       -1    1    3    3    0  502  0.14174910560E+03 -0.37522954730E+02 -0.77105296289E+01  0.14683403340E+03  0.50400001928E-02 0. -1.
</event>
<event>
 5   0  0.3651984E-02  0.6005830E+03  0.7818609E-02  0.9904197E-01
        1   -1    0    0  501    0  0.00000000000E+00  0.00000000000E+00  0.18529588303E+03  0.18529588310E+03  0.50400001928E-02 0.  1.
       -1   -1    0    0    0  501  0.00000000000E+00  0.00000000000E+00 -0.48665403340E+03  0.48665403343E+03  0.50400001928E-02 0. -1.
    10030    2    1    2    0    0  0.00000000000E+00  0.00000000000E+00 -0.30135815037E+03  0.67194991652E+03  0.60058301302E+03 0.  0.
        1    1    3    3  502    0 -0.28235750523E+03 -0.52818664496E+02 -0.24859688951E+03  0.37988943862E+03  0.50400001928E-02 0. -1.
       -1    1    3    3    0  502  0.28235750523E+03  0.52818664496E+02 -0.52761260865E+02  0.29206047790E+03  0.50400001928E-02 0.  1.
</event>
<event>
 5   0  0.6007360E-02  0.5995699E+03  0.7818609E-02  0.9906299E-01
       -2   -1    0    0    0  501  0.00000000000E+00  0.00000000000E+00  0.11034584808E+03  0.11034584811E+03  0.25500000920E-02 0.  1.
        2   -1    0    0  501    0  0.00000000000E+00  0.00000000000E+00 -0.81444858850E+03  0.81444858851E+03  0.25500000920E-02 0. -1.
    10030    2    1    2    0    0  0.00000000000E+00  0.00000000000E+00 -0.70410274042E+03  0.92479443662E+03  0.59956991330E+03 0.  0.
        4    1    3    3  502    0 -0.92674818269E+02  0.28240034631E+03 -0.29170254367E+03  0.41644995428E+03  0.12699999809E+01 0.  1.
       -4    1    3    3    0  502  0.92674818269E+02 -0.28240034631E+03 -0.41240019675E+03  0.50834448233E+03  0.12699999809E+01 0. -1.
</event>
<event>
 5   0  0.6007360E-02  0.6047944E+03  0.7818609E-02  0.9895509E-01
        2   -1    0    0  501    0  0.00000000000E+00  0.00000000000E+00  0.96183417426E+03  0.96183417426E+03  0.25500000920E-02 0. -1.
       -2   -1    0    0    0  501  0.00000000000E+00  0.00000000000E+00 -0.95072602722E+02  0.95072602756E+02  0.25500000920E-02 0.  1.
    10030    2    1    2    0    0  0.00000000000E+00  0.00000000000E+00  0.86676157154E+03  0.10569067770E+04  0.60479443898E+03 0.  0.
        4    1    3    3  502    0  0.24428970851E+02 -0.72980839182E+01  0.95994787328E+03  0.96028723253E+03  0.12699999809E+01 0. -1.
       -4    1    3    3    0  502 -0.24428970851E+02  0.72980839182E+01 -0.93186301740E+02  0.96619544491E+02  0.12699999809E+01 0.  1.
</event>
<event>
 5   0  0.5935451E-02  0.6085451E+03  0.7818609E-02  0.9887835E-01
        2   -1    0    0  501    0  0.00000000000E+00  0.00000000000E+00  0.21806822848E+04  0.21806822848E+04  0.25500000920E-02 0. -1.
       -2   -1    0    0    0  501  0.00000000000E+00  0.00000000000E+00 -0.42455423708E+02  0.42455423784E+02  0.25500000920E-02 0.  1.
    10030    2    1    2    0    0  0.00000000000E+00  0.00000000000E+00  0.21382268611E+04  0.22231377086E+04  0.60854511899E+03 0.  0.
        3    1    3    3  502    0 -0.18048305601E+03 -0.23852206931E+03  0.12730022867E+04  0.13076703496E+04  0.10100000352E+00 0.  1.
       -3    1    3    3    0  502  0.18048305601E+03  0.23852206931E+03  0.86522457443E+03  0.91546735904E+03  0.10100000352E+00 0. -1.
</event>
<event>
 5   0  0.2388000E-02  0.6055264E+03  0.7818609E-02  0.9894006E-01
        3   -1    0    0  501    0  0.00000000000E+00  0.00000000000E+00  0.19687519154E+03  0.19687521744E+03  0.10100000352E+00 0. -1.
       -3   -1    0    0    0  501  0.00000000000E+00  0.00000000000E+00 -0.46560235039E+03  0.46560236135E+03  0.10100000352E+00 0.  1.
    10030    2    1    2    0    0  0.00000000000E+00  0.00000000000E+00 -0.26872715886E+03  0.66247757879E+03  0.60552642923E+03 0.  0.
        5    1    3    3  502    0 -0.15986183775E+03  0.16833285874E+03 -0.34693575994E+03  0.41746648970E+03  0.46999998093E+01 0.  1.
       -5    1    3    3    0  502  0.15986183775E+03 -0.16833285874E+03  0.78208601082E+02  0.24501108909E+03  0.46999998093E+01 0. -1.
</event>
<event>
 5   0  0.3478183E-02  0.6004316E+03  0.7818609E-02  0.9904511E-01
        1   -1    0    0  501    0  0.00000000000E+00  0.00000000000E+00  0.16541604803E+03  0.16541604810E+03  0.50400001928E-02 0.  1.
       -1   -1    0    0    0  501  0.00000000000E+00  0.00000000000E+00 -0.54486575403E+03  0.54486575405E+03  0.50400001928E-02 0. -1.
    10030    2    1    2    0    0  0.00000000000E+00  0.00000000000E+00 -0.37944970600E+03  0.71028180216E+03  0.60043164398E+03 0.  0.
        4    1    3    3  502    0 -0.40975895695E+02  0.25200162735E+03 -0.37655669003E+03  0.45495098409E+03  0.12699999809E+01 0. -1.
       -4    1    3    3    0  502  0.40975895695E+02 -0.25200162735E+03 -0.28930159752E+01  0.25533081807E+03  0.12699999809E+01 0.  1.
</event>
<event>
 5   0  0.3767635E-02  0.5956962E+03  0.7818609E-02  0.9914375E-01
        1   -1    0    0  501    0  0.00000000000E+00  0.00000000000E+00  0.15527508975E+04  0.15527508975E+04  0.50400001928E-02 0. -1.
       -1   -1    0    0    0  501  0.00000000000E+00  0.00000000000E+00 -0.57133118569E+02  0.57133118791E+02  0.50400001928E-02 0.  1.
    10030    2    1    2    0    0  0.00000000000E+00  0.00000000000E+00  0.14956177789E+04  0.16098840163E+04  0.59569623575E+03 0.  0.
        2    1    3    3  502    0 -0.13649426150E+03  0.26114368311E+03  0.63041863282E+03  0.69588386910E+03  0.25500000920E-02 0.  1.
       -2    1    3    3    0  502  0.13649426150E+03 -0.26114368311E+03  0.86519914610E+03  0.91400014720E+03  0.25500000920E-02 0. -1.
</event>
<event>
 5   0  0.5935451E-02  0.6022421E+03  0.7818609E-02  0.9900765E-01
        2   -1    0    0  501    0  0.00000000000E+00  0.00000000000E+00  0.16296803949E+03  0.16296803951E+03  0.25500000920E-02 0. -1.
       -2   -1    0    0    0  501  0.00000000000E+00  0.00000000000E+00 -0.55639064072E+03  0.55639064072E+03  0.25500000920E-02 0.  1.
    10030    2    1    2    0    0  0.00000000000E+00  0.00000000000E+00 -0.39342260123E+03  0.71935868023E+03  0.60224211715E+03 0.  0.
        3    1    3    3  502    0 -0.25398953934E+03  0.12310462809E+03 -0.32203620321E+03  0.42822045950E+03  0.10100000352E+00 0.  1.
       -3    1    3    3    0  502  0.25398953934E+03 -0.12310462809E+03 -0.71386398015E+02  0.29113822074E+03  0.10100000352E+00 0. -1.
</event>
<event>
 5   0  0.6007360E-02  0.6030347E+03  0.7818609E-02  0.9899130E-01
       -2   -1    0    0    0  501  0.00000000000E+00  0.00000000000E+00  0.23292212991E+03  0.23292212993E+03  0.25500000920E-02 0.  1.
        2   -1    0    0  501    0  0.00000000000E+00  0.00000000000E+00 -0.39031375080E+03  0.39031375081E+03  0.25500000920E-02 0. -1.
    10030    2    1    2    0    0  0.00000000000E+00  0.00000000000E+00 -0.15739162088E+03  0.62323588073E+03  0.60303469279E+03 0.  0.
        4    1    3    3  502    0 -0.11458820685E+03 -0.27099908514E+03 -0.14678243727E+03  0.32881249685E+03  0.12699999809E+01 0. -1.
       -4    1    3    3    0  502  0.11458820685E+03  0.27099908514E+03 -0.10609183614E+02  0.29442338388E+03  0.12699999809E+01 0.  1.
</event>
<event>
 5   0  0.6007360E-02  0.5977618E+03  0.7818609E-02  0.9910061E-01
       -2   -1    0    0    0  501  0.00000000000E+00  0.00000000000E+00  0.19128835675E+03  0.19128835677E+03  0.25500000920E-02 0. -1.
        2   -1    0    0  501    0  0.00000000000E+00  0.00000000000E+00 -0.46699019671E+03  0.46699019671E+03  0.25500000920E-02 0.  1.
    10030    2    1    2    0    0  0.00000000000E+00  0.00000000000E+00 -0.27570183995E+03  0.65827855348E+03  0.59776178317E+03 0.  0.
        4    1    3    3  502    0  0.22718915221E+03 -0.15498368614E+03 -0.89856320045E+01  0.27516760045E+03  0.12699999809E+01 0. -1.
       -4    1    3    3    0  502 -0.22718915221E+03  0.15498368614E+03 -0.26671620795E+03  0.38311095304E+03  0.12699999809E+01 0.  1.
</event>
<event>
 5   0  0.3640827E-02  0.5974492E+03  0.7818609E-02  0.9910712E-01
        1   -1    0    0  501    0  0.00000000000E+00  0.00000000000E+00  0.95594348164E+03  0.95594348165E+03  0.50400001928E-02 0. -1.
       -1   -1    0    0    0  501  0.00000000000E+00  0.00000000000E+00 -0.93349009590E+02  0.93349009726E+02  0.50400001928E-02 0.  1.
    10030    2    1    2    0    0  0.00000000000E+00  0.00000000000E+00  0.86259447205E+03  0.10492924914E+04  0.59744916876E+03 0.  0.
        3    1    3    3  502    0 -0.42653101287E+02  0.12110204900E+03 -0.42416745761E+02  0.13521902175E+03  0.10100000352E+00 0.  1.
       -3    1    3    3    0  502  0.42653101287E+02 -0.12110204900E+03  0.90501121781E+03  0.91407346963E+03  0.10100000352E+00 0. -1.
</event>
<event>
 5   0  0.3651984E-02  0.6009899E+03  0.7818609E-02  0.9903354E-01
       -1   -1    0    0    0  501  0.00000000000E+00  0.00000000000E+00  0.43620560722E+03  0.43620560725E+03  0.50400001928E-02 0.  1.
        1   -1    0    0  501    0  0.00000000000E+00  0.00000000000E+00 -0.20700608749E+03  0.20700608755E+03  0.50400001928E-02 0. -1.
    10030    2    1    2    0    0  0.00000000000E+00  0.00000000000E+00  0.22919951973E+03  0.64321169481E+03  0.60098990382E+03 0.  0.
        1    1    3    3  502    0 -0.46362381957E+02 -0.20965739871E+03 -0.11038662098E+03  0.24143508737E+03  0.50400001928E-02 0. -1.
       -1    1    3    3    0  502  0.46362381957E+02  0.20965739871E+03  0.33958614071E+03  0.40177660744E+03  0.50400001928E-02 0.  1.
</event>
<event>
 5   0  0.3767635E-02  0.6006632E+03  0.7818609E-02  0.9904031E-01
        1   -1    0    0  501    0  0.00000000000E+00  0.00000000000E+00  0.58657390773E+03  0.58657390775E+03  0.50400001928E-02 0.  1.
       -1   -1    0    0    0  501  0.00000000000E+00  0.00000000000E+00 -0.15377275173E+03  0.15377275181E+03  0.50400001928E-02 0. -1.
    10030    2    1    2    0    0  0.00000000000E+00  0.00000000000E+00  0.43280115600E+03  0.74034665956E+03  0.60066324649E+03 0.  0.
        2    1    3    3  502    0 -0.15179655729E+03 -0.22400122099E+03  0.55788840609E+02  0.27628090153E+03  0.25500000920E-02 0. -1.
       -2    1    3    3    0  502  0.15179655729E+03  0.22400122099E+03  0.37701231539E+03  0.46406575803E+03  0.25500000920E-02 0.  1.
</event>
<event>
 5   0  0.5872632E-02  0.5992127E+03  0.7818609E-02  0.9907041E-01
       -2   -1    0    0    0  501  0.00000000000E+00  0.00000000000E+00  0.66393412057E+02  0.66393412106E+02  0.25500000920E-02 0. -1.
        2   -1    0    0  501    0  0.00000000000E+00  0.00000000000E+00 -0.13520010791E+04  0.13520010791E+04  0.25500000920E-02 0.  1.
    10030    2    1    2    0    0  0.00000000000E+00  0.00000000000E+00 -0.12856076670E+04  0.14183944912E+04  0.59921269941E+03 0.  0.
        1    1    3    3  502    0  0.13902609894E+03  0.12482771733E+03 -0.88408984454E+02  0.20670356493E+03  0.50400001928E-02 0. -1.
       -1    1    3    3    0  502 -0.13902609894E+03 -0.12482771733E+03 -0.11971986826E+04  0.12116909263E+04  0.50400001928E-02 0.  1.
</event>
<event>
 5   0  0.6007360E-02  0.5755987E+03  0.7818609E-02  0.9957366E-01
        2   -1    0    0  501    0  0.00000000000E+00  0.00000000000E+00  0.24639568919E+03  0.24639568920E+03  0.25500000920E-02 0.  1.
       -2   -1    0    0    0  501  0.00000000000E+00  0.00000000000E+00 -0.33616034476E+03  0.33616034476E+03  0.25500000920E-02 0. -1.
    10030    2    1    2    0    0  0.00000000000E+00  0.00000000000E+00 -0.89764655566E+02  0.58255603397E+03  0.57559867905E+03 0.  0.
        4    1    3    3  502    0 -0.94888788917E+02 -0.20379809301E+03  0.13698188393E+03  0.26325499881E+03  0.12699999809E+01 0.  1.
       -4    1    3    3    0  502  0.94888788917E+02  0.20379809301E+03 -0.22674653950E+03  0.31930103515E+03  0.12699999809E+01 0. -1.
</event>
<event>
 5   0  0.3703280E-02  0.6022418E+03  0.7818609E-02  0.9900766E-01
       -1   -1    0    0    0  501  0.00000000000E+00  0.00000000000E+00  0.55534220328E+03  0.55534220330E+03  0.50400001928E-02 0.  1.
        1   -1    0    0  501    0  0.00000000000E+00  0.00000000000E+00 -0.16327553570E+03  0.16327553578E+03  0.50400001928E-02 0. -1.
    10030    2    1    2    0    0  0.00000000000E+00  0.00000000000E+00  0.39206666758E+03  0.71861773908E+03  0.60224179787E+03 0.  0.
        5    1    3    3  502    0  0.10942896349E+03  0.14776911308E+03 -0.88451441277E+02  0.20409839856E+03  0.46999998093E+01 0. -1.
       -5    1    3    3    0  502 -0.10942896349E+03 -0.14776911308E+03  0.48051810886E+03  0.51451934052E+03  0.46999998093E+01 0.  1.
</event>
<event>
 5   0  0.5872632E-02  0.6032182E+03  0.7818609E-02  0.9898752E-01
       -2   -1    0    0    0  501  0.00000000000E+00  0.00000000000E+00  0.67631300087E+02  0.67631300135E+02  0.25500000920E-02 0. -1.
        2   -1    0    0  501    0  0.00000000000E+00  0.00000000000E+00 -0.13450584588E+04  0.13450584588E+04  0.25500000920E-02 0.  1.
    10030    2    1    2    0    0  0.00000000000E+00  0.00000000000E+00 -0.12774271587E+04  0.14126897590E+04  0.60321821027E+03 0.  0.
        1    1    3    3  502    0  0.17093840942E+03  0.10115203312E+03 -0.11702646735E+04  0.11870008760E+04  0.50400001928E-02 0.  1.
       -1    1    3    3    0  502 -0.17093840942E+03 -0.10115203312E+03 -0.10716248527E+03  0.22568888297E+03  0.50400001928E-02 0. -1.
</event>
<event>
 5   0  0.3651984E-02  0.5985892E+03  0.7818609E-02  0.9908337E-01
       -1   -1    0    0    0  501  0.00000000000E+00  0.00000000000E+00  0.12967122402E+03  0.12967122412E+03  0.50400001928E-02 0. -1.
        1   -1    0    0  501    0  0.00000000000E+00  0.00000000000E+00 -0.69080293036E+03  0.69080293038E+03  0.50400001928E-02 0.  1.
    10030    2    1    2    0    0  0.00000000000E+00  0.00000000000E+00 -0.56113170634E+03  0.82047415449E+03  0.59858921334E+03 0.  0.
        1    1    3    3  502    0 -0.11229056576E+03  0.27511183853E+03 -0.23149691890E+03  0.37667826901E+03  0.50400001928E-02 0. -1.
       -1    1    3    3    0  502  0.11229056576E+03 -0.27511183853E+03 -0.32963478744E+03  0.44379588548E+03  0.50400001928E-02 0.  1.
</event>
<event>
 5   0  0.3703280E-02  0.6003139E+03  0.7818609E-02  0.9904755E-01
       -1   -1    0    0    0  501  0.00000000000E+00  0.00000000000E+00  0.11022486945E+03  0.11022486957E+03  0.50400001928E-02 0.  1.
        1   -1    0    0  501    0  0.00000000000E+00  0.00000000000E+00 -0.81736731559E+03  0.81736731561E+03  0.50400001928E-02 0. -1.
    10030    2    1    2    0    0  0.00000000000E+00  0.00000000000E+00 -0.70714244614E+03  0.92759218517E+03  0.60031393692E+03 0.  0.
        5    1    3    3  502    0  0.25450810624E+03 -0.60386415351E+02 -0.12620819446E+03  0.29046771533E+03  0.46999998093E+01 0.  1.
       -5    1    3    3    0  502 -0.25450810624E+03  0.60386415351E+02 -0.58093425169E+03  0.63712446985E+03  0.46999998093E+01 0. -1.
</event>
<event>
 5   0  0.3703280E-02  0.5992868E+03  0.7818609E-02  0.9906887E-01
        1   -1    0    0  501    0  0.00000000000E+00  0.00000000000E+00  0.47187592401E+03  0.47187592403E+03  0.50400001928E-02 0. -1.
       -1   -1    0    0    0  501  0.00000000000E+00  0.00000000000E+00 -0.19027492695E+03  0.19027492702E+03  0.50400001928E-02 0.  1.
    10030    2    1    2    0    0  0.00000000000E+00  0.00000000000E+00  0.28160099706E+03  0.66215085105E+03  0.59928676609E+03 0.  0.
        5    1    3    3  502    0 -0.25047144687E+03 -0.94768379576E+02 -0.76308633864E+01  0.26795020347E+03  0.46999998093E+01 0.  1.
       -5    1    3    3    0  502  0.25047144687E+03  0.94768379576E+02  0.28923186044E+03  0.39420064759E+03  0.46999998093E+01 0. -1.
</event>
<event>
 5   0  0.5999117E-02  0.6029256E+03  0.7818609E-02  0.9899355E-01
        2   -1    0    0  501    0  0.00000000000E+00  0.00000000000E+00  0.40936378907E+03  0.40936378908E+03  0.25500000920E-02 0.  1.
       -2   -1    0    0    0  501  0.00000000000E+00  0.00000000000E+00 -0.22200259990E+03  0.22200259991E+03  0.25500000920E-02 0. -1.
    10030    2    1    2    0    0  0.00000000000E+00  0.00000000000E+00  0.18736118917E+03  0.63136638899E+03  0.60292561891E+03 0.  0.
        5    1    3    3  502    0  0.24962376932E+03  0.15877464350E+03  0.15416615250E+03  0.33363259163E+03  0.46999998093E+01 0. -1.
       -5    1    3    3    0  502 -0.24962376932E+03 -0.15877464350E+03  0.33195036676E+02  0.29773379735E+03  0.46999998093E+01 0.  1.
</event>
<event>
 5   0  0.5999117E-02  0.6003438E+03  0.7818609E-02  0.9904693E-01
        2   -1    0    0  501    0  0.00000000000E+00  0.00000000000E+00  0.52306478007E+03  0.52306478008E+03  0.25500000920E-02 0.  1.
       -2   -1    0    0    0  501  0.00000000000E+00  0.00000000000E+00 -0.17226007063E+03  0.17226007065E+03  0.25500000920E-02 0. -1.
    10030    2    1    2    0    0  0.00000000000E+00  0.00000000000E+00  0.35080470944E+03  0.69532485073E+03  0.60034382139E+03 0.  0.
        5    1    3    3  502    0 -0.14711296243E+03 -0.10148842632E+03 -0.10386575228E+03  0.20676631468E+03  0.46999998093E+01 0. -1.
       -5    1    3    3    0  502  0.14711296243E+03  0.10148842632E+03  0.45467046172E+03  0.48855853605E+03  0.46999998093E+01 0.  1.
</event>
<event>
 5   0  0.5755078E-02  0.6016390E+03  0.7818609E-02  0.9902011E-01
        2   -1    0    0  501    0  0.00000000000E+00  0.00000000000E+00  0.63535890093E+03  0.63535890093E+03  0.25500000920E-02 0.  1.
       -2   -1    0    0    0  501  0.00000000000E+00  0.00000000000E+00 -0.14242718822E+03  0.14242718825E+03  0.25500000920E-02 0. -1.
    10030    2    1    2    0    0  0.00000000000E+00  0.00000000000E+00  0.49293171270E+03  0.77778608918E+03  0.60163903392E+03 0.  0.
        2    1    3    3  502    0 -0.26472424274E+03 -0.12013452643E+03  0.34644665677E+03  0.45225713386E+03  0.25500000920E-02 0.  1.
       -2    1    3    3    0  502  0.26472424274E+03  0.12013452643E+03  0.14648505594E+03  0.32552895532E+03  0.25500000920E-02 0. -1.
</event>
<event>
 5   0  0.3651984E-02  0.6035907E+03  0.7818609E-02  0.9897984E-01
        1   -1    0    0  501    0  0.00000000000E+00  0.00000000000E+00  0.47019348140E+03  0.47019348143E+03  0.50400001928E-02 0. -1.
       -1   -1    0    0    0  501  0.00000000000E+00  0.00000000000E+00 -0.19370840164E+03  0.19370840171E+03  0.50400001928E-02 0.  1.
    10030    2    1    2    0    0  0.00000000000E+00  0.00000000000E+00  0.27648507976E+03  0.66390188314E+03  0.60359068176E+03 0.  0.
        1    1    3    3  502    0  0.75767104185E+02  0.14842390626E+03  0.41499910672E+03  0.44720752300E+03  0.50400001928E-02 0. -1.
       -1    1    3    3    0  502 -0.75767104185E+02 -0.14842390626E+03 -0.13851402696E+03  0.21669436014E+03  0.50400001928E-02 0.  1.
</event>
<event>
 5   0  0.5999117E-02  0.6004065E+03  0.7818609E-02  0.9904563E-01
        2   -1    0    0  501    0  0.00000000000E+00  0.00000000000E+00  0.27249832841E+03  0.27249832842E+03  0.25500000920E-02 0. -1.
       -2   -1    0    0    0  501  0.00000000000E+00  0.00000000000E+00 -0.33072491199E+03  0.33072491200E+03  0.25500000920E-02 0.  1.
    10030    2    1    2    0    0  0.00000000000E+00  0.00000000000E+00 -0.58226583580E+02  0.60322324042E+03  0.60040648126E+03 0.  0.
        5    1    3    3  502    0 -0.23410512928E+03  0.15409589566E+03 -0.13708438511E+03  0.31203361238E+03  0.46999998093E+01 0.  1.
       -5    1    3    3    0  502  0.23410512928E+03 -0.15409589566E+03  0.78857801532E+02  0.29118962804E+03  0.46999998093E+01 0. -1.
</event>
<event>
 5   0  0.3640827E-02  0.5880585E+03  0.7818609E-02  0.9930495E-01
        1   -1    0    0  501    0  0.00000000000E+00  0.00000000000E+00  0.18429258861E+03  0.18429258868E+03  0.50400001928E-02 0. -1.
       -1   -1    0    0    0  501  0.00000000000E+00  0.00000000000E+00 -0.46910842088E+03  0.46910842091E+03  0.50400001928E-02 0.  1.
    10030    2    1    2    0    0  0.00000000000E+00  0.00000000000E+00 -0.28481583227E+03  0.65340100959E+03  0.58805851836E+03 0.  0.
        3    1    3    3  502    0  0.27617799573E+03 -0.95955082204E+01 -0.25400086002E+03  0.37534358419E+03  0.10100000352E+00 0.  1.
       -3    1    3    3    0  502 -0.27617799573E+03  0.95955082204E+01 -0.30814972252E+02  0.27805742540E+03  0.10100000352E+00 0. -1.
</event>
<event>
 5   0  0.5935451E-02  0.6048640E+03  0.7818609E-02  0.9895366E-01
       -2   -1    0    0    0  501  0.00000000000E+00  0.00000000000E+00  0.12745933345E+03  0.12745933347E+03  0.25500000920E-02 0. -1.
        2   -1    0    0  501    0  0.00000000000E+00  0.00000000000E+00 -0.71760226031E+03  0.71760226032E+03  0.25500000920E-02 0.  1.
    10030    2    1    2    0    0  0.00000000000E+00  0.00000000000E+00 -0.59014292686E+03  0.84506159379E+03  0.60486397080E+03 0.  0.
        3    1    3    3  502    0  0.20754473969E+02  0.16504293223E+03 -0.64794945644E+03  0.66896070585E+03  0.10100000352E+00 0.  1.
       -3    1    3    3    0  502 -0.20754473969E+02 -0.16504293223E+03  0.57806529578E+02  0.17610088794E+03  0.10100000352E+00 0. -1.
</event>
<event>
 5   0  0.5999117E-02  0.5788083E+03  0.7818609E-02  0.9950374E-01
        2   -1    0    0  501    0  0.00000000000E+00  0.00000000000E+00  0.21052763289E+04  0.21052763289E+04  0.25500000920E-02 0. -1.
       -2   -1    0    0    0  501  0.00000000000E+00  0.00000000000E+00 -0.39783269198E+02  0.39783269280E+02  0.25500000920E-02 0.  1.
    10030    2    1    2    0    0  0.00000000000E+00  0.00000000000E+00  0.20654930597E+04  0.21450595982E+04  0.57880834486E+03 0.  0.
        5    1    3    3  502    0  0.13680051298E+03  0.19896233078E+03  0.16237599746E+04  0.16416208255E+04  0.46999998093E+01 0.  1.
       -5    1    3    3    0  502 -0.13680051298E+03 -0.19896233078E+03  0.44173308509E+03  0.50343877273E+03  0.46999998093E+01 0. -1.
</event>
<event>
 5   0  0.3478183E-02  0.5443003E+03  0.7818609E-02  0.1002822E+00
        1   -1    0    0  501    0  0.00000000000E+00  0.00000000000E+00  0.15565496326E+04  0.15565496326E+04  0.50400001928E-02 0. -1.
       -1   -1    0    0    0  501  0.00000000000E+00  0.00000000000E+00 -0.47583264062E+02  0.47583264329E+02  0.50400001928E-02 0.  1.
    10030    2    1    2    0    0  0.00000000000E+00  0.00000000000E+00  0.15089663685E+04  0.16041328969E+04  0.54430033038E+03 0.  0.
        4    1    3    3  502    0 -0.19078822598E+03  0.17546627989E+02  0.13240993774E+04  0.13378896836E+04  0.12699999809E+01 0. -1.
       -4    1    3    3    0  502  0.19078822598E+03 -0.17546627989E+02  0.18486699105E+03  0.26624321326E+03  0.12699999809E+01 0.  1.
</event>
<event>
 5   0  0.5935451E-02  0.6125296E+03  0.7818609E-02  0.9879747E-01
        2   -1    0    0  501    0  0.00000000000E+00  0.00000000000E+00  0.26870798715E+03  0.26870798717E+03  0.25500000920E-02 0.  1.
       -2   -1    0    0    0  501  0.00000000000E+00  0.00000000000E+00 -0.34907081604E+03  0.34907081605E+03  0.25500000920E-02 0. -1.
    10030    2    1    2    0    0  0.00000000000E+00  0.00000000000E+00 -0.80362828886E+02  0.61777880322E+03  0.61252956291E+03 0.  0.
        3    1    3    3  502    0  0.89106521392E+02 -0.19623351546E+03  0.17928517942E+03  0.28034041897E+03  0.10100000352E+00 0.  1.
       -3    1    3    3    0  502 -0.89106521392E+02  0.19623351546E+03 -0.25964800831E+03  0.33743838425E+03  0.10100000352E+00 0. -1.
</event>
<event>
 5   0  0.5755078E-02  0.5786624E+03  0.7818609E-02  0.9950691E-01
       -2   -1    0    0    0  501  0.00000000000E+00  0.00000000000E+00  0.69926689638E+02  0.69926689685E+02  0.25500000920E-02 0.  1.
        2   -1    0    0  501    0  0.00000000000E+00  0.00000000000E+00 -0.11971471233E+04  0.11971471233E+04  0.25500000920E-02 0. -1.
    10030    2    1    2    0    0  0.00000000000E+00  0.00000000000E+00 -0.11272204337E+04  0.12670738130E+04  0.57866237262E+03 0.  0.
        2    1    3    3  502    0  0.12582875281E+03  0.30310442920E+02  0.30039571140E+01  0.12946281994E+03  0.25500000920E-02 0.  1.
       -2    1    3    3    0  502 -0.12582875281E+03 -0.30310442920E+02 -0.11302243908E+04  0.11376109930E+04  0.25500000920E-02 0. -1.
</event>
<event>
 5   0  0.6007360E-02  0.6039748E+03  0.7818609E-02  0.9897194E-01
       -2   -1    0    0    0  501  0.00000000000E+00  0.00000000000E+00  0.85329895399E+02  0.85329895437E+02  0.25500000920E-02 0. -1.
        2   -1    0    0  501    0  0.00000000000E+00  0.00000000000E+00 -0.10687506998E+04  0.10687506998E+04  0.25500000920E-02 0.  1.
    10030    2    1    2    0    0  0.00000000000E+00  0.00000000000E+00 -0.98342080443E+03  0.11540805953E+04  0.60397478573E+03 0.  0.
        4    1    3    3  502    0  0.88552177958E+02  0.27526857865E+03 -0.65807697985E+03  0.71880539989E+03  0.12699999809E+01 0.  1.
       -4    1    3    3    0  502 -0.88552177958E+02 -0.27526857865E+03 -0.32534382458E+03  0.43527519537E+03  0.12699999809E+01 0. -1.
</event>
<event>
 5   0  0.5935451E-02  0.6022122E+03  0.7818609E-02  0.9900827E-01
        2   -1    0    0  501    0  0.00000000000E+00  0.00000000000E+00  0.69229462769E+03  0.69229462770E+03  0.25500000920E-02 0.  1.
       -2   -1    0    0    0  501  0.00000000000E+00  0.00000000000E+00 -0.13096284421E+03  0.13096284423E+03  0.25500000920E-02 0. -1.
    10030    2    1    2    0    0  0.00000000000E+00  0.00000000000E+00  0.56133178349E+03  0.82325747193E+03  0.60221216688E+03 0.  0.
        3    1    3    3  502    0 -0.12661772958E+02 -0.27730461700E+03  0.12120197188E+03  0.30289948711E+03  0.10100000352E+00 0. -1.
       -3    1    3    3    0  502  0.12661772958E+02  0.27730461700E+03  0.44012981160E+03  0.52035798482E+03  0.10100000352E+00 0.  1.
</event>
<event>
 5   0  0.5872632E-02  0.6002481E+03  0.7818609E-02  0.9904891E-01
        2   -1    0    0  501    0  0.00000000000E+00  0.00000000000E+00  0.18258116510E+04  0.18258116510E+04  0.25500000920E-02 0. -1.
       -2   -1    0    0    0  501  0.00000000000E+00  0.00000000000E+00 -0.49333923300E+02  0.49333923366E+02  0.25500000920E-02 0.  1.
    10030    2    1    2    0    0  0.00000000000E+00  0.00000000000E+00  0.17764777277E+04  0.18751455743E+04  0.60024812207E+03 0.  0.
        1    1    3    3  502    0 -0.81532437791E+02 -0.66749688270E+02  0.10350934348E+02  0.10587823744E+03  0.50400001928E-02 0.  1.
       -1    1    3    3    0  502  0.81532437791E+02  0.66749688270E+02  0.17661267933E+04  0.17692673369E+04  0.50400001928E-02 0. -1.
</event>
<event>
 5   0  0.5872632E-02  0.5984822E+03  0.7818609E-02  0.9908560E-01
        2   -1    0    0  501    0  0.00000000000E+00  0.00000000000E+00  0.50027372779E+03  0.50027372780E+03  0.25500000920E-02 0.  1.
       -2   -1    0    0    0  501  0.00000000000E+00  0.00000000000E+00 -0.17899248233E+03  0.17899248235E+03  0.25500000920E-02 0. -1.
    10030    2    1    2    0    0  0.00000000000E+00  0.00000000000E+00  0.32128124547E+03  0.67926621015E+03  0.59848220154E+03 0.  0.
        1    1    3    3  502    0 -0.23579384246E+02 -0.75997841858E+02 -0.16676479947E+03  0.18477596623E+03  0.50400001928E-02 0. -1.
       -1    1    3    3    0  502  0.23579384246E+02  0.75997841858E+02  0.48804604493E+03  0.49449024392E+03  0.50400001928E-02 0.  1.
</event>
<event>
 5   0  0.3651984E-02  0.6036378E+03  0.7818609E-02  0.9897887E-01
        1   -1    0    0  501    0  0.00000000000E+00  0.00000000000E+00  0.10759772651E+04  0.10759772651E+04  0.50400001928E-02 0. -1.
       -1   -1    0    0    0  501  0.00000000000E+00  0.00000000000E+00 -0.84662241731E+02  0.84662241881E+02  0.50400001928E-02 0.  1.
    10030    2    1    2    0    0  0.00000000000E+00  0.00000000000E+00  0.99131502338E+03  0.11606395070E+04  0.60363779673E+03 0.  0.
        1    1    3    3  502    0 -0.79158521484E+02 -0.50881719780E+01  0.10555771876E+04  0.10585533336E+04  0.50400001928E-02 0. -1.
       -1    1    3    3    0  502  0.79158521484E+02  0.50881719780E+01 -0.64262164256E+02  0.10208617339E+03  0.50400001928E-02 0.  1.
</event>
<event>
 5   0  0.3767635E-02  0.5876831E+03  0.7818609E-02  0.9931294E-01
        1   -1    0    0  501    0  0.00000000000E+00  0.00000000000E+00  0.14932451126E+03  0.14932451134E+03  0.50400001928E-02 0.  1.
       -1   -1    0    0    0  501  0.00000000000E+00  0.00000000000E+00 -0.57822298705E+03  0.57822298707E+03  0.50400001928E-02 0. -1.
    10030    2    1    2    0    0  0.00000000000E+00  0.00000000000E+00 -0.42889847579E+03  0.72754749842E+03  0.58768312883E+03 0.  0.
        2    1    3    3  502    0  0.12225914824E+03  0.15077503858E+03  0.58646629930E+02  0.20278027221E+03  0.25500000920E-02 0.  1.
       -2    1    3    3    0  502 -0.12225914824E+03 -0.15077503858E+03 -0.48754510572E+03  0.52476722621E+03  0.25500000920E-02 0. -1.
</event>
<event>
 5   0  0.5872632E-02  0.6006541E+03  0.7818609E-02  0.9904050E-01
        2   -1    0    0  501    0  0.00000000000E+00  0.00000000000E+00  0.14038899910E+03  0.14038899913E+03  0.25500000920E-02 0. -1.
       -2   -1    0    0    0  501  0.00000000000E+00  0.00000000000E+00 -0.64247433550E+03  0.64247433551E+03  0.25500000920E-02 0.  1.
    10030    2    1    2    0    0  0.00000000000E+00  0.00000000000E+00 -0.50208533640E+03  0.78286333463E+03  0.60065407323E+03 0.  0.
        1    1    3    3  502    0 -0.16322183504E+03  0.24640684418E+03 -0.32048364389E+03  0.43596727666E+03  0.50400001928E-02 0.  1.
       -1    1    3    3    0  502  0.16322183504E+03 -0.24640684418E+03 -0.18160169250E+03  0.34689605797E+03  0.50400001928E-02 0. -1.
</event>
<event>
 5   0  0.3640827E-02  0.5946003E+03  0.7818609E-02  0.9916672E-01
       -1   -1    0    0    0  501  0.00000000000E+00  0.00000000000E+00  0.14224861965E+03  0.14224861974E+03  0.50400001928E-02 0. -1.
        1   -1    0    0  501    0  0.00000000000E+00  0.00000000000E+00 -0.62135843029E+03  0.62135843031E+03  0.50400001928E-02 0.  1.
    10030    2    1    2    0    0  0.00000000000E+00  0.00000000000E+00 -0.47910981064E+03  0.76360705005E+03  0.59460029956E+03 0.  0.
        3    1    3    3  502    0  0.16963474851E+02  0.80982480909E+02 -0.60627441321E+03  0.61189426865E+03  0.10100000352E+00 0.  1.
       -3    1    3    3    0  502 -0.16963474851E+02 -0.80982480909E+02  0.12716460257E+03  0.15171278140E+03  0.10100000352E+00 0. -1.
</event>
<event>
 5   0  0.5999117E-02  0.6017212E+03  0.7818609E-02  0.9901841E-01
       -2   -1    0    0    0  501  0.00000000000E+00  0.00000000000E+00  0.96668723244E+02  0.96668723278E+02  0.25500000920E-02 0.  1.
        2   -1    0    0  501    0  0.00000000000E+00  0.00000000000E+00 -0.93636402361E+03  0.93636402361E+03  0.25500000920E-02 0. -1.
    10030    2    1    2    0    0  0.00000000000E+00  0.00000000000E+00 -0.83969530037E+03  0.10330327469E+04  0.60172124667E+03 0.  0.
        5    1    3    3  502    0  0.15895076803E+03 -0.22903604682E+03 -0.61386967877E+03  0.67422617119E+03  0.46999998093E+01 0. -1.
       -5    1    3    3    0  502 -0.15895076803E+03  0.22903604682E+03 -0.22582562159E+03  0.35880657570E+03  0.46999998093E+01 0.  1.
</event>
<event>
 5   0  0.3640827E-02  0.6049563E+03  0.7818609E-02  0.9895176E-01
       -1   -1    0    0    0  501  0.00000000000E+00  0.00000000000E+00  0.12861261647E+03  0.12861261657E+03  0.50400001928E-02 0.  1.
        1   -1    0    0  501    0  0.00000000000E+00  0.00000000000E+00 -0.71138456933E+03  0.71138456935E+03  0.50400001928E-02 0. -1.
    10030    2    1    2    0    0  0.00000000000E+00  0.00000000000E+00 -0.58277195286E+03  0.83999718592E+03  0.60495629869E+03 0.  0.
        3    1    3    3  502    0  0.31187742249E+02  0.19459495093E+03  0.27228870341E+02  0.19895047569E+03  0.10100000352E+00 0.  1.
       -3    1    3    3    0  502 -0.31187742249E+02 -0.19459495093E+03 -0.61000082320E+03  0.64104671023E+03  0.10100000352E+00 0. -1.
</event>
<event>
 5   0  0.5755078E-02  0.5923106E+03  0.7818609E-02  0.9921489E-01
       -2   -1    0    0    0  501  0.00000000000E+00  0.00000000000E+00  0.12458014134E+03  0.12458014137E+03  0.25500000920E-02 0. -1.
        2   -1    0    0  501    0  0.00000000000E+00  0.00000000000E+00 -0.70402846289E+03  0.70402846289E+03  0.25500000920E-02 0.  1.
    10030    2    1    2    0    0  0.00000000000E+00  0.00000000000E+00 -0.57944832155E+03  0.82860860426E+03  0.59231061252E+03 0.  0.
        2    1    3    3  502    0 -0.19770577369E+03 -0.88780781608E+02 -0.57208321833E+03  0.61175878321E+03  0.25500000920E-02 0.  1.
       -2    1    3    3    0  502  0.19770577369E+03  0.88780781608E+02 -0.73651032125E+01  0.21684982104E+03  0.25500000920E-02 0. -1.
</event>
<event>
 5   0  0.3478183E-02  0.5667006E+03  0.7818609E-02  0.9977007E-01
       -1   -1    0    0    0  501  0.00000000000E+00  0.00000000000E+00  0.63544229584E+03  0.63544229586E+03  0.50400001928E-02 0. -1.
        1   -1    0    0  501    0  0.00000000000E+00  0.00000000000E+00 -0.12634881072E+03  0.12634881082E+03  0.50400001928E-02 0.  1.
    10030    2    1    2    0    0  0.00000000000E+00  0.00000000000E+00  0.50909348512E+03  0.76179110669E+03  0.56670055023E+03 0.  0.
        4    1    3    3  502    0 -0.11800672663E+03  0.24288922392E+02 -0.90197428487E+02  0.15050823329E+03  0.12699999809E+01 0.  1.
       -4    1    3    3    0  502  0.11800672663E+03 -0.24288922392E+02  0.59929091361E+03  0.61128287340E+03  0.12699999809E+01 0. -1.
</event>
<event>
 5   0  0.3703280E-02  0.5935761E+03  0.7818609E-02  0.9918824E-01
        1   -1    0    0  501    0  0.00000000000E+00  0.00000000000E+00  0.85676144323E+03  0.85676144324E+03  0.50400001928E-02 0. -1.
       -1   -1    0    0    0  501  0.00000000000E+00  0.00000000000E+00 -0.10280942454E+03  0.10280942466E+03  0.50400001928E-02 0.  1.
    10030    2    1    2    0    0  0.00000000000E+00  0.00000000000E+00  0.75395201869E+03  0.95957086790E+03  0.59357611478E+03 0.  0.
        5    1    3    3  502    0  0.90810007792E+02  0.10000270927E+03 -0.50165807161E+02  0.14417245778E+03  0.46999998093E+01 0.  1.
       -5    1    3    3    0  502 -0.90810007792E+02 -0.10000270927E+03  0.80411782585E+03  0.81539841012E+03  0.46999998093E+01 0. -1.
</event>
<event>
 5   0  0.3651984E-02  0.6020542E+03  0.7818609E-02  0.9901153E-01
       -1   -1    0    0    0  501  0.00000000000E+00  0.00000000000E+00  0.30894275002E+03  0.30894275006E+03  0.50400001928E-02 0.  1.
        1   -1    0    0  501    0  0.00000000000E+00  0.00000000000E+00 -0.29331430872E+03  0.29331430876E+03  0.50400001928E-02 0. -1.
    10030    2    1    2    0    0  0.00000000000E+00  0.00000000000E+00  0.15628441298E+02  0.60225705882E+03  0.60205424732E+03 0.  0.
        1    1    3    3  502    0 -0.18966039029E+03  0.23366178233E+03  0.14776233901E+02  0.30130919216E+03  0.50400001928E-02 0.  1.
       -1    1    3    3    0  502  0.18966039029E+03 -0.23366178233E+03  0.85220739728E+00  0.30094786666E+03  0.50400001928E-02 0. -1.
</event>
<event>
 5   0  0.3767635E-02  0.5916165E+03  0.7818609E-02  0.9922953E-01
        1   -1    0    0  501    0  0.00000000000E+00  0.00000000000E+00  0.25674231934E+04  0.25674231934E+04  0.50400001928E-02 0. -1.
       -1   -1    0    0    0  501  0.00000000000E+00  0.00000000000E+00 -0.34081849563E+02  0.34081849936E+02  0.50400001928E-02 0.  1.
    10030    2    1    2    0    0  0.00000000000E+00  0.00000000000E+00  0.25333413438E+04  0.26015050433E+04  0.59161653639E+03 0.  0.
        2    1    3    3  502    0 -0.51924882885E+02 -0.68788902452E+02  0.22352963211E+02  0.89037978043E+02  0.25500000920E-02 0.  1.
       -2    1    3    3    0  502  0.51924882885E+02  0.68788902452E+02  0.25109883806E+04  0.25124670653E+04  0.25500000920E-02 0. -1.
</event>
<event>
 5   0  0.5935451E-02  0.5931263E+03  0.7818609E-02  0.9919770E-01
        2   -1    0    0  501    0  0.00000000000E+00  0.00000000000E+00  0.12070815508E+04  0.12070815508E+04  0.25500000920E-02 0.  1.
       -2   -1    0    0    0  501  0.00000000000E+00  0.00000000000E+00 -0.72861449289E+02  0.72861449334E+02  0.25500000920E-02 0. -1.
    10030    2    1    2    0    0  0.00000000000E+00  0.00000000000E+00  0.11342201015E+04  0.12799430001E+04  0.59312633133E+03 0.  0.
        3    1    3    3  502    0 -0.20510700525E+02 -0.28046658156E+03  0.36390044203E+03  0.45989752567E+03  0.10100000352E+00 0. -1.
       -3    1    3    3    0  502  0.20510700525E+02  0.28046658156E+03  0.77031965945E+03  0.82004547443E+03  0.10100000352E+00 0.  1.
</event>
<event>
 5   0  0.5872632E-02  0.5956385E+03  0.7818609E-02  0.9914496E-01
       -2   -1    0    0    0  501  0.00000000000E+00  0.00000000000E+00  0.56213449338E+02  0.56213449396E+02  0.25500000920E-02 0. -1.
        2   -1    0    0  501    0  0.00000000000E+00  0.00000000000E+00 -0.15778486099E+04  0.15778486099E+04  0.25500000920E-02 0.  1.
    10030    2    1    2    0    0  0.00000000000E+00  0.00000000000E+00 -0.15216351605E+04  0.16340620593E+04  0.59563852442E+03 0.  0.
        1    1    3    3  502    0 -0.10548737443E+03  0.98795013405E+02 -0.14751939922E+04  0.14822568454E+04  0.50400001928E-02 0.  1.
       -1    1    3    3    0  502  0.10548737443E+03 -0.98795013405E+02 -0.46441168312E+02  0.15180521393E+03  0.50400001928E-02 0. -1.
</event>
<event>
 5   0  0.2388000E-02  0.5875356E+03  0.7818609E-02  0.9931609E-01
        4   -1    0    0  501    0  0.00000000000E+00  0.00000000000E+00  0.52320557105E+03  0.52320711241E+03  0.12699999809E+01 0. -1.
       -4   -1    0    0    0  501  0.00000000000E+00  0.00000000000E+00 -0.16493958225E+03  0.16494447154E+03  0.12699999809E+01 0.  1.
    10030    2    1    2    0    0  0.00000000000E+00  0.00000000000E+00  0.35826598881E+03  0.68815158395E+03  0.58753560212E+03 0.  0.
        5    1    3    3  502    0 -0.84845714259E+02  0.26987000939E+03  0.27171971799E+03  0.39227836079E+03  0.46999998093E+01 0.  1.
       -5    1    3    3    0  502  0.84845714259E+02 -0.26987000939E+03  0.86546270813E+02  0.29587322317E+03  0.46999998093E+01 0. -1.
</event>
<event>
 5   0  0.3767635E-02  0.5916421E+03  0.7818609E-02  0.9922899E-01
        1   -1    0    0  501    0  0.00000000000E+00  0.00000000000E+00  0.12532245463E+04  0.12532245463E+04  0.50400001928E-02 0. -1.
       -1   -1    0    0    0  501  0.00000000000E+00  0.00000000000E+00 -0.69827955483E+02  0.69827955665E+02  0.50400001928E-02 0.  1.
    10030    2    1    2    0    0  0.00000000000E+00  0.00000000000E+00  0.11833965908E+04  0.13230525020E+04  0.59164214846E+03 0.  0.
        2    1    3    3  502    0 -0.11665386547E+03 -0.33066268238E+01 -0.16176157140E+02  0.11781649365E+03  0.25500000920E-02 0.  1.
       -2    1    3    3    0  502  0.11665386547E+03  0.33066268238E+01  0.11995727480E+04  0.12052360084E+04  0.25500000920E-02 0. -1.
</event>
<event>
 5   0  0.3640827E-02  0.6016495E+03  0.7818609E-02  0.9901990E-01
        1   -1    0    0  501    0  0.00000000000E+00  0.00000000000E+00  0.24487823668E+04  0.24487823668E+04  0.50400001928E-02 0.  1.
       -1   -1    0    0    0  501  0.00000000000E+00  0.00000000000E+00 -0.36955314002E+02  0.36955314346E+02  0.50400001928E-02 0. -1.
    10030    2    1    2    0    0  0.00000000000E+00  0.00000000000E+00  0.24118270528E+04  0.24857376812E+04  0.60164947178E+03 0.  0.
        3    1    3    3  502    0  0.29024595447E+03  0.75643393474E+02  0.11107199437E+04  0.11505057326E+04  0.10100000352E+00 0. -1.
       -3    1    3    3    0  502 -0.29024595447E+03 -0.75643393474E+02  0.13011071091E+04  0.13352319486E+04  0.10100000352E+00 0.  1.
</event>
<event>
 5   0  0.3478183E-02  0.6077799E+03  0.7818609E-02  0.9889395E-01
        1   -1    0    0  501    0  0.00000000000E+00  0.00000000000E+00  0.32014049706E+03  0.32014049710E+03  0.50400001928E-02 0. -1.
       -1   -1    0    0    0  501  0.00000000000E+00  0.00000000000E+00 -0.28846431319E+03  0.28846431323E+03  0.50400001928E-02 0.  1.
    10030    2    1    2    0    0  0.00000000000E+00  0.00000000000E+00  0.31676183869E+02  0.60860481033E+03  0.60777992278E+03 0.  0.
        4    1    3    3  502    0  0.41946980385E+02 -0.90424424892E+02  0.30330151835E+03  0.31926407520E+03  0.12699999809E+01 0. -1.
       -4    1    3    3    0  502 -0.41946980385E+02  0.90424424892E+02 -0.27162533448E+03  0.28934073514E+03  0.12699999809E+01 0.  1.
</event>
<event>
 5   0  0.5755078E-02  0.5942578E+03  0.7818609E-02  0.9917391E-01
       -2   -1    0    0    0  501  0.00000000000E+00  0.00000000000E+00  0.22727924936E+03  0.22727924938E+03  0.25500000920E-02 0. -1.
        2   -1    0    0  501    0  0.00000000000E+00  0.00000000000E+00 -0.38844540223E+03  0.38844540224E+03  0.25500000920E-02 0.  1.
    10030    2    1    2    0    0  0.00000000000E+00  0.00000000000E+00 -0.16116615287E+03  0.61572465161E+03  0.59425778731E+03 0.  0.
        2    1    3    3  502    0 -0.97044581969E+02 -0.11705882921E+03 -0.34507924781E+03  0.37709429545E+03  0.25500000920E-02 0.  1.
       -2    1    3    3    0  502  0.97044581969E+02  0.11705882921E+03  0.18391309494E+03  0.23863035617E+03  0.25500000920E-02 0. -1.
</event>
<event>
 5   0  0.5872632E-02  0.5372600E+03  0.7818609E-02  0.1004486E+00
        2   -1    0    0  501    0  0.00000000000E+00  0.00000000000E+00  0.19578397688E+04  0.19578397688E+04  0.25500000920E-02 0.  1.
       -2   -1    0    0    0  501  0.00000000000E+00  0.00000000000E+00 -0.36858014447E+02  0.36858014535E+02  0.25500000920E-02 0. -1.
    10030    2    1    2    0    0  0.00000000000E+00  0.00000000000E+00  0.19209817544E+04  0.19946977834E+04  0.53726003601E+03 0.  0.
        1    1    3    3  502    0  0.10382026061E+03  0.24596027140E+03  0.10710642835E+04  0.11038359484E+04  0.50400001928E-02 0. -1.
       -1    1    3    3    0  502 -0.10382026061E+03 -0.24596027140E+03  0.84991747090E+03  0.89086183496E+03  0.50400001928E-02 0.  1.
</event>
<event>
 5   0  0.2388000E-02  0.5984501E+03  0.7818609E-02  0.9908627E-01
       -3   -1    0    0    0  501  0.00000000000E+00  0.00000000000E+00  0.44735585525E+03  0.44735586665E+03  0.10100000352E+00 0. -1.
        3   -1    0    0  501    0  0.00000000000E+00  0.00000000000E+00 -0.20014405827E+03  0.20014408376E+03  0.10100000352E+00 0.  1.
    10030    2    1    2    0    0  0.00000000000E+00  0.00000000000E+00  0.24721179697E+03  0.64749995040E+03  0.59845009250E+03 0.  0.
        4    1    3    3  502    0  0.37972886859E+02 -0.16359086905E+03  0.39155274334E+03  0.42605055603E+03  0.12699999809E+01 0. -1.
       -4    1    3    3    0  502 -0.37972886859E+02  0.16359086905E+03 -0.14434094637E+03  0.22144939438E+03  0.12699999809E+01 0.  1.
</event>
<event>
 5   0  0.3651984E-02  0.6029981E+03  0.7818609E-02  0.9899205E-01
        1   -1    0    0  501    0  0.00000000000E+00  0.00000000000E+00  0.11910115920E+04  0.11910115920E+04  0.50400001928E-02 0.  1.
       -1   -1    0    0    0  501  0.00000000000E+00  0.00000000000E+00 -0.76323094894E+02  0.76323095060E+02  0.50400001928E-02 0. -1.
    10030    2    1    2    0    0  0.00000000000E+00  0.00000000000E+00  0.11146884971E+04  0.12673346871E+04  0.60299814550E+03 0.  0.
        1    1    3    3  502    0 -0.46474801198E+02 -0.26287726295E+03  0.85186543812E+03  0.89271444886E+03  0.50400001928E-02 0.  1.
       -1    1    3    3    0  502  0.46474801198E+02  0.26287726295E+03  0.26282305902E+03  0.37462023824E+03  0.50400001928E-02 0. -1.
</event>
<event>
 5   0  0.5755078E-02  0.5982744E+03  0.7818609E-02  0.9908993E-01
        2   -1    0    0  501    0  0.00000000000E+00  0.00000000000E+00  0.13718481427E+04  0.13718481427E+04  0.25500000920E-02 0. -1.
       -2   -1    0    0    0  501  0.00000000000E+00  0.00000000000E+00 -0.65228111365E+02  0.65228111415E+02  0.25500000920E-02 0.  1.
    10030    2    1    2    0    0  0.00000000000E+00  0.00000000000E+00  0.13066200314E+04  0.14370762542E+04  0.59827439681E+03 0.  0.
        2    1    3    3  502    0  0.13319420496E+03 -0.20594709145E+03  0.24195023807E+03  0.34452114365E+03  0.25500000920E-02 0.  1.
       -2    1    3    3    0  502 -0.13319420496E+03  0.20594709145E+03  0.10646697933E+04  0.10925551105E+04  0.25500000920E-02 0. -1.
</event>
<event>
 5   0  0.3651984E-02  0.5997107E+03  0.7818609E-02  0.9906006E-01
       -1   -1    0    0    0  501  0.00000000000E+00  0.00000000000E+00  0.21059945914E+03  0.21059945920E+03  0.50400001928E-02 0.  1.
        1   -1    0    0  501    0  0.00000000000E+00  0.00000000000E+00 -0.42693952366E+03  0.42693952369E+03  0.50400001928E-02 0. -1.
    10030    2    1    2    0    0  0.00000000000E+00  0.00000000000E+00 -0.21634006452E+03  0.63753898290E+03  0.59971070625E+03 0.  0.
        1    1    3    3  502    0  0.59071217764E+02 -0.27645743961E+03 -0.18882837377E+01  0.28270424532E+03  0.50400001928E-02 0.  1.
       -1    1    3    3    0  502 -0.59071217764E+02  0.27645743961E+03 -0.21445178078E+03  0.35483473757E+03  0.50400001928E-02 0. -1.
</event>
<event>
 5   0  0.5872632E-02  0.6027952E+03  0.7818609E-02  0.9899624E-01
        2   -1    0    0  501    0  0.00000000000E+00  0.00000000000E+00  0.45799581573E+03  0.45799581574E+03  0.25500000920E-02 0. -1.
       -2   -1    0    0    0  501  0.00000000000E+00  0.00000000000E+00 -0.19834354086E+03  0.19834354088E+03  0.25500000920E-02 0.  1.
    10030    2    1    2    0    0  0.00000000000E+00  0.00000000000E+00  0.25965227487E+03  0.65633935661E+03  0.60279519507E+03 0.  0.
        1    1    3    3  502    0  0.17817346431E+03  0.91897741382E+02  0.37487144475E+03  0.42511125411E+03  0.50400001928E-02 0. -1.
       -1    1    3    3    0  502 -0.17817346431E+03 -0.91897741382E+02 -0.11521916988E+03  0.23122810250E+03  0.50400001928E-02 0.  1.
</event>
<event>
 5   0  0.3640827E-02  0.5648576E+03  0.7818609E-02  0.9981123E-01
        1   -1    0    0  501    0  0.00000000000E+00  0.00000000000E+00  0.79286478625E+03  0.79286478627E+03  0.50400001928E-02 0.  1.
       -1   -1    0    0    0  501  0.00000000000E+00  0.00000000000E+00 -0.10060483687E+03  0.10060483699E+03  0.50400001928E-02 0. -1.
    10030    2    1    2    0    0  0.00000000000E+00  0.00000000000E+00  0.69225994939E+03  0.89346962326E+03  0.56485761938E+03 0.  0.
        3    1    3    3  502    0 -0.15807840249E+03  0.10421731666E+03  0.67760601980E+03  0.70356233462E+03  0.10100000352E+00 0.  1.
       -3    1    3    3    0  502  0.15807840249E+03 -0.10421731666E+03  0.14653929582E+02  0.18990728864E+03  0.10100000352E+00 0. -1.
</event>
<event>
 5   0  0.5999117E-02  0.5969825E+03  0.7818609E-02  0.9911686E-01
       -2   -1    0    0    0  501  0.00000000000E+00  0.00000000000E+00  0.10071060236E+04  0.10071060236E+04  0.25500000920E-02 0. -1.
        2   -1    0    0  501    0  0.00000000000E+00  0.00000000000E+00 -0.88468365391E+02  0.88468365427E+02  0.25500000920E-02 0.  1.
    10030    2    1    2    0    0  0.00000000000E+00  0.00000000000E+00  0.91863765821E+03  0.10955743890E+04  0.59698249122E+03 0.  0.
        5    1    3    3  502    0  0.14149928827E+02 -0.28598726828E+03  0.61380183688E+03  0.67732098968E+03  0.46999998093E+01 0. -1.
       -5    1    3    3    0  502 -0.14149928827E+02  0.28598726828E+03  0.30483582133E+03  0.41825339935E+03  0.46999998093E+01 0.  1.
</event>
<event>
 5   0  0.5872632E-02  0.5874062E+03  0.7818609E-02  0.9931884E-01
       -2   -1    0    0    0  501  0.00000000000E+00  0.00000000000E+00  0.16737688737E+03  0.16737688739E+03  0.25500000920E-02 0. -1.
        2   -1    0    0  501    0  0.00000000000E+00  0.00000000000E+00 -0.51537284698E+03  0.51537284698E+03  0.25500000920E-02 0.  1.
    10030    2    1    2    0    0  0.00000000000E+00  0.00000000000E+00 -0.34799595961E+03  0.68274973437E+03  0.58740617283E+03 0.  0.
        1    1    3    3  502    0  0.14891922353E+03  0.14799140563E+02 -0.46773343645E+03  0.49109114968E+03  0.50400001928E-02 0.  1.
       -1    1    3    3    0  502 -0.14891922353E+03 -0.14799140563E+02  0.11973747684E+03  0.19165858468E+03  0.50400001928E-02 0. -1.
</event>
<event>
 5   0  0.3767635E-02  0.6024951E+03  0.7818609E-02  0.9900243E-01
        1   -1    0    0  501    0  0.00000000000E+00  0.00000000000E+00  0.44186800231E+03  0.44186800234E+03  0.50400001928E-02 0.  1.
       -1   -1    0    0    0  501  0.00000000000E+00  0.00000000000E+00 -0.20537825927E+03  0.20537825933E+03  0.50400001928E-02 0. -1.
    10030    2    1    2    0    0  0.00000000000E+00  0.00000000000E+00  0.23648974304E+03  0.64724626166E+03  0.60249508270E+03 0.  0.
        2    1    3    3  502    0  0.56037523355E+02 -0.18477313784E+03  0.36665318094E+03  0.41438613827E+03  0.25500000920E-02 0.  1.
       -2    1    3    3    0  502 -0.56037523355E+02  0.18477313784E+03 -0.13016343790E+03  0.23286012339E+03  0.25500000920E-02 0. -1.
</event>
<event>
 5   0  0.5755078E-02  0.5954949E+03  0.7818609E-02  0.9914797E-01
       -2   -1    0    0    0  501  0.00000000000E+00  0.00000000000E+00  0.45464654556E+03  0.45464654556E+03  0.25500000920E-02 0.  1.
        2   -1    0    0  501    0  0.00000000000E+00  0.00000000000E+00 -0.19499442880E+03  0.19499442882E+03  0.25500000920E-02 0. -1.
    10030    2    1    2    0    0  0.00000000000E+00  0.00000000000E+00  0.25965211675E+03  0.64964097438E+03  0.59549489827E+03 0.  0.
        2    1    3    3  502    0  0.57710300636E+02  0.26148979079E+03  0.27183998576E+03  0.38158140331E+03  0.25500000920E-02 0.  1.
       -2    1    3    3    0  502 -0.57710300636E+02 -0.26148979079E+03 -0.12187869003E+02  0.26805957107E+03  0.25500000920E-02 0. -1.
</event>
<event>
 5   0  0.5872632E-02  0.5983122E+03  0.7818609E-02  0.9908914E-01
        2   -1    0    0  501    0  0.00000000000E+00  0.00000000000E+00  0.58260511668E+03  0.58260511669E+03  0.25500000920E-02 0.  1.
       -2   -1    0    0    0  501  0.00000000000E+00  0.00000000000E+00 -0.15361068567E+03  0.15361068569E+03  0.25500000920E-02 0. -1.
    10030    2    1    2    0    0  0.00000000000E+00  0.00000000000E+00  0.42899443102E+03  0.73621580238E+03  0.59831219762E+03 0.  0.
        1    1    3    3  502    0  0.46553203694E+02  0.28275582039E+03  0.32017824991E+03  0.42968845281E+03  0.50400001928E-02 0.  1.
       -1    1    3    3    0  502 -0.46553203694E+02 -0.28275582039E+03  0.10881618110E+03  0.30652734957E+03  0.50400001928E-02 0. -1.
</event>
<event>
 5   0  0.3767635E-02  0.6051854E+03  0.7818609E-02  0.9894706E-01
        1   -1    0    0  501    0  0.00000000000E+00  0.00000000000E+00  0.44607675981E+03  0.44607675984E+03  0.50400001928E-02 0.  1.
       -1   -1    0    0    0  501  0.00000000000E+00  0.00000000000E+00 -0.20526141345E+03  0.20526141351E+03  0.50400001928E-02 0. -1.
    10030    2    1    2    0    0  0.00000000000E+00  0.00000000000E+00  0.24081534636E+03  0.65133817335E+03  0.60518541375E+03 0.  0.
        2    1    3    3  502    0  0.28011655629E+03  0.11124895656E+03  0.91513875790E+02  0.31498635670E+03  0.25500000920E-02 0.  1.
       -2    1    3    3    0  502 -0.28011655629E+03 -0.11124895656E+03  0.14930147058E+03  0.33635181665E+03  0.25500000920E-02 0. -1.
</event>
<event>
 5   0  0.3478183E-02  0.5972995E+03  0.7818609E-02  0.9911025E-01
       -1   -1    0    0    0  501  0.00000000000E+00  0.00000000000E+00  0.52549976206E+03  0.52549976209E+03  0.50400001928E-02 0.  1.
        1   -1    0    0  501    0  0.00000000000E+00  0.00000000000E+00 -0.16972736144E+03  0.16972736152E+03  0.50400001928E-02 0. -1.
    10030    2    1    2    0    0  0.00000000000E+00  0.00000000000E+00  0.35577240062E+03  0.69522712360E+03  0.59729954994E+03 0.  0.
        4    1    3    3  502    0  0.14520134035E+03  0.22652899585E+03  0.32871218275E+03  0.42479657154E+03  0.12699999809E+01 0.  1.
       -4    1    3    3    0  502 -0.14520134035E+03 -0.22652899585E+03  0.27060217871E+02  0.27043055207E+03  0.12699999809E+01 0. -1.
</event>
<event>
 5   0  0.5999117E-02  0.6037708E+03  0.7818609E-02  0.9897614E-01
        2   -1    0    0  501    0  0.00000000000E+00  0.00000000000E+00  0.77867434631E+03  0.77867434631E+03  0.25500000920E-02 0. -1.
       -2   -1    0    0    0  501  0.00000000000E+00  0.00000000000E+00 -0.11703838788E+03  0.11703838791E+03  0.25500000920E-02 0.  1.
    10030    2    1    2    0    0  0.00000000000E+00  0.00000000000E+00  0.66163595843E+03  0.89571273422E+03  0.60377078495E+03 0.  0.
        5    1    3    3  502    0 -0.46712084472E+02  0.29253183672E+03  0.41675792352E+03  0.51133760975E+03  0.46999998093E+01 0. -1.
       -5    1    3    3    0  502  0.46712084472E+02 -0.29253183672E+03  0.24487803491E+03  0.38437512447E+03  0.46999998093E+01 0.  1.
</event>
<event>
 5   0  0.3640827E-02  0.5904019E+03  0.7818609E-02  0.9925522E-01
       -1   -1    0    0    0  501  0.00000000000E+00  0.00000000000E+00  0.67471332158E+02  0.67471332346E+02  0.50400001928E-02 0. -1.
        1   -1    0    0  501    0  0.00000000000E+00  0.00000000000E+00 -0.12915648097E+04  0.12915648097E+04  0.50400001928E-02 0.  1.
    10030    2    1    2    0    0  0.00000000000E+00  0.00000000000E+00 -0.12240934776E+04  0.13590361421E+04  0.59040189164E+03 0.  0.
        3    1    3    3  502    0 -0.10781392127E+03 -0.16811869935E+03 -0.11165393704E+03  0.22881073084E+03  0.10100000352E+00 0. -1.
       -3    1    3    3    0  502  0.10781392127E+03  0.16811869935E+03 -0.11124395405E+04  0.11302254112E+04  0.10100000352E+00 0.  1.
</event>
<event>
 5   0  0.3651984E-02  0.6083105E+03  0.7818609E-02  0.9888313E-01
       -1   -1    0    0    0  501  0.00000000000E+00  0.00000000000E+00  0.15838550427E+03  0.15838550435E+03  0.50400001928E-02 0. -1.
        1   -1    0    0  501    0  0.00000000000E+00  0.00000000000E+00 -0.58408388156E+03  0.58408388159E+03  0.50400001928E-02 0.  1.
    10030    2    1    2    0    0  0.00000000000E+00  0.00000000000E+00 -0.42569837730E+03  0.74246938593E+03  0.60831051332E+03 0.  0.
        1    1    3    3  502    0  0.74256865925E+02  0.19642618278E+03  0.55706676938E+02  0.21725690161E+03  0.50400001928E-02 0. -1.
       -1    1    3    3    0  502 -0.74256865925E+02 -0.19642618278E+03 -0.48140505423E+03  0.52521248432E+03  0.50400001928E-02 0.  1.
</event>
<event>
 5   0  0.5935451E-02  0.5957453E+03  0.7818609E-02  0.9914273E-01
       -2   -1    0    0    0  501  0.00000000000E+00  0.00000000000E+00  0.12246558638E+03  0.12246558641E+03  0.25500000920E-02 0. -1.
        2   -1    0    0  501    0  0.00000000000E+00  0.00000000000E+00 -0.72451461947E+03  0.72451461947E+03  0.25500000920E-02 0.  1.
    10030    2    1    2    0    0  0.00000000000E+00  0.00000000000E+00 -0.60204903309E+03  0.84698020588E+03  0.59574527351E+03 0.  0.
        3    1    3    3  502    0 -0.94781591247E+02 -0.25789002734E+03 -0.13745135260E+03  0.30721930404E+03  0.10100000352E+00 0. -1.
       -3    1    3    3    0  502  0.94781591247E+02  0.25789002734E+03 -0.46459768048E+03  0.53976090184E+03  0.10100000352E+00 0.  1.
</event>
<event>
 5   0  0.5999117E-02  0.5834225E+03  0.7818609E-02  0.9940409E-01
        2   -1    0    0  501    0  0.00000000000E+00  0.00000000000E+00  0.16677993530E+04  0.16677993530E+04  0.25500000920E-02 0. -1.
       -2   -1    0    0    0  501  0.00000000000E+00  0.00000000000E+00 -0.51022590911E+02  0.51022590974E+02  0.25500000920E-02 0.  1.
    10030    2    1    2    0    0  0.00000000000E+00  0.00000000000E+00  0.16167767621E+04  0.17188219440E+04  0.58342246842E+03 0.  0.
        5    1    3    3  502    0  0.87359049819E+02 -0.27302797529E+03  0.64980502302E+03  0.71024259011E+03  0.46999998093E+01 0.  1.
       -5    1    3    3    0  502 -0.87359049819E+02  0.27302797529E+03  0.96697173907E+03  0.10085793539E+04  0.46999998093E+01 0. -1.
</event>
<event>
 5   0  0.3703280E-02  0.5923183E+03  0.7818609E-02  0.9921473E-01
       -1   -1    0    0    0  501  0.00000000000E+00  0.00000000000E+00  0.47159401455E+02  0.47159401724E+02  0.50400001928E-02 0.  1.
        1   -1    0    0  501    0  0.00000000000E+00  0.00000000000E+00 -0.18598674441E+04  0.18598674441E+04  0.50400001928E-02 0. -1.
    10030    2    1    2    0    0  0.00000000000E+00  0.00000000000E+00 -0.18127080426E+04  0.19070268458E+04  0.59231827833E+03 0.  0.
        5    1    3    3  502    0  0.17490625795E+03  0.23779233786E+03 -0.98191180326E+03  0.10253342257E+04  0.46999998093E+01 0. -1.
       -5    1    3    3    0  502 -0.17490625795E+03 -0.23779233786E+03 -0.83079623934E+03  0.88169262009E+03  0.46999998093E+01 0.  1.
</event>
<event>
 5   0  0.3767635E-02  0.5977431E+03  0.7818609E-02  0.9910099E-01
        1   -1    0    0  501    0  0.00000000000E+00  0.00000000000E+00  0.58637301146E+03  0.58637301148E+03  0.50400001928E-02 0.  1.
       -1   -1    0    0    0  501  0.00000000000E+00  0.00000000000E+00 -0.15233343044E+03  0.15233343053E+03  0.50400001928E-02 0. -1.
    10030    2    1    2    0    0  0.00000000000E+00  0.00000000000E+00  0.43403958102E+03  0.73870644201E+03  0.59774313010E+03 0.  0.
        2    1    3    3  502    0  0.13140802596E+03 -0.14212064170E+03 -0.64406466645E+02  0.20399641917E+03  0.25500000920E-02 0. -1.
       -2    1    3    3    0  502 -0.13140802596E+03  0.14212064170E+03  0.49844604766E+03  0.53471002283E+03  0.25500000920E-02 0.  1.
</event>
<event>
 5   0  0.6007360E-02  0.6000746E+03  0.7818609E-02  0.9905251E-01
       -2   -1    0    0    0  501  0.00000000000E+00  0.00000000000E+00  0.69996990377E+02  0.69996990423E+02  0.25500000920E-02 0. -1.
        2   -1    0    0  501    0  0.00000000000E+00  0.00000000000E+00 -0.12860895249E+04  0.12860895249E+04  0.25500000920E-02 0.  1.
    10030    2    1    2    0    0  0.00000000000E+00  0.00000000000E+00 -0.12160925345E+04  0.13560865153E+04  0.60007464913E+03 0.  0.
        4    1    3    3  502    0 -0.14254729110E+03  0.25858717542E+03 -0.72834499248E+03  0.78592308686E+03  0.12699999809E+01 0. -1.
       -4    1    3    3    0  502  0.14254729110E+03 -0.25858717542E+03 -0.48774754205E+03  0.57016342847E+03  0.12699999809E+01 0.  1.
</event>
<event>
 5   0  0.5999117E-02  0.5977415E+03  0.7818609E-02  0.9910103E-01
        2   -1    0    0  501    0  0.00000000000E+00  0.00000000000E+00  0.17656701805E+04  0.17656701805E+04  0.25500000920E-02 0. -1.
       -2   -1    0    0    0  501  0.00000000000E+00  0.00000000000E+00 -0.50589138180E+02  0.50589138244E+02  0.25500000920E-02 0.  1.
    10030    2    1    2    0    0  0.00000000000E+00  0.00000000000E+00  0.17150810423E+04  0.18162593187E+04  0.59774152541E+03 0.  0.
        5    1    3    3  502    0 -0.25275479034E+03  0.14371890123E+01  0.13419426128E+04  0.13655471854E+04  0.46999998093E+01 0. -1.
       -5    1    3    3    0  502  0.25275479034E+03 -0.14371890123E+01  0.37313842957E+03  0.45071213338E+03  0.46999998093E+01 0.  1.
</event>
<event>
 5   0  0.3478183E-02  0.5925041E+03  0.7818609E-02  0.9921081E-01
        1   -1    0    0  501    0  0.00000000000E+00  0.00000000000E+00  0.39141044073E+03  0.39141044076E+03  0.50400001928E-02 0.  1.
       -1   -1    0    0    0  501  0.00000000000E+00  0.00000000000E+00 -0.22422827028E+03  0.22422827034E+03  0.50400001928E-02 0. -1.
    10030    2    1    2    0    0  0.00000000000E+00  0.00000000000E+00  0.16718217044E+03  0.61563871110E+03  0.59250413036E+03 0.  0.
        4    1    3    3  502    0 -0.65856496422E+02  0.19719202201E+03  0.30288112936E+03  0.36736951845E+03  0.12699999809E+01 0.  1.
       -4    1    3    3    0  502  0.65856496422E+02 -0.19719202201E+03 -0.13569895892E+03  0.24826919265E+03  0.12699999809E+01 0. -1.
</event>
<event>
 5   0  0.5755078E-02  0.6032969E+03  0.7818609E-02  0.9898590E-01
        2   -1    0    0  501    0  0.00000000000E+00  0.00000000000E+00  0.66724645934E+03  0.66724645934E+03  0.25500000920E-02 0. -1.
       -2   -1    0    0    0  501  0.00000000000E+00  0.00000000000E+00 -0.13636908392E+03  0.13636908394E+03  0.25500000920E-02 0.  1.
    10030    2    1    2    0    0  0.00000000000E+00  0.00000000000E+00  0.53087737542E+03  0.80361554329E+03  0.60329690342E+03 0.  0.
        2    1    3    3  502    0 -0.56904934414E+02  0.17126141490E+02  0.65937203238E+03  0.66204452522E+03  0.25500000920E-02 0. -1.
       -2    1    3    3    0  502  0.56904934414E+02 -0.17126141490E+02 -0.12849465696E+03  0.14157101807E+03  0.25500000920E-02 0.  1.
</event>
<event>
 5   0  0.2388000E-02  0.6037018E+03  0.7818609E-02  0.9897756E-01
       -3   -1    0    0    0  501  0.00000000000E+00  0.00000000000E+00  0.30150178751E+03  0.30150180443E+03  0.10100000352E+00 0.  1.
        3   -1    0    0  501    0  0.00000000000E+00  0.00000000000E+00 -0.30220042540E+03  0.30220044228E+03  0.10100000352E+00 0. -1.
    10030    2    1    2    0    0  0.00000000000E+00  0.00000000000E+00 -0.69863788393E+00  0.60370224671E+03  0.60370184245E+03 0.  0.
        1    1    3    3  502    0  0.28537848074E+03  0.94872690235E+02  0.25578945520E+02  0.30182111772E+03  0.50400001928E-02 0. -1.
       -1    1    3    3    0  502 -0.28537848074E+03 -0.94872690235E+02 -0.26277583404E+02  0.30188112899E+03  0.50400001928E-02 0.  1.
</event>
<event>
 5   0  0.3767635E-02  0.5980666E+03  0.7818609E-02  0.9909425E-01
       -1   -1    0    0    0  501  0.00000000000E+00  0.00000000000E+00  0.55939865168E+02  0.55939865395E+02  0.50400001928E-02 0.  1.
        1   -1    0    0  501    0  0.00000000000E+00  0.00000000000E+00 -0.15985185682E+04  0.15985185682E+04  0.50400001928E-02 0. -1.
    10030    2    1    2    0    0  0.00000000000E+00  0.00000000000E+00 -0.15425787031E+04  0.16544584336E+04  0.59806659619E+03 0.  0.
        2    1    3    3  502    0  0.21221847556E+03  0.14984311066E+03 -0.11809632043E+04  0.12091996234E+04  0.25500000920E-02 0.  1.
       -2    1    3    3    0  502 -0.21221847556E+03 -0.14984311066E+03 -0.36161549872E+03  0.44525881025E+03  0.25500000920E-02 0. -1.
</event>
<event>
 5   0  0.5872632E-02  0.5991802E+03  0.7818609E-02  0.9907108E-01
       -2   -1    0    0    0  501  0.00000000000E+00  0.00000000000E+00  0.14191752133E+03  0.14191752135E+03  0.25500000920E-02 0.  1.
        2   -1    0    0  501    0  0.00000000000E+00  0.00000000000E+00 -0.63243927011E+03  0.63243927012E+03  0.25500000920E-02 0. -1.
    10030    2    1    2    0    0  0.00000000000E+00  0.00000000000E+00 -0.49052174879E+03  0.77435679147E+03  0.59918015192E+03 0.  0.
        1    1    3    3  502    0 -0.42782731277E+02  0.79655596770E+02 -0.61438501496E+03  0.62100267537E+03  0.50400001928E-02 0. -1.
       -1    1    3    3    0  502  0.42782731277E+02 -0.79655596770E+02  0.12386326617E+03  0.15335411610E+03  0.50400001928E-02 0.  1.
</event>
<event>
 5   0  0.3651984E-02  0.5752326E+03  0.7818609E-02  0.9958166E-01
       -1   -1    0    0    0  501  0.00000000000E+00  0.00000000000E+00  0.11900594288E+03  0.11900594299E+03  0.50400001928E-02 0. -1.
        1   -1    0    0  501    0  0.00000000000E+00  0.00000000000E+00 -0.69511780848E+03  0.69511780850E+03  0.50400001928E-02 0.  1.
    10030    2    1    2    0    0  0.00000000000E+00  0.00000000000E+00 -0.57611186560E+03  0.81412375149E+03  0.57523264950E+03 0.  0.
        1    1    3    3  502    0 -0.13859165758E+03  0.10838198719E+03 -0.61007467221E+03  0.63493732635E+03  0.50400001928E-02 0.  1.
       -1    1    3    3    0  502  0.13859165758E+03 -0.10838198719E+03  0.33962806607E+02  0.17918642514E+03  0.50400001928E-02 0. -1.
</event>
<event>
 5   0  0.3640827E-02  0.6008682E+03  0.7818609E-02  0.9903606E-01
        1   -1    0    0  501    0  0.00000000000E+00  0.00000000000E+00  0.67578165895E+03  0.67578165897E+03  0.50400001928E-02 0. -1.
       -1   -1    0    0    0  501  0.00000000000E+00  0.00000000000E+00 -0.13356480392E+03  0.13356480401E+03  0.50400001928E-02 0.  1.
    10030    2    1    2    0    0  0.00000000000E+00  0.00000000000E+00  0.54221685504E+03  0.80934646298E+03  0.60086818792E+03 0.  0.
        3    1    3    3  502    0  0.15709217055E+03 -0.18823795888E+03  0.37228561325E+02  0.24798680447E+03  0.10100000352E+00 0.  1.
       -3    1    3    3    0  502 -0.15709217055E+03  0.18823795888E+03  0.50498829371E+03  0.56135965851E+03  0.10100000352E+00 0. -1.
</event>
<event>
 5   0  0.6007360E-02  0.5909879E+03  0.7818609E-02  0.9924282E-01
        2   -1    0    0  501    0  0.00000000000E+00  0.00000000000E+00  0.21220606882E+04  0.21220606882E+04  0.25500000920E-02 0.  1.
       -2   -1    0    0    0  501  0.00000000000E+00  0.00000000000E+00 -0.41147112066E+02  0.41147112145E+02  0.25500000920E-02 0. -1.
    10030    2    1    2    0    0  0.00000000000E+00  0.00000000000E+00  0.20809135762E+04  0.21632078004E+04  0.59098788156E+03 0.  0.
        4    1    3    3  502    0  0.10503560907E+03  0.68140907831E+02  0.20201624442E+04  0.20240389266E+04  0.12699999809E+01 0.  1.
       -4    1    3    3    0  502 -0.10503560907E+03 -0.68140907831E+02  0.60751131944E+02  0.13916887377E+03  0.12699999809E+01 0. -1.
</event>
<event>
 5   0  0.5872632E-02  0.5887851E+03  0.7818609E-02  0.9928950E-01
       -2   -1    0    0    0  501  0.00000000000E+00  0.00000000000E+00  0.43758390878E+02  0.43758390952E+02  0.25500000920E-02 0.  1.
        2   -1    0    0  501    0  0.00000000000E+00  0.00000000000E+00 -0.19805795522E+04  0.19805795522E+04  0.25500000920E-02 0. -1.
    10030    2    1    2    0    0  0.00000000000E+00  0.00000000000E+00 -0.19368211613E+04  0.20243379432E+04  0.58878510269E+03 0.  0.
        1    1    3    3  502    0 -0.21250206575E+03 -0.13577908299E+03 -0.44615079945E+03  0.51248768102E+03  0.50400001928E-02 0.  1.
       -1    1    3    3    0  502  0.21250206575E+03  0.13577908299E+03 -0.14906703619E+04  0.15118502621E+04  0.50400001928E-02 0. -1.
</event>
<event>
 5   0  0.2388000E-02  0.6051070E+03  0.7818609E-02  0.9894867E-01
        4   -1    0    0  501    0  0.00000000000E+00  0.00000000000E+00  0.53710784095E+03  0.53710934242E+03  0.12699999809E+01 0. -1.
       -4   -1    0    0    0  501  0.00000000000E+00  0.00000000000E+00 -0.17042464083E+03  0.17042937277E+03  0.12699999809E+01 0.  1.
    10030    2    1    2    0    0  0.00000000000E+00  0.00000000000E+00  0.36668320012E+03  0.70753871519E+03  0.60510698578E+03 0.  0.
        2    1    3    3  502    0  0.13618321222E+02  0.71887620959E+02 -0.15992749852E+03  0.17586953548E+03  0.25500000920E-02 0.  1.
       -2    1    3    3    0  502 -0.13618321222E+02 -0.71887620959E+02  0.52661069864E+03  0.53166917971E+03  0.25500000920E-02 0. -1.
</event>
<event>
 5   0  0.3478183E-02  0.5957333E+03  0.7818609E-02  0.9914298E-01
       -1   -1    0    0    0  501  0.00000000000E+00  0.00000000000E+00  0.12704165432E+03  0.12704165442E+03  0.50400001928E-02 0.  1.
        1   -1    0    0  501    0  0.00000000000E+00  0.00000000000E+00 -0.69838932449E+03  0.69838932451E+03  0.50400001928E-02 0. -1.
    10030    2    1    2    0    0  0.00000000000E+00  0.00000000000E+00 -0.57134767017E+03  0.82543097893E+03  0.59573327989E+03 0.  0.
        4    1    3    3  502    0 -0.45093387668E+02  0.54986501905E+02  0.11510371652E+03  0.13530486857E+03  0.12699999809E+01 0.  1.
       -4    1    3    3    0  502  0.45093387668E+02 -0.54986501905E+02 -0.68645138669E+03  0.69012611036E+03  0.12699999809E+01 0. -1.
</event>
<event>
 5   0  0.3703280E-02  0.5892591E+03  0.7818609E-02  0.9927944E-01
        1   -1    0    0  501    0  0.00000000000E+00  0.00000000000E+00  0.32113417440E+03  0.32113417444E+03  0.50400001928E-02 0. -1.
       -1   -1    0    0    0  501  0.00000000000E+00  0.00000000000E+00 -0.27031247321E+03  0.27031247325E+03  0.50400001928E-02 0.  1.
    10030    2    1    2    0    0  0.00000000000E+00  0.00000000000E+00  0.50821701197E+02  0.59144664770E+03  0.58925910410E+03 0.  0.
        5    1    3    3  502    0 -0.18293403848E+02  0.19600324647E+03  0.24538778632E+03  0.31462545499E+03  0.46999998093E+01 0. -1.
       -5    1    3    3    0  502  0.18293403848E+02 -0.19600324647E+03 -0.19456608513E+03  0.27682119271E+03  0.46999998093E+01 0.  1.
</event>
<event>
 5   0  0.5755078E-02  0.6072836E+03  0.7818609E-02  0.9890409E-01
        2   -1    0    0  501    0  0.00000000000E+00  0.00000000000E+00  0.42360950403E+03  0.42360950404E+03  0.25500000920E-02 0. -1.
       -2   -1    0    0    0  501  0.00000000000E+00  0.00000000000E+00 -0.21764938197E+03  0.21764938198E+03  0.25500000920E-02 0.  1.
    10030    2    1    2    0    0  0.00000000000E+00  0.00000000000E+00  0.20596012207E+03  0.64125888603E+03  0.60728361334E+03 0.  0.
        2    1    3    3  502    0 -0.72771488721E+01  0.10457120383E+03 -0.19793731489E+03  0.22398052192E+03  0.25500000920E-02 0.  1.
       -2    1    3    3    0  502  0.72771488721E+01 -0.10457120383E+03  0.40389743696E+03  0.41727836411E+03  0.25500000920E-02 0. -1.
</event>
<event>
 5   0  0.3478183E-02  0.6015896E+03  0.7818609E-02  0.9902114E-01
        1   -1    0    0  501    0  0.00000000000E+00  0.00000000000E+00  0.14229315041E+03  0.14229315050E+03  0.50400001928E-02 0. -1.
       -1   -1    0    0    0  501  0.00000000000E+00  0.00000000000E+00 -0.63585280053E+03  0.63585280055E+03  0.50400001928E-02 0.  1.
    10030    2    1    2    0    0  0.00000000000E+00  0.00000000000E+00 -0.49355965012E+03  0.77814595105E+03  0.60158955518E+03 0.  0.
        4    1    3    3  502    0  0.47726487379E+02  0.21956831164E+03 -0.50543707865E+03  0.55313317967E+03  0.12699999809E+01 0.  1.
       -4    1    3    3    0  502 -0.47726487379E+02 -0.21956831164E+03  0.11877428528E+02  0.22501277138E+03  0.12699999809E+01 0. -1.
</event>
<event>
 5   0  0.5999117E-02  0.5968266E+03  0.7818609E-02  0.9912012E-01
        2   -1    0    0  501    0  0.00000000000E+00  0.00000000000E+00  0.12658443852E+04  0.12658443852E+04  0.25500000920E-02 0.  1.
       -2   -1    0    0    0  501  0.00000000000E+00  0.00000000000E+00 -0.70348694068E+02  0.70348694114E+02  0.25500000920E-02 0. -1.
    10030    2    1    2    0    0  0.00000000000E+00  0.00000000000E+00  0.11954956911E+04  0.13361930793E+04  0.59682660606E+03 0.  0.
        5    1    3    3  502    0  0.96092170345E+02 -0.20125647053E+02  0.12285643110E+04  0.12324897984E+04  0.46999998093E+01 0.  1.
       -5    1    3    3    0  502 -0.96092170345E+02  0.20125647053E+02 -0.33068619818E+02  0.10370328098E+03  0.46999998093E+01 0. -1.
</event>
<event>
 5   0  0.3703280E-02  0.6284305E+03  0.7818609E-02  0.9848116E-01
        1   -1    0    0  501    0  0.00000000000E+00  0.00000000000E+00  0.28540153825E+03  0.28540153829E+03  0.50400001928E-02 0.  1.
       -1   -1    0    0    0  501  0.00000000000E+00  0.00000000000E+00 -0.34593797414E+03  0.34593797417E+03  0.50400001928E-02 0. -1.
    10030    2    1    2    0    0  0.00000000000E+00  0.00000000000E+00 -0.60536435890E+02  0.63133951247E+03  0.62843052116E+03 0.  0.
        5    1    3    3  502    0  0.84186328383E+02 -0.15963120886E+03 -0.28863504002E+03  0.34044344179E+03  0.46999998093E+01 0. -1.
       -5    1    3    3    0  502 -0.84186328383E+02  0.15963120886E+03  0.22809860413E+03  0.29089607068E+03  0.46999998093E+01 0.  1.
</event>
<event>
 5   0  0.3478183E-02  0.5856363E+03  0.7818609E-02  0.9935662E-01
        1   -1    0    0  501    0  0.00000000000E+00  0.00000000000E+00  0.43828998595E+03  0.43828998598E+03  0.50400001928E-02 0. -1.
       -1   -1    0    0    0  501  0.00000000000E+00  0.00000000000E+00 -0.19562957243E+03  0.19562957249E+03  0.50400001928E-02 0.  1.
    10030    2    1    2    0    0  0.00000000000E+00  0.00000000000E+00  0.24266041353E+03  0.63391955847E+03  0.58563634648E+03 0.  0.
        4    1    3    3  502    0  0.97901523920E+02  0.93311550644E+02  0.40245183477E+03  0.42457136748E+03  0.12699999809E+01 0. -1.
       -4    1    3    3    0  502 -0.97901523920E+02 -0.93311550644E+02 -0.15979142125E+03  0.20934819100E+03  0.12699999809E+01 0.  1.
</event>
<event>
 5   0  0.5755078E-02  0.5900834E+03  0.7818609E-02  0.9926196E-01
        2   -1    0    0  501    0  0.00000000000E+00  0.00000000000E+00  0.85894111442E+03  0.85894111442E+03  0.25500000920E-02 0.  1.
       -2   -1    0    0    0  501  0.00000000000E+00  0.00000000000E+00 -0.10134523923E+03  0.10134523927E+03  0.25500000920E-02 0. -1.
    10030    2    1    2    0    0  0.00000000000E+00  0.00000000000E+00  0.75759587518E+03  0.96028635369E+03  0.59008335935E+03 0.  0.
        2    1    3    3  502    0  0.13412928145E+03 -0.26213411604E+03  0.34858685224E+03  0.45630883456E+03  0.25500000920E-02 0. -1.
       -2    1    3    3    0  502 -0.13412928145E+03  0.26213411604E+03  0.40900902294E+03  0.50397751913E+03  0.25500000920E-02 0.  1.
</event>
<event>
 5   0  0.3703280E-02  0.5897044E+03  0.7818609E-02  0.9926999E-01
        1   -1    0    0  501    0  0.00000000000E+00  0.00000000000E+00  0.60994421187E+03  0.60994421189E+03  0.50400001928E-02 0. -1.
       -1   -1    0    0    0  501  0.00000000000E+00  0.00000000000E+00 -0.14253407277E+03  0.14253407286E+03  0.50400001928E-02 0.  1.
    10030    2    1    2    0    0  0.00000000000E+00  0.00000000000E+00  0.46741013911E+03  0.75247828475E+03  0.58970444367E+03 0.  0.
        5    1    3    3  502    0  0.23525519366E+03 -0.14319042170E+03  0.36794423063E+03  0.45962326950E+03  0.46999998093E+01 0. -1.
       -5    1    3    3    0  502 -0.23525519366E+03  0.14319042170E+03  0.99465908477E+02  0.29285501525E+03  0.46999998093E+01 0.  1.
</event>
<event>
 5   0  0.5872632E-02  0.6007428E+03  0.7818609E-02  0.9903866E-01
        2   -1    0    0  501    0  0.00000000000E+00  0.00000000000E+00  0.74220328545E+03  0.74220328545E+03  0.25500000920E-02 0.  1.
       -2   -1    0    0    0  501  0.00000000000E+00  0.00000000000E+00 -0.12156100471E+03  0.12156100474E+03  0.25500000920E-02 0. -1.
    10030    2    1    2    0    0  0.00000000000E+00  0.00000000000E+00  0.62064228073E+03  0.86376429020E+03  0.60074279719E+03 0.  0.
        1    1    3    3  502    0  0.14950758723E+03 -0.42893996286E+02 -0.59148854773E+02  0.16640613150E+03  0.50400001928E-02 0. -1.
       -1    1    3    3    0  502 -0.14950758723E+03  0.42893996286E+02  0.67979113551E+03  0.69735815869E+03  0.50400001928E-02 0.  1.
</event>
<event>
 5   0  0.3478183E-02  0.5951560E+03  0.7818609E-02  0.9915507E-01
       -1   -1    0    0    0  501  0.00000000000E+00  0.00000000000E+00  0.25205206636E+03  0.25205206641E+03  0.50400001928E-02 0.  1.
        1   -1    0    0  501    0  0.00000000000E+00  0.00000000000E+00 -0.35132682274E+03  0.35132682278E+03  0.50400001928E-02 0. -1.
    10030    2    1    2    0    0  0.00000000000E+00  0.00000000000E+00 -0.99274756377E+02  0.60337888919E+03  0.59515595155E+03 0.  0.
        4    1    3    3  502    0 -0.12689882039E+03  0.92389472890E+02 -0.30593834255E+03  0.34385899387E+03  0.12699999809E+01 0. -1.
       -4    1    3    3    0  502  0.12689882039E+03 -0.92389472890E+02  0.20666358618E+03  0.25951989533E+03  0.12699999809E+01 0.  1.
</event>
<event>
 5   0  0.3767635E-02  0.7009851E+03  0.7818609E-02  0.9715549E-01
       -1   -1    0    0    0  501  0.00000000000E+00  0.00000000000E+00  0.40039677148E+03  0.40039677151E+03  0.50400001928E-02 0. -1.
        1   -1    0    0  501    0  0.00000000000E+00  0.00000000000E+00 -0.30680822187E+03  0.30680822191E+03  0.50400001928E-02 0.  1.
    10030    2    1    2    0    0  0.00000000000E+00  0.00000000000E+00  0.93588549607E+02  0.70720499343E+03  0.70098508266E+03 0.  0.
        2    1    3    3  502    0  0.17670641457E+03  0.21413542320E+03 -0.16903357069E+03  0.32504074275E+03  0.25500000920E-02 0.  1.
       -2    1    3    3    0  502 -0.17670641457E+03 -0.21413542320E+03  0.26262212030E+03  0.38216425068E+03  0.25500000920E-02 0. -1.
</event>
<event>
 5   0  0.6007360E-02  0.5193377E+03  0.7818609E-02  0.1008851E+00
       -2   -1    0    0    0  501  0.00000000000E+00  0.00000000000E+00  0.47153706317E+02  0.47153706386E+02  0.25500000920E-02 0.  1.
        2   -1    0    0  501    0  0.00000000000E+00  0.00000000000E+00 -0.14299600133E+04  0.14299600133E+04  0.25500000920E-02 0. -1.
    10030    2    1    2    0    0  0.00000000000E+00  0.00000000000E+00 -0.13828063070E+04  0.14771137197E+04  0.51933771118E+03 0.  0.
        4    1    3    3  502    0  0.24166464540E+03 -0.61862570462E+02 -0.48635196504E+03  0.54659731546E+03  0.12699999809E+01 0.  1.
       -4    1    3    3    0  502 -0.24166464540E+03  0.61862570462E+02 -0.89645434192E+03  0.93051640421E+03  0.12699999809E+01 0. -1.
</event>
<event>
 5   0  0.5755078E-02  0.5902116E+03  0.7818609E-02  0.9925925E-01
       -2   -1    0    0    0  501  0.00000000000E+00  0.00000000000E+00  0.32418248093E+03  0.32418248094E+03  0.25500000920E-02 0.  1.
        2   -1    0    0  501    0  0.00000000000E+00  0.00000000000E+00 -0.26863703848E+03  0.26863703849E+03  0.25500000920E-02 0. -1.
    10030    2    1    2    0    0  0.00000000000E+00  0.00000000000E+00  0.55545442450E+02  0.59281951944E+03  0.59021156075E+03 0.  0.
        2    1    3    3  502    0 -0.74627139881E+02 -0.11551689990E+02  0.31431344490E+03  0.32325778134E+03  0.25500000920E-02 0.  1.
       -2    1    3    3    0  502  0.74627139881E+02  0.11551689990E+02 -0.25876800245E+03  0.26956173809E+03  0.25500000920E-02 0. -1.
</event>
<event>
 5   0  0.6007360E-02  0.6055705E+03  0.7818609E-02  0.9893916E-01
       -2   -1    0    0    0  501  0.00000000000E+00  0.00000000000E+00  0.52772615424E+03  0.52772615424E+03  0.25500000920E-02 0. -1.
        2   -1    0    0  501    0  0.00000000000E+00  0.00000000000E+00 -0.17372438633E+03  0.17372438635E+03  0.25500000920E-02 0.  1.
    10030    2    1    2    0    0  0.00000000000E+00  0.00000000000E+00  0.35400176790E+03  0.70145054060E+03  0.60557048246E+03 0.  0.
        4    1    3    3  502    0  0.29296171041E+03 -0.75589707366E+02  0.16344684820E+03  0.34388494109E+03  0.12699999809E+01 0.  1.
       -4    1    3    3    0  502 -0.29296171041E+03  0.75589707366E+02  0.19055491970E+03  0.35756559950E+03  0.12699999809E+01 0. -1.
</event>
<event>
 5   0  0.2388000E-02  0.6007986E+03  0.7818609E-02  0.9903751E-01
       -4   -1    0    0    0  501  0.00000000000E+00  0.00000000000E+00  0.11869611863E+03  0.11870291268E+03  0.12699999809E+01 0.  1.
        4   -1    0    0  501    0  0.00000000000E+00  0.00000000000E+00 -0.76022934716E+03  0.76023040796E+03  0.12699999809E+01 0. -1.
    10030    2    1    2    0    0  0.00000000000E+00  0.00000000000E+00 -0.64153322853E+03  0.87893332064E+03  0.60079855094E+03 0.  0.
        5    1    3    3  502    0 -0.12468798330E+03  0.19814865837E+03 -0.45486012680E+02  0.23853941255E+03  0.46999998093E+01 0.  1.
       -5    1    3    3    0  502  0.12468798330E+03 -0.19814865837E+03 -0.59604721585E+03  0.64039390809E+03  0.46999998093E+01 0. -1.
</event>
<event>
 5   0  0.5872632E-02  0.5985002E+03  0.7818609E-02  0.9908523E-01
       -2   -1    0    0    0  501  0.00000000000E+00  0.00000000000E+00  0.18064189563E+03  0.18064189565E+03  0.25500000920E-02 0. -1.
        2   -1    0    0  501    0  0.00000000000E+00  0.00000000000E+00 -0.49573562638E+03  0.49573562639E+03  0.25500000920E-02 0.  1.
    10030    2    1    2    0    0  0.00000000000E+00  0.00000000000E+00 -0.31509373075E+03  0.67637752203E+03  0.59850020314E+03 0.  0.
        1    1    3    3  502    0 -0.24798772937E+03  0.62067441202E+02  0.18259913433E+02  0.25628832521E+03  0.50400001928E-02 0. -1.
       -1    1    3    3    0  502  0.24798772937E+03 -0.62067441202E+02 -0.33335364418E+03  0.42008919683E+03  0.50400001928E-02 0.  1.
</event>
<event>
 5   0  0.3478183E-02  0.6012595E+03  0.7818609E-02  0.9902796E-01
        1   -1    0    0  501    0  0.00000000000E+00  0.00000000000E+00  0.32551684940E+03  0.32551684944E+03  0.50400001928E-02 0.  1.
       -1   -1    0    0    0  501  0.00000000000E+00  0.00000000000E+00 -0.27764539509E+03  0.27764539514E+03  0.50400001928E-02 0. -1.
    10030    2    1    2    0    0  0.00000000000E+00  0.00000000000E+00  0.47871454310E+02  0.60316224458E+03  0.60125952562E+03 0.  0.
        4    1    3    3  502    0  0.28093876862E+03 -0.96962704289E+02  0.69336916294E+02  0.30518449928E+03  0.12699999809E+01 0. -1.
       -4    1    3    3    0  502 -0.28093876862E+03  0.96962704289E+02 -0.21465461984E+02  0.29797774530E+03  0.12699999809E+01 0.  1.
</event>
<event>
 5   0  0.3767635E-02  0.6128591E+03  0.7818609E-02  0.9879081E-01
        1   -1    0    0  501    0  0.00000000000E+00  0.00000000000E+00  0.31152053744E+03  0.31152053748E+03  0.50400001928E-02 0.  1.
       -1   -1    0    0    0  501  0.00000000000E+00  0.00000000000E+00 -0.30142176316E+03  0.30142176320E+03  0.50400001928E-02 0. -1.
    10030    2    1    2    0    0  0.00000000000E+00  0.00000000000E+00  0.10098774281E+02  0.61294230069E+03  0.61285910186E+03 0.  0.
        2    1    3    3  502    0  0.80824691884E+02  0.11751297759E+03 -0.26620162548E+03  0.30200204657E+03  0.25500000920E-02 0. -1.
       -2    1    3    3    0  502 -0.80824691884E+02 -0.11751297759E+03  0.27630039976E+03  0.31094025412E+03  0.25500000920E-02 0.  1.
</event>
<event>
 5   0  0.3478183E-02  0.5829833E+03  0.7818609E-02  0.9941353E-01
        1   -1    0    0  501    0  0.00000000000E+00  0.00000000000E+00  0.70268179745E+03  0.70268179747E+03  0.50400001928E-02 0. -1.
       -1   -1    0    0    0  501  0.00000000000E+00  0.00000000000E+00 -0.12091870126E+03  0.12091870136E+03  0.50400001928E-02 0.  1.
    10030    2    1    2    0    0  0.00000000000E+00  0.00000000000E+00  0.58176309620E+03  0.82360049883E+03  0.58298326012E+03 0.  0.
        4    1    3    3  502    0  0.56098026720E+01 -0.26181000945E+03  0.47174359031E+03  0.53955498221E+03  0.12699999809E+01 0. -1.
       -4    1    3    3    0  502 -0.56098026720E+01  0.26181000945E+03  0.11001950589E+03  0.28404551662E+03  0.12699999809E+01 0.  1.
</event>
<event>
 5   0  0.5872632E-02  0.5822604E+03  0.7818609E-02  0.9942909E-01
        2   -1    0    0  501    0  0.00000000000E+00  0.00000000000E+00  0.30927106308E+04  0.30927106308E+04  0.25500000920E-02 0.  1.
       -2   -1    0    0    0  501  0.00000000000E+00  0.00000000000E+00 -0.27405339814E+02  0.27405339933E+02  0.25500000920E-02 0. -1.
    10030    2    1    2    0    0  0.00000000000E+00  0.00000000000E+00  0.30653052909E+04  0.31201159707E+04  0.58226037464E+03 0.  0.
        1    1    3    3  502    0 -0.69392679947E+01  0.13410294046E+03  0.29168496416E+04  0.29199389692E+04  0.50400001928E-02 0.  1.
       -1    1    3    3    0  502  0.69392679947E+01 -0.13410294046E+03  0.14845564934E+03  0.20017700149E+03  0.50400001928E-02 0. -1.
</event>
<event>
 5   0  0.3651984E-02  0.6037963E+03  0.7818609E-02  0.9897561E-01
        1   -1    0    0  501    0  0.00000000000E+00  0.00000000000E+00  0.95178008066E+03  0.95178008068E+03  0.50400001928E-02 0. -1.
       -1   -1    0    0    0  501  0.00000000000E+00  0.00000000000E+00 -0.95760041242E+02  0.95760041375E+02  0.50400001928E-02 0.  1.
    10030    2    1    2    0    0  0.00000000000E+00  0.00000000000E+00  0.85602003942E+03  0.10475401221E+04  0.60379632279E+03 0.  0.
        1    1    3    3  502    0  0.11078135430E+03  0.24605783691E+03  0.19315032016E+03  0.33184938416E+03  0.50400001928E-02 0.  1.
       -1    1    3    3    0  502 -0.11078135430E+03 -0.24605783691E+03  0.66286971926E+03  0.71569073789E+03  0.50400001928E-02 0. -1.
</event>
<event>
 5   0  0.3703280E-02  0.5972846E+03  0.7818609E-02  0.9911056E-01
       -1   -1    0    0    0  501  0.00000000000E+00  0.00000000000E+00  0.37114445667E+03  0.37114445670E+03  0.50400001928E-02 0. -1.
        1   -1    0    0  501    0  0.00000000000E+00  0.00000000000E+00 -0.24030329048E+03  0.24030329053E+03  0.50400001928E-02 0.  1.
    10030    2    1    2    0    0  0.00000000000E+00  0.00000000000E+00  0.13084116619E+03  0.61144774724E+03  0.59728463636E+03 0.  0.
        5    1    3    3  502    0 -0.86484236699E+02  0.28543011543E+03  0.50400581452E+02  0.30250980579E+03  0.46999998093E+01 0.  1.
       -5    1    3    3    0  502  0.86484236699E+02 -0.28543011543E+03  0.80440584738E+02  0.30893794144E+03  0.46999998093E+01 0. -1.
</event>
<event>
 5   0  0.3640827E-02  0.6104409E+03  0.7818609E-02  0.9883978E-01
       -1   -1    0    0    0  501  0.00000000000E+00  0.00000000000E+00  0.98722779735E+02  0.98722779864E+02  0.50400001928E-02 0. -1.
        1   -1    0    0  501    0  0.00000000000E+00  0.00000000000E+00 -0.94364760529E+03  0.94364760530E+03  0.50400001928E-02 0.  1.
    10030    2    1    2    0    0  0.00000000000E+00  0.00000000000E+00 -0.84492482555E+03  0.10423703852E+04  0.61044087268E+03 0.  0.
        3    1    3    3  502    0  0.21667806175E+03 -0.21167790155E+03 -0.48641285260E+03  0.57302215475E+03  0.10100000352E+00 0. -1.
       -3    1    3    3    0  502 -0.21667806175E+03  0.21167790155E+03 -0.35851197295E+03  0.46934823042E+03  0.10100000352E+00 0.  1.
</event>
<event>
 5   0  0.5755078E-02  0.6042850E+03  0.7818609E-02  0.9896556E-01
       -2   -1    0    0    0  501  0.00000000000E+00  0.00000000000E+00  0.15397084258E+03  0.15397084260E+03  0.25500000920E-02 0.  1.
        2   -1    0    0  501    0  0.00000000000E+00  0.00000000000E+00 -0.59290509936E+03  0.59290509937E+03  0.25500000920E-02 0. -1.
    10030    2    1    2    0    0  0.00000000000E+00  0.00000000000E+00 -0.43893425678E+03  0.74687594197E+03  0.60428502457E+03 0.  0.
        2    1    3    3  502    0 -0.19436905082E+03  0.14442023399E+03 -0.44280992280E+03  0.50469511553E+03  0.25500000920E-02 0. -1.
       -2    1    3    3    0  502  0.19436905082E+03 -0.14442023399E+03  0.38756660220E+01  0.24218082644E+03  0.25500000920E-02 0.  1.
</event>
<event>
 5   0  0.5755078E-02  0.5972844E+03  0.7818609E-02  0.9911056E-01
        2   -1    0    0  501    0  0.00000000000E+00  0.00000000000E+00  0.15425552818E+04  0.15425552818E+04  0.25500000920E-02 0.  1.
       -2   -1    0    0    0  501  0.00000000000E+00  0.00000000000E+00 -0.57817797810E+02  0.57817797866E+02  0.25500000920E-02 0. -1.
    10030    2    1    2    0    0  0.00000000000E+00  0.00000000000E+00  0.14847374840E+04  0.16003730797E+04  0.59728435252E+03 0.  0.
        2    1    3    3  502    0 -0.13094451464E+03  0.17051024921E+03  0.12977705700E+04  0.13154575870E+04  0.25500000920E-02 0.  1.
       -2    1    3    3    0  502  0.13094451464E+03 -0.17051024921E+03  0.18696691404E+03  0.28491549265E+03  0.25500000920E-02 0. -1.
</event>
<event>
 5   0  0.2388000E-02  0.5990250E+03  0.7818609E-02  0.9907431E-01
       -3   -1    0    0    0  501  0.00000000000E+00  0.00000000000E+00  0.13521569243E+03  0.13521573016E+03  0.10100000352E+00 0.  1.
        3   -1    0    0  501    0  0.00000000000E+00  0.00000000000E+00 -0.66344172109E+03  0.66344172878E+03  0.10100000352E+00 0. -1.
    10030    2    1    2    0    0  0.00000000000E+00  0.00000000000E+00 -0.52822602865E+03  0.79865745893E+03  0.59902504068E+03 0.  0.
        3    1    3    3  502    0 -0.26304115916E+03  0.85603690535E+01 -0.45474530865E+03  0.52541149328E+03  0.10100000352E+00 0. -1.
       -3    1    3    3    0  502  0.26304115916E+03 -0.85603690535E+01 -0.73480720007E+02  0.27324596565E+03  0.10100000352E+00 0.  1.
</event>
<event>
 5   0  0.6007360E-02  0.5991187E+03  0.7818609E-02  0.9907236E-01
        2   -1    0    0  501    0  0.00000000000E+00  0.00000000000E+00  0.12565779689E+04  0.12565779689E+04  0.25500000920E-02 0.  1.
       -2   -1    0    0    0  501  0.00000000000E+00  0.00000000000E+00 -0.71412832651E+02  0.71412832696E+02  0.25500000920E-02 0. -1.
    10030    2    1    2    0    0  0.00000000000E+00  0.00000000000E+00  0.11851651362E+04  0.13279908016E+04  0.59911866015E+03 0.  0.
        4    1    3    3  502    0 -0.14025156715E+03  0.21279301551E+03  0.24363715618E+03  0.35257913482E+03  0.12699999809E+01 0. -1.
       -4    1    3    3    0  502  0.14025156715E+03 -0.21279301551E+03  0.94152798003E+03  0.97541166674E+03  0.12699999809E+01 0.  1.
</event>
<event>
 5   0  0.2388000E-02  0.6007531E+03  0.7818609E-02  0.9903845E-01
        3   -1    0    0  501    0  0.00000000000E+00  0.00000000000E+00  0.22716970241E+03  0.22716972486E+03  0.10100000352E+00 0.  1.
       -3   -1    0    0    0  501  0.00000000000E+00  0.00000000000E+00 -0.39717470662E+03  0.39717471946E+03  0.10100000352E+00 0. -1.
    10030    2    1    2    0    0  0.00000000000E+00  0.00000000000E+00 -0.17000500421E+03  0.62434444432E+03  0.60075309712E+03 0.  0.
        3    1    3    3  502    0 -0.13714791112E+03  0.99395090865E+02  0.17280576616E+03  0.24197267745E+03  0.10100000352E+00 0.  1.
       -3    1    3    3    0  502  0.13714791112E+03 -0.99395090865E+02 -0.34281077038E+03  0.38237176687E+03  0.10100000352E+00 0. -1.
</event>
<event>
 5   0  0.3703280E-02  0.6192433E+03  0.7818609E-02  0.9866267E-01
       -1   -1    0    0    0  501  0.00000000000E+00  0.00000000000E+00  0.31312048283E+03  0.31312048288E+03  0.50400001928E-02 0. -1.
        1   -1    0    0  501    0  0.00000000000E+00  0.00000000000E+00 -0.30616192594E+03  0.30616192599E+03  0.50400001928E-02 0.  1.
    10030    2    1    2    0    0  0.00000000000E+00  0.00000000000E+00  0.69585568906E+01  0.61928240886E+03  0.61924331277E+03 0.  0.
        5    1    3    3  502    0 -0.59111200922E+02 -0.93345392860E+02 -0.28573784545E+03  0.30639142084E+03  0.46999998093E+01 0.  1.
       -5    1    3    3    0  502  0.59111200922E+02  0.93345392860E+02  0.29269640234E+03  0.31289098802E+03  0.46999998093E+01 0. -1.
</event>
<event>
 5   0  0.3651984E-02  0.5985915E+03  0.7818609E-02  0.9908333E-01
        1   -1    0    0  501    0  0.00000000000E+00  0.00000000000E+00  0.12895840785E+03  0.12895840795E+03  0.50400001928E-02 0.  1.
       -1   -1    0    0    0  501  0.00000000000E+00  0.00000000000E+00 -0.69462659814E+03  0.69462659816E+03  0.50400001928E-02 0. -1.
    10030    2    1    2    0    0  0.00000000000E+00  0.00000000000E+00 -0.56566819030E+03  0.82358500611E+03  0.59859148071E+03 0.  0.
        1    1    3    3  502    0  0.80971509095E+02 -0.14428187727E+03 -0.62598732047E+03  0.64748264132E+03  0.50400001928E-02 0. -1.
       -1    1    3    3    0  502 -0.80971509095E+02  0.14428187727E+03  0.60319130174E+02  0.17610236479E+03  0.50400001928E-02 0.  1.
</event>
<event>
 5   0  0.3767635E-02  0.5965266E+03  0.7818609E-02  0.9912639E-01
       -1   -1    0    0    0  501  0.00000000000E+00  0.00000000000E+00  0.93726077036E+03  0.93726077037E+03  0.50400001928E-02 0. -1.
        1   -1    0    0  501    0  0.00000000000E+00  0.00000000000E+00 -0.94915935951E+02  0.94915936084E+02  0.50400001928E-02 0.  1.
    10030    2    1    2    0    0  0.00000000000E+00  0.00000000000E+00  0.84234483441E+03  0.10321767065E+04  0.59652655708E+03 0.  0.
        2    1    3    3  502    0 -0.28382848867E+02 -0.29261099523E+03  0.50827778999E+03  0.58717381791E+03  0.25500000920E-02 0.  1.
       -2    1    3    3    0  502  0.28382848867E+02  0.29261099523E+03  0.33406704442E+03  0.44500288855E+03  0.25500000920E-02 0. -1.
</event>
<event>
 5   0  0.5999117E-02  0.6159533E+03  0.7818609E-02  0.9872850E-01
       -2   -1    0    0    0  501  0.00000000000E+00  0.00000000000E+00  0.80641397798E+02  0.80641397839E+02  0.25500000920E-02 0.  1.
        2   -1    0    0  501    0  0.00000000000E+00  0.00000000000E+00 -0.11761902167E+04  0.11761902167E+04  0.25500000920E-02 0. -1.
    10030    2    1    2    0    0  0.00000000000E+00  0.00000000000E+00 -0.10955488189E+04  0.12568316146E+04  0.61595332025E+03 0.  0.
        5    1    3    3  502    0  0.44050278502E+01 -0.54715710427E+01 -0.11759535385E+04  0.11759839103E+04  0.46999998093E+01 0. -1.
       -5    1    3    3    0  502 -0.44050278502E+01  0.54715710427E+01  0.80404719611E+02  0.80847704321E+02  0.46999998093E+01 0.  1.
</event>
<event>
 5   0  0.3640827E-02  0.5372524E+03  0.7818609E-02  0.1004488E+00
       -1   -1    0    0    0  501  0.00000000000E+00  0.00000000000E+00  0.23807589125E+03  0.23807589131E+03  0.50400001928E-02 0. -1.
        1   -1    0    0  501    0  0.00000000000E+00  0.00000000000E+00 -0.30309676281E+03  0.30309676285E+03  0.50400001928E-02 0.  1.
    10030    2    1    2    0    0  0.00000000000E+00  0.00000000000E+00 -0.65020871558E+02  0.54117265416E+03  0.53725238750E+03 0.  0.
        3    1    3    3  502    0  0.15565648702E+03 -0.16678511420E+03 -0.17536845106E+03  0.28775044761E+03  0.10100000352E+00 0.  1.
       -3    1    3    3    0  502 -0.15565648702E+03  0.16678511420E+03  0.11034757950E+03  0.25342220655E+03  0.10100000352E+00 0. -1.
</event>
<event>
 5   0  0.3767635E-02  0.5996108E+03  0.7818609E-02  0.9906214E-01
       -1   -1    0    0    0  501  0.00000000000E+00  0.00000000000E+00  0.11968764264E+03  0.11968764275E+03  0.50400001928E-02 0. -1.
        1   -1    0    0  501    0  0.00000000000E+00  0.00000000000E+00 -0.75098205306E+03  0.75098205308E+03  0.50400001928E-02 0.  1.
    10030    2    1    2    0    0  0.00000000000E+00  0.00000000000E+00 -0.63129441042E+03  0.87066969583E+03  0.59961077926E+03 0.  0.
        2    1    3    3  502    0  0.26682885186E+03  0.11575229331E+03 -0.42122932558E+03  0.51188902541E+03  0.25500000920E-02 0.  1.
       -2    1    3    3    0  502 -0.26682885186E+03 -0.11575229331E+03 -0.21006508484E+03  0.35878067042E+03  0.25500000920E-02 0. -1.
</event>
<event>
 5   0  0.5935451E-02  0.6021678E+03  0.7818609E-02  0.9900919E-01
       -2   -1    0    0    0  501  0.00000000000E+00  0.00000000000E+00  0.95416049792E+02  0.95416049827E+02  0.25500000920E-02 0.  1.
        2   -1    0    0  501    0  0.00000000000E+00  0.00000000000E+00 -0.95006558833E+03  0.95006558833E+03  0.25500000920E-02 0. -1.
    10030    2    1    2    0    0  0.00000000000E+00  0.00000000000E+00 -0.85464953853E+03  0.10454816382E+04  0.60216776899E+03 0.  0.
        3    1    3    3  502    0 -0.64889832565E+02 -0.11821456437E+03  0.40051236782E+02  0.14067510571E+03  0.10100000352E+00 0.  1.
       -3    1    3    3    0  502  0.64889832565E+02  0.11821456437E+03 -0.89470077532E+03  0.90480653244E+03  0.10100000352E+00 0. -1.
</event>
<event>
 5   0  0.3640827E-02  0.5990302E+03  0.7818609E-02  0.9907420E-01
       -1   -1    0    0    0  501  0.00000000000E+00  0.00000000000E+00  0.10135938311E+03  0.10135938324E+03  0.50400001928E-02 0.  1.
        1   -1    0    0  501    0  0.00000000000E+00  0.00000000000E+00 -0.88506154016E+03  0.88506154018E+03  0.50400001928E-02 0. -1.
    10030    2    1    2    0    0  0.00000000000E+00  0.00000000000E+00 -0.78370215705E+03  0.98642092341E+03  0.59903018887E+03 0.  0.
        3    1    3    3  502    0 -0.18850889116E+03  0.18634096343E+03 -0.16219314028E+03  0.31074938722E+03  0.10100000352E+00 0.  1.
       -3    1    3    3    0  502  0.18850889116E+03 -0.18634096343E+03 -0.62150901677E+03  0.67567153619E+03  0.10100000352E+00 0. -1.
</event>
<event>
 5   0  0.3640827E-02  0.6015367E+03  0.7818609E-02  0.9902223E-01
       -1   -1    0    0    0  501  0.00000000000E+00  0.00000000000E+00  0.10592749863E+04  0.10592749864E+04  0.50400001928E-02 0.  1.
        1   -1    0    0  501    0  0.00000000000E+00  0.00000000000E+00 -0.85399551891E+02  0.85399552040E+02  0.50400001928E-02 0. -1.
    10030    2    1    2    0    0  0.00000000000E+00  0.00000000000E+00  0.97387543446E+03  0.11446745384E+04  0.60153672957E+03 0.  0.
        3    1    3    3  502    0 -0.71722135401E+02 -0.99247490204E+02 -0.35819175518E+02  0.12758194447E+03  0.10100000352E+00 0. -1.
       -3    1    3    3    0  502  0.71722135401E+02  0.99247490204E+02  0.10096946100E+04  0.10170925939E+04  0.10100000352E+00 0.  1.
</event>
<event>
 5   0  0.3651984E-02  0.5964659E+03  0.7818609E-02  0.9912765E-01
       -1   -1    0    0    0  501  0.00000000000E+00  0.00000000000E+00  0.22039570759E+03  0.22039570765E+03  0.50400001928E-02 0. -1.
        1   -1    0    0  501    0  0.00000000000E+00  0.00000000000E+00 -0.40356001471E+03  0.40356001474E+03  0.50400001928E-02 0.  1.
    10030    2    1    2    0    0  0.00000000000E+00  0.00000000000E+00 -0.18316430711E+03  0.62395572239E+03  0.59646590859E+03 0.  0.
        1    1    3    3  502    0  0.23004960834E+03  0.11122132207E+03  0.69290679589E+02  0.26475309835E+03  0.50400001928E-02 0. -1.
       -1    1    3    3    0  502 -0.23004960834E+03 -0.11122132207E+03 -0.25245498670E+03  0.35920262404E+03  0.50400001928E-02 0.  1.
</event>
<event>
 5   0  0.2388000E-02  0.5974746E+03  0.7818609E-02  0.9910659E-01
       -4   -1    0    0    0  501  0.00000000000E+00  0.00000000000E+00  0.26603783969E+03  0.26604087101E+03  0.12699999809E+01 0.  1.
        4   -1    0    0  501    0  0.00000000000E+00  0.00000000000E+00 -0.33544981216E+03  0.33545221624E+03  0.12699999809E+01 0. -1.
    10030    2    1    2    0    0  0.00000000000E+00  0.00000000000E+00 -0.69411972471E+02  0.60149308724E+03  0.59747461208E+03 0.  0.
        2    1    3    3  502    0 -0.12213805189E+03  0.27243608047E+03 -0.45014796801E+02  0.30193617471E+03  0.25500000920E-02 0. -1.
       -2    1    3    3    0  502  0.12213805189E+03 -0.27243608047E+03 -0.24397175670E+02  0.29955691253E+03  0.25500000920E-02 0.  1.
</event>
<event>
 5   0  0.3478183E-02  0.5994327E+03  0.7818609E-02  0.9906584E-01
        1   -1    0    0  501    0  0.00000000000E+00  0.00000000000E+00  0.32750202080E+03  0.32750202084E+03  0.50400001928E-02 0. -1.
       -1   -1    0    0    0  501  0.00000000000E+00  0.00000000000E+00 -0.27428807467E+03  0.27428807471E+03  0.50400001928E-02 0.  1.
    10030    2    1    2    0    0  0.00000000000E+00  0.00000000000E+00  0.53213946131E+02  0.60179009555E+03  0.59943272770E+03 0.  0.
        4    1    3    3  502    0  0.17418508972E+02 -0.16583587610E+03 -0.22341729947E+03  0.27878637854E+03  0.12699999809E+01 0.  1.
       -4    1    3    3    0  502 -0.17418508972E+02  0.16583587610E+03  0.27663124560E+03  0.32300371701E+03  0.12699999809E+01 0. -1.
</event>
<event>
 5   0  0.3767635E-02  0.5999727E+03  0.7818609E-02  0.9905463E-01
       -1   -1    0    0    0  501  0.00000000000E+00  0.00000000000E+00  0.12249147479E+03  0.12249147490E+03  0.50400001928E-02 0.  1.
        1   -1    0    0  501    0  0.00000000000E+00  0.00000000000E+00 -0.73467826233E+03  0.73467826235E+03  0.50400001928E-02 0. -1.
    10030    2    1    2    0    0  0.00000000000E+00  0.00000000000E+00 -0.61218678754E+03  0.85716973725E+03  0.59997274573E+03 0.  0.
        2    1    3    3  502    0 -0.72439904010E+02 -0.17272819014E+02 -0.72126216494E+03  0.72509654568E+03  0.25500000920E-02 0. -1.
       -2    1    3    3    0  502  0.72439904010E+02  0.17272819014E+02  0.10907537740E+03  0.13207319157E+03  0.25500000920E-02 0.  1.
</event>
<event>
 5   0  0.5935451E-02  0.6030605E+03  0.7818609E-02  0.9899077E-01
        2   -1    0    0  501    0  0.00000000000E+00  0.00000000000E+00  0.15226916311E+04  0.15226916311E+04  0.25500000920E-02 0.  1.
       -2   -1    0    0    0  501  0.00000000000E+00  0.00000000000E+00 -0.59710376155E+02  0.59710376209E+02  0.25500000920E-02 0. -1.
    10030    2    1    2    0    0  0.00000000000E+00  0.00000000000E+00  0.14629812549E+04  0.15824020073E+04  0.60306049483E+03 0.  0.
        3    1    3    3  502    0 -0.19229640238E+03 -0.15423928392E+03  0.27585267644E+03  0.36994914836E+03  0.10100000352E+00 0. -1.
       -3    1    3    3    0  502  0.19229640238E+03  0.15423928392E+03  0.11871285785E+04  0.12124528589E+04  0.10100000352E+00 0.  1.
</event>
<event>
 5   0  0.6007360E-02  0.6022624E+03  0.7818609E-02  0.9900723E-01
       -2   -1    0    0    0  501  0.00000000000E+00  0.00000000000E+00  0.18563496602E+03  0.18563496604E+03  0.25500000920E-02 0. -1.
        2   -1    0    0  501    0  0.00000000000E+00  0.00000000000E+00 -0.48848555870E+03  0.48848555871E+03  0.25500000920E-02 0.  1.
    10030    2    1    2    0    0  0.00000000000E+00  0.00000000000E+00 -0.30285059268E+03  0.67412052475E+03  0.60226240162E+03 0.  0.
        4    1    3    3  502    0 -0.17575394597E+03 -0.17713683882E+03 -0.34009349894E+03  0.42181999729E+03  0.12699999809E+01 0.  1.
       -4    1    3    3    0  502  0.17575394597E+03  0.17713683882E+03  0.37242906267E+02  0.25230052746E+03  0.12699999809E+01 0. -1.
</event>
<event>
 5   0  0.6007360E-02  0.5942620E+03  0.7818609E-02  0.9917383E-01
        2   -1    0    0  501    0  0.00000000000E+00  0.00000000000E+00  0.14955563528E+04  0.14955563528E+04  0.25500000920E-02 0.  1.
       -2   -1    0    0    0  501  0.00000000000E+00  0.00000000000E+00 -0.59032772393E+02  0.59032772448E+02  0.25500000920E-02 0. -1.
    10030    2    1    2    0    0  0.00000000000E+00  0.00000000000E+00  0.14365235804E+04  0.15545891253E+04  0.59426202241E+03 0.  0.
        4    1    3    3  502    0  0.21232342317E+03  0.11041260774E+03  0.25757065759E+03  0.35159129188E+03  0.12699999809E+01 0. -1.
       -4    1    3    3    0  502 -0.21232342317E+03 -0.11041260774E+03  0.11789529228E+04  0.12029978334E+04  0.12699999809E+01 0.  1.
</event>
<event>
 5   0  0.3703280E-02  0.5989061E+03  0.7818609E-02  0.9907678E-01
        1   -1    0    0  501    0  0.00000000000E+00  0.00000000000E+00  0.33922290920E+03  0.33922290924E+03  0.50400001928E-02 0.  1.
       -1   -1    0    0    0  501  0.00000000000E+00  0.00000000000E+00 -0.26434569289E+03  0.26434569294E+03  0.50400001928E-02 0. -1.
    10030    2    1    2    0    0  0.00000000000E+00  0.00000000000E+00  0.74877216312E+02  0.60356860218E+03  0.59890605274E+03 0.  0.
        5    1    3    3  502    0  0.17322357513E+03  0.84982508780E+02 -0.19330147091E+03  0.27315926203E+03  0.46999998093E+01 0. -1.
       -5    1    3    3    0  502 -0.17322357513E+03 -0.84982508780E+02  0.26817868722E+03  0.33040934015E+03  0.46999998093E+01 0.  1.
</event>
<event>
 5   0  0.3640827E-02  0.6086961E+03  0.7818609E-02  0.9887527E-01
        1   -1    0    0  501    0  0.00000000000E+00  0.00000000000E+00  0.18183754011E+03  0.18183754018E+03  0.50400001928E-02 0.  1.
       -1   -1    0    0    0  501  0.00000000000E+00  0.00000000000E+00 -0.50939825422E+03  0.50939825425E+03  0.50400001928E-02 0. -1.
    10030    2    1    2    0    0  0.00000000000E+00  0.00000000000E+00 -0.32756071411E+03  0.69123579443E+03  0.60869606707E+03 0.  0.
        3    1    3    3  502    0  0.13444319366E+03 -0.27269599258E+03 -0.14814207207E+03  0.33820727433E+03  0.10100000352E+00 0.  1.
       -3    1    3    3    0  502 -0.13444319366E+03  0.27269599258E+03 -0.17941864204E+03  0.35302852010E+03  0.10100000352E+00 0. -1.
</event>
<event>
 5   0  0.6007360E-02  0.5917839E+03  0.7818609E-02  0.9922600E-01
       -2   -1    0    0    0  501  0.00000000000E+00  0.00000000000E+00  0.36248574717E+02  0.36248574806E+02  0.25500000920E-02 0. -1.
        2   -1    0    0  501    0  0.00000000000E+00  0.00000000000E+00 -0.24153236134E+04  0.24153236134E+04  0.25500000920E-02 0.  1.
    10030    2    1    2    0    0  0.00000000000E+00  0.00000000000E+00 -0.23790750387E+04  0.24515721882E+04  0.59178387466E+03 0.  0.
        4    1    3    3  502    0 -0.15757103294E+03 -0.22300836441E+03 -0.71739784279E+03  0.76760838893E+03  0.12699999809E+01 0. -1.
       -4    1    3    3    0  502  0.15757103294E+03  0.22300836441E+03 -0.16616771959E+04  0.16839637993E+04  0.12699999809E+01 0.  1.
</event>
<event>
 5   0  0.2388000E-02  0.5970210E+03  0.7818609E-02  0.9911606E-01
       -3   -1    0    0    0  501  0.00000000000E+00  0.00000000000E+00  0.15516292997E+03  0.15516296284E+03  0.10100000352E+00 0.  1.
        3   -1    0    0  501    0  0.00000000000E+00  0.00000000000E+00 -0.57428986210E+03  0.57428987098E+03  0.10100000352E+00 0. -1.
    10030    2    1    2    0    0  0.00000000000E+00  0.00000000000E+00 -0.41912693213E+03  0.72945283382E+03  0.59702098081E+03 0.  0.
        3    1    3    3  502    0  0.18246288147E+02 -0.25304805853E+03 -0.17375023305E+02  0.25429932873E+03  0.10100000352E+00 0.  1.
       -3    1    3    3    0  502 -0.18246288147E+02  0.25304805853E+03 -0.40175190883E+03  0.47515350509E+03  0.10100000352E+00 0. -1.
</event>
<event>
 5   0  0.5999117E-02  0.5790794E+03  0.7818609E-02  0.9949786E-01
       -2   -1    0    0    0  501  0.00000000000E+00  0.00000000000E+00  0.36959852532E+03  0.36959852533E+03  0.25500000920E-02 0.  1.
        2   -1    0    0  501    0  0.00000000000E+00  0.00000000000E+00 -0.22682245415E+03  0.22682245416E+03  0.25500000920E-02 0. -1.
    10030    2    1    2    0    0  0.00000000000E+00  0.00000000000E+00  0.14277607117E+03  0.59642097950E+03  0.57907942312E+03 0.  0.
        5    1    3    3  502    0  0.78031908203E+02 -0.25618928621E+03 -0.41855655912E+02  0.27110130024E+03  0.46999998093E+01 0. -1.
       -5    1    3    3    0  502 -0.78031908203E+02  0.25618928621E+03  0.18463172709E+03  0.32531967925E+03  0.46999998093E+01 0.  1.
</event>
<event>
 5   0  0.3703280E-02  0.6011140E+03  0.7818609E-02  0.9903098E-01
       -1   -1    0    0    0  501  0.00000000000E+00  0.00000000000E+00  0.45620751932E+02  0.45620752211E+02  0.50400001928E-02 0.  1.
        1   -1    0    0  501    0  0.00000000000E+00  0.00000000000E+00 -0.19801188210E+04  0.19801188210E+04  0.50400001928E-02 0. -1.
    10030    2    1    2    0    0  0.00000000000E+00  0.00000000000E+00 -0.19344980690E+04  0.20257395732E+04  0.60111399856E+03 0.  0.
        5    1    3    3  502    0 -0.29825554387E+03  0.29823424367E+02 -0.89445336817E+03  0.94335291589E+03  0.46999998093E+01 0.  1.
       -5    1    3    3    0  502  0.29825554387E+03 -0.29823424367E+02 -0.10400447009E+04  0.10823866573E+04  0.46999998093E+01 0. -1.
</event>
<event>
 5   0  0.3640827E-02  0.6000431E+03  0.7818609E-02  0.9905317E-01
        1   -1    0    0  501    0  0.00000000000E+00  0.00000000000E+00  0.47307343789E+03  0.47307343791E+03  0.50400001928E-02 0. -1.
       -1   -1    0    0    0  501  0.00000000000E+00  0.00000000000E+00 -0.19027264651E+03  0.19027264657E+03  0.50400001928E-02 0.  1.
    10030    2    1    2    0    0  0.00000000000E+00  0.00000000000E+00  0.28280079138E+03  0.66334608449E+03  0.60004311528E+03 0.  0.
        3    1    3    3  502    0  0.23251723043E+03  0.16296408845E+03  0.34267671446E+02  0.28599972042E+03  0.10100000352E+00 0.  1.
       -3    1    3    3    0  502 -0.23251723043E+03 -0.16296408845E+03  0.24853311993E+03  0.37734636407E+03  0.10100000352E+00 0. -1.
</event>
<event>
 5   0  0.5755078E-02  0.5964754E+03  0.7818609E-02  0.9912746E-01
       -2   -1    0    0    0  501  0.00000000000E+00  0.00000000000E+00  0.69968253264E+02  0.69968253311E+02  0.25500000920E-02 0. -1.
        2   -1    0    0  501    0  0.00000000000E+00  0.00000000000E+00 -0.12712296608E+04  0.12712296608E+04  0.25500000920E-02 0.  1.
    10030    2    1    2    0    0  0.00000000000E+00  0.00000000000E+00 -0.12012614075E+04  0.13411979141E+04  0.59647537717E+03 0.  0.
        2    1    3    3  502    0  0.13466044927E+03  0.25322376375E+03 -0.41671718245E+03  0.50587441256E+03  0.25500000920E-02 0.  1.
       -2    1    3    3    0  502 -0.13466044927E+03 -0.25322376375E+03 -0.78454422505E+03  0.83532350152E+03  0.25500000920E-02 0. -1.
</event>
<event>
 5   0  0.5999117E-02  0.6023759E+03  0.7818609E-02  0.9900489E-01
        2   -1    0    0  501    0  0.00000000000E+00  0.00000000000E+00  0.41822513473E+03  0.41822513473E+03  0.25500000920E-02 0. -1.
       -2   -1    0    0    0  501  0.00000000000E+00  0.00000000000E+00 -0.21690276157E+03  0.21690276158E+03  0.25500000920E-02 0.  1.
    10030    2    1    2    0    0  0.00000000000E+00  0.00000000000E+00  0.20132237316E+03  0.63512789632E+03  0.60237591813E+03 0.  0.
        5    1    3    3  502    0 -0.19048775786E+03 -0.12660350045E+03 -0.10589353230E+03  0.25209038538E+03  0.46999998093E+01 0.  1.
       -5    1    3    3    0  502  0.19048775786E+03  0.12660350045E+03  0.30721590546E+03  0.38303751094E+03  0.46999998093E+01 0. -1.
</event>
<event>
 5   0  0.5872632E-02  0.6001525E+03  0.7818609E-02  0.9905090E-01
        2   -1    0    0  501    0  0.00000000000E+00  0.00000000000E+00  0.44943173756E+03  0.44943173757E+03  0.25500000920E-02 0.  1.
       -2   -1    0    0    0  501  0.00000000000E+00  0.00000000000E+00 -0.20035466451E+03  0.20035466452E+03  0.25500000920E-02 0. -1.
    10030    2    1    2    0    0  0.00000000000E+00  0.00000000000E+00  0.24907707305E+03  0.64978640209E+03  0.60015246398E+03 0.  0.
        1    1    3    3  502    0 -0.79713642355E+02 -0.21644660337E+03  0.33235630448E+03  0.40455421150E+03  0.50400001928E-02 0.  1.
       -1    1    3    3    0  502  0.79713642355E+02  0.21644660337E+03 -0.83279231426E+02  0.24523219059E+03  0.50400001928E-02 0. -1.
</event>
<event>
 5   0  0.6007360E-02  0.6043655E+03  0.7818609E-02  0.9896390E-01
       -2   -1    0    0    0  501  0.00000000000E+00  0.00000000000E+00  0.27954040399E+03  0.27954040401E+03  0.25500000920E-02 0.  1.
        2   -1    0    0  501    0  0.00000000000E+00  0.00000000000E+00 -0.32665903865E+03  0.32665903866E+03  0.25500000920E-02 0. -1.
    10030    2    1    2    0    0  0.00000000000E+00  0.00000000000E+00 -0.47118634654E+02  0.60619944266E+03  0.60436545116E+03 0.  0.
        4    1    3    3  502    0  0.22337787261E+03 -0.95402363550E+02  0.15674574296E+03  0.28908498020E+03  0.12699999809E+01 0.  1.
       -4    1    3    3    0  502 -0.22337787261E+03  0.95402363550E+02 -0.20386437761E+03  0.31711446246E+03  0.12699999809E+01 0. -1.
</event>
<event>
 5   0  0.5999117E-02  0.6025847E+03  0.7818609E-02  0.9900058E-01
        2   -1    0    0  501    0  0.00000000000E+00  0.00000000000E+00  0.42448487649E+03  0.42448487650E+03  0.25500000920E-02 0. -1.
       -2   -1    0    0    0  501  0.00000000000E+00  0.00000000000E+00 -0.21385232115E+03  0.21385232116E+03  0.25500000920E-02 0.  1.
    10030    2    1    2    0    0  0.00000000000E+00  0.00000000000E+00  0.21063255534E+03  0.63833719766E+03  0.60258468662E+03 0.  0.
        5    1    3    3  502    0 -0.82274141409E+02  0.82330024125E+02 -0.18903262604E+03  0.22204209269E+03  0.46999998093E+01 0.  1.
       -5    1    3    3    0  502  0.82274141409E+02 -0.82330024125E+02  0.39966518139E+03  0.41629510498E+03  0.46999998093E+01 0. -1.
</event>
<event>
 5   0  0.5935451E-02  0.5946140E+03  0.7818609E-02  0.9916644E-01
       -2   -1    0    0    0  501  0.00000000000E+00  0.00000000000E+00  0.11651358626E+03  0.11651358628E+03  0.25500000920E-02 0.  1.
        2   -1    0    0  501    0  0.00000000000E+00  0.00000000000E+00 -0.75863632824E+03  0.75863632825E+03  0.25500000920E-02 0. -1.
    10030    2    1    2    0    0  0.00000000000E+00  0.00000000000E+00 -0.64212274199E+03  0.87514991453E+03  0.59461395638E+03 0.  0.
        3    1    3    3  502    0  0.20197166299E+03 -0.10986817824E+03 -0.43645131959E+02  0.23402665871E+03  0.10100000352E+00 0.  1.
       -3    1    3    3    0  502 -0.20197166299E+03  0.10986817824E+03 -0.59847761003E+03  0.64112325582E+03  0.10100000352E+00 0. -1.
</event>
<event>
 5   0  0.3767635E-02  0.5912618E+03  0.7818609E-02  0.9923703E-01
       -1   -1    0    0    0  501  0.00000000000E+00  0.00000000000E+00  0.30649247416E+03  0.30649247420E+03  0.50400001928E-02 0. -1.
        1   -1    0    0  501    0  0.00000000000E+00  0.00000000000E+00 -0.28515427222E+03  0.28515427226E+03  0.50400001928E-02 0.  1.
    10030    2    1    2    0    0  0.00000000000E+00  0.00000000000E+00  0.21338201938E+02  0.59164674646E+03  0.59126183179E+03 0.  0.
        2    1    3    3  502    0  0.18627734761E+03  0.12203573207E+03 -0.18389427613E+03  0.28880629310E+03  0.25500000920E-02 0.  1.
       -2    1    3    3    0  502 -0.18627734761E+03 -0.12203573207E+03  0.20523247807E+03  0.30284045336E+03  0.25500000920E-02 0. -1.
</event>
<event>
 5   0  0.5999117E-02  0.5857072E+03  0.7818609E-02  0.9935511E-01
       -2   -1    0    0    0  501  0.00000000000E+00  0.00000000000E+00  0.15401492825E+03  0.15401492828E+03  0.25500000920E-02 0.  1.
        2   -1    0    0  501    0  0.00000000000E+00  0.00000000000E+00 -0.55685006433E+03  0.55685006433E+03  0.25500000920E-02 0. -1.
    10030    2    1    2    0    0  0.00000000000E+00  0.00000000000E+00 -0.40283513607E+03  0.71086499261E+03  0.58570717160E+03 0.  0.
        5    1    3    3  502    0 -0.15654532468E+03 -0.96118965762E+02 -0.47816963847E+03  0.51226320131E+03  0.46999998093E+01 0. -1.
       -5    1    3    3    0  502  0.15654532468E+03  0.96118965762E+02  0.75334502396E+02  0.19860179130E+03  0.46999998093E+01 0.  1.
</event>
<event>
 5   0  0.3703280E-02  0.6004654E+03  0.7818609E-02  0.9904441E-01
       -1   -1    0    0    0  501  0.00000000000E+00  0.00000000000E+00  0.26481515271E+03  0.26481515275E+03  0.50400001928E-02 0.  1.
        1   -1    0    0  501    0  0.00000000000E+00  0.00000000000E+00 -0.34038719134E+03  0.34038719138E+03  0.50400001928E-02 0. -1.
    10030    2    1    2    0    0  0.00000000000E+00  0.00000000000E+00 -0.75572038639E+02  0.60520234413E+03  0.60046543974E+03 0.  0.
        5    1    3    3  502    0  0.27555399999E+02 -0.26834659478E+03 -0.17053839821E+03  0.31917805417E+03  0.46999998093E+01 0. -1.
       -5    1    3    3    0  502 -0.27555399999E+02  0.26834659478E+03  0.94966359571E+02  0.28602428996E+03  0.46999998093E+01 0.  1.
</event>
<event>
 5   0  0.3640827E-02  0.6032117E+03  0.7818609E-02  0.9898765E-01
       -1   -1    0    0    0  501  0.00000000000E+00  0.00000000000E+00  0.29863173105E+03  0.29863173109E+03  0.50400001928E-02 0.  1.
        1   -1    0    0  501    0  0.00000000000E+00  0.00000000000E+00 -0.30460960895E+03  0.30460960900E+03  0.50400001928E-02 0. -1.
    10030    2    1    2    0    0  0.00000000000E+00  0.00000000000E+00 -0.59778779045E+01  0.60324134009E+03  0.60321172018E+03 0.  0.
        3    1    3    3  502    0 -0.21794677067E+03 -0.13352183354E+03  0.15713516162E+03  0.30003390492E+03  0.10100000352E+00 0.  1.
       -3    1    3    3    0  502  0.21794677067E+03  0.13352183354E+03 -0.16311303953E+03  0.30320743517E+03  0.10100000352E+00 0. -1.
</event>
<event>
 5   0  0.3703280E-02  0.5990335E+03  0.7818609E-02  0.9907413E-01
       -1   -1    0    0    0  501  0.00000000000E+00  0.00000000000E+00  0.11006973545E+03  0.11006973556E+03  0.50400001928E-02 0.  1.
        1   -1    0    0  501    0  0.00000000000E+00  0.00000000000E+00 -0.81503138097E+03  0.81503138099E+03  0.50400001928E-02 0. -1.
    10030    2    1    2    0    0  0.00000000000E+00  0.00000000000E+00 -0.70496164553E+03  0.92510111655E+03  0.59903351675E+03 0.  0.
        5    1    3    3  502    0 -0.20129767001E+03  0.21166207868E+03 -0.25043145060E+03  0.38478512049E+03  0.46999998093E+01 0.  1.
       -5    1    3    3    0  502  0.20129767001E+03 -0.21166207868E+03 -0.45453019493E+03  0.54031599606E+03  0.46999998093E+01 0. -1.
</event>
<event>
 5   0  0.3478183E-02  0.6129477E+03  0.7818609E-02  0.9878902E-01
       -1   -1    0    0    0  501  0.00000000000E+00  0.00000000000E+00  0.16134023858E+03  0.16134023866E+03  0.50400001928E-02 0.  1.
        1   -1    0    0  501    0  0.00000000000E+00  0.00000000000E+00 -0.58216232612E+03  0.58216232614E+03  0.50400001928E-02 0. -1.
    10030    2    1    2    0    0  0.00000000000E+00  0.00000000000E+00 -0.42082208754E+03  0.74350256480E+03  0.61294766049E+03 0.  0.
        4    1    3    3  502    0  0.24607934723E+02  0.19381216235E+02  0.15939021838E+03  0.16244394913E+03  0.12699999809E+01 0.  1.
       -4    1    3    3    0  502 -0.24607934723E+02 -0.19381216235E+02 -0.58021230592E+03  0.58105861567E+03  0.12699999809E+01 0. -1.
</event>
<event>
 5   0  0.5935451E-02  0.6076165E+03  0.7818609E-02  0.9889729E-01
        2   -1    0    0  501    0  0.00000000000E+00  0.00000000000E+00  0.15395300429E+04  0.15395300429E+04  0.25500000920E-02 0. -1.
       -2   -1    0    0    0  501  0.00000000000E+00  0.00000000000E+00 -0.59953009687E+02  0.59953009741E+02  0.25500000920E-02 0.  1.
    10030    2    1    2    0    0  0.00000000000E+00  0.00000000000E+00  0.14795770333E+04  0.15994830527E+04  0.60761652256E+03 0.  0.
        3    1    3    3  502    0 -0.22459095742E+03  0.28069104214E+02  0.12732645823E+04  0.12932253011E+04  0.10100000352E+00 0. -1.
       -3    1    3    3    0  502  0.22459095742E+03 -0.28069104214E+02  0.20631245098E+03  0.30625775157E+03  0.10100000352E+00 0.  1.
</event>
<event>
 5   0  0.5999117E-02  0.5864212E+03  0.7818609E-02  0.9933985E-01
        2   -1    0    0  501    0  0.00000000000E+00  0.00000000000E+00  0.45725528088E+03  0.45725528089E+03  0.25500000920E-02 0. -1.
       -2   -1    0    0    0  501  0.00000000000E+00  0.00000000000E+00 -0.18801850432E+03  0.18801850434E+03  0.25500000920E-02 0.  1.
    10030    2    1    2    0    0  0.00000000000E+00  0.00000000000E+00  0.26923677656E+03  0.64527378523E+03  0.58642119339E+03 0.  0.
        5    1    3    3  502    0  0.99159084787E+02 -0.24608245737E+03 -0.26456593421E+01  0.26536425801E+03  0.46999998093E+01 0.  1.
       -5    1    3    3    0  502 -0.99159084787E+02  0.24608245737E+03  0.27188243590E+03  0.37990952722E+03  0.46999998093E+01 0. -1.
</event>
<event>
 5   0  0.3478183E-02  0.6011091E+03  0.7818609E-02  0.9903108E-01
        1   -1    0    0  501    0  0.00000000000E+00  0.00000000000E+00  0.54999533202E+03  0.54999533204E+03  0.50400001928E-02 0.  1.
       -1   -1    0    0    0  501  0.00000000000E+00  0.00000000000E+00 -0.16424327426E+03  0.16424327433E+03  0.50400001928E-02 0. -1.
    10030    2    1    2    0    0  0.00000000000E+00  0.00000000000E+00  0.38575205776E+03  0.71423860638E+03  0.60110908891E+03 0.  0.
        4    1    3    3  502    0  0.18026887071E+03 -0.18810633945E+03  0.37091030438E+03  0.45327356804E+03  0.12699999809E+01 0.  1.
       -4    1    3    3    0  502 -0.18026887071E+03  0.18810633945E+03  0.14841753377E+02  0.26096503833E+03  0.12699999809E+01 0. -1.
</event>
<event>
 5   0  0.5755078E-02  0.5846454E+03  0.7818609E-02  0.9937784E-01
        2   -1    0    0  501    0  0.00000000000E+00  0.00000000000E+00  0.10208726367E+04  0.10208726367E+04  0.25500000920E-02 0.  1.
       -2   -1    0    0    0  501  0.00000000000E+00  0.00000000000E+00 -0.83705415934E+02  0.83705415973E+02  0.25500000920E-02 0. -1.
    10030    2    1    2    0    0  0.00000000000E+00  0.00000000000E+00  0.93716722074E+03  0.11045780527E+04  0.58464542653E+03 0.  0.
        2    1    3    3  502    0 -0.73571911880E+02  0.13174112027E+03 -0.44394050361E+01  0.15095779977E+03  0.25500000920E-02 0. -1.
       -2    1    3    3    0  502  0.73571911880E+02 -0.13174112027E+03  0.94160662578E+03  0.95362025288E+03  0.25500000920E-02 0.  1.
</event>
<event>
 5   0  0.5755078E-02  0.5998363E+03  0.7818609E-02  0.9905746E-01
       -2   -1    0    0    0  501  0.00000000000E+00  0.00000000000E+00  0.27007374056E+03  0.27007374057E+03  0.25500000920E-02 0.  1.
        2   -1    0    0  501    0  0.00000000000E+00  0.00000000000E+00 -0.33306050985E+03  0.33306050986E+03  0.25500000920E-02 0. -1.
    10030    2    1    2    0    0  0.00000000000E+00  0.00000000000E+00 -0.62986769298E+02  0.60313425043E+03  0.59983630345E+03 0.  0.
        2    1    3    3  502    0 -0.14599570187E+03 -0.11751474520E+03 -0.26693122116E+03  0.32615446822E+03  0.25500000920E-02 0. -1.
       -2    1    3    3    0  502  0.14599570187E+03  0.11751474520E+03  0.20394445186E+03  0.27697978221E+03  0.25500000920E-02 0.  1.
</event>
<event>
 5   0  0.3478183E-02  0.6117550E+03  0.7818609E-02  0.9881314E-01
       -1   -1    0    0    0  501  0.00000000000E+00  0.00000000000E+00  0.14583678416E+03  0.14583678425E+03  0.50400001928E-02 0.  1.
        1   -1    0    0  501    0  0.00000000000E+00  0.00000000000E+00 -0.64154620444E+03  0.64154620446E+03  0.50400001928E-02 0. -1.
    10030    2    1    2    0    0  0.00000000000E+00  0.00000000000E+00 -0.49570942028E+03  0.78738298871E+03  0.61175496855E+03 0.  0.
        4    1    3    3  502    0  0.93612404930E+02 -0.28378329818E+03 -0.16381677998E+03  0.34078408558E+03  0.12699999809E+01 0.  1.
       -4    1    3    3    0  502 -0.93612404930E+02  0.28378329818E+03 -0.33189264031E+03  0.44659890313E+03  0.12699999809E+01 0. -1.
</event>
<event>
 5   0  0.5999117E-02  0.6112524E+03  0.7818609E-02  0.9882332E-01
       -2   -1    0    0    0  501  0.00000000000E+00  0.00000000000E+00  0.93941084207E+02  0.93941084242E+02  0.25500000920E-02 0. -1.
        2   -1    0    0  501    0  0.00000000000E+00  0.00000000000E+00 -0.99431871794E+03  0.99431871794E+03  0.25500000920E-02 0.  1.
    10030    2    1    2    0    0  0.00000000000E+00  0.00000000000E+00 -0.90037763373E+03  0.10882598022E+04  0.61125241409E+03 0.  0.
        5    1    3    3  502    0  0.26486018447E+03  0.41849397231E+02 -0.18923752267E+03  0.32823043635E+03  0.46999998093E+01 0. -1.
       -5    1    3    3    0  502 -0.26486018447E+03 -0.41849397231E+02 -0.71114011107E+03  0.76002936584E+03  0.46999998093E+01 0.  1.
</event>
<event>
 5   0  0.2388000E-02  0.5997203E+03  0.7818609E-02  0.9905986E-01
       -3   -1    0    0    0  501  0.00000000000E+00  0.00000000000E+00  0.32628399411E+03  0.32628400975E+03  0.10100000352E+00 0. -1.
        3   -1    0    0  501    0  0.00000000000E+00  0.00000000000E+00 -0.27557622155E+03  0.27557624006E+03  0.10100000352E+00 0.  1.
    10030    2    1    2    0    0  0.00000000000E+00  0.00000000000E+00  0.50707772565E+02  0.60186024980E+03  0.59972033657E+03 0.  0.
        3    1    3    3  502    0  0.17978751613E+02 -0.28206220755E+03 -0.75172321493E+02  0.29246061710E+03  0.10100000352E+00 0.  1.
       -3    1    3    3    0  502 -0.17978751613E+02  0.28206220755E+03  0.12588009406E+03  0.30939963270E+03  0.10100000352E+00 0. -1.
</event>
<event>
 5   0  0.3640827E-02  0.6044658E+03  0.7818609E-02  0.9896184E-01
       -1   -1    0    0    0  501  0.00000000000E+00  0.00000000000E+00  0.50864777678E+03  0.50864777680E+03  0.50400001928E-02 0.  1.
        1   -1    0    0  501    0  0.00000000000E+00  0.00000000000E+00 -0.17958344778E+03  0.17958344785E+03  0.50400001928E-02 0. -1.
    10030    2    1    2    0    0  0.00000000000E+00  0.00000000000E+00  0.32906432900E+03  0.68823122465E+03  0.60446578560E+03 0.  0.
        3    1    3    3  502    0 -0.90267834829E+02  0.71502205746E+02 -0.15362616416E+03  0.19199441644E+03  0.10100000352E+00 0. -1.
       -3    1    3    3    0  502  0.90267834829E+02 -0.71502205746E+02  0.48269049316E+03  0.49623680820E+03  0.10100000352E+00 0.  1.
</event>
<event>
 5   0  0.6007360E-02  0.5957516E+03  0.7818609E-02  0.9914260E-01
        2   -1    0    0  501    0  0.00000000000E+00  0.00000000000E+00  0.46070813786E+03  0.46070813787E+03  0.25500000920E-02 0. -1.
       -2   -1    0    0    0  501  0.00000000000E+00  0.00000000000E+00 -0.19259479400E+03  0.19259479402E+03  0.25500000920E-02 0.  1.
    10030    2    1    2    0    0  0.00000000000E+00  0.00000000000E+00  0.26811334386E+03  0.65330293188E+03  0.59575158888E+03 0.  0.
        4    1    3    3  502    0  0.14119954729E+03 -0.22196973814E+03  0.28726940434E+03  0.38952946021E+03  0.12699999809E+01 0. -1.
       -4    1    3    3    0  502 -0.14119954729E+03  0.22196973814E+03 -0.19156060476E+02  0.26377347167E+03  0.12699999809E+01 0.  1.
</event>
<event>
 5   0  0.2388000E-02  0.6047755E+03  0.7818609E-02  0.9895548E-01
        3   -1    0    0  501    0  0.00000000000E+00  0.00000000000E+00  0.74289879225E+02  0.74289947882E+02  0.10100000352E+00 0.  1.
       -3   -1    0    0    0  501  0.00000000000E+00  0.00000000000E+00 -0.12308314036E+04  0.12308314077E+04  0.10100000352E+00 0. -1.
    10030    2    1    2    0    0  0.00000000000E+00  0.00000000000E+00 -0.11565415243E+04  0.13051213556E+04  0.60477554125E+03 0.  0.
        2    1    3    3  502    0  0.18673254319E+03 -0.22402398009E+03 -0.75067769468E+03  0.80534016889E+03  0.25500000920E-02 0. -1.
       -2    1    3    3    0  502 -0.18673254319E+03  0.22402398009E+03 -0.40586382966E+03  0.49978118669E+03  0.25500000920E-02 0.  1.
</event>
<event>
 5   0  0.2388000E-02  0.6001662E+03  0.7818609E-02  0.9905061E-01
        4   -1    0    0  501    0  0.00000000000E+00  0.00000000000E+00  0.91176239843E+02  0.91185084372E+02  0.12699999809E+01 0. -1.
       -4   -1    0    0    0  501  0.00000000000E+00  0.00000000000E+00 -0.98758914527E+03  0.98758996185E+03  0.12699999809E+01 0.  1.
    10030    2    1    2    0    0  0.00000000000E+00  0.00000000000E+00 -0.89641290543E+03  0.10787750462E+04  0.60016622976E+03 0.  0.
        2    1    3    3  502    0  0.10221815033E+03  0.25665718541E+03 -0.65881186741E+03  0.71439102579E+03  0.25500000920E-02 0.  1.
       -2    1    3    3    0  502 -0.10221815033E+03 -0.25665718541E+03 -0.23760103802E+03  0.36438402044E+03  0.25500000920E-02 0. -1.
</event>
<event>
 5   0  0.3651984E-02  0.5817996E+03  0.7818609E-02  0.9943902E-01
       -1   -1    0    0    0  501  0.00000000000E+00  0.00000000000E+00  0.24986406108E+03  0.24986406113E+03  0.50400001928E-02 0. -1.
        1   -1    0    0  501    0  0.00000000000E+00  0.00000000000E+00 -0.33867495807E+03  0.33867495811E+03  0.50400001928E-02 0.  1.
    10030    2    1    2    0    0  0.00000000000E+00  0.00000000000E+00 -0.88810896992E+02  0.58853901924E+03  0.58179962336E+03 0.  0.
        1    1    3    3  502    0  0.14060571694E+03  0.24663434466E+03  0.19766226328E+02  0.28458596475E+03  0.50400001928E-02 0.  1.
       -1    1    3    3    0  502 -0.14060571694E+03 -0.24663434466E+03 -0.10857712332E+03  0.30395305449E+03  0.50400001928E-02 0. -1.
</event>
<event>
 5   0  0.3651984E-02  0.6388623E+03  0.7818609E-02  0.9827906E-01
        1   -1    0    0  501    0  0.00000000000E+00  0.00000000000E+00  0.33694898533E+03  0.33694898537E+03  0.50400001928E-02 0.  1.
       -1   -1    0    0    0  501  0.00000000000E+00  0.00000000000E+00 -0.30282409304E+03  0.30282409308E+03  0.50400001928E-02 0. -1.
    10030    2    1    2    0    0  0.00000000000E+00  0.00000000000E+00  0.34124892287E+02  0.63977307845E+03  0.63886233543E+03 0.  0.
        1    1    3    3  502    0  0.21590487151E+03  0.41224491231E+02 -0.21504782184E+03  0.30750599656E+03  0.50400001928E-02 0. -1.
       -1    1    3    3    0  502 -0.21590487151E+03 -0.41224491231E+02  0.24917271413E+03  0.33226708189E+03  0.50400001928E-02 0.  1.
</event>
<event>
 5   0  0.3640827E-02  0.6071640E+03  0.7818609E-02  0.9890653E-01
       -1   -1    0    0    0  501  0.00000000000E+00  0.00000000000E+00  0.98911674527E+02  0.98911674656E+02  0.50400001928E-02 0. -1.
        1   -1    0    0  501    0  0.00000000000E+00  0.00000000000E+00 -0.93176095159E+03  0.93176095160E+03  0.50400001928E-02 0.  1.
    10030    2    1    2    0    0  0.00000000000E+00  0.00000000000E+00 -0.83284927706E+03  0.10306726263E+04  0.60716401756E+03 0.  0.
        3    1    3    3  502    0 -0.21609105697E+03  0.49920641219E+02 -0.64523484989E+02  0.23097771675E+03  0.10100000352E+00 0. -1.
       -3    1    3    3    0  502  0.21609105697E+03 -0.49920641219E+02 -0.76832579207E+03  0.79969490950E+03  0.10100000352E+00 0.  1.
</event>
<event>
 5   0  0.6007360E-02  0.5887617E+03  0.7818609E-02  0.9929000E-01
        2   -1    0    0  501    0  0.00000000000E+00  0.00000000000E+00  0.14001041263E+04  0.14001041263E+04  0.25500000920E-02 0.  1.
       -2   -1    0    0    0  501  0.00000000000E+00  0.00000000000E+00 -0.61895459062E+02  0.61895459115E+02  0.25500000920E-02 0. -1.
    10030    2    1    2    0    0  0.00000000000E+00  0.00000000000E+00  0.13382086673E+04  0.14619995854E+04  0.58876170960E+03 0.  0.
        4    1    3    3  502    0 -0.32398769137E+02  0.27615277232E+03  0.42901255747E+03  0.51123714778E+03  0.12699999809E+01 0. -1.
       -4    1    3    3    0  502  0.32398769137E+02 -0.27615277232E+03  0.90919610979E+03  0.95076243766E+03  0.12699999809E+01 0.  1.
</event>
<event>
 5   0  0.5872632E-02  0.6046586E+03  0.7818609E-02  0.9895788E-01
       -2   -1    0    0    0  501  0.00000000000E+00  0.00000000000E+00  0.75649783772E+02  0.75649783815E+02  0.25500000920E-02 0. -1.
        2   -1    0    0  501    0  0.00000000000E+00  0.00000000000E+00 -0.12082387276E+04  0.12082387276E+04  0.25500000920E-02 0.  1.
    10030    2    1    2    0    0  0.00000000000E+00  0.00000000000E+00 -0.11325889438E+04  0.12838885114E+04  0.60465857644E+03 0.  0.
        1    1    3    3  502    0 -0.47218845227E+02 -0.29075491370E+03 -0.71085178196E+03  0.76946624040E+03  0.50400001928E-02 0. -1.
       -1    1    3    3    0  502  0.47218845227E+02  0.29075491370E+03 -0.42173716185E+03  0.51442227099E+03  0.50400001928E-02 0.  1.
</event>
<event>
 5   0  0.2388000E-02  0.5981577E+03  0.7818609E-02  0.9909236E-01
        4   -1    0    0  501    0  0.00000000000E+00  0.00000000000E+00  0.70953452846E+02  0.70964817838E+02  0.12699999809E+01 0. -1.
       -4   -1    0    0    0  501  0.00000000000E+00  0.00000000000E+00 -0.12605469491E+04  0.12605475888E+04  0.12699999809E+01 0.  1.
    10030    2    1    2    0    0  0.00000000000E+00  0.00000000000E+00 -0.11895934962E+04  0.13315124067E+04  0.59815767391E+03 0.  0.
        2    1    3    3  502    0 -0.75637218414E+02 -0.55653065522E+02 -0.12268848193E+04  0.12304733286E+04  0.25500000920E-02 0.  1.
       -2    1    3    3    0  502  0.75637218414E+02  0.55653065522E+02  0.37291323100E+02  0.10103907807E+03  0.25500000920E-02 0. -1.
</event>
<event>
 5   0  0.2388000E-02  0.6039993E+03  0.7818609E-02  0.9897143E-01
        4   -1    0    0  501    0  0.00000000000E+00  0.00000000000E+00  0.64713616270E+03  0.64713740889E+03  0.12699999809E+01 0.  1.
       -4   -1    0    0    0  501  0.00000000000E+00  0.00000000000E+00 -0.14093020940E+03  0.14093593162E+03  0.12699999809E+01 0. -1.
    10030    2    1    2    0    0  0.00000000000E+00  0.00000000000E+00  0.50620595331E+03  0.78807334050E+03  0.60399927388E+03 0.  0.
        5    1    3    3  502    0 -0.56552191492E+02  0.14682482065E+03  0.58938163861E+03  0.61003973989E+03  0.46999998093E+01 0.  1.
       -5    1    3    3    0  502  0.56552191492E+02 -0.14682482065E+03 -0.83175685305E+02  0.17803360061E+03  0.46999998093E+01 0. -1.
</event>
<event>
 5   0  0.2388000E-02  0.5955067E+03  0.7818609E-02  0.9914772E-01
       -3   -1    0    0    0  501  0.00000000000E+00  0.00000000000E+00  0.40465995646E+03  0.40465996907E+03  0.10100000352E+00 0.  1.
        3   -1    0    0  501    0  0.00000000000E+00  0.00000000000E+00 -0.21909024359E+03  0.21909026687E+03  0.10100000352E+00 0. -1.
    10030    2    1    2    0    0  0.00000000000E+00  0.00000000000E+00  0.18556971287E+03  0.62375023594E+03  0.59550670735E+03 0.  0.
        3    1    3    3  502    0  0.22326010251E+03  0.16119166465E+03 -0.25853261272E+02  0.27657951378E+03  0.10100000352E+00 0. -1.
       -3    1    3    3    0  502 -0.22326010251E+03 -0.16119166465E+03  0.21142297414E+03  0.34717072216E+03  0.10100000352E+00 0.  1.
</event>
<event>
 5   0  0.3703280E-02  0.6010190E+03  0.7818609E-02  0.9903294E-01
        1   -1    0    0  501    0  0.00000000000E+00  0.00000000000E+00  0.82087779447E+03  0.82087779448E+03  0.50400001928E-02 0. -1.
       -1   -1    0    0    0  501  0.00000000000E+00  0.00000000000E+00 -0.11001146536E+03  0.11001146548E+03  0.50400001928E-02 0.  1.
    10030    2    1    2    0    0  0.00000000000E+00  0.00000000000E+00  0.71086632911E+03  0.93088925996E+03  0.60101903169E+03 0.  0.
        5    1    3    3  502    0  0.24619080322E+03 -0.16147505885E+03  0.26250500272E+03  0.39448076337E+03  0.46999998093E+01 0.  1.
       -5    1    3    3    0  502 -0.24619080322E+03  0.16147505885E+03  0.44836132638E+03  0.53640849659E+03  0.46999998093E+01 0. -1.
</event>
<event>
 5   0  0.6007360E-02  0.5919116E+03  0.7818609E-02  0.9922330E-01
        2   -1    0    0  501    0  0.00000000000E+00  0.00000000000E+00  0.72792107089E+03  0.72792107090E+03  0.25500000920E-02 0. -1.
       -2   -1    0    0    0  501  0.00000000000E+00  0.00000000000E+00 -0.12032874690E+03  0.12032874693E+03  0.25500000920E-02 0.  1.
    10030    2    1    2    0    0  0.00000000000E+00  0.00000000000E+00  0.60759232399E+03  0.84824981783E+03  0.59191158231E+03 0.  0.
        4    1    3    3  502    0 -0.27687635179E+03  0.91085669458E+02  0.37730438918E+03  0.47677807034E+03  0.12699999809E+01 0. -1.
       -4    1    3    3    0  502  0.27687635179E+03 -0.91085669458E+02  0.23028793481E+03  0.37147174749E+03  0.12699999809E+01 0.  1.
</event>
<event>
 5   0  0.3640827E-02  0.6926058E+03  0.7818609E-02  0.9729961E-01
        1   -1    0    0  501    0  0.00000000000E+00  0.00000000000E+00  0.85702423554E+03  0.85702423556E+03  0.50400001928E-02 0.  1.
       -1   -1    0    0    0  501  0.00000000000E+00  0.00000000000E+00 -0.13993268912E+03  0.13993268921E+03  0.50400001928E-02 0. -1.
    10030    2    1    2    0    0  0.00000000000E+00  0.00000000000E+00  0.71709154642E+03  0.99695692477E+03  0.69260582144E+03 0.  0.
        3    1    3    3  502    0 -0.17143377537E+03  0.17552832779E+03  0.67652134239E+01  0.24544961093E+03  0.10100000352E+00 0. -1.
       -3    1    3    3    0  502  0.17143377537E+03 -0.17552832779E+03  0.71032633300E+03  0.75150731383E+03  0.10100000352E+00 0.  1.
</event>
<event>
 5   0  0.6007360E-02  0.6016338E+03  0.7818609E-02  0.9902022E-01
        2   -1    0    0  501    0  0.00000000000E+00  0.00000000000E+00  0.46919853486E+03  0.46919853487E+03  0.25500000920E-02 0. -1.
       -2   -1    0    0    0  501  0.00000000000E+00  0.00000000000E+00 -0.19286254134E+03  0.19286254136E+03  0.25500000920E-02 0.  1.
    10030    2    1    2    0    0  0.00000000000E+00  0.00000000000E+00  0.27633599352E+03  0.66206107622E+03  0.60163384823E+03 0.  0.
        4    1    3    3  502    0  0.47929200117E+02 -0.16918048997E+03  0.40675157607E+03  0.44313395711E+03  0.12699999809E+01 0. -1.
       -4    1    3    3    0  502 -0.47929200117E+02  0.16918048997E+03 -0.13041558255E+03  0.21892711911E+03  0.12699999809E+01 0.  1.
</event>
<event>
 5   0  0.3651984E-02  0.6010650E+03  0.7818609E-02  0.9903199E-01
        1   -1    0    0  501    0  0.00000000000E+00  0.00000000000E+00  0.10204718000E+04  0.10204718000E+04  0.50400001928E-02 0.  1.
       -1   -1    0    0    0  501  0.00000000000E+00  0.00000000000E+00 -0.88507863034E+02  0.88507863177E+02  0.50400001928E-02 0. -1.
    10030    2    1    2    0    0  0.00000000000E+00  0.00000000000E+00  0.93196393698E+03  0.11089796632E+04  0.60106498282E+03 0.  0.
        1    1    3    3  502    0 -0.69768583282E+02 -0.12084777430E+03 -0.25113315851E+02  0.14178335031E+03  0.50400001928E-02 0. -1.
       -1    1    3    3    0  502  0.69768583282E+02  0.12084777430E+03  0.95707725283E+03  0.96719631290E+03  0.50400001928E-02 0.  1.
</event>
<event>
 5   0  0.3651984E-02  0.6021481E+03  0.7818609E-02  0.9900960E-01
       -1   -1    0    0    0  501  0.00000000000E+00  0.00000000000E+00  0.13088533251E+03  0.13088533260E+03  0.50400001928E-02 0.  1.
        1   -1    0    0  501    0  0.00000000000E+00  0.00000000000E+00 -0.69255714051E+03  0.69255714053E+03  0.50400001928E-02 0. -1.
    10030    2    1    2    0    0  0.00000000000E+00  0.00000000000E+00 -0.56167180800E+03  0.82344247313E+03  0.60214806041E+03 0.  0.
        1    1    3    3  502    0  0.21604009921E+01 -0.10851444512E+03  0.10320152766E+03  0.14976851294E+03  0.50400001928E-02 0.  1.
       -1    1    3    3    0  502 -0.21604009921E+01  0.10851444512E+03 -0.66487333567E+03  0.67367396019E+03  0.50400001928E-02 0. -1.
</event>
<event>
 5   0  0.6007360E-02  0.6013447E+03  0.7818609E-02  0.9902620E-01
        2   -1    0    0  501    0  0.00000000000E+00  0.00000000000E+00  0.34997266413E+03  0.34997266414E+03  0.25500000920E-02 0.  1.
       -2   -1    0    0    0  501  0.00000000000E+00  0.00000000000E+00 -0.25831689398E+03  0.25831689399E+03  0.25500000920E-02 0. -1.
    10030    2    1    2    0    0  0.00000000000E+00  0.00000000000E+00  0.91655770149E+02  0.60828955813E+03  0.60134466517E+03 0.  0.
        4    1    3    3  502    0 -0.23962483656E+02 -0.72215047015E+02  0.34007045834E+03  0.34848062094E+03  0.12699999809E+01 0.  1.
       -4    1    3    3    0  502  0.23962483656E+02  0.72215047015E+02 -0.24841468819E+03  0.25980893719E+03  0.12699999809E+01 0. -1.
</event>
<event>
 5   0  0.5872632E-02  0.6048469E+03  0.7818609E-02  0.9895401E-01
        2   -1    0    0  501    0  0.00000000000E+00  0.00000000000E+00  0.42714921193E+03  0.42714921194E+03  0.25500000920E-02 0. -1.
       -2   -1    0    0    0  501  0.00000000000E+00  0.00000000000E+00 -0.21411710049E+03  0.21411710050E+03  0.25500000920E-02 0.  1.
    10030    2    1    2    0    0  0.00000000000E+00  0.00000000000E+00  0.21303211145E+03  0.64126631244E+03  0.60484692523E+03 0.  0.
        1    1    3    3  502    0 -0.71338501299E+02  0.25941452434E+03 -0.39911826718E+02  0.27198902762E+03  0.50400001928E-02 0.  1.
       -1    1    3    3    0  502  0.71338501299E+02 -0.25941452434E+03  0.25294393816E+03  0.36927728482E+03  0.50400001928E-02 0. -1.
</event>
<event>
 5   0  0.5755078E-02  0.6022913E+03  0.7818609E-02  0.9900664E-01
        2   -1    0    0  501    0  0.00000000000E+00  0.00000000000E+00  0.36240295150E+03  0.36240295151E+03  0.25500000920E-02 0.  1.
       -2   -1    0    0    0  501  0.00000000000E+00  0.00000000000E+00 -0.25024270508E+03  0.25024270509E+03  0.25500000920E-02 0. -1.
    10030    2    1    2    0    0  0.00000000000E+00  0.00000000000E+00  0.11216024642E+03  0.61264565660E+03  0.60229127478E+03 0.  0.
        2    1    3    3  502    0 -0.18783898578E+03  0.45922174790E+02  0.29090904211E+03  0.34931418738E+03  0.25500000920E-02 0.  1.
       -2    1    3    3    0  502  0.18783898578E+03 -0.45922174790E+02 -0.17874879569E+03  0.26333146922E+03  0.25500000920E-02 0. -1.
</event>
<event>
 5   0  0.6007360E-02  0.5995901E+03  0.7818609E-02  0.9906257E-01
        2   -1    0    0  501    0  0.00000000000E+00  0.00000000000E+00  0.94518379650E+03  0.94518379651E+03  0.25500000920E-02 0.  1.
       -2   -1    0    0    0  501  0.00000000000E+00  0.00000000000E+00 -0.95089524881E+02  0.95089524915E+02  0.25500000920E-02 0. -1.
    10030    2    1    2    0    0  0.00000000000E+00  0.00000000000E+00  0.85009427162E+03  0.10402733214E+04  0.59959012051E+03 0.  0.
        4    1    3    3  502    0 -0.22938517128E+03  0.11399532273E+03  0.15479756279E+03  0.29929314853E+03  0.12699999809E+01 0. -1.
       -4    1    3    3    0  502  0.22938517128E+03 -0.11399532273E+03  0.69529670883E+03  0.74098017289E+03  0.12699999809E+01 0.  1.
</event>
<event>
 5   0  0.3651984E-02  0.5998201E+03  0.7818609E-02  0.9905779E-01
        1   -1    0    0  501    0  0.00000000000E+00  0.00000000000E+00  0.78027517860E+03  0.78027517862E+03  0.50400001928E-02 0.  1.
       -1   -1    0    0    0  501  0.00000000000E+00  0.00000000000E+00 -0.11527477708E+03  0.11527477719E+03  0.50400001928E-02 0. -1.
    10030    2    1    2    0    0  0.00000000000E+00  0.00000000000E+00  0.66500040152E+03  0.89554995581E+03  0.59982013081E+03 0.  0.
        1    1    3    3  502    0  0.17362219094E+03 -0.11053666997E+03  0.65818299195E+03  0.68961429184E+03  0.50400001928E-02 0.  1.
       -1    1    3    3    0  502 -0.17362219094E+03  0.11053666997E+03  0.68174095704E+01  0.20593566397E+03  0.50400001928E-02 0. -1.
</event>
<event>
 5   0  0.3640827E-02  0.6029650E+03  0.7818609E-02  0.9899274E-01
       -1   -1    0    0    0  501  0.00000000000E+00  0.00000000000E+00  0.19292243864E+03  0.19292243871E+03  0.50400001928E-02 0.  1.
        1   -1    0    0  501    0  0.00000000000E+00  0.00000000000E+00 -0.47113084274E+03  0.47113084277E+03  0.50400001928E-02 0. -1.
    10030    2    1    2    0    0  0.00000000000E+00  0.00000000000E+00 -0.27820840409E+03  0.66405328148E+03  0.60296504420E+03 0.  0.
        3    1    3    3  502    0  0.12472608328E+03 -0.88675841552E+01 -0.44122645621E+03  0.45860225224E+03  0.10100000352E+00 0. -1.
       -3    1    3    3    0  502 -0.12472608328E+03  0.88675841552E+01  0.16301805211E+03  0.20545102924E+03  0.10100000352E+00 0.  1.
</event>
<event>
 5   0  0.5755078E-02  0.5961293E+03  0.7818609E-02  0.9913469E-01
        2   -1    0    0  501    0  0.00000000000E+00  0.00000000000E+00  0.12582715729E+04  0.12582715729E+04  0.25500000920E-02 0.  1.
       -2   -1    0    0    0  501  0.00000000000E+00  0.00000000000E+00 -0.70606797935E+02  0.70606797981E+02  0.25500000920E-02 0. -1.
    10030    2    1    2    0    0  0.00000000000E+00  0.00000000000E+00  0.11876647750E+04  0.13288783709E+04  0.59612927031E+03 0.  0.
        2    1    3    3  502    0 -0.24343184700E+03  0.33248206278E+02  0.97001583040E+03  0.10006473997E+04  0.25500000920E-02 0.  1.
       -2    1    3    3    0  502  0.24343184700E+03 -0.33248206278E+02  0.21764894461E+03  0.32823097119E+03  0.25500000920E-02 0. -1.
</event>
<event>
 5   0  0.2388000E-02  0.6205968E+03  0.7818609E-02  0.9863572E-01
        3   -1    0    0  501    0  0.00000000000E+00  0.00000000000E+00  0.36649232244E+03  0.36649233636E+03  0.10100000352E+00 0.  1.
       -3   -1    0    0    0  501  0.00000000000E+00  0.00000000000E+00 -0.26272061604E+03  0.26272063546E+03  0.10100000352E+00 0. -1.
    10030    2    1    2    0    0  0.00000000000E+00  0.00000000000E+00  0.10377170639E+03  0.62921297181E+03  0.62059680699E+03 0.  0.
        1    1    3    3  502    0 -0.25763051318E+03 -0.97295388290E+02  0.19685783666E+03  0.33851570389E+03  0.50400001928E-02 0.  1.
       -1    1    3    3    0  502  0.25763051318E+03  0.97295388290E+02 -0.93086130268E+02  0.29069726792E+03  0.50400001928E-02 0. -1.
</event>
<event>
 5   0  0.3767635E-02  0.5767041E+03  0.7818609E-02  0.9954952E-01
        1   -1    0    0  501    0  0.00000000000E+00  0.00000000000E+00  0.25148280220E+03  0.25148280225E+03  0.50400001928E-02 0.  1.
       -1   -1    0    0    0  501  0.00000000000E+00  0.00000000000E+00 -0.33062662286E+03  0.33062662290E+03  0.50400001928E-02 0. -1.
    10030    2    1    2    0    0  0.00000000000E+00  0.00000000000E+00 -0.79143820664E+02  0.58210942516E+03  0.57670411695E+03 0.  0.
        2    1    3    3  502    0 -0.37794273996E+02  0.11351527403E+03 -0.30439097685E+03  0.32705961441E+03  0.25500000920E-02 0. -1.
       -2    1    3    3    0  502  0.37794273996E+02 -0.11351527403E+03  0.22524715619E+03  0.25504981074E+03  0.25500000920E-02 0.  1.
</event>
<event>
 5   0  0.3767635E-02  0.5679660E+03  0.7818609E-02  0.9974190E-01
        1   -1    0    0  501    0  0.00000000000E+00  0.00000000000E+00  0.66973666831E+03  0.66973666833E+03  0.50400001928E-02 0.  1.
       -1   -1    0    0    0  501  0.00000000000E+00  0.00000000000E+00 -0.12041501889E+03  0.12041501899E+03  0.50400001928E-02 0. -1.
    10030    2    1    2    0    0  0.00000000000E+00  0.00000000000E+00  0.54932164942E+03  0.79015168732E+03  0.56796603283E+03 0.  0.
        2    1    3    3  502    0 -0.86666440274E+02 -0.17224192491E+03  0.56471087340E+03  0.59672164625E+03  0.25500000920E-02 0.  1.
       -2    1    3    3    0  502  0.86666440274E+02  0.17224192491E+03 -0.15389223975E+02  0.19343004107E+03  0.25500000920E-02 0. -1.
</event>
<event>
 5   0  0.3478183E-02  0.5959375E+03  0.7818609E-02  0.9913870E-01
       -1   -1    0    0    0  501  0.00000000000E+00  0.00000000000E+00  0.21154911550E+03  0.21154911556E+03  0.50400001928E-02 0. -1.
        1   -1    0    0  501    0  0.00000000000E+00  0.00000000000E+00 -0.41969157025E+03  0.41969157028E+03  0.50400001928E-02 0.  1.
    10030    2    1    2    0    0  0.00000000000E+00  0.00000000000E+00 -0.20814245476E+03  0.63124068584E+03  0.59593751517E+03 0.  0.
        4    1    3    3  502    0  0.20745995505E+03  0.10459916007E+03 -0.30167877850E+03  0.38077856496E+03  0.12699999809E+01 0. -1.
       -4    1    3    3    0  502 -0.20745995505E+03 -0.10459916007E+03  0.93536323741E+02  0.25046212088E+03  0.12699999809E+01 0.  1.
</event>
<event>
 5   0  0.5755078E-02  0.6043405E+03  0.7818609E-02  0.9896442E-01
        2   -1    0    0  501    0  0.00000000000E+00  0.00000000000E+00  0.45570004577E+03  0.45570004578E+03  0.25500000920E-02 0. -1.
       -2   -1    0    0    0  501  0.00000000000E+00  0.00000000000E+00 -0.20036617033E+03  0.20036617034E+03  0.25500000920E-02 0.  1.
    10030    2    1    2    0    0  0.00000000000E+00  0.00000000000E+00  0.25533387544E+03  0.65606621612E+03  0.60434054306E+03 0.  0.
        2    1    3    3  502    0  0.17791397317E+03 -0.71616917716E+01  0.39269819329E+03  0.43118040621E+03  0.25500000920E-02 0. -1.
       -2    1    3    3    0  502 -0.17791397317E+03  0.71616917716E+01 -0.13736431784E+03  0.22488580991E+03  0.25500000920E-02 0.  1.
</event>
<event>
 5   0  0.3651984E-02  0.5977651E+03  0.7818609E-02  0.9910054E-01
       -1   -1    0    0    0  501  0.00000000000E+00  0.00000000000E+00  0.11231759263E+03  0.11231759274E+03  0.50400001928E-02 0.  1.
        1   -1    0    0  501    0  0.00000000000E+00  0.00000000000E+00 -0.79534105012E+03  0.79534105014E+03  0.50400001928E-02 0. -1.
    10030    2    1    2    0    0  0.00000000000E+00  0.00000000000E+00 -0.68302345749E+03  0.90765864288E+03  0.59776514494E+03 0.  0.
        1    1    3    3  502    0  0.16269415632E+03 -0.24342888082E+03 -0.43266480093E+03  0.52242304554E+03  0.50400001928E-02 0. -1.
       -1    1    3    3    0  502 -0.16269415632E+03  0.24342888082E+03 -0.25035865656E+03  0.38523559734E+03  0.50400001928E-02 0.  1.
</event>
<event>
 5   0  0.5755078E-02  0.5969234E+03  0.7818609E-02  0.9911810E-01
       -2   -1    0    0    0  501  0.00000000000E+00  0.00000000000E+00  0.47626320547E+03  0.47626320548E+03  0.25500000920E-02 0.  1.
        2   -1    0    0  501    0  0.00000000000E+00  0.00000000000E+00 -0.18703815867E+03  0.18703815869E+03  0.25500000920E-02 0. -1.
    10030    2    1    2    0    0  0.00000000000E+00  0.00000000000E+00  0.28922504680E+03  0.66330136417E+03  0.59692342224E+03 0.  0.
        2    1    3    3  502    0  0.23100228846E+03 -0.18275217004E+03  0.19812324141E+03  0.35498342457E+03  0.25500000920E-02 0.  1.
       -2    1    3    3    0  502 -0.23100228846E+03  0.18275217004E+03  0.91101805383E+02  0.30831793960E+03  0.25500000920E-02 0. -1.
</event>
<event>
 5   0  0.5755078E-02  0.5984777E+03  0.7818609E-02  0.9908569E-01
        2   -1    0    0  501    0  0.00000000000E+00  0.00000000000E+00  0.56813051706E+03  0.56813051707E+03  0.25500000920E-02 0.  1.
       -2   -1    0    0    0  501  0.00000000000E+00  0.00000000000E+00 -0.15761149293E+03  0.15761149295E+03  0.25500000920E-02 0. -1.
    10030    2    1    2    0    0  0.00000000000E+00  0.00000000000E+00  0.41051902413E+03  0.72574201002E+03  0.59847773219E+03 0.  0.
        2    1    3    3  502    0  0.24486749423E+03 -0.14162757679E+03  0.86907195961E+02  0.29592451901E+03  0.25500000920E-02 0. -1.
       -2    1    3    3    0  502 -0.24486749423E+03  0.14162757679E+03  0.32361182817E+03  0.42981749100E+03  0.25500000920E-02 0.  1.
</event>
<event>
 5   0  0.5755078E-02  0.6076438E+03  0.7818609E-02  0.9889673E-01
        2   -1    0    0  501    0  0.00000000000E+00  0.00000000000E+00  0.11590964071E+04  0.11590964071E+04  0.25500000920E-02 0.  1.
       -2   -1    0    0    0  501  0.00000000000E+00  0.00000000000E+00 -0.79637678576E+02  0.79637678617E+02  0.25500000920E-02 0. -1.
    10030    2    1    2    0    0  0.00000000000E+00  0.00000000000E+00  0.10794587285E+04  0.12387340857E+04  0.60764380071E+03 0.  0.
        2    1    3    3  502    0  0.28767277267E+02 -0.20776605965E+03  0.91641619524E+02  0.22889403273E+03  0.25500000920E-02 0.  1.
       -2    1    3    3    0  502 -0.28767277267E+02  0.20776605965E+03  0.98781710900E+03  0.10098400530E+04  0.25500000920E-02 0. -1.
</event>
<event>
 5   0  0.5872632E-02  0.5956097E+03  0.7818609E-02  0.9914557E-01
        2   -1    0    0  501    0  0.00000000000E+00  0.00000000000E+00  0.11434693804E+04  0.11434693804E+04  0.25500000920E-02 0. -1.
       -2   -1    0    0    0  501  0.00000000000E+00  0.00000000000E+00 -0.77560223013E+02  0.77560223055E+02  0.25500000920E-02 0.  1.
    10030    2    1    2    0    0  0.00000000000E+00  0.00000000000E+00  0.10659091573E+04  0.12210296034E+04  0.59560973859E+03 0.  0.
        1    1    3    3  502    0  0.17145843275E+02 -0.22172276064E+02  0.11407594172E+04  0.11411036928E+04  0.50400001928E-02 0. -1.
       -1    1    3    3    0  502 -0.17145843275E+02  0.22172276064E+02 -0.74850259836E+02  0.79925910633E+02  0.50400001928E-02 0.  1.
</event>
<event>
 5   0  0.3767635E-02  0.6027643E+03  0.7818609E-02  0.9899688E-01
        1   -1    0    0  501    0  0.00000000000E+00  0.00000000000E+00  0.20835383071E+03  0.20835383077E+03  0.50400001928E-02 0.  1.
       -1   -1    0    0    0  501  0.00000000000E+00  0.00000000000E+00 -0.43594685244E+03  0.43594685247E+03  0.50400001928E-02 0. -1.
    10030    2    1    2    0    0  0.00000000000E+00  0.00000000000E+00 -0.22759302174E+03  0.64430068324E+03  0.60276428800E+03 0.  0.
        2    1    3    3  502    0 -0.20494978405E+03  0.93606544518E+02  0.10015801143E+03  0.24657296368E+03  0.25500000920E-02 0.  1.
       -2    1    3    3    0  502  0.20494978405E+03 -0.93606544518E+02 -0.32775103316E+03  0.39772771956E+03  0.25500000920E-02 0. -1.
</event>
<event>
 5   0  0.6007360E-02  0.6133129E+03  0.7818609E-02  0.9878165E-01
        2   -1    0    0  501    0  0.00000000000E+00  0.00000000000E+00  0.53739659185E+03  0.53739659186E+03  0.25500000920E-02 0. -1.
       -2   -1    0    0    0  501  0.00000000000E+00  0.00000000000E+00 -0.17498841369E+03  0.17498841371E+03  0.25500000920E-02 0.  1.
    10030    2    1    2    0    0  0.00000000000E+00  0.00000000000E+00  0.36240817816E+03  0.71238500557E+03  0.61331289613E+03 0.  0.
        4    1    3    3  502    0 -0.36243649409E+02  0.29197208789E+03  0.28163002384E+03  0.40728170283E+03  0.12699999809E+01 0.  1.
       -4    1    3    3    0  502  0.36243649409E+02 -0.29197208789E+03  0.80778154318E+02  0.30510330274E+03  0.12699999809E+01 0. -1.
</event>
<event>
 5   0  0.5999117E-02  0.5983923E+03  0.7818609E-02  0.9908747E-01
       -2   -1    0    0    0  501  0.00000000000E+00  0.00000000000E+00  0.18436710699E+03  0.18436710700E+03  0.25500000920E-02 0.  1.
        2   -1    0    0  501    0  0.00000000000E+00  0.00000000000E+00 -0.48554403337E+03  0.48554403338E+03  0.25500000920E-02 0. -1.
    10030    2    1    2    0    0  0.00000000000E+00  0.00000000000E+00 -0.30117692639E+03  0.66991114038E+03  0.59839234205E+03 0.  0.
        5    1    3    3  502    0 -0.20299608309E+03 -0.92296045099E+02  0.72671344760E+02  0.23458300032E+03  0.46999998093E+01 0.  1.
       -5    1    3    3    0  502  0.20299608309E+03  0.92296045099E+02 -0.37384827115E+03  0.43532814006E+03  0.46999998093E+01 0. -1.
</event>
<event>
 5   0  0.3640827E-02  0.5882769E+03  0.7818609E-02  0.9930031E-01
       -1   -1    0    0    0  501  0.00000000000E+00  0.00000000000E+00  0.16699329666E+03  0.16699329674E+03  0.50400001928E-02 0. -1.
        1   -1    0    0  501    0  0.00000000000E+00  0.00000000000E+00 -0.51808916366E+03  0.51808916369E+03  0.50400001928E-02 0.  1.
    10030    2    1    2    0    0  0.00000000000E+00  0.00000000000E+00 -0.35109586700E+03  0.68508246042E+03  0.58827686488E+03 0.  0.
        3    1    3    3  502    0  0.26846594455E+03 -0.48320798946E+02 -0.47401345871E+02  0.27686776769E+03  0.10100000352E+00 0. -1.
       -3    1    3    3    0  502 -0.26846594455E+03  0.48320798946E+02 -0.30369452113E+03  0.40821469273E+03  0.10100000352E+00 0.  1.
</event>
<event>
 5   0  0.5999117E-02  0.6072670E+03  0.7818609E-02  0.9890443E-01
       -2   -1    0    0    0  501  0.00000000000E+00  0.00000000000E+00  0.49832751245E+02  0.49832751310E+02  0.25500000920E-02 0. -1.
        2   -1    0    0  501    0  0.00000000000E+00  0.00000000000E+00 -0.18500541304E+04  0.18500541304E+04  0.25500000920E-02 0.  1.
    10030    2    1    2    0    0  0.00000000000E+00  0.00000000000E+00 -0.18002213791E+04  0.18998868817E+04  0.60726695063E+03 0.  0.
        5    1    3    3  502    0 -0.77080254595E+02  0.11222482191E+03 -0.17490790109E+04  0.17543760294E+04  0.46999998093E+01 0.  1.
       -5    1    3    3    0  502  0.77080254595E+02 -0.11222482191E+03 -0.51142368262E+02  0.14551085228E+03  0.46999998093E+01 0. -1.
</event>
<event>
 5   0  0.3640827E-02  0.5508136E+03  0.7818609E-02  0.1001306E+00
        1   -1    0    0  501    0  0.00000000000E+00  0.00000000000E+00  0.13372754218E+03  0.13372754228E+03  0.50400001928E-02 0.  1.
       -1   -1    0    0    0  501  0.00000000000E+00  0.00000000000E+00 -0.56718988389E+03  0.56718988392E+03  0.50400001928E-02 0. -1.
    10030    2    1    2    0    0  0.00000000000E+00  0.00000000000E+00 -0.43346234171E+03  0.70091742620E+03  0.55081361336E+03 0.  0.
        3    1    3    3  502    0 -0.12422890428E+03 -0.21965973205E+03 -0.76375361088E+02  0.26365967558E+03  0.10100000352E+00 0.  1.
       -3    1    3    3    0  502  0.12422890428E+03  0.21965973205E+03 -0.35708698062E+03  0.43725775062E+03  0.10100000352E+00 0. -1.
</event>
<event>
 5   0  0.5999117E-02  0.6041991E+03  0.7818609E-02  0.9896732E-01
       -2   -1    0    0    0  501  0.00000000000E+00  0.00000000000E+00  0.78923351707E+02  0.78923351748E+02  0.25500000920E-02 0.  1.
        2   -1    0    0  501    0  0.00000000000E+00  0.00000000000E+00 -0.11563640185E+04  0.11563640185E+04  0.25500000920E-02 0. -1.
    10030    2    1    2    0    0  0.00000000000E+00  0.00000000000E+00 -0.10774406668E+04  0.12352873702E+04  0.60419905382E+03 0.  0.
        5    1    3    3  502    0 -0.20007174051E+03  0.11443020143E+03 -0.13954925995E+03  0.26947923538E+03  0.46999998093E+01 0.  1.
       -5    1    3    3    0  502  0.20007174051E+03 -0.11443020143E+03 -0.93789140681E+03  0.96580813484E+03  0.46999998093E+01 0. -1.
</event>
<event>
 5   0  0.5755078E-02  0.6054190E+03  0.7818609E-02  0.9894227E-01
       -2   -1    0    0    0  501  0.00000000000E+00  0.00000000000E+00  0.45984219021E+02  0.45984219092E+02  0.25500000920E-02 0. -1.
        2   -1    0    0  501    0  0.00000000000E+00  0.00000000000E+00 -0.19927063332E+04  0.19927063332E+04  0.25500000920E-02 0.  1.
    10030    2    1    2    0    0  0.00000000000E+00  0.00000000000E+00 -0.19467221142E+04  0.20386905523E+04  0.60541901043E+03 0.  0.
        2    1    3    3  502    0 -0.27436692577E+03 -0.10297058098E+03 -0.12287713786E+04  0.12632336488E+04  0.25500000920E-02 0. -1.
       -2    1    3    3    0  502  0.27436692577E+03  0.10297058098E+03 -0.71795073563E+03  0.77545690358E+03  0.25500000920E-02 0.  1.
</event>
<event>
 5   0  0.3478183E-02  0.5987414E+03  0.7818609E-02  0.9908021E-01
        1   -1    0    0  501    0  0.00000000000E+00  0.00000000000E+00  0.32151348023E+03  0.32151348027E+03  0.50400001928E-02 0. -1.
       -1   -1    0    0    0  501  0.00000000000E+00  0.00000000000E+00 -0.27875288707E+03  0.27875288712E+03  0.50400001928E-02 0.  1.
    10030    2    1    2    0    0  0.00000000000E+00  0.00000000000E+00  0.42760593154E+02  0.60026636739E+03  0.59874138281E+03 0.  0.
        4    1    3    3  502    0  0.16439355122E+03  0.31818229518E+02 -0.22741211229E+03  0.28241020011E+03  0.12699999809E+01 0.  1.
       -4    1    3    3    0  502 -0.16439355122E+03 -0.31818229518E+02  0.27017270544E+03  0.31785616728E+03  0.12699999809E+01 0. -1.
</event>
<event>
 5   0  0.3651984E-02  0.6175433E+03  0.7818609E-02  0.9869663E-01
       -1   -1    0    0    0  501  0.00000000000E+00  0.00000000000E+00  0.12767136237E+03  0.12767136247E+03  0.50400001928E-02 0.  1.
        1   -1    0    0  501    0  0.00000000000E+00  0.00000000000E+00 -0.74676061128E+03  0.74676061130E+03  0.50400001928E-02 0. -1.
    10030    2    1    2    0    0  0.00000000000E+00  0.00000000000E+00 -0.61908924891E+03  0.87443197377E+03  0.61754334150E+03 0.  0.
        1    1    3    3  502    0  0.20701311657E+03  0.21868163721E+03 -0.21284358540E+03  0.36875260101E+03  0.50400001928E-02 0.  1.
       -1    1    3    3    0  502 -0.20701311657E+03 -0.21868163721E+03 -0.40624566351E+03  0.50567937275E+03  0.50400001928E-02 0. -1.
</event>
<event>
 5   0  0.6007360E-02  0.5989833E+03  0.7818609E-02  0.9907518E-01
       -2   -1    0    0    0  501  0.00000000000E+00  0.00000000000E+00  0.44440141711E+03  0.44440141711E+03  0.25500000920E-02 0. -1.
        2   -1    0    0  501    0  0.00000000000E+00  0.00000000000E+00 -0.20183385322E+03  0.20183385323E+03  0.25500000920E-02 0.  1.
    10030    2    1    2    0    0  0.00000000000E+00  0.00000000000E+00  0.24256756389E+03  0.64623527035E+03  0.59898330660E+03 0.  0.
        4    1    3    3  502    0 -0.41279465107E+02  0.28364124613E+03  0.27617462040E+02  0.28795952468E+03  0.12699999809E+01 0.  1.
       -4    1    3    3    0  502  0.41279465107E+02 -0.28364124613E+03  0.21495010185E+03  0.35827574566E+03  0.12699999809E+01 0. -1.
</event>
<event>
 5   0  0.6007360E-02  0.5360382E+03  0.7818609E-02  0.1004778E+00
        2   -1    0    0  501    0  0.00000000000E+00  0.00000000000E+00  0.14089465042E+04  0.14089465042E+04  0.25500000920E-02 0.  1.
       -2   -1    0    0    0  501  0.00000000000E+00  0.00000000000E+00 -0.50984370420E+02  0.50984370484E+02  0.25500000920E-02 0. -1.
    10030    2    1    2    0    0  0.00000000000E+00  0.00000000000E+00  0.13579621337E+04  0.14599308747E+04  0.53603824684E+03 0.  0.
        4    1    3    3  502    0  0.14392795970E+03 -0.15040215540E+03  0.11387428013E+04  0.11576151546E+04  0.12699999809E+01 0. -1.
       -4    1    3    3    0  502 -0.14392795970E+03  0.15040215540E+03  0.21921933249E+03  0.30231572002E+03  0.12699999809E+01 0.  1.
</event>
<event>
 5   0  0.5872632E-02  0.6007977E+03  0.7818609E-02  0.9903752E-01
        2   -1    0    0  501    0  0.00000000000E+00  0.00000000000E+00  0.12986969153E+04  0.12986969154E+04  0.25500000920E-02 0.  1.
       -2   -1    0    0    0  501  0.00000000000E+00  0.00000000000E+00 -0.69484630112E+02  0.69484630158E+02  0.25500000920E-02 0. -1.
    10030    2    1    2    0    0  0.00000000000E+00  0.00000000000E+00  0.12292122852E+04  0.13681815455E+04  0.60079771912E+03 0.  0.
        1    1    3    3  502    0  0.18928301600E+03  0.58707101857E+02  0.10050211983E+03  0.22220544564E+03  0.50400001928E-02 0. -1.
       -1    1    3    3    0  502 -0.18928301600E+03 -0.58707101857E+02  0.11287101654E+04  0.11459760999E+04  0.50400001928E-02 0.  1.
</event>
<event>
 5   0  0.5999117E-02  0.6086341E+03  0.7818609E-02  0.9887653E-01
       -2   -1    0    0    0  501  0.00000000000E+00  0.00000000000E+00  0.58707675456E+03  0.58707675456E+03  0.25500000920E-02 0. -1.
        2   -1    0    0  501    0  0.00000000000E+00  0.00000000000E+00 -0.15774574529E+03  0.15774574531E+03  0.25500000920E-02 0.  1.
    10030    2    1    2    0    0  0.00000000000E+00  0.00000000000E+00  0.42933100927E+03  0.74482249987E+03  0.60863407791E+03 0.  0.
        5    1    3    3  502    0  0.19947257097E+02 -0.22287955858E+03 -0.37659539932E+02  0.22696590415E+03  0.46999998093E+01 0.  1.
       -5    1    3    3    0  502 -0.19947257097E+02  0.22287955858E+03  0.46699054920E+03  0.51785659573E+03  0.46999998093E+01 0. -1.
</event>
<event>
 5   0  0.3640827E-02  0.6024347E+03  0.7818609E-02  0.9900368E-01
        1   -1    0    0  501    0  0.00000000000E+00  0.00000000000E+00  0.51790197818E+03  0.51790197820E+03  0.50400001928E-02 0.  1.
       -1   -1    0    0    0  501  0.00000000000E+00  0.00000000000E+00 -0.17519126275E+03  0.17519126283E+03  0.50400001928E-02 0. -1.
    10030    2    1    2    0    0  0.00000000000E+00  0.00000000000E+00  0.34271071542E+03  0.69309324103E+03  0.60243473198E+03 0.  0.
        3    1    3    3  502    0 -0.28633173872E+03  0.64839478430E+02  0.93820150079E+02  0.30820813313E+03  0.10100000352E+00 0. -1.
       -3    1    3    3    0  502  0.28633173872E+03 -0.64839478430E+02  0.24889056535E+03  0.38488510790E+03  0.10100000352E+00 0.  1.
</event>
<event>
 5   0  0.3651984E-02  0.5979517E+03  0.7818609E-02  0.9909665E-01
        1   -1    0    0  501    0  0.00000000000E+00  0.00000000000E+00  0.22068262266E+03  0.22068262272E+03  0.50400001928E-02 0. -1.
       -1   -1    0    0    0  501  0.00000000000E+00  0.00000000000E+00 -0.40504576994E+03  0.40504576997E+03  0.50400001928E-02 0.  1.
    10030    2    1    2    0    0  0.00000000000E+00  0.00000000000E+00 -0.18436314728E+03  0.62572839268E+03  0.59795171321E+03 0.  0.
        1    1    3    3  502    0  0.28254251905E+03  0.29093421108E+02 -0.18984351407E+03  0.34163908161E+03  0.50400001928E-02 0.  1.
       -1    1    3    3    0  502 -0.28254251905E+03 -0.29093421108E+02  0.54803667905E+01  0.28408931108E+03  0.50400001928E-02 0. -1.
</event>
<event>
 5   0  0.5755078E-02  0.6250231E+03  0.7818609E-02  0.9854809E-01
       -2   -1    0    0    0  501  0.00000000000E+00  0.00000000000E+00  0.67430656652E+02  0.67430656700E+02  0.25500000920E-02 0.  1.
        2   -1    0    0  501    0  0.00000000000E+00  0.00000000000E+00 -0.14483540057E+04  0.14483540057E+04  0.25500000920E-02 0. -1.
    10030    2    1    2    0    0  0.00000000000E+00  0.00000000000E+00 -0.13809233490E+04  0.15157846624E+04  0.62502307703E+03 0.  0.
        2    1    3    3  502    0 -0.11547963642E+03 -0.11060731190E+03 -0.13416263450E+04  0.13511220424E+04  0.25500000920E-02 0. -1.
       -2    1    3    3    0  502  0.11547963642E+03  0.11060731190E+03 -0.39297003978E+02  0.16466261993E+03  0.25500000920E-02 0.  1.
</event>
<event>
 5   0  0.3703280E-02  0.5461392E+03  0.7818609E-02  0.1002392E+00
       -1   -1    0    0    0  501  0.00000000000E+00  0.00000000000E+00  0.87629539309E+02  0.87629539454E+02  0.50400001928E-02 0.  1.
        1   -1    0    0  501    0  0.00000000000E+00  0.00000000000E+00 -0.85093450381E+03  0.85093450382E+03  0.50400001928E-02 0. -1.
    10030    2    1    2    0    0  0.00000000000E+00  0.00000000000E+00 -0.76330496450E+03  0.93856404328E+03  0.54613917137E+03 0.  0.
        5    1    3    3  502    0  0.25080276002E+03 -0.52404168429E+02 -0.54374939702E+03  0.60111040422E+03  0.46999998093E+01 0. -1.
       -5    1    3    3    0  502 -0.25080276002E+03  0.52404168429E+02 -0.21955556748E+03  0.33745363905E+03  0.46999998093E+01 0.  1.
</event>
<event>
 5   0  0.3651984E-02  0.6005482E+03  0.7818609E-02  0.9904269E-01
       -1   -1    0    0    0  501  0.00000000000E+00  0.00000000000E+00  0.14897921477E+03  0.14897921486E+03  0.50400001928E-02 0.  1.
        1   -1    0    0  501    0  0.00000000000E+00  0.00000000000E+00 -0.60521558882E+03  0.60521558884E+03  0.50400001928E-02 0. -1.
    10030    2    1    2    0    0  0.00000000000E+00  0.00000000000E+00 -0.45623637405E+03  0.75419480370E+03  0.60054822697E+03 0.  0.
        1    1    3    3  502    0 -0.27212930945E+03 -0.12682774013E+03 -0.22185072385E+03  0.37330601445E+03  0.50400001928E-02 0. -1.
       -1    1    3    3    0  502  0.27212930945E+03  0.12682774013E+03 -0.23438565020E+03  0.38088878925E+03  0.50400001928E-02 0.  1.
</event>
<event>
 5   0  0.3767635E-02  0.6043603E+03  0.7818609E-02  0.9896401E-01
        1   -1    0    0  501    0  0.00000000000E+00  0.00000000000E+00  0.80884776638E+03  0.80884776639E+03  0.50400001928E-02 0. -1.
       -1   -1    0    0    0  501  0.00000000000E+00  0.00000000000E+00 -0.11289249913E+03  0.11289249924E+03  0.50400001928E-02 0.  1.
    10030    2    1    2    0    0  0.00000000000E+00  0.00000000000E+00  0.69595526725E+03  0.92174026564E+03  0.60436030916E+03 0.  0.
        2    1    3    3  502    0  0.28542691440E+02 -0.22570488462E+02 -0.10953879686E+03  0.11542469497E+03  0.25500000920E-02 0.  1.
       -2    1    3    3    0  502 -0.28542691440E+02  0.22570488462E+02  0.80549406411E+03  0.80631557067E+03  0.25500000920E-02 0. -1.
</event>
<event>
 5   0  0.5755078E-02  0.5834155E+03  0.7818609E-02  0.9940424E-01
        2   -1    0    0  501    0  0.00000000000E+00  0.00000000000E+00  0.10585594757E+04  0.10585594757E+04  0.25500000920E-02 0. -1.
       -2   -1    0    0    0  501  0.00000000000E+00  0.00000000000E+00 -0.80386053724E+02  0.80386053765E+02  0.25500000920E-02 0.  1.
    10030    2    1    2    0    0  0.00000000000E+00  0.00000000000E+00  0.97817342201E+03  0.11389455295E+04  0.58341552572E+03 0.  0.
        2    1    3    3  502    0 -0.28006574004E+03  0.44142559665E+02  0.62303735147E+03  0.68451510258E+03  0.25500000920E-02 0. -1.
       -2    1    3    3    0  502  0.28006574004E+03 -0.44142559665E+02  0.35513607054E+03  0.45443042693E+03  0.25500000920E-02 0.  1.
</event>
<event>
 5   0  0.5935451E-02  0.5937093E+03  0.7818609E-02  0.9918544E-01
       -2   -1    0    0    0  501  0.00000000000E+00  0.00000000000E+00  0.19650649038E+03  0.19650649040E+03  0.25500000920E-02 0. -1.
        2   -1    0    0  501    0  0.00000000000E+00  0.00000000000E+00 -0.44844669695E+03  0.44844669695E+03  0.25500000920E-02 0.  1.
    10030    2    1    2    0    0  0.00000000000E+00  0.00000000000E+00 -0.25194020656E+03  0.64495318735E+03  0.59370931119E+03 0.  0.
        3    1    3    3  502    0 -0.36505625537E+02  0.24997822305E+03  0.43372232218E+02  0.25632583449E+03  0.10100000352E+00 0. -1.
       -3    1    3    3    0  502  0.36505625537E+02 -0.24997822305E+03 -0.29531243878E+03  0.38862735287E+03  0.10100000352E+00 0.  1.
</event>
<event>
 5   0  0.3703280E-02  0.6083053E+03  0.7818609E-02  0.9888323E-01
       -1   -1    0    0    0  501  0.00000000000E+00  0.00000000000E+00  0.12163956483E+03  0.12163956493E+03  0.50400001928E-02 0. -1.
        1   -1    0    0  501    0  0.00000000000E+00  0.00000000000E+00 -0.76051595005E+03  0.76051595007E+03  0.50400001928E-02 0.  1.
    10030    2    1    2    0    0  0.00000000000E+00  0.00000000000E+00 -0.63887638522E+03  0.88215551500E+03  0.60830528277E+03 0.  0.
        5    1    3    3  502    0 -0.21142873963E+03 -0.20171255004E+03 -0.19727200874E+03  0.35260232588E+03  0.46999998093E+01 0. -1.
       -5    1    3    3    0  502  0.21142873963E+03  0.20171255004E+03 -0.44160437648E+03  0.52955318912E+03  0.46999998093E+01 0.  1.
</event>
<event>
 5   0  0.3651984E-02  0.5851178E+03  0.7818609E-02  0.9936772E-01
       -1   -1    0    0    0  501  0.00000000000E+00  0.00000000000E+00  0.29378774371E+03  0.29378774375E+03  0.50400001928E-02 0.  1.
        1   -1    0    0  501    0  0.00000000000E+00  0.00000000000E+00 -0.29133524143E+03  0.29133524148E+03  0.50400001928E-02 0. -1.
    10030    2    1    2    0    0  0.00000000000E+00  0.00000000000E+00  0.24525022771E+01  0.58512298523E+03  0.58511784546E+03 0.  0.
        1    1    3    3  502    0 -0.14998382891E+03  0.21792859735E+03  0.12613811960E+03  0.29308505202E+03  0.50400001928E-02 0.  1.
       -1    1    3    3    0  502  0.14998382891E+03 -0.21792859735E+03 -0.12368561733E+03  0.29203793321E+03  0.50400001928E-02 0. -1.
</event>
<event>
 5   0  0.3640827E-02  0.5996016E+03  0.7818609E-02  0.9906233E-01
       -1   -1    0    0    0  501  0.00000000000E+00  0.00000000000E+00  0.77210228865E+02  0.77210229030E+02  0.50400001928E-02 0.  1.
        1   -1    0    0  501    0  0.00000000000E+00  0.00000000000E+00 -0.11641011990E+04  0.11641011990E+04  0.50400001928E-02 0. -1.
    10030    2    1    2    0    0  0.00000000000E+00  0.00000000000E+00 -0.10868909702E+04  0.12413114281E+04  0.59960160143E+03 0.  0.
        3    1    3    3  502    0  0.28718822146E+03  0.21690613725E+02 -0.71582159923E+03  0.77158805680E+03  0.10100000352E+00 0. -1.
       -3    1    3    3    0  502 -0.28718822146E+03 -0.21690613725E+02 -0.37106937094E+03  0.46972337128E+03  0.10100000352E+00 0.  1.
</event>
<event>
 5   0  0.5999117E-02  0.5993581E+03  0.7818609E-02  0.9906739E-01
        2   -1    0    0  501    0  0.00000000000E+00  0.00000000000E+00  0.25571221794E+03  0.25571221795E+03  0.25500000920E-02 0. -1.
       -2   -1    0    0    0  501  0.00000000000E+00  0.00000000000E+00 -0.35120546932E+03  0.35120546933E+03  0.25500000920E-02 0.  1.
    10030    2    1    2    0    0  0.00000000000E+00  0.00000000000E+00 -0.95493251383E+02  0.60691768729E+03  0.59935808836E+03 0.  0.
        5    1    3    3  502    0 -0.23098344086E+03 -0.82353709139E+02 -0.22211007489E+03  0.33089342503E+03  0.46999998093E+01 0.  1.
       -5    1    3    3    0  502  0.23098344086E+03  0.82353709139E+02  0.12661682351E+03  0.27602426226E+03  0.46999998093E+01 0. -1.
</event>
<event>
 5   0  0.3703280E-02  0.6067445E+03  0.7818609E-02  0.9891511E-01
        1   -1    0    0  501    0  0.00000000000E+00  0.00000000000E+00  0.11009448118E+04  0.11009448118E+04  0.50400001928E-02 0.  1.
       -1   -1    0    0    0  501  0.00000000000E+00  0.00000000000E+00 -0.83596118476E+02  0.83596118628E+02  0.50400001928E-02 0. -1.
    10030    2    1    2    0    0  0.00000000000E+00  0.00000000000E+00  0.10173486933E+04  0.11845409304E+04  0.60674447017E+03 0.  0.
        5    1    3    3  502    0  0.12938157902E+03  0.14028334656E+03  0.48357686417E+02  0.19692528062E+03  0.46999998093E+01 0. -1.
       -5    1    3    3    0  502 -0.12938157902E+03 -0.14028334656E+03  0.96899100691E+03  0.98761564983E+03  0.46999998093E+01 0.  1.
</event>
<event>
 5   0  0.5755078E-02  0.5944692E+03  0.7818609E-02  0.9916948E-01
       -2   -1    0    0    0  501  0.00000000000E+00  0.00000000000E+00  0.10770363781E+03  0.10770363784E+03  0.25500000920E-02 0. -1.
        2   -1    0    0  501    0  0.00000000000E+00  0.00000000000E+00 -0.82029183826E+03  0.82029183826E+03  0.25500000920E-02 0.  1.
    10030    2    1    2    0    0  0.00000000000E+00  0.00000000000E+00 -0.71258820045E+03  0.92799547610E+03  0.59446922565E+03 0.  0.
        2    1    3    3  502    0 -0.18778337047E+02  0.29261760904E+03 -0.28028650726E+03  0.40563310667E+03  0.25500000920E-02 0. -1.
       -2    1    3    3    0  502  0.18778337047E+02 -0.29261760904E+03 -0.43230169318E+03  0.52236236943E+03  0.25500000920E-02 0.  1.
</event>
<event>
 5   0  0.5755078E-02  0.5972890E+03  0.7818609E-02  0.9911046E-01
       -2   -1    0    0    0  501  0.00000000000E+00  0.00000000000E+00  0.14708617200E+03  0.14708617202E+03  0.25500000920E-02 0. -1.
        2   -1    0    0  501    0  0.00000000000E+00  0.00000000000E+00 -0.60636936447E+03  0.60636936447E+03  0.25500000920E-02 0.  1.
    10030    2    1    2    0    0  0.00000000000E+00  0.00000000000E+00 -0.45928319247E+03  0.75345553650E+03  0.59728903774E+03 0.  0.
        2    1    3    3  502    0 -0.84934641244E+02  0.24421472513E+03 -0.41122815091E+02  0.26181254970E+03  0.25500000920E-02 0. -1.
       -2    1    3    3    0  502  0.84934641244E+02 -0.24421472513E+03 -0.41816037738E+03  0.49164298680E+03  0.25500000920E-02 0.  1.
</event>
<event>
 5   0  0.5999117E-02  0.5938543E+03  0.7818609E-02  0.9918239E-01
       -2   -1    0    0    0  501  0.00000000000E+00  0.00000000000E+00  0.74749449703E+02  0.74749449747E+02  0.25500000920E-02 0.  1.
        2   -1    0    0  501    0  0.00000000000E+00  0.00000000000E+00 -0.11794832688E+04  0.11794832688E+04  0.25500000920E-02 0. -1.
    10030    2    1    2    0    0  0.00000000000E+00  0.00000000000E+00 -0.11047338191E+04  0.12542327186E+04  0.59385427609E+03 0.  0.
        5    1    3    3  502    0  0.42375213281E+02  0.29382502232E+03 -0.56050103271E+03  0.63428093154E+03  0.46999998093E+01 0.  1.
       -5    1    3    3    0  502 -0.42375213281E+02 -0.29382502232E+03 -0.54423278639E+03  0.61995178702E+03  0.46999998093E+01 0. -1.
</event>
<event>
 5   0  0.5872632E-02  0.5967690E+03  0.7818609E-02  0.9912132E-01
       -2   -1    0    0    0  501  0.00000000000E+00  0.00000000000E+00  0.25313241618E+03  0.25313241620E+03  0.25500000920E-02 0.  1.
        2   -1    0    0  501    0  0.00000000000E+00  0.00000000000E+00 -0.35172618958E+03  0.35172618959E+03  0.25500000920E-02 0. -1.
    10030    2    1    2    0    0  0.00000000000E+00  0.00000000000E+00 -0.98593773400E+02  0.60485860579E+03  0.59676896773E+03 0.  0.
        1    1    3    3  502    0  0.41256356384E+02 -0.63074149583E+02  0.24332573586E+03  0.25473093461E+03  0.50400001928E-02 0.  1.
       -1    1    3    3    0  502 -0.41256356384E+02  0.63074149583E+02 -0.34191950926E+03  0.35012767118E+03  0.50400001928E-02 0. -1.
</event>
<event>
 5   0  0.5755078E-02  0.6007894E+03  0.7818609E-02  0.9903770E-01
       -2   -1    0    0    0  501  0.00000000000E+00  0.00000000000E+00  0.10131393729E+03  0.10131393732E+03  0.25500000920E-02 0. -1.
        2   -1    0    0  501    0  0.00000000000E+00  0.00000000000E+00 -0.89066694558E+03  0.89066694559E+03  0.25500000920E-02 0.  1.
    10030    2    1    2    0    0  0.00000000000E+00  0.00000000000E+00 -0.78935300830E+03  0.99198088291E+03  0.60078939766E+03 0.  0.
        2    1    3    3  502    0 -0.32299878676E+02 -0.26560019028E+03 -0.16918864660E+03  0.31656206561E+03  0.25500000920E-02 0. -1.
       -2    1    3    3    0  502  0.32299878676E+02  0.26560019028E+03 -0.62016436170E+03  0.67541881730E+03  0.25500000920E-02 0.  1.
</event>
<event>
 5   0  0.5872632E-02  0.5997242E+03  0.7818609E-02  0.9905978E-01
        2   -1    0    0  501    0  0.00000000000E+00  0.00000000000E+00  0.42178310251E+03  0.42178310252E+03  0.25500000920E-02 0. -1.
       -2   -1    0    0    0  501  0.00000000000E+00  0.00000000000E+00 -0.21318367043E+03  0.21318367045E+03  0.25500000920E-02 0.  1.
    10030    2    1    2    0    0  0.00000000000E+00  0.00000000000E+00  0.20859943207E+03  0.63496677296E+03  0.59972416969E+03 0.  0.
        1    1    3    3  502    0 -0.80983485216E+02 -0.11408393760E+03  0.38510958139E+03  0.40973510882E+03  0.50400001928E-02 0. -1.
       -1    1    3    3    0  502  0.80983485216E+02  0.11408393760E+03 -0.17651014931E+03  0.22523166414E+03  0.50400001928E-02 0.  1.
</event>
<event>
 5   0  0.3767635E-02  0.5987038E+03  0.7818609E-02  0.9908099E-01
        1   -1    0    0  501    0  0.00000000000E+00  0.00000000000E+00  0.51572698712E+03  0.51572698715E+03  0.50400001928E-02 0.  1.
       -1   -1    0    0    0  501  0.00000000000E+00  0.00000000000E+00 -0.17375775679E+03  0.17375775686E+03  0.50400001928E-02 0. -1.
    10030    2    1    2    0    0  0.00000000000E+00  0.00000000000E+00  0.34196923033E+03  0.68948474401E+03  0.59870381469E+03 0.  0.
        2    1    3    3  502    0 -0.38981428910E+02 -0.94480320314E+01  0.51261835175E+03  0.51418517254E+03  0.25500000920E-02 0.  1.
       -2    1    3    3    0  502  0.38981428910E+02  0.94480320314E+01 -0.17064912142E+03  0.17529957146E+03  0.25500000920E-02 0. -1.
</event>
<event>
 5   0  0.3478183E-02  0.5979768E+03  0.7818609E-02  0.9909612E-01
        1   -1    0    0  501    0  0.00000000000E+00  0.00000000000E+00  0.24155992897E+03  0.24155992902E+03  0.50400001928E-02 0. -1.
       -1   -1    0    0    0  501  0.00000000000E+00  0.00000000000E+00 -0.37006990714E+03  0.37006990717E+03  0.50400001928E-02 0.  1.
    10030    2    1    2    0    0  0.00000000000E+00  0.00000000000E+00 -0.12850997817E+03  0.61162983619E+03  0.59797679054E+03 0.  0.
        4    1    3    3  502    0  0.23899591643E+03 -0.15542726389E+03 -0.15639941553E+03  0.32517544881E+03  0.12699999809E+01 0. -1.
       -4    1    3    3    0  502 -0.23899591643E+03  0.15542726389E+03  0.27889437363E+02  0.28645438738E+03  0.12699999809E+01 0.  1.
</event>
<event>
 5   0  0.3478183E-02  0.5969469E+03  0.7818609E-02  0.9911761E-01
       -1   -1    0    0    0  501  0.00000000000E+00  0.00000000000E+00  0.16564770210E+03  0.16564770218E+03  0.50400001928E-02 0. -1.
        1   -1    0    0  501    0  0.00000000000E+00  0.00000000000E+00 -0.53780643888E+03  0.53780643890E+03  0.50400001928E-02 0.  1.
    10030    2    1    2    0    0  0.00000000000E+00  0.00000000000E+00 -0.37215873678E+03  0.70345414108E+03  0.59694690153E+03 0.  0.
        4    1    3    3  502    0  0.11818127215E+02  0.24436545990E+03  0.15394749816E+02  0.24513824129E+03  0.12699999809E+01 0. -1.
       -4    1    3    3    0  502 -0.11818127215E+02 -0.24436545990E+03 -0.38755348660E+03  0.45831589979E+03  0.12699999809E+01 0.  1.
</event>
<event>
 5   0  0.6007360E-02  0.5997253E+03  0.7818609E-02  0.9905976E-01
        2   -1    0    0  501    0  0.00000000000E+00  0.00000000000E+00  0.96891071675E+03  0.96891071675E+03  0.25500000920E-02 0.  1.
       -2   -1    0    0    0  501  0.00000000000E+00  0.00000000000E+00 -0.92802777079E+02  0.92802777114E+02  0.25500000920E-02 0. -1.
    10030    2    1    2    0    0  0.00000000000E+00  0.00000000000E+00  0.87610793967E+03  0.10617134939E+04  0.59972528803E+03 0.  0.
        4    1    3    3  502    0  0.16466091203E+03 -0.89409670363E+02  0.85251115733E+03  0.87285977761E+03  0.12699999809E+01 0.  1.
       -4    1    3    3    0  502 -0.16466091203E+03  0.89409670363E+02  0.23596782338E+02  0.18885371625E+03  0.12699999809E+01 0. -1.
</event>
<event>
 5   0  0.3703280E-02  0.6019432E+03  0.7818609E-02  0.9901383E-01
       -1   -1    0    0    0  501  0.00000000000E+00  0.00000000000E+00  0.22104120431E+03  0.22104120436E+03  0.50400001928E-02 0. -1.
        1   -1    0    0  501    0  0.00000000000E+00  0.00000000000E+00 -0.40980546187E+03  0.40980546190E+03  0.50400001928E-02 0.  1.
    10030    2    1    2    0    0  0.00000000000E+00  0.00000000000E+00 -0.18876425757E+03  0.63084666627E+03  0.60194316294E+03 0.  0.
        5    1    3    3  502    0 -0.65145315293E+02 -0.25517225962E+03  0.58229474021E+02  0.26975832856E+03  0.46999998093E+01 0. -1.
       -5    1    3    3    0  502  0.65145315293E+02  0.25517225962E+03 -0.24699373159E+03  0.36108833771E+03  0.46999998093E+01 0.  1.
</event>
<event>
 5   0  0.3767635E-02  0.6015341E+03  0.7818609E-02  0.9902228E-01
       -1   -1    0    0    0  501  0.00000000000E+00  0.00000000000E+00  0.12676223232E+03  0.12676223242E+03  0.50400001928E-02 0. -1.
        1   -1    0    0  501    0  0.00000000000E+00  0.00000000000E+00 -0.71362589081E+03  0.71362589083E+03  0.50400001928E-02 0.  1.
    10030    2    1    2    0    0  0.00000000000E+00  0.00000000000E+00 -0.58686365849E+03  0.84038812325E+03  0.60153407555E+03 0.  0.
        2    1    3    3  502    0 -0.28289298852E+03 -0.50547985969E+02 -0.41742778335E+03  0.50678348055E+03  0.25500000920E-02 0.  1.
       -2    1    3    3    0  502  0.28289298852E+03  0.50547985969E+02 -0.16943587513E+03  0.33360464270E+03  0.25500000920E-02 0. -1.
</event>
<event>
 5   0  0.3478183E-02  0.5974658E+03  0.7818609E-02  0.9910678E-01
        1   -1    0    0  501    0  0.00000000000E+00  0.00000000000E+00  0.15666121795E+03  0.15666121803E+03  0.50400001928E-02 0. -1.
       -1   -1    0    0    0  501  0.00000000000E+00  0.00000000000E+00 -0.56964547685E+03  0.56964547688E+03  0.50400001928E-02 0.  1.
    10030    2    1    2    0    0  0.00000000000E+00  0.00000000000E+00 -0.41298425891E+03  0.72630669490E+03  0.59746582911E+03 0.  0.
        4    1    3    3  502    0  0.70824540604E+02 -0.17466030959E+03 -0.48824248707E+03  0.52335903391E+03  0.12699999809E+01 0.  1.
       -4    1    3    3    0  502 -0.70824540604E+02  0.17466030959E+03  0.75258228160E+02  0.20294766100E+03  0.12699999809E+01 0. -1.
</event>
<event>
 5   0  0.3478183E-02  0.6147271E+03  0.7818609E-02  0.9875314E-01
       -1   -1    0    0    0  501  0.00000000000E+00  0.00000000000E+00  0.91833606316E+02  0.91833606454E+02  0.50400001928E-02 0. -1.
        1   -1    0    0  501    0  0.00000000000E+00  0.00000000000E+00 -0.10287340421E+04  0.10287340422E+04  0.50400001928E-02 0.  1.
    10030    2    1    2    0    0  0.00000000000E+00  0.00000000000E+00 -0.93690043582E+03  0.11205676486E+04  0.61472711706E+03 0.  0.
        4    1    3    3  502    0  0.33721533058E+02 -0.28054280517E+03 -0.24797081238E+03  0.37594220835E+03  0.12699999809E+01 0.  1.
       -4    1    3    3    0  502 -0.33721533058E+02  0.28054280517E+03 -0.68892962344E+03  0.74462544026E+03  0.12699999809E+01 0. -1.
</event>
<event>
 5   0  0.5935451E-02  0.5974974E+03  0.7818609E-02  0.9910612E-01
       -2   -1    0    0    0  501  0.00000000000E+00  0.00000000000E+00  0.13496375435E+03  0.13496375437E+03  0.25500000920E-02 0.  1.
        2   -1    0    0  501    0  0.00000000000E+00  0.00000000000E+00 -0.66129454460E+03  0.66129454460E+03  0.25500000920E-02 0. -1.
    10030    2    1    2    0    0  0.00000000000E+00  0.00000000000E+00 -0.52633079025E+03  0.79625829897E+03  0.59749742921E+03 0.  0.
        3    1    3    3  502    0 -0.28649168603E+03  0.83271576731E+02 -0.28377389697E+03  0.41175147414E+03  0.10100000352E+00 0. -1.
       -3    1    3    3    0  502  0.28649168603E+03 -0.83271576731E+02 -0.24255689329E+03  0.38450682483E+03  0.10100000352E+00 0.  1.
</event>
<event>
 5   0  0.3767635E-02  0.6010706E+03  0.7818609E-02  0.9903187E-01
       -1   -1    0    0    0  501  0.00000000000E+00  0.00000000000E+00  0.11187773983E+03  0.11187773995E+03  0.50400001928E-02 0.  1.
        1   -1    0    0  501    0  0.00000000000E+00  0.00000000000E+00 -0.80732283220E+03  0.80732283222E+03  0.50400001928E-02 0. -1.
    10030    2    1    2    0    0  0.00000000000E+00  0.00000000000E+00 -0.69544509237E+03  0.91920057217E+03  0.60107055773E+03 0.  0.
        2    1    3    3  502    0 -0.71892143527E+02 -0.18430656999E+01 -0.79397033494E+03  0.79722065324E+03  0.25500000920E-02 0. -1.
       -2    1    3    3    0  502  0.71892143527E+02  0.18430656999E+01  0.98525242563E+02  0.12197991892E+03  0.25500000920E-02 0.  1.
</event>
<event>
 5   0  0.5935451E-02  0.6002155E+03  0.7818609E-02  0.9904959E-01
        2   -1    0    0  501    0  0.00000000000E+00  0.00000000000E+00  0.10361964013E+04  0.10361964013E+04  0.25500000920E-02 0. -1.
       -2   -1    0    0    0  501  0.00000000000E+00  0.00000000000E+00 -0.86918535441E+02  0.86918535479E+02  0.25500000920E-02 0.  1.
    10030    2    1    2    0    0  0.00000000000E+00  0.00000000000E+00  0.94927786587E+03  0.11231149368E+04  0.60021554013E+03 0.  0.
        3    1    3    3  502    0 -0.81480518442E+02  0.20170535472E+02  0.10137832495E+04  0.10172523839E+04  0.10100000352E+00 0. -1.
       -3    1    3    3    0  502  0.81480518442E+02 -0.20170535472E+02 -0.64505383628E+02  0.10586255289E+03  0.10100000352E+00 0.  1.
</event>
<event>
 5   0  0.3703280E-02  0.5303984E+03  0.7818609E-02  0.1006136E+00
       -1   -1    0    0    0  501  0.00000000000E+00  0.00000000000E+00  0.17726940239E+03  0.17726940246E+03  0.50400001928E-02 0. -1.
        1   -1    0    0  501    0  0.00000000000E+00  0.00000000000E+00 -0.39674430088E+03  0.39674430091E+03  0.50400001928E-02 0.  1.
    10030    2    1    2    0    0  0.00000000000E+00  0.00000000000E+00 -0.21947489849E+03  0.57401370337E+03  0.53039843570E+03 0.  0.
        5    1    3    3  502    0 -0.13414258678E+03  0.36579581587E+02 -0.35408270282E+03  0.38043258248E+03  0.46999998093E+01 0.  1.
       -5    1    3    3    0  502  0.13414258678E+03 -0.36579581587E+02  0.13460780434E+03  0.19358112089E+03  0.46999998093E+01 0. -1.
</event>
<event>
 5   0  0.5935451E-02  0.6007748E+03  0.7818609E-02  0.9903800E-01
       -2   -1    0    0    0  501  0.00000000000E+00  0.00000000000E+00  0.32087475058E+03  0.32087475059E+03  0.25500000920E-02 0. -1.
        2   -1    0    0  501    0  0.00000000000E+00  0.00000000000E+00 -0.28120815301E+03  0.28120815302E+03  0.25500000920E-02 0.  1.
    10030    2    1    2    0    0  0.00000000000E+00  0.00000000000E+00  0.39666597575E+02  0.60208290362E+03  0.60077481960E+03 0.  0.
        3    1    3    3  502    0 -0.33139421602E+02  0.22422764224E+03 -0.17771598401E+03  0.28802645362E+03  0.10100000352E+00 0.  1.
       -3    1    3    3    0  502  0.33139421602E+02 -0.22422764224E+03  0.21738258158E+03  0.31405645000E+03  0.10100000352E+00 0. -1.
</event>
<event>
 5   0  0.3651984E-02  0.6050088E+03  0.7818609E-02  0.9895069E-01
        1   -1    0    0  501    0  0.00000000000E+00  0.00000000000E+00  0.11638427494E+04  0.11638427494E+04  0.50400001928E-02 0. -1.
       -1   -1    0    0    0  501  0.00000000000E+00  0.00000000000E+00 -0.78626518225E+02  0.78626518386E+02  0.50400001928E-02 0.  1.
    10030    2    1    2    0    0  0.00000000000E+00  0.00000000000E+00  0.10852162311E+04  0.12424692678E+04  0.60500877101E+03 0.  0.
        1    1    3    3  502    0 -0.28527191482E+03  0.93448676522E+02  0.61934340060E+03  0.68825792288E+03  0.50400001928E-02 0. -1.
       -1    1    3    3    0  502  0.28527191482E+03 -0.93448676522E+02  0.46587283054E+03  0.55421134488E+03  0.50400001928E-02 0.  1.
</event>
<event>
 5   0  0.3703280E-02  0.5998080E+03  0.7818609E-02  0.9905805E-01
        1   -1    0    0  501    0  0.00000000000E+00  0.00000000000E+00  0.46061364428E+03  0.46061364431E+03  0.50400001928E-02 0. -1.
       -1   -1    0    0    0  501  0.00000000000E+00  0.00000000000E+00 -0.19526647622E+03  0.19526647629E+03  0.50400001928E-02 0.  1.
    10030    2    1    2    0    0  0.00000000000E+00  0.00000000000E+00  0.26534716806E+03  0.65588012060E+03  0.59980798011E+03 0.  0.
        5    1    3    3  502    0  0.21781293823E+03 -0.90838539311E+02  0.33497156625E+03  0.40978306026E+03  0.46999998093E+01 0. -1.
       -5    1    3    3    0  502 -0.21781293823E+03  0.90838539311E+02 -0.69624398191E+02  0.24609706034E+03  0.46999998093E+01 0.  1.
</event>
<event>
 5   0  0.5999117E-02  0.6085113E+03  0.7818609E-02  0.9887904E-01
        2   -1    0    0  501    0  0.00000000000E+00  0.00000000000E+00  0.47473220877E+03  0.47473220878E+03  0.25500000920E-02 0.  1.
       -2   -1    0    0    0  501  0.00000000000E+00  0.00000000000E+00 -0.19499727160E+03  0.19499727162E+03  0.25500000920E-02 0. -1.
    10030    2    1    2    0    0  0.00000000000E+00  0.00000000000E+00  0.27973493717E+03  0.66972948040E+03  0.60851125038E+03 0.  0.
        5    1    3    3  502    0 -0.57295767093E+02  0.25157161497E+03 -0.37525449320E+02  0.26077064968E+03  0.46999998093E+01 0. -1.
       -5    1    3    3    0  502  0.57295767093E+02 -0.25157161497E+03  0.31726038649E+03  0.40895883072E+03  0.46999998093E+01 0.  1.
</event>
<event>
 5   0  0.3651984E-02  0.6060889E+03  0.7818609E-02  0.9892854E-01
        1   -1    0    0  501    0  0.00000000000E+00  0.00000000000E+00  0.13858966711E+04  0.13858966711E+04  0.50400001928E-02 0. -1.
       -1   -1    0    0    0  501  0.00000000000E+00  0.00000000000E+00 -0.66264628947E+02  0.66264629138E+02  0.50400001928E-02 0.  1.
    10030    2    1    2    0    0  0.00000000000E+00  0.00000000000E+00  0.13196320422E+04  0.14521613003E+04  0.60608886746E+03 0.  0.
        1    1    3    3  502    0  0.82940309911E+02 -0.13431092419E+03  0.12796110827E+04  0.12893110728E+04  0.50400001928E-02 0. -1.
       -1    1    3    3    0  502 -0.82940309911E+02  0.13431092419E+03  0.40020959439E+02  0.16285022747E+03  0.50400001928E-02 0.  1.
</event>
<event>
 5   0  0.3767635E-02  0.6000453E+03  0.7818609E-02  0.9905312E-01
       -1   -1    0    0    0  501  0.00000000000E+00  0.00000000000E+00  0.97409856167E+02  0.97409856297E+02  0.50400001928E-02 0.  1.
        1   -1    0    0  501    0  0.00000000000E+00  0.00000000000E+00 -0.92407053439E+03  0.92407053440E+03  0.50400001928E-02 0. -1.
    10030    2    1    2    0    0  0.00000000000E+00  0.00000000000E+00 -0.82666067822E+03  0.10214803907E+04  0.60004525801E+03 0.  0.
        2    1    3    3  502    0 -0.10242502056E+03 -0.86444776942E+02 -0.87027436031E+03  0.88053452318E+03  0.25500000920E-02 0. -1.
       -2    1    3    3    0  502  0.10242502056E+03  0.86444776942E+02  0.43613682088E+02  0.14094586752E+03  0.25500000920E-02 0.  1.
</event>
<event>
 5   0  0.5755078E-02  0.6011604E+03  0.7818609E-02  0.9903001E-01
        2   -1    0    0  501    0  0.00000000000E+00  0.00000000000E+00  0.37044969164E+03  0.37044969165E+03  0.25500000920E-02 0. -1.
       -2   -1    0    0    0  501  0.00000000000E+00  0.00000000000E+00 -0.24388863920E+03  0.24388863921E+03  0.25500000920E-02 0.  1.
    10030    2    1    2    0    0  0.00000000000E+00  0.00000000000E+00  0.12656105244E+03  0.61433833086E+03  0.60116044844E+03 0.  0.
        2    1    3    3  502    0 -0.24550984453E+03  0.11793335590E+03 -0.66648612343E+02  0.28040220707E+03  0.25500000920E-02 0.  1.
       -2    1    3    3    0  502  0.24550984453E+03 -0.11793335590E+03  0.19320966478E+03  0.33393612378E+03  0.25500000920E-02 0. -1.
</event>
<event>
 5   0  0.5755078E-02  0.5950688E+03  0.7818609E-02  0.9915690E-01
       -2   -1    0    0    0  501  0.00000000000E+00  0.00000000000E+00  0.38137721343E+02  0.38137721428E+02  0.25500000920E-02 0. -1.
        2   -1    0    0  501    0  0.00000000000E+00  0.00000000000E+00 -0.23212377561E+04  0.23212377562E+04  0.25500000920E-02 0.  1.
    10030    2    1    2    0    0  0.00000000000E+00  0.00000000000E+00 -0.22831000348E+04  0.23593754776E+04  0.59506879877E+03 0.  0.
        2    1    3    3  502    0 -0.25344216437E+03  0.34530312421E+02 -0.53892180327E+03  0.59654168606E+03  0.25500000920E-02 0. -1.
       -2    1    3    3    0  502  0.25344216437E+03 -0.34530312421E+02 -0.17441782315E+04  0.17628337915E+04  0.25500000920E-02 0.  1.
</event>
<event>
 5   0  0.6007360E-02  0.5945783E+03  0.7818609E-02  0.9916719E-01
       -2   -1    0    0    0  501  0.00000000000E+00  0.00000000000E+00  0.19660352527E+03  0.19660352528E+03  0.25500000920E-02 0. -1.
        2   -1    0    0  501    0  0.00000000000E+00  0.00000000000E+00 -0.44953841773E+03  0.44953841773E+03  0.25500000920E-02 0.  1.
    10030    2    1    2    0    0  0.00000000000E+00  0.00000000000E+00 -0.25293489246E+03  0.64614194302E+03  0.59457829653E+03 0.  0.
        4    1    3    3  502    0  0.28113734379E+03 -0.21773686025E+02 -0.22879801917E+03  0.36312869062E+03  0.12699999809E+01 0.  1.
       -4    1    3    3    0  502 -0.28113734379E+03  0.21773686025E+02 -0.24136873292E+02  0.28301325239E+03  0.12699999809E+01 0. -1.
</event>
<event>
 5   0  0.5872632E-02  0.5980148E+03  0.7818609E-02  0.9909533E-01
        2   -1    0    0  501    0  0.00000000000E+00  0.00000000000E+00  0.20341335733E+04  0.20341335733E+04  0.25500000920E-02 0. -1.
       -2   -1    0    0    0  501  0.00000000000E+00  0.00000000000E+00 -0.43952581137E+02  0.43952581211E+02  0.25500000920E-02 0.  1.
    10030    2    1    2    0    0  0.00000000000E+00  0.00000000000E+00  0.19901809922E+04  0.20780861545E+04  0.59801478578E+03 0.  0.
        1    1    3    3  502    0 -0.71166388116E+02  0.12209145979E+03  0.79420253860E+02  0.16210661954E+03  0.50400001928E-02 0.  1.
       -1    1    3    3    0  502  0.71166388116E+02 -0.12209145979E+03  0.19107607383E+04  0.19159795350E+04  0.50400001928E-02 0. -1.
</event>
<event>
 5   0  0.2388000E-02  0.5924968E+03  0.7818609E-02  0.9921096E-01
        4   -1    0    0  501    0  0.00000000000E+00  0.00000000000E+00  0.25955090384E+04  0.25955093491E+04  0.12699999809E+01 0. -1.
       -4   -1    0    0    0  501  0.00000000000E+00  0.00000000000E+00 -0.33801216623E+02  0.33825066816E+02  0.12699999809E+01 0.  1.
    10030    2    1    2    0    0  0.00000000000E+00  0.00000000000E+00  0.25617078217E+04  0.26293344159E+04  0.59249684102E+03 0.  0.
        2    1    3    3  502    0  0.15921730515E+03 -0.20479231675E+03  0.19158212902E+04  0.19333031990E+04  0.25500000920E-02 0.  1.
       -2    1    3    3    0  502 -0.15921730515E+03  0.20479231675E+03  0.64588653153E+03  0.69603121688E+03  0.25500000920E-02 0. -1.
</event>
<event>
 5   0  0.5755078E-02  0.6047731E+03  0.7818609E-02  0.9895552E-01
        2   -1    0    0  501    0  0.00000000000E+00  0.00000000000E+00  0.85785317100E+03  0.85785317101E+03  0.25500000920E-02 0. -1.
       -2   -1    0    0    0  501  0.00000000000E+00  0.00000000000E+00 -0.10658891713E+03  0.10658891716E+03  0.25500000920E-02 0.  1.
    10030    2    1    2    0    0  0.00000000000E+00  0.00000000000E+00  0.75126425387E+03  0.96444208816E+03  0.60477314943E+03 0.  0.
        2    1    3    3  502    0 -0.14906855562E+02  0.26114590193E+03  0.13368540112E+03  0.29375360920E+03  0.25500000920E-02 0.  1.
       -2    1    3    3    0  502  0.14906855562E+02 -0.26114590193E+03  0.61757885275E+03  0.67068847896E+03  0.25500000920E-02 0. -1.
</event>
<event>
 5   0  0.5872632E-02  0.5811807E+03  0.7818609E-02  0.9945238E-01
        2   -1    0    0  501    0  0.00000000000E+00  0.00000000000E+00  0.10639606642E+03  0.10639606645E+03  0.25500000920E-02 0.  1.
       -2   -1    0    0    0  501  0.00000000000E+00  0.00000000000E+00 -0.79366429337E+03  0.79366429337E+03  0.25500000920E-02 0. -1.
    10030    2    1    2    0    0  0.00000000000E+00  0.00000000000E+00 -0.68726822695E+03  0.90006035982E+03  0.58118072538E+03 0.  0.
        1    1    3    3  502    0  0.86481060992E+02 -0.23903775563E+03 -0.56168815593E+03  0.61653191894E+03  0.50400001928E-02 0. -1.
       -1    1    3    3    0  502 -0.86481060992E+02  0.23903775563E+03 -0.12558007101E+03  0.28352844088E+03  0.50400001928E-02 0.  1.
</event>
<event>
 5   0  0.3703280E-02  0.6013252E+03  0.7818609E-02  0.9902660E-01
       -1   -1    0    0    0  501  0.00000000000E+00  0.00000000000E+00  0.50663401292E+03  0.50663401294E+03  0.50400001928E-02 0. -1.
        1   -1    0    0  501    0  0.00000000000E+00  0.00000000000E+00 -0.17842862367E+03  0.17842862374E+03  0.50400001928E-02 0.  1.
    10030    2    1    2    0    0  0.00000000000E+00  0.00000000000E+00  0.32820538925E+03  0.68506263668E+03  0.60132523533E+03 0.  0.
        5    1    3    3  502    0  0.18501079844E+03 -0.20367917799E+03  0.26155376456E+02  0.27644239328E+03  0.46999998093E+01 0.  1.
       -5    1    3    3    0  502 -0.18501079844E+03  0.20367917799E+03  0.30205001279E+03  0.40862024340E+03  0.46999998093E+01 0. -1.
</event>
<event>
 5   0  0.3703280E-02  0.5922129E+03  0.7818609E-02  0.9921695E-01
       -1   -1    0    0    0  501  0.00000000000E+00  0.00000000000E+00  0.19310557322E+03  0.19310557329E+03  0.50400001928E-02 0. -1.
        1   -1    0    0  501    0  0.00000000000E+00  0.00000000000E+00 -0.45404716241E+03  0.45404716244E+03  0.50400001928E-02 0.  1.
    10030    2    1    2    0    0  0.00000000000E+00  0.00000000000E+00 -0.26094158919E+03  0.64715273572E+03  0.59221292656E+03 0.  0.
        5    1    3    3  502    0 -0.24624571410E+03 -0.16225883007E+03 -0.10172308313E+03  0.31198486388E+03  0.46999998093E+01 0. -1.
       -5    1    3    3    0  502  0.24624571410E+03  0.16225883007E+03 -0.15921850606E+03  0.33516787185E+03  0.46999998093E+01 0.  1.
</event>
<event>
 5   0  0.3651984E-02  0.5348121E+03  0.7818609E-02  0.1005072E+00
        1   -1    0    0  501    0  0.00000000000E+00  0.00000000000E+00  0.87290971841E+03  0.87290971842E+03  0.50400001928E-02 0.  1.
       -1   -1    0    0    0  501  0.00000000000E+00  0.00000000000E+00 -0.81916836371E+02  0.81916836526E+02  0.50400001928E-02 0. -1.
    10030    2    1    2    0    0  0.00000000000E+00  0.00000000000E+00  0.79099288204E+03  0.95482655495E+03  0.53481212645E+03 0.  0.
        1    1    3    3  502    0 -0.36399446799E+02 -0.26365722989E+03  0.44156911414E+03  0.51558058263E+03  0.50400001928E-02 0.  1.
       -1    1    3    3    0  502  0.36399446799E+02  0.26365722989E+03  0.34942376790E+03  0.43924597232E+03  0.50400001928E-02 0. -1.
</event>
<event>
 5   0  0.2388000E-02  0.5955384E+03  0.7818609E-02  0.9914706E-01
       -3   -1    0    0    0  501  0.00000000000E+00  0.00000000000E+00  0.14845294830E+04  0.14845294864E+04  0.10100000352E+00 0. -1.
        3   -1    0    0  501    0  0.00000000000E+00  0.00000000000E+00 -0.59726955606E+02  0.59727041003E+02  0.10100000352E+00 0.  1.
    10030    2    1    2    0    0  0.00000000000E+00  0.00000000000E+00  0.14248025274E+04  0.15442565274E+04  0.59553839545E+03 0.  0.
        3    1    3    3  502    0 -0.22635737432E+03  0.60906883690E+02  0.11885560484E+04  0.12114507005E+04  0.10100000352E+00 0. -1.
       -3    1    3    3    0  502  0.22635737432E+03 -0.60906883690E+02  0.23624647895E+03  0.33280582688E+03  0.10100000352E+00 0.  1.
</event>
<event>
 5   0  0.5999117E-02  0.6028788E+03  0.7818609E-02  0.9899451E-01
       -2   -1    0    0    0  501  0.00000000000E+00  0.00000000000E+00  0.99385790151E+02  0.99385790184E+02  0.25500000920E-02 0. -1.
        2   -1    0    0  501    0  0.00000000000E+00  0.00000000000E+00 -0.91427268141E+03  0.91427268141E+03  0.25500000920E-02 0.  1.
    10030    2    1    2    0    0  0.00000000000E+00  0.00000000000E+00 -0.81488689126E+03  0.10136584716E+04  0.60287880332E+03 0.  0.
        5    1    3    3  502    0  0.21351007691E+03  0.20768843457E+03 -0.48490640613E+03  0.56910223291E+03  0.46999998093E+01 0.  1.
       -5    1    3    3    0  502 -0.21351007691E+03 -0.20768843457E+03 -0.32998048512E+03  0.44455623869E+03  0.46999998093E+01 0. -1.
</event>
<event>
 5   0  0.3478183E-02  0.6163318E+03  0.7818609E-02  0.9872090E-01
       -1   -1    0    0    0  501  0.00000000000E+00  0.00000000000E+00  0.18819478306E+03  0.18819478312E+03  0.50400001928E-02 0.  1.
        1   -1    0    0  501    0  0.00000000000E+00  0.00000000000E+00 -0.50461665433E+03  0.50461665435E+03  0.50400001928E-02 0. -1.
    10030    2    1    2    0    0  0.00000000000E+00  0.00000000000E+00 -0.31642187127E+03  0.69281143748E+03  0.61633179967E+03 0.  0.
        4    1    3    3  502    0  0.19659417026E+03 -0.22420800129E+03 -0.24561640587E+03  0.38632567524E+03  0.12699999809E+01 0.  1.
       -4    1    3    3    0  502 -0.19659417026E+03  0.22420800129E+03 -0.70805465403E+02  0.30648576223E+03  0.12699999809E+01 0. -1.
</event>
<event>
 5   0  0.5872632E-02  0.6199242E+03  0.7818609E-02  0.9864911E-01
        2   -1    0    0  501    0  0.00000000000E+00  0.00000000000E+00  0.20946270366E+03  0.20946270367E+03  0.25500000920E-02 0.  1.
       -2   -1    0    0    0  501  0.00000000000E+00  0.00000000000E+00 -0.45868073176E+03  0.45868073177E+03  0.25500000920E-02 0. -1.
    10030    2    1    2    0    0  0.00000000000E+00  0.00000000000E+00 -0.24921802811E+03  0.66814343544E+03  0.61992420891E+03 0.  0.
        1    1    3    3  502    0 -0.52696667828E+00 -0.30676104874E+03 -0.17249322138E+03  0.35193256480E+03  0.50400001928E-02 0. -1.
       -1    1    3    3    0  502  0.52696667828E+00  0.30676104874E+03 -0.76724806726E+02  0.31621087064E+03  0.50400001928E-02 0.  1.
</event>
<event>
 5   0  0.2388000E-02  0.5973337E+03  0.7818609E-02  0.9910953E-01
       -3   -1    0    0    0  501  0.00000000000E+00  0.00000000000E+00  0.27872610473E+03  0.27872612303E+03  0.10100000352E+00 0.  1.
        3   -1    0    0  501    0  0.00000000000E+00  0.00000000000E+00 -0.32003413314E+03  0.32003414908E+03  0.10100000352E+00 0. -1.
    10030    2    1    2    0    0  0.00000000000E+00  0.00000000000E+00 -0.41308028407E+02  0.59876027211E+03  0.59733366743E+03 0.  0.
        2    1    3    3  502    0  0.58965667581E+01  0.25456583783E+03 -0.17711440719E+03  0.31017422287E+03  0.25500000920E-02 0.  1.
       -2    1    3    3    0  502 -0.58965667581E+01 -0.25456583783E+03  0.13580637879E+03  0.28858604924E+03  0.25500000920E-02 0. -1.
</event>
<event>
 5   0  0.5755078E-02  0.5668359E+03  0.7818609E-02  0.9976705E-01
        2   -1    0    0  501    0  0.00000000000E+00  0.00000000000E+00  0.48387355989E+03  0.48387355990E+03  0.25500000920E-02 0. -1.
       -2   -1    0    0    0  501  0.00000000000E+00  0.00000000000E+00 -0.16600561777E+03  0.16600561779E+03  0.25500000920E-02 0.  1.
    10030    2    1    2    0    0  0.00000000000E+00  0.00000000000E+00  0.31786794213E+03  0.64987917768E+03  0.56683588185E+03 0.  0.
        2    1    3    3  502    0  0.94143364291E+02 -0.16554589672E+03  0.39958309655E+03  0.44264553314E+03  0.25500000920E-02 0. -1.
       -2    1    3    3    0  502 -0.94143364291E+02  0.16554589672E+03 -0.81715154420E+02  0.20723364454E+03  0.25500000920E-02 0.  1.
</event>
<event>
 5   0  0.3703280E-02  0.6102718E+03  0.7818609E-02  0.9884322E-01
       -1   -1    0    0    0  501  0.00000000000E+00  0.00000000000E+00  0.62548690539E+02  0.62548690742E+02  0.50400001928E-02 0.  1.
        1   -1    0    0  501    0  0.00000000000E+00  0.00000000000E+00 -0.14885669189E+04  0.14885669189E+04  0.50400001928E-02 0. -1.
    10030    2    1    2    0    0  0.00000000000E+00  0.00000000000E+00 -0.14260182284E+04  0.15511156097E+04  0.61027178116E+03 0.  0.
        5    1    3    3  502    0 -0.26483450430E+03 -0.41095750776E+02 -0.10836035524E+04  0.11162638238E+04  0.46999998093E+01 0. -1.
       -5    1    3    3    0  502  0.26483450430E+03  0.41095750776E+02 -0.34241467593E+03  0.43485178589E+03  0.46999998093E+01 0.  1.
</event>
<event>
 5   0  0.6007360E-02  0.5511513E+03  0.7818609E-02  0.1001228E+00
       -2   -1    0    0    0  501  0.00000000000E+00  0.00000000000E+00  0.38722359223E+03  0.38722359224E+03  0.25500000920E-02 0. -1.
        2   -1    0    0  501    0  0.00000000000E+00  0.00000000000E+00 -0.19611912530E+03  0.19611912531E+03  0.25500000920E-02 0.  1.
    10030    2    1    2    0    0  0.00000000000E+00  0.00000000000E+00  0.19110446694E+03  0.58334271755E+03  0.55115134839E+03 0.  0.
        4    1    3    3  502    0 -0.20091134406E+03 -0.93962726607E+02 -0.77541817053E+02  0.23496533458E+03  0.12699999809E+01 0.  1.
       -4    1    3    3    0  502  0.20091134406E+03  0.93962726607E+02  0.26864628399E+03  0.34837738297E+03  0.12699999809E+01 0. -1.
</event>
<event>
 5   0  0.5999117E-02  0.6008907E+03  0.7818609E-02  0.9903560E-01
       -2   -1    0    0    0  501  0.00000000000E+00  0.00000000000E+00  0.11965957989E+03  0.11965957992E+03  0.25500000920E-02 0. -1.
        2   -1    0    0  501    0  0.00000000000E+00  0.00000000000E+00 -0.75436830906E+03  0.75436830907E+03  0.25500000920E-02 0.  1.
    10030    2    1    2    0    0  0.00000000000E+00  0.00000000000E+00 -0.63470872917E+03  0.87402788899E+03  0.60089065548E+03 0.  0.
        5    1    3    3  502    0  0.18696739662E+03  0.71722904795E+02  0.83628589949E+01  0.20048194402E+03  0.46999998093E+01 0. -1.
       -5    1    3    3    0  502 -0.18696739662E+03 -0.71722904795E+02 -0.64307158816E+03  0.67354594496E+03  0.46999998093E+01 0.  1.
</event>
<event>
 5   0  0.3478183E-02  0.6027040E+03  0.7818609E-02  0.9899812E-01
       -1   -1    0    0    0  501  0.00000000000E+00  0.00000000000E+00  0.51960133198E+02  0.51960133442E+02  0.50400001928E-02 0.  1.
        1   -1    0    0  501    0  0.00000000000E+00  0.00000000000E+00 -0.17477445781E+04  0.17477445781E+04  0.50400001928E-02 0. -1.
    10030    2    1    2    0    0  0.00000000000E+00  0.00000000000E+00 -0.16957844449E+04  0.17997047116E+04  0.60270404445E+03 0.  0.
        4    1    3    3  502    0 -0.71937840735E+01  0.29939566417E+03 -0.94790994466E+03  0.99409475924E+03  0.12699999809E+01 0. -1.
       -4    1    3    3    0  502  0.71937840735E+01 -0.29939566417E+03 -0.74787450025E+03  0.80560995232E+03  0.12699999809E+01 0.  1.
</event>
<event>
 5   0  0.5872632E-02  0.6030132E+03  0.7818609E-02  0.9899174E-01
        2   -1    0    0  501    0  0.00000000000E+00  0.00000000000E+00  0.39040350796E+03  0.39040350797E+03  0.25500000920E-02 0. -1.
       -2   -1    0    0    0  501  0.00000000000E+00  0.00000000000E+00 -0.23285200484E+03  0.23285200486E+03  0.25500000920E-02 0.  1.
    10030    2    1    2    0    0  0.00000000000E+00  0.00000000000E+00  0.15755150312E+03  0.62325551283E+03  0.60301323214E+03 0.  0.
        1    1    3    3  502    0  0.20527640201E+03  0.12960999436E+03 -0.10602528704E+03  0.26491227487E+03  0.50400001928E-02 0.  1.
       -1    1    3    3    0  502 -0.20527640201E+03 -0.12960999436E+03  0.26357679016E+03  0.35834323796E+03  0.50400001928E-02 0. -1.
</event>
<event>
 5   0  0.3703280E-02  0.5876843E+03  0.7818609E-02  0.9931292E-01
       -1   -1    0    0    0  501  0.00000000000E+00  0.00000000000E+00  0.14932367200E+03  0.14932367209E+03  0.50400001928E-02 0. -1.
        1   -1    0    0  501    0  0.00000000000E+00  0.00000000000E+00 -0.57822846623E+03  0.57822846625E+03  0.50400001928E-02 0.  1.
    10030    2    1    2    0    0  0.00000000000E+00  0.00000000000E+00 -0.42890479423E+03  0.72755213834E+03  0.58768426174E+03 0.  0.
        5    1    3    3  502    0 -0.73702122005E+02  0.19503345715E+03  0.41819405611E+02  0.21269932976E+03  0.46999998093E+01 0. -1.
       -5    1    3    3    0  502  0.73702122005E+02 -0.19503345715E+03 -0.47072419984E+03  0.51485280858E+03  0.46999998093E+01 0.  1.
</event>
<event>
 5   0  0.3651984E-02  0.6115230E+03  0.7818609E-02  0.9881784E-01
       -1   -1    0    0    0  501  0.00000000000E+00  0.00000000000E+00  0.13097281280E+03  0.13097281289E+03  0.50400001928E-02 0. -1.
        1   -1    0    0  501    0  0.00000000000E+00  0.00000000000E+00 -0.71381289243E+03  0.71381289245E+03  0.50400001928E-02 0.  1.
    10030    2    1    2    0    0  0.00000000000E+00  0.00000000000E+00 -0.58284007963E+03  0.84478570534E+03  0.61152295911E+03 0.  0.
        1    1    3    3  502    0  0.13181040118E+03  0.17223124476E+03 -0.58916082556E+03  0.62781212311E+03  0.50400001928E-02 0.  1.
       -1    1    3    3    0  502 -0.13181040118E+03 -0.17223124476E+03  0.63207459238E+01  0.21697358223E+03  0.50400001928E-02 0. -1.
</event>
<event>
 5   0  0.3640827E-02  0.5987737E+03  0.7818609E-02  0.9907953E-01
        1   -1    0    0  501    0  0.00000000000E+00  0.00000000000E+00  0.29989909204E+03  0.29989909209E+03  0.50400001928E-02 0. -1.
       -1   -1    0    0    0  501  0.00000000000E+00  0.00000000000E+00 -0.29887550274E+03  0.29887550278E+03  0.50400001928E-02 0.  1.
    10030    2    1    2    0    0  0.00000000000E+00  0.00000000000E+00  0.10235893044E+01  0.59877459487E+03  0.59877371997E+03 0.  0.
        3    1    3    3  502    0  0.26059749597E+03 -0.14711410507E+03 -0.83689227590E+01  0.29937211608E+03  0.10100000352E+00 0.  1.
       -3    1    3    3    0  502 -0.26059749597E+03  0.14711410507E+03  0.93925120634E+01  0.29940247879E+03  0.10100000352E+00 0. -1.
</event>
<event>
 5   0  0.3478183E-02  0.5997173E+03  0.7818609E-02  0.9905993E-01
       -1   -1    0    0    0  501  0.00000000000E+00  0.00000000000E+00  0.12591248085E+03  0.12591248095E+03  0.50400001928E-02 0.  1.
        1   -1    0    0  501    0  0.00000000000E+00  0.00000000000E+00 -0.71410873224E+03  0.71410873226E+03  0.50400001928E-02 0. -1.
    10030    2    1    2    0    0  0.00000000000E+00  0.00000000000E+00 -0.58819625139E+03  0.84002121321E+03  0.59971727379E+03 0.  0.
        4    1    3    3  502    0  0.19671479769E+03  0.21066784037E+03 -0.17828900270E+03  0.33891921158E+03  0.12699999809E+01 0.  1.
       -4    1    3    3    0  502 -0.19671479769E+03 -0.21066784037E+03 -0.40990724869E+03  0.50110200162E+03  0.12699999809E+01 0. -1.
</event>
<event>
 5   0  0.5935451E-02  0.6027349E+03  0.7818609E-02  0.9899748E-01
       -2   -1    0    0    0  501  0.00000000000E+00  0.00000000000E+00  0.11063803426E+03  0.11063803429E+03  0.25500000920E-02 0.  1.
        2   -1    0    0  501    0  0.00000000000E+00  0.00000000000E+00 -0.82089623327E+03  0.82089623328E+03  0.25500000920E-02 0. -1.
    10030    2    1    2    0    0  0.00000000000E+00  0.00000000000E+00 -0.71025819902E+03  0.93153426757E+03  0.60273491883E+03 0.  0.
        3    1    3    3  502    0  0.15752361984E+03  0.25097602576E+03 -0.44005748693E+03  0.53052168506E+03  0.10100000352E+00 0.  1.
       -3    1    3    3    0  502 -0.15752361984E+03 -0.25097602576E+03 -0.27020071209E+03  0.40101258251E+03  0.10100000352E+00 0. -1.
</event>
<event>
 5   0  0.3703280E-02  0.5832956E+03  0.7818609E-02  0.9940681E-01
       -1   -1    0    0    0  501  0.00000000000E+00  0.00000000000E+00  0.71371139950E+03  0.71371139952E+03  0.50400001928E-02 0. -1.
        1   -1    0    0  501    0  0.00000000000E+00  0.00000000000E+00 -0.11917763980E+03  0.11917763991E+03  0.50400001928E-02 0.  1.
    10030    2    1    2    0    0  0.00000000000E+00  0.00000000000E+00  0.59453375970E+03  0.83288903942E+03  0.58329560308E+03 0.  0.
        5    1    3    3  502    0 -0.24798861166E+03 -0.14095924014E+03  0.38375215831E+03  0.47817953522E+03  0.46999998093E+01 0.  1.
       -5    1    3    3    0  502  0.24798861166E+03  0.14095924014E+03  0.21078160139E+03  0.35470950421E+03  0.46999998093E+01 0. -1.
</event>
<event>
 5   0  0.5935451E-02  0.5993807E+03  0.7818609E-02  0.9906692E-01
        2   -1    0    0  501    0  0.00000000000E+00  0.00000000000E+00  0.59184170055E+03  0.59184170056E+03  0.25500000920E-02 0. -1.
       -2   -1    0    0    0  501  0.00000000000E+00  0.00000000000E+00 -0.15175395265E+03  0.15175395267E+03  0.25500000920E-02 0.  1.
    10030    2    1    2    0    0  0.00000000000E+00  0.00000000000E+00  0.44008774791E+03  0.74359565323E+03  0.59938073846E+03 0.  0.
        3    1    3    3  502    0 -0.51503553385E+02 -0.27136837503E+03  0.36430084192E+03  0.45717450126E+03  0.10100000352E+00 0. -1.
       -3    1    3    3    0  502  0.51503553385E+02  0.27136837503E+03  0.75786905989E+02  0.28642115197E+03  0.10100000352E+00 0.  1.
</event>
<event>
 5   0  0.5999117E-02  0.5972801E+03  0.7818609E-02  0.9911065E-01
       -2   -1    0    0    0  501  0.00000000000E+00  0.00000000000E+00  0.35161718702E+03  0.35161718703E+03  0.25500000920E-02 0.  1.
        2   -1    0    0  501    0  0.00000000000E+00  0.00000000000E+00 -0.25364486598E+03  0.25364486600E+03  0.25500000920E-02 0. -1.
    10030    2    1    2    0    0  0.00000000000E+00  0.00000000000E+00  0.97972321041E+02  0.60526205303E+03  0.59728014963E+03 0.  0.
        5    1    3    3  502    0 -0.10083886015E+01 -0.38217368296E+02 -0.25111706214E+03  0.25405403556E+03  0.46999998093E+01 0. -1.
       -5    1    3    3    0  502  0.10083886015E+01  0.38217368296E+02  0.34908938318E+03  0.35120801747E+03  0.46999998093E+01 0.  1.
</event>
<event>
 5   0  0.3767635E-02  0.5995184E+03  0.7818609E-02  0.9906406E-01
        1   -1    0    0  501    0  0.00000000000E+00  0.00000000000E+00  0.95679870922E+03  0.95679870923E+03  0.50400001928E-02 0. -1.
       -1   -1    0    0    0  501  0.00000000000E+00  0.00000000000E+00 -0.93912743363E+02  0.93912743498E+02  0.50400001928E-02 0.  1.
    10030    2    1    2    0    0  0.00000000000E+00  0.00000000000E+00  0.86288596585E+03  0.10507114527E+04  0.59951844578E+03 0.  0.
        2    1    3    3  502    0  0.26432612782E+02 -0.91319438055E+02  0.92967780332E+03  0.93452594441E+03  0.25500000920E-02 0. -1.
       -2    1    3    3    0  502 -0.26432612782E+02  0.91319438055E+02 -0.66791837464E+02  0.11618550832E+03  0.25500000920E-02 0.  1.
</event>
<event>
 5   0  0.3478183E-02  0.6024920E+03  0.7818609E-02  0.9900249E-01
        1   -1    0    0  501    0  0.00000000000E+00  0.00000000000E+00  0.11940539211E+04  0.11940539211E+04  0.50400001928E-02 0. -1.
       -1   -1    0    0    0  501  0.00000000000E+00  0.00000000000E+00 -0.76000873008E+02  0.76000873175E+02  0.50400001928E-02 0.  1.
    10030    2    1    2    0    0  0.00000000000E+00  0.00000000000E+00  0.11180530481E+04  0.12700547943E+04  0.60249196024E+03 0.  0.
        4    1    3    3  502    0 -0.18356453955E+03  0.13365644931E+03  0.14172957585E+03  0.26767306961E+03  0.12699999809E+01 0.  1.
       -4    1    3    3    0  502  0.18356453955E+03 -0.13365644931E+03  0.97632347227E+03  0.10023817247E+04  0.12699999809E+01 0. -1.
</event>
<event>
 5   0  0.5755078E-02  0.6133658E+03  0.7818609E-02  0.9878058E-01
       -2   -1    0    0    0  501  0.00000000000E+00  0.00000000000E+00  0.10152062401E+03  0.10152062404E+03  0.25500000920E-02 0. -1.
        2   -1    0    0  501    0  0.00000000000E+00  0.00000000000E+00 -0.92645623708E+03  0.92645623708E+03  0.25500000920E-02 0.  1.
    10030    2    1    2    0    0  0.00000000000E+00  0.00000000000E+00 -0.82493561307E+03  0.10279768611E+04  0.61336584620E+03 0.  0.
        2    1    3    3  502    0 -0.20021046144E+03 -0.58259850741E+02 -0.35559345595E+02  0.21152519033E+03  0.25500000920E-02 0. -1.
       -2    1    3    3    0  502  0.20021046144E+03  0.58259850741E+02 -0.78937626748E+03  0.81645167079E+03  0.25500000920E-02 0.  1.
</event>
<event>
 5   0  0.5935451E-02  0.5984802E+03  0.7818609E-02  0.9908564E-01
       -2   -1    0    0    0  501  0.00000000000E+00  0.00000000000E+00  0.23496108555E+03  0.23496108557E+03  0.25500000920E-02 0. -1.
        2   -1    0    0  501    0  0.00000000000E+00  0.00000000000E+00 -0.38110410709E+03  0.38110410710E+03  0.25500000920E-02 0.  1.
    10030    2    1    2    0    0  0.00000000000E+00  0.00000000000E+00 -0.14614302154E+03  0.61606519267E+03  0.59848019087E+03 0.  0.
        3    1    3    3  502    0  0.51584224406E+01  0.23310759582E+03 -0.26614284472E+03  0.35383298962E+03  0.10100000352E+00 0.  1.
       -3    1    3    3    0  502 -0.51584224406E+01 -0.23310759582E+03  0.11999982318E+03  0.26223220304E+03  0.10100000352E+00 0. -1.
</event>
<event>
 5   0  0.3651984E-02  0.6054214E+03  0.7818609E-02  0.9894222E-01
       -1   -1    0    0    0  501  0.00000000000E+00  0.00000000000E+00  0.24470385070E+03  0.24470385075E+03  0.50400001928E-02 0. -1.
        1   -1    0    0  501    0  0.00000000000E+00  0.00000000000E+00 -0.37446802478E+03  0.37446802481E+03  0.50400001928E-02 0.  1.
    10030    2    1    2    0    0  0.00000000000E+00  0.00000000000E+00 -0.12976417408E+03  0.61917187556E+03  0.60542139920E+03 0.  0.
        1    1    3    3  502    0 -0.13097144702E+03 -0.11696472052E+03 -0.31705792018E+03  0.36243618825E+03  0.50400001928E-02 0.  1.
       -1    1    3    3    0  502  0.13097144702E+03  0.11696472052E+03  0.18729374610E+03  0.25673568730E+03  0.50400001928E-02 0. -1.
</event>
<event>
 5   0  0.5999117E-02  0.5970143E+03  0.7818609E-02  0.9911620E-01
        2   -1    0    0  501    0  0.00000000000E+00  0.00000000000E+00  0.51055850379E+03  0.51055850379E+03  0.25500000920E-02 0.  1.
       -2   -1    0    0    0  501  0.00000000000E+00  0.00000000000E+00 -0.17452752871E+03  0.17452752872E+03  0.25500000920E-02 0. -1.
    10030    2    1    2    0    0  0.00000000000E+00  0.00000000000E+00  0.33603097508E+03  0.68508603252E+03  0.59701428437E+03 0.  0.
        5    1    3    3  502    0  0.38805022639E+02 -0.29520363145E+03  0.14412583010E+03  0.33082526914E+03  0.46999998093E+01 0.  1.
       -5    1    3    3    0  502 -0.38805022639E+02  0.29520363145E+03  0.19190514498E+03  0.35426076338E+03  0.46999998093E+01 0. -1.
</event>
<event>
 5   0  0.3478183E-02  0.5930267E+03  0.7818609E-02  0.9919980E-01
        1   -1    0    0  501    0  0.00000000000E+00  0.00000000000E+00  0.38911834174E+03  0.38911834177E+03  0.50400001928E-02 0. -1.
       -1   -1    0    0    0  501  0.00000000000E+00  0.00000000000E+00 -0.22594710834E+03  0.22594710840E+03  0.50400001928E-02 0.  1.
    10030    2    1    2    0    0  0.00000000000E+00  0.00000000000E+00  0.16317123339E+03  0.61506545017E+03  0.59302669129E+03 0.  0.
        4    1    3    3  502    0 -0.18090938797E+03  0.22525967116E+03  0.12410446753E+02  0.28918118575E+03  0.12699999809E+01 0.  1.
       -4    1    3    3    0  502  0.18090938797E+03 -0.22525967116E+03  0.15076078664E+03  0.32588426442E+03  0.12699999809E+01 0. -1.
</event>
<event>
 5   0  0.3703280E-02  0.6050898E+03  0.7818609E-02  0.9894902E-01
       -1   -1    0    0    0  501  0.00000000000E+00  0.00000000000E+00  0.89991991341E+02  0.89991991482E+02  0.50400001928E-02 0. -1.
        1   -1    0    0  501    0  0.00000000000E+00  0.00000000000E+00 -0.10171285558E+04  0.10171285558E+04  0.50400001928E-02 0.  1.
    10030    2    1    2    0    0  0.00000000000E+00  0.00000000000E+00 -0.92713656442E+03  0.11071205473E+04  0.60508982562E+03 0.  0.
        5    1    3    3  502    0 -0.43091264498E+02  0.17427815571E+03 -0.90905527161E+03  0.92662468642E+03  0.46999998093E+01 0.  1.
       -5    1    3    3    0  502  0.43091264498E+02 -0.17427815571E+03 -0.18081292812E+02  0.18049586084E+03  0.46999998093E+01 0. -1.
</event>
<event>
 5   0  0.5755078E-02  0.5814500E+03  0.7818609E-02  0.9944657E-01
       -2   -1    0    0    0  501  0.00000000000E+00  0.00000000000E+00  0.33094727000E+03  0.33094727001E+03  0.25500000920E-02 0.  1.
        2   -1    0    0  501    0  0.00000000000E+00  0.00000000000E+00 -0.25539120731E+03  0.25539120732E+03  0.25500000920E-02 0. -1.
    10030    2    1    2    0    0  0.00000000000E+00  0.00000000000E+00  0.75556062698E+02  0.58633847733E+03  0.58144999045E+03 0.  0.
        2    1    3    3  502    0  0.61961579390E+02 -0.16568592333E+03  0.27043394633E+03  0.32314947291E+03  0.25500000920E-02 0.  1.
       -2    1    3    3    0  502 -0.61961579390E+02  0.16568592333E+03 -0.19487788363E+03  0.26318900442E+03  0.25500000920E-02 0. -1.
</event>
<event>
 5   0  0.3651984E-02  0.5997028E+03  0.7818609E-02  0.9906023E-01
       -1   -1    0    0    0  501  0.00000000000E+00  0.00000000000E+00  0.95696212574E+02  0.95696212706E+02  0.50400001928E-02 0. -1.
        1   -1    0    0  501    0  0.00000000000E+00  0.00000000000E+00 -0.93954460705E+03  0.93954460706E+03  0.50400001928E-02 0.  1.
    10030    2    1    2    0    0  0.00000000000E+00  0.00000000000E+00 -0.84384839448E+03  0.10352408198E+04  0.59970279477E+03 0.  0.
        1    1    3    3  502    0  0.14826693798E+03  0.19372338346E+03 -0.72290247427E+03  0.76295466544E+03  0.50400001928E-02 0.  1.
       -1    1    3    3    0  502 -0.14826693798E+03 -0.19372338346E+03 -0.12094592021E+03  0.27228615433E+03  0.50400001928E-02 0. -1.
</event>
<event>
 5   0  0.3767635E-02  0.5976708E+03  0.7818609E-02  0.9910250E-01
        1   -1    0    0  501    0  0.00000000000E+00  0.00000000000E+00  0.80265990140E+02  0.80265990299E+02  0.50400001928E-02 0. -1.
       -1   -1    0    0    0  501  0.00000000000E+00  0.00000000000E+00 -0.11125834024E+04  0.11125834024E+04  0.50400001928E-02 0.  1.
    10030    2    1    2    0    0  0.00000000000E+00  0.00000000000E+00 -0.10323174122E+04  0.11928493927E+04  0.59767084087E+03 0.  0.
        2    1    3    3  502    0  0.23968395811E+02 -0.22441830046E+02 -0.11089722550E+04  0.11094582381E+04  0.25500000920E-02 0.  1.
       -2    1    3    3    0  502 -0.23968395811E+02  0.22441830046E+02  0.76654842774E+02  0.83391154571E+02  0.25500000920E-02 0. -1.
</event>
<event>
 5   0  0.5999117E-02  0.5994691E+03  0.7818609E-02  0.9906508E-01
        2   -1    0    0  501    0  0.00000000000E+00  0.00000000000E+00  0.23926292657E+03  0.23926292658E+03  0.25500000920E-02 0.  1.
       -2   -1    0    0    0  501  0.00000000000E+00  0.00000000000E+00 -0.37548980157E+03  0.37548980158E+03  0.25500000920E-02 0. -1.
    10030    2    1    2    0    0  0.00000000000E+00  0.00000000000E+00 -0.13622687500E+03  0.61475272816E+03  0.59946906117E+03 0.  0.
        5    1    3    3  502    0 -0.17281732370E+02 -0.23885542479E+03 -0.25289656194E+03  0.34832360423E+03  0.46999998093E+01 0. -1.
       -5    1    3    3    0  502  0.17281732370E+02  0.23885542479E+03  0.11666968694E+03  0.26642912392E+03  0.46999998093E+01 0.  1.
</event>
<event>
 5   0  0.6007360E-02  0.5244880E+03  0.7818609E-02  0.1007578E+00
        2   -1    0    0  501    0  0.00000000000E+00  0.00000000000E+00  0.17038935306E+04  0.17038935306E+04  0.25500000920E-02 0.  1.
       -2   -1    0    0    0  501  0.00000000000E+00  0.00000000000E+00 -0.40361632776E+02  0.40361632856E+02  0.25500000920E-02 0. -1.
    10030    2    1    2    0    0  0.00000000000E+00  0.00000000000E+00  0.16635318978E+04  0.17442551634E+04  0.52448803625E+03 0.  0.
        4    1    3    3  502    0 -0.12796816351E+03  0.92591190754E+02  0.15279390221E+04  0.15360821096E+04  0.12699999809E+01 0.  1.
       -4    1    3    3    0  502  0.12796816351E+03 -0.92591190754E+02  0.13559287572E+03  0.20817305379E+03  0.12699999809E+01 0. -1.
</event>
<event>
 5   0  0.3767635E-02  0.5994603E+03  0.7818609E-02  0.9906526E-01
        1   -1    0    0  501    0  0.00000000000E+00  0.00000000000E+00  0.28939064768E+03  0.28939064772E+03  0.50400001928E-02 0. -1.
       -1   -1    0    0    0  501  0.00000000000E+00  0.00000000000E+00 -0.31043905579E+03  0.31043905583E+03  0.50400001928E-02 0.  1.
    10030    2    1    2    0    0  0.00000000000E+00  0.00000000000E+00 -0.21048408113E+02  0.59982970356E+03  0.59946028875E+03 0.  0.
        2    1    3    3  502    0  0.30875848712E+02 -0.92067158246E+02 -0.29426283919E+03  0.30987142204E+03  0.25500000920E-02 0.  1.
       -2    1    3    3    0  502 -0.30875848712E+02  0.92067158246E+02  0.27321443108E+03  0.28995828151E+03  0.25500000920E-02 0. -1.
</event>
<event>
 5   0  0.3640827E-02  0.6023790E+03  0.7818609E-02  0.9900483E-01
       -1   -1    0    0    0  501  0.00000000000E+00  0.00000000000E+00  0.76011222881E+03  0.76011222883E+03  0.50400001928E-02 0.  1.
        1   -1    0    0  501    0  0.00000000000E+00  0.00000000000E+00 -0.11934437668E+03  0.11934437678E+03  0.50400001928E-02 0. -1.
    10030    2    1    2    0    0  0.00000000000E+00  0.00000000000E+00  0.64076785213E+03  0.87945660561E+03  0.60237901758E+03 0.  0.
        3    1    3    3  502    0 -0.23137019707E+03  0.15764200195E+03  0.15825507658E+03  0.32160200301E+03  0.10100000352E+00 0. -1.
       -3    1    3    3    0  502  0.23137019707E+03 -0.15764200195E+03  0.48251277555E+03  0.55785460260E+03  0.10100000352E+00 0.  1.
</event>
<event>
 5   0  0.3767635E-02  0.6215294E+03  0.7818609E-02  0.9861719E-01
        1   -1    0    0  501    0  0.00000000000E+00  0.00000000000E+00  0.78994783823E+03  0.78994783825E+03  0.50400001928E-02 0. -1.
       -1   -1    0    0    0  501  0.00000000000E+00  0.00000000000E+00 -0.12225451946E+03  0.12225451956E+03  0.50400001928E-02 0.  1.
    10030    2    1    2    0    0  0.00000000000E+00  0.00000000000E+00  0.66769331877E+03  0.91220235781E+03  0.62152938278E+03 0.  0.
        2    1    3    3  502    0 -0.90248779822E+02 -0.27195260179E+03  0.15728829220E+03  0.32686796531E+03  0.25500000920E-02 0.  1.
       -2    1    3    3    0  502  0.90248779822E+02  0.27195260179E+03  0.51040502658E+03  0.58533439250E+03  0.25500000920E-02 0. -1.
</event>
<event>
 5   0  0.5935451E-02  0.6015990E+03  0.7818609E-02  0.9902094E-01
        2   -1    0    0  501    0  0.00000000000E+00  0.00000000000E+00  0.39844036469E+03  0.39844036470E+03  0.25500000920E-02 0.  1.
       -2   -1    0    0    0  501  0.00000000000E+00  0.00000000000E+00 -0.22708626338E+03  0.22708626339E+03  0.25500000920E-02 0. -1.
    10030    2    1    2    0    0  0.00000000000E+00  0.00000000000E+00  0.17135410131E+03  0.62552662809E+03  0.60159898139E+03 0.  0.
        3    1    3    3  502    0 -0.11183008694E+03 -0.24411962683E+03 -0.55287861272E+02  0.27414798623E+03  0.10100000352E+00 0. -1.
       -3    1    3    3    0  502  0.11183008694E+03  0.24411962683E+03  0.22664196259E+03  0.35137864186E+03  0.10100000352E+00 0.  1.
</event>
<event>
 5   0  0.3703280E-02  0.6079156E+03  0.7818609E-02  0.9889118E-01
        1   -1    0    0  501    0  0.00000000000E+00  0.00000000000E+00  0.29637120216E+03  0.29637120220E+03  0.50400001928E-02 0.  1.
       -1   -1    0    0    0  501  0.00000000000E+00  0.00000000000E+00 -0.31173861243E+03  0.31173861247E+03  0.50400001928E-02 0. -1.
    10030    2    1    2    0    0  0.00000000000E+00  0.00000000000E+00 -0.15367410275E+02  0.60810981467E+03  0.60791561043E+03 0.  0.
        5    1    3    3  502    0 -0.10288150152E+02  0.39227891155E+02  0.29361607598E+03  0.29644082639E+03  0.46999998093E+01 0.  1.
       -5    1    3    3    0  502  0.10288150152E+02 -0.39227891155E+02 -0.30898348626E+03  0.31166898828E+03  0.46999998093E+01 0. -1.
</event>
<event>
 5   0  0.3478183E-02  0.5931309E+03  0.7818609E-02  0.9919761E-01
        1   -1    0    0  501    0  0.00000000000E+00  0.00000000000E+00  0.12854207697E+04  0.12854207697E+04  0.50400001928E-02 0.  1.
       -1   -1    0    0    0  501  0.00000000000E+00  0.00000000000E+00 -0.68422014800E+02  0.68422014986E+02  0.50400001928E-02 0. -1.
    10030    2    1    2    0    0  0.00000000000E+00  0.00000000000E+00  0.12169987549E+04  0.13538427847E+04  0.59313094359E+03 0.  0.
        4    1    3    3  502    0 -0.11554592541E+03  0.23126384695E+03  0.94017974109E+03  0.97507609254E+03  0.12699999809E+01 0.  1.
       -4    1    3    3    0  502  0.11554592541E+03 -0.23126384695E+03  0.27681901382E+03  0.37876669216E+03  0.12699999809E+01 0. -1.
</event>
<event>
 5   0  0.3651984E-02  0.5937661E+03  0.7818609E-02  0.9918424E-01
        1   -1    0    0  501    0  0.00000000000E+00  0.00000000000E+00  0.23181813331E+04  0.23181813331E+04  0.50400001928E-02 0.  1.
       -1   -1    0    0    0  501  0.00000000000E+00  0.00000000000E+00 -0.38020992112E+02  0.38020992446E+02  0.50400001928E-02 0. -1.
    10030    2    1    2    0    0  0.00000000000E+00  0.00000000000E+00  0.22801603410E+04  0.23562023256E+04  0.59376613100E+03 0.  0.
        1    1    3    3  502    0 -0.27987242647E+02  0.89890038955E+02  0.22784387668E+02  0.96863993316E+02  0.50400001928E-02 0. -1.
       -1    1    3    3    0  502  0.27987242647E+02 -0.89890038955E+02  0.22573759533E+04  0.22593383322E+04  0.50400001928E-02 0.  1.
</event>
<event>
 5   0  0.5872632E-02  0.6003926E+03  0.7818609E-02  0.9904592E-01
        2   -1    0    0  501    0  0.00000000000E+00  0.00000000000E+00  0.65618070085E+03  0.65618070085E+03  0.25500000920E-02 0. -1.
       -2   -1    0    0    0  501  0.00000000000E+00  0.00000000000E+00 -0.13733687040E+03  0.13733687042E+03  0.25500000920E-02 0.  1.
    10030    2    1    2    0    0  0.00000000000E+00  0.00000000000E+00  0.51884383045E+03  0.79351757127E+03  0.60039255119E+03 0.  0.
        1    1    3    3  502    0  0.13411293384E+01  0.16878510527E+03 -0.68680069146E+02  0.18222832467E+03  0.50400001928E-02 0.  1.
       -1    1    3    3    0  502 -0.13411293384E+01 -0.16878510527E+03  0.58752389960E+03  0.61128924660E+03  0.50400001928E-02 0. -1.
</event>
<event>
 5   0  0.3651984E-02  0.5971164E+03  0.7818609E-02  0.9911407E-01
        1   -1    0    0  501    0  0.00000000000E+00  0.00000000000E+00  0.14583157230E+03  0.14583157239E+03  0.50400001928E-02 0. -1.
       -1   -1    0    0    0  501  0.00000000000E+00  0.00000000000E+00 -0.61123242332E+03  0.61123242334E+03  0.50400001928E-02 0.  1.
    10030    2    1    2    0    0  0.00000000000E+00  0.00000000000E+00 -0.46540085101E+03  0.75706399572E+03  0.59711635507E+03 0.  0.
        1    1    3    3  502    0  0.15328645758E+03 -0.23254695142E+03 -0.36903096812E+03  0.46234043534E+03  0.50400001928E-02 0.  1.
       -1    1    3    3    0  502 -0.15328645758E+03  0.23254695142E+03 -0.96369882897E+02  0.29472356039E+03  0.50400001928E-02 0. -1.
</event>
<event>
 5   0  0.5935451E-02  0.6056953E+03  0.7818609E-02  0.9893660E-01
       -2   -1    0    0    0  501  0.00000000000E+00  0.00000000000E+00  0.92689090013E+02  0.92689090048E+02  0.25500000920E-02 0. -1.
        2   -1    0    0  501    0  0.00000000000E+00  0.00000000000E+00 -0.98950898883E+03  0.98950898883E+03  0.25500000920E-02 0.  1.
    10030    2    1    2    0    0  0.00000000000E+00  0.00000000000E+00 -0.89681989881E+03  0.10821980789E+04  0.60569526250E+03 0.  0.
        3    1    3    3  502    0  0.29862088748E+03 -0.47788785172E+02 -0.41968482210E+03  0.51729446404E+03  0.10100000352E+00 0. -1.
       -3    1    3    3    0  502 -0.29862088748E+03  0.47788785172E+02 -0.47713507672E+03  0.56490361484E+03  0.10100000352E+00 0.  1.
</event>
<event>
 5   0  0.5935451E-02  0.6090198E+03  0.7818609E-02  0.9886868E-01
       -2   -1    0    0    0  501  0.00000000000E+00  0.00000000000E+00  0.98331332439E+02  0.98331332472E+02  0.25500000920E-02 0. -1.
        2   -1    0    0  501    0  0.00000000000E+00  0.00000000000E+00 -0.94299823199E+03  0.94299823200E+03  0.25500000920E-02 0.  1.
    10030    2    1    2    0    0  0.00000000000E+00  0.00000000000E+00 -0.84466689956E+03  0.10413295645E+04  0.60901977852E+03 0.  0.
        3    1    3    3  502    0  0.12160463197E+03  0.18961138321E+02  0.53910019768E+02  0.13436335704E+03  0.10100000352E+00 0. -1.
       -3    1    3    3    0  502 -0.12160463197E+03 -0.18961138321E+02 -0.89857691932E+03  0.90696620743E+03  0.10100000352E+00 0.  1.
</event>
<event>
 5   0  0.6007360E-02  0.6021689E+03  0.7818609E-02  0.9900916E-01
        2   -1    0    0  501    0  0.00000000000E+00  0.00000000000E+00  0.45082900384E+03  0.45082900385E+03  0.25500000920E-02 0. -1.
       -2   -1    0    0    0  501  0.00000000000E+00  0.00000000000E+00 -0.20107813075E+03  0.20107813077E+03  0.25500000920E-02 0.  1.
    10030    2    1    2    0    0  0.00000000000E+00  0.00000000000E+00  0.24975087309E+03  0.65190713461E+03  0.60216892443E+03 0.  0.
        4    1    3    3  502    0  0.71934453389E+02 -0.27475336734E+03  0.23306089090E+03  0.36740028609E+03  0.12699999809E+01 0. -1.
       -4    1    3    3    0  502 -0.71934453389E+02  0.27475336734E+03  0.16689982189E+02  0.28450684852E+03  0.12699999809E+01 0.  1.
</event>
<event>
 5   0  0.3640827E-02  0.6252883E+03  0.7818609E-02  0.9854287E-01
        1   -1    0    0  501    0  0.00000000000E+00  0.00000000000E+00  0.15231578005E+04  0.15231578005E+04  0.50400001928E-02 0.  1.
       -1   -1    0    0    0  501  0.00000000000E+00  0.00000000000E+00 -0.64173488146E+02  0.64173488344E+02  0.50400001928E-02 0. -1.
    10030    2    1    2    0    0  0.00000000000E+00  0.00000000000E+00  0.14589843123E+04  0.15873312888E+04  0.62528825102E+03 0.  0.
        3    1    3    3  502    0 -0.20093241072E+03  0.22583831756E+03  0.52689095616E+03  0.60744618629E+03  0.10100000352E+00 0. -1.
       -3    1    3    3    0  502  0.20093241072E+03 -0.22583831756E+03  0.93209335616E+03  0.97988510253E+03  0.10100000352E+00 0.  1.
</event>
<event>
 5   0  0.6007360E-02  0.5994534E+03  0.7818609E-02  0.9906541E-01
        2   -1    0    0  501    0  0.00000000000E+00  0.00000000000E+00  0.18612901758E+04  0.18612901758E+04  0.25500000920E-02 0.  1.
       -2   -1    0    0    0  501  0.00000000000E+00  0.00000000000E+00 -0.48265499230E+02  0.48265499297E+02  0.25500000920E-02 0. -1.
    10030    2    1    2    0    0  0.00000000000E+00  0.00000000000E+00  0.18130246766E+04  0.19095556751E+04  0.59945341642E+03 0.  0.
        4    1    3    3  502    0  0.19702598575E+03 -0.20903274962E+03  0.11790640764E+04  0.12135516629E+04  0.12699999809E+01 0.  1.
       -4    1    3    3    0  502 -0.19702598575E+03  0.20903274962E+03  0.63396060025E+03  0.69600401223E+03  0.12699999809E+01 0. -1.
</event>
<event>
 5   0  0.3703280E-02  0.6189740E+03  0.7818609E-02  0.9866805E-01
        1   -1    0    0  501    0  0.00000000000E+00  0.00000000000E+00  0.23298954215E+03  0.23298954220E+03  0.50400001928E-02 0. -1.
       -1   -1    0    0    0  501  0.00000000000E+00  0.00000000000E+00 -0.41110086609E+03  0.41110086612E+03  0.50400001928E-02 0.  1.
    10030    2    1    2    0    0  0.00000000000E+00  0.00000000000E+00 -0.17811132395E+03  0.64409040833E+03  0.61897399814E+03 0.  0.
        5    1    3    3  502    0 -0.15267674519E+03  0.21772987213E+03  0.75617581009E+02  0.27650785576E+03  0.46999998093E+01 0. -1.
       -5    1    3    3    0  502  0.15267674519E+03 -0.21772987213E+03 -0.25372890495E+03  0.36758255256E+03  0.46999998093E+01 0.  1.
</event>
<event>
 5   0  0.5872632E-02  0.6289477E+03  0.7818609E-02  0.9847105E-01
       -2   -1    0    0    0  501  0.00000000000E+00  0.00000000000E+00  0.55906967442E+02  0.55906967500E+02  0.25500000920E-02 0. -1.
        2   -1    0    0  501    0  0.00000000000E+00  0.00000000000E+00 -0.17688991788E+04  0.17688991788E+04  0.25500000920E-02 0.  1.
    10030    2    1    2    0    0  0.00000000000E+00  0.00000000000E+00 -0.17129922114E+04  0.18248061463E+04  0.62894765713E+03 0.  0.
        1    1    3    3  502    0  0.55413972274E+02  0.56167800704E+02  0.26721530483E+02  0.83304083789E+02  0.50400001928E-02 0. -1.
       -1    1    3    3    0  502 -0.55413972274E+02 -0.56167800704E+02 -0.17397137419E+04  0.17415020625E+04  0.50400001928E-02 0.  1.
</event>
<event>
 5   0  0.3767635E-02  0.6239688E+03  0.7818609E-02  0.9856889E-01
        1   -1    0    0  501    0  0.00000000000E+00  0.00000000000E+00  0.66193070114E+03  0.66193070116E+03  0.50400001928E-02 0. -1.
       -1   -1    0    0    0  501  0.00000000000E+00  0.00000000000E+00 -0.14704602916E+03  0.14704602925E+03  0.50400001928E-02 0.  1.
    10030    2    1    2    0    0  0.00000000000E+00  0.00000000000E+00  0.51488467198E+03  0.80897673041E+03  0.62396884931E+03 0.  0.
        2    1    3    3  502    0 -0.61001440155E+01  0.30640232672E+03  0.33320379994E+03  0.45270781955E+03  0.25500000920E-02 0. -1.
       -2    1    3    3    0  502  0.61001440155E+01 -0.30640232672E+03  0.18168087204E+03  0.35626891087E+03  0.25500000920E-02 0.  1.
</event>
<event>
 5   0  0.5999117E-02  0.6078886E+03  0.7818609E-02  0.9889174E-01
        2   -1    0    0  501    0  0.00000000000E+00  0.00000000000E+00  0.16814852800E+04  0.16814852800E+04  0.25500000920E-02 0.  1.
       -2   -1    0    0    0  501  0.00000000000E+00  0.00000000000E+00 -0.54940789269E+02  0.54940789328E+02  0.25500000920E-02 0. -1.
    10030    2    1    2    0    0  0.00000000000E+00  0.00000000000E+00  0.16265444908E+04  0.17364260694E+04  0.60788857033E+03 0.  0.
        5    1    3    3  502    0 -0.29625773555E+03 -0.50149357326E+02  0.68310807793E+03  0.74628569600E+03  0.46999998093E+01 0.  1.
       -5    1    3    3    0  502  0.29625773555E+03  0.50149357326E+02  0.94343641285E+03  0.99014037338E+03  0.46999998093E+01 0. -1.
</event>
<event>
 5   0  0.3640827E-02  0.6044841E+03  0.7818609E-02  0.9896146E-01
       -1   -1    0    0    0  501  0.00000000000E+00  0.00000000000E+00  0.25927295801E+03  0.25927295806E+03  0.50400001928E-02 0.  1.
        1   -1    0    0  501    0  0.00000000000E+00  0.00000000000E+00 -0.35233240133E+03  0.35233240137E+03  0.50400001928E-02 0. -1.
    10030    2    1    2    0    0  0.00000000000E+00  0.00000000000E+00 -0.93059443318E+02  0.61160535943E+03  0.60448412361E+03 0.  0.
        3    1    3    3  502    0  0.13399684968E+03 -0.94704423005E+01  0.22740961092E+03  0.26412115845E+03  0.10100000352E+00 0.  1.
       -3    1    3    3    0  502 -0.13399684968E+03  0.94704423005E+01 -0.32046905424E+03  0.34748420098E+03  0.10100000352E+00 0. -1.
</event>
<event>
 5   0  0.3651984E-02  0.5854034E+03  0.7818609E-02  0.9936161E-01
        1   -1    0    0  501    0  0.00000000000E+00  0.00000000000E+00  0.12876488666E+03  0.12876488676E+03  0.50400001928E-02 0.  1.
       -1   -1    0    0    0  501  0.00000000000E+00  0.00000000000E+00 -0.66535430107E+03  0.66535430109E+03  0.50400001928E-02 0. -1.
    10030    2    1    2    0    0  0.00000000000E+00  0.00000000000E+00 -0.53658941441E+03  0.79411918785E+03  0.58540335227E+03 0.  0.
        1    1    3    3  502    0 -0.77346116046E+02  0.80663307134E+02 -0.63527467250E+03  0.64502937943E+03  0.50400001928E-02 0. -1.
       -1    1    3    3    0  502  0.77346116046E+02 -0.80663307134E+02  0.98685258088E+02  0.14908980842E+03  0.50400001928E-02 0.  1.
</event>
<event>
 5   0  0.2388000E-02  0.5889623E+03  0.7818609E-02  0.9928574E-01
       -3   -1    0    0    0  501  0.00000000000E+00  0.00000000000E+00  0.13018177442E+04  0.13018177481E+04  0.10100000352E+00 0.  1.
        3   -1    0    0  501    0  0.00000000000E+00  0.00000000000E+00 -0.66613855591E+02  0.66613932159E+02  0.10100000352E+00 0. -1.
    10030    2    1    2    0    0  0.00000000000E+00  0.00000000000E+00  0.12352038886E+04  0.13684316803E+04  0.58896232236E+03 0.  0.
        3    1    3    3  502    0 -0.14137203707E+01 -0.11077949648E+03  0.12515497695E+04  0.12564437637E+04  0.10100000352E+00 0.  1.
       -3    1    3    3    0  502  0.14137203707E+01  0.11077949648E+03 -0.16345880910E+02  0.11198791662E+03  0.10100000352E+00 0. -1.
</event>
<event>
 5   0  0.3703280E-02  0.5941056E+03  0.7818609E-02  0.9917711E-01
        1   -1    0    0  501    0  0.00000000000E+00  0.00000000000E+00  0.41234314168E+03  0.41234314171E+03  0.50400001928E-02 0.  1.
       -1   -1    0    0    0  501  0.00000000000E+00  0.00000000000E+00 -0.21399742705E+03  0.21399742711E+03  0.50400001928E-02 0. -1.
    10030    2    1    2    0    0  0.00000000000E+00  0.00000000000E+00  0.19834571463E+03  0.62634056882E+03  0.59410561826E+03 0.  0.
        5    1    3    3  502    0  0.82181637235E+02  0.17653376024E+03  0.33561894562E+03  0.38804659083E+03  0.46999998093E+01 0.  1.
       -5    1    3    3    0  502 -0.82181637235E+02 -0.17653376024E+03 -0.13727323099E+03  0.23829397799E+03  0.46999998093E+01 0. -1.
</event>
<event>
 5   0  0.3651984E-02  0.5870850E+03  0.7818609E-02  0.9932569E-01
       -1   -1    0    0    0  501  0.00000000000E+00  0.00000000000E+00  0.13767597468E+03  0.13767597477E+03  0.50400001928E-02 0. -1.
        1   -1    0    0  501    0  0.00000000000E+00  0.00000000000E+00 -0.62586954572E+03  0.62586954574E+03  0.50400001928E-02 0.  1.
    10030    2    1    2    0    0  0.00000000000E+00  0.00000000000E+00 -0.48819357103E+03  0.76354552051E+03  0.58708500159E+03 0.  0.
        1    1    3    3  502    0 -0.16379398403E+03  0.12325321003E+03  0.29169717751E+02  0.20705239783E+03  0.50400001928E-02 0. -1.
       -1    1    3    3    0  502  0.16379398403E+03 -0.12325321003E+03 -0.51736328878E+03  0.55649312268E+03  0.50400001928E-02 0.  1.
</event>
<event>
 5   0  0.3767635E-02  0.5935218E+03  0.7818609E-02  0.9918938E-01
       -1   -1    0    0    0  501  0.00000000000E+00  0.00000000000E+00  0.13474156539E+03  0.13474156548E+03  0.50400001928E-02 0.  1.
        1   -1    0    0  501    0  0.00000000000E+00  0.00000000000E+00 -0.65359954869E+03  0.65359954871E+03  0.50400001928E-02 0. -1.
    10030    2    1    2    0    0  0.00000000000E+00  0.00000000000E+00 -0.51885798330E+03  0.78834111419E+03  0.59352178181E+03 0.  0.
        2    1    3    3  502    0 -0.70922009550E+02 -0.95017710776E+02  0.10191346223E+03  0.15634785125E+03  0.25500000920E-02 0.  1.
       -2    1    3    3    0  502  0.70922009550E+02  0.95017710776E+02 -0.62077144553E+03  0.63199326294E+03  0.25500000920E-02 0. -1.
</event>
<event>
 5   0  0.3640827E-02  0.6010922E+03  0.7818609E-02  0.9903143E-01
       -1   -1    0    0    0  501  0.00000000000E+00  0.00000000000E+00  0.36123893281E+03  0.36123893285E+03  0.50400001928E-02 0.  1.
        1   -1    0    0  501    0  0.00000000000E+00  0.00000000000E+00 -0.25005042847E+03  0.25005042852E+03  0.50400001928E-02 0. -1.
    10030    2    1    2    0    0  0.00000000000E+00  0.00000000000E+00  0.11118850434E+03  0.61128936137E+03  0.60109217249E+03 0.  0.
        3    1    3    3  502    0  0.82145807370E+02  0.15287076875E+02  0.34918945628E+03  0.35904723222E+03  0.10100000352E+00 0.  1.
       -3    1    3    3    0  502 -0.82145807370E+02 -0.15287076875E+02 -0.23800095195E+03  0.25224212915E+03  0.10100000352E+00 0. -1.
</event>
<event>
 5   0  0.5999117E-02  0.5982617E+03  0.7818609E-02  0.9909019E-01
        2   -1    0    0  501    0  0.00000000000E+00  0.00000000000E+00  0.33145542273E+03  0.33145542274E+03  0.25500000920E-02 0. -1.
       -2   -1    0    0    0  501  0.00000000000E+00  0.00000000000E+00 -0.26995868807E+03  0.26995868808E+03  0.25500000920E-02 0.  1.
    10030    2    1    2    0    0  0.00000000000E+00  0.00000000000E+00  0.61496734659E+02  0.60141411082E+03  0.59826171892E+03 0.  0.
        5    1    3    3  502    0  0.16250932367E+02  0.13723768575E+03  0.29739858213E+03  0.32797298950E+03  0.46999998093E+01 0. -1.
       -5    1    3    3    0  502 -0.16250932367E+02 -0.13723768575E+03 -0.23590184747E+03  0.27344112132E+03  0.46999998093E+01 0.  1.
</event>
<event>
 5   0  0.3703280E-02  0.6050766E+03  0.7818609E-02  0.9894929E-01
       -1   -1    0    0    0  501  0.00000000000E+00  0.00000000000E+00  0.94864544594E+03  0.94864544595E+03  0.50400001928E-02 0.  1.
        1   -1    0    0  501    0  0.00000000000E+00  0.00000000000E+00 -0.96484327449E+02  0.96484327581E+02  0.50400001928E-02 0. -1.
    10030    2    1    2    0    0  0.00000000000E+00  0.00000000000E+00  0.85216111849E+03  0.10451297735E+04  0.60507658330E+03 0.  0.
        5    1    3    3  502    0 -0.27119926121E+03  0.21453680913E+02  0.65456384222E+03  0.70886191409E+03  0.46999998093E+01 0.  1.
       -5    1    3    3    0  502  0.27119926121E+03 -0.21453680913E+02  0.19759727627E+03  0.33626785944E+03  0.46999998093E+01 0. -1.
</event>
<event>
 5   0  0.5872632E-02  0.6045507E+03  0.7818609E-02  0.9896010E-01
       -2   -1    0    0    0  501  0.00000000000E+00  0.00000000000E+00  0.22005587346E+03  0.22005587348E+03  0.25500000920E-02 0.  1.
        2   -1    0    0  501    0  0.00000000000E+00  0.00000000000E+00 -0.41521443531E+03  0.41521443531E+03  0.25500000920E-02 0. -1.
    10030    2    1    2    0    0  0.00000000000E+00  0.00000000000E+00 -0.19515856184E+03  0.63527030879E+03  0.60455066039E+03 0.  0.
        1    1    3    3  502    0  0.25320875375E+03  0.52863713351E+02  0.66768602835E+02  0.26714657309E+03  0.50400001928E-02 0.  1.
       -1    1    3    3    0  502 -0.25320875375E+03 -0.52863713351E+02 -0.26192716468E+03  0.36812373570E+03  0.50400001928E-02 0. -1.
</event>
<event>
 5   0  0.3651984E-02  0.5890911E+03  0.7818609E-02  0.9928301E-01
        1   -1    0    0  501    0  0.00000000000E+00  0.00000000000E+00  0.25012224005E+03  0.25012224010E+03  0.50400001928E-02 0. -1.
       -1   -1    0    0    0  501  0.00000000000E+00  0.00000000000E+00 -0.34685872537E+03  0.34685872541E+03  0.50400001928E-02 0.  1.
    10030    2    1    2    0    0  0.00000000000E+00  0.00000000000E+00 -0.96736485322E+02  0.59698096551E+03  0.58909110126E+03 0.  0.
        1    1    3    3  502    0 -0.68413593536E+02  0.18382370353E+03 -0.27105091391E+03  0.33457461308E+03  0.50400001928E-02 0.  1.
       -1    1    3    3    0  502  0.68413593536E+02 -0.18382370353E+03  0.17431442858E+03  0.26240635243E+03  0.50400001928E-02 0. -1.
</event>
<event>
 5   0  0.6007360E-02  0.5969285E+03  0.7818609E-02  0.9911799E-01
       -2   -1    0    0    0  501  0.00000000000E+00  0.00000000000E+00  0.12784234765E+03  0.12784234767E+03  0.25500000920E-02 0.  1.
        2   -1    0    0  501    0  0.00000000000E+00  0.00000000000E+00 -0.69680272594E+03  0.69680272594E+03  0.25500000920E-02 0. -1.
    10030    2    1    2    0    0  0.00000000000E+00  0.00000000000E+00 -0.56896037829E+03  0.82464507361E+03  0.59692845917E+03 0.  0.
        4    1    3    3  502    0  0.68875729134E+02  0.13847980102E+03 -0.63711988353E+03  0.65562480143E+03  0.12699999809E+01 0. -1.
       -4    1    3    3    0  502 -0.68875729134E+02 -0.13847980102E+03  0.68159505246E+02  0.16902027218E+03  0.12699999809E+01 0.  1.
</event>
<event>
 5   0  0.5935451E-02  0.6001830E+03  0.7818609E-02  0.9905026E-01
        2   -1    0    0  501    0  0.00000000000E+00  0.00000000000E+00  0.23541224741E+03  0.23541224742E+03  0.25500000920E-02 0. -1.
       -2   -1    0    0    0  501  0.00000000000E+00  0.00000000000E+00 -0.38254128471E+03  0.38254128472E+03  0.25500000920E-02 0.  1.
    10030    2    1    2    0    0  0.00000000000E+00  0.00000000000E+00 -0.14712903730E+03  0.61795353214E+03  0.60018298398E+03 0.  0.
        3    1    3    3  502    0 -0.17108547104E+03  0.88772506993E+02 -0.31038365522E+03  0.36536121857E+03  0.10100000352E+00 0.  1.
       -3    1    3    3    0  502  0.17108547104E+03 -0.88772506993E+02  0.16325461792E+03  0.25259231357E+03  0.10100000352E+00 0. -1.
</event>
<event>
 5   0  0.3651984E-02  0.6127373E+03  0.7818609E-02  0.9879327E-01
       -1   -1    0    0    0  501  0.00000000000E+00  0.00000000000E+00  0.25725265848E+03  0.25725265853E+03  0.50400001928E-02 0.  1.
        1   -1    0    0  501    0  0.00000000000E+00  0.00000000000E+00 -0.36486215844E+03  0.36486215848E+03  0.50400001928E-02 0. -1.
    10030    2    1    2    0    0  0.00000000000E+00  0.00000000000E+00 -0.10760949996E+03  0.62211481701E+03  0.61273733448E+03 0.  0.
        1    1    3    3  502    0 -0.59955975116E+02  0.94578595763E+02 -0.34333906451E+03  0.36113922935E+03  0.50400001928E-02 0. -1.
       -1    1    3    3    0  502  0.59955975116E+02 -0.94578595763E+02  0.23572956455E+03  0.26097558767E+03  0.50400001928E-02 0.  1.
</event>
<event>
 5   0  0.3703280E-02  0.5994563E+03  0.7818609E-02  0.9906535E-01
        1   -1    0    0  501    0  0.00000000000E+00  0.00000000000E+00  0.25716686865E+03  0.25716686870E+03  0.50400001928E-02 0. -1.
       -1   -1    0    0    0  501  0.00000000000E+00  0.00000000000E+00 -0.34933335258E+03  0.34933335261E+03  0.50400001928E-02 0.  1.
    10030    2    1    2    0    0  0.00000000000E+00  0.00000000000E+00 -0.92166483924E+02  0.60650022131E+03  0.59945630174E+03 0.  0.
        5    1    3    3  502    0  0.26166459036E+03  0.14480532930E+03 -0.26414302403E+02  0.30026113071E+03  0.46999998093E+01 0.  1.
       -5    1    3    3    0  502 -0.26166459036E+03 -0.14480532930E+03 -0.65752181521E+02  0.30623909061E+03  0.46999998093E+01 0. -1.
</event>
<event>
 5   0  0.3703280E-02  0.5936920E+03  0.7818609E-02  0.9918580E-01
        1   -1    0    0  501    0  0.00000000000E+00  0.00000000000E+00  0.53146868720E+03  0.53146868722E+03  0.50400001928E-02 0.  1.
       -1   -1    0    0    0  501  0.00000000000E+00  0.00000000000E+00 -0.16580005578E+03  0.16580005585E+03  0.50400001928E-02 0. -1.
    10030    2    1    2    0    0  0.00000000000E+00  0.00000000000E+00  0.36566863142E+03  0.69726874308E+03  0.59369196732E+03 0.  0.
        5    1    3    3  502    0  0.20320403837E+03 -0.64594408192E+02 -0.59660491261E+02  0.22146282531E+03  0.46999998093E+01 0. -1.
       -5    1    3    3    0  502 -0.20320403837E+03  0.64594408192E+02  0.42532912268E+03  0.47580591776E+03  0.46999998093E+01 0.  1.
</event>
<event>
 5   0  0.3767635E-02  0.5296456E+03  0.7818609E-02  0.1006318E+00
        1   -1    0    0  501    0  0.00000000000E+00  0.00000000000E+00  0.59950650007E+03  0.59950650009E+03  0.50400001928E-02 0. -1.
       -1   -1    0    0    0  501  0.00000000000E+00  0.00000000000E+00 -0.11698142203E+03  0.11698142214E+03  0.50400001928E-02 0.  1.
    10030    2    1    2    0    0  0.00000000000E+00  0.00000000000E+00  0.48252507804E+03  0.71648792223E+03  0.52964562847E+03 0.  0.
        2    1    3    3  502    0  0.10770678550E+03  0.40450854314E+02  0.56393143005E+03  0.57554815703E+03  0.25500000920E-02 0. -1.
       -2    1    3    3    0  502 -0.10770678550E+03 -0.40450854314E+02 -0.81406352013E+02  0.14093976519E+03  0.25500000920E-02 0.  1.
</event>
<event>
 5   0  0.5935451E-02  0.5938783E+03  0.7818609E-02  0.9918189E-01
       -2   -1    0    0    0  501  0.00000000000E+00  0.00000000000E+00  0.17729915660E+03  0.17729915662E+03  0.25500000920E-02 0. -1.
        2   -1    0    0  501    0  0.00000000000E+00  0.00000000000E+00 -0.49731129662E+03  0.49731129662E+03  0.25500000920E-02 0.  1.
    10030    2    1    2    0    0  0.00000000000E+00  0.00000000000E+00 -0.32001214002E+03  0.67461045324E+03  0.59387834938E+03 0.  0.
        3    1    3    3  502    0  0.55769639833E+02 -0.26322019186E+03 -0.17321179350E+02  0.26962039163E+03  0.10100000352E+00 0. -1.
       -3    1    3    3    0  502 -0.55769639833E+02  0.26322019186E+03 -0.30269096067E+03  0.40499006161E+03  0.10100000352E+00 0.  1.
</event>
<event>
 5   0  0.5755078E-02  0.5958334E+03  0.7818609E-02  0.9914088E-01
        2   -1    0    0  501    0  0.00000000000E+00  0.00000000000E+00  0.75661564970E+03  0.75661564970E+03  0.25500000920E-02 0. -1.
       -2   -1    0    0    0  501  0.00000000000E+00  0.00000000000E+00 -0.11730441531E+03  0.11730441534E+03  0.25500000920E-02 0.  1.
    10030    2    1    2    0    0  0.00000000000E+00  0.00000000000E+00  0.63931123439E+03  0.87392006504E+03  0.59583338750E+03 0.  0.
        2    1    3    3  502    0 -0.27257206423E+03  0.87468576470E+02  0.44067613872E+03  0.52549190414E+03  0.25500000920E-02 0. -1.
       -2    1    3    3    0  502  0.27257206423E+03 -0.87468576470E+02  0.19863509566E+03  0.34842816090E+03  0.25500000920E-02 0.  1.
</event>
<event>
 5   0  0.5935451E-02  0.5952584E+03  0.7818609E-02  0.9915292E-01
       -2   -1    0    0    0  501  0.00000000000E+00  0.00000000000E+00  0.21107387414E+03  0.21107387415E+03  0.25500000920E-02 0. -1.
        2   -1    0    0  501    0  0.00000000000E+00  0.00000000000E+00 -0.41967838106E+03  0.41967838106E+03  0.25500000920E-02 0.  1.
    10030    2    1    2    0    0  0.00000000000E+00  0.00000000000E+00 -0.20860450692E+03  0.63075225522E+03  0.59525840368E+03 0.  0.
        3    1    3    3  502    0 -0.13584036483E+03  0.25986412433E+03 -0.15834496407E+03  0.33324931459E+03  0.10100000352E+00 0. -1.
       -3    1    3    3    0  502  0.13584036483E+03 -0.25986412433E+03 -0.50259542849E+02  0.29750294062E+03  0.10100000352E+00 0.  1.
</event>
<event>
 5   0  0.5755078E-02  0.6421335E+03  0.7818609E-02  0.9821653E-01
       -2   -1    0    0    0  501  0.00000000000E+00  0.00000000000E+00  0.84281219677E+02  0.84281219716E+02  0.25500000920E-02 0. -1.
        2   -1    0    0  501    0  0.00000000000E+00  0.00000000000E+00 -0.12230939489E+04  0.12230939489E+04  0.25500000920E-02 0.  1.
    10030    2    1    2    0    0  0.00000000000E+00  0.00000000000E+00 -0.11388127292E+04  0.13073751686E+04  0.64213347466E+03 0.  0.
        2    1    3    3  502    0  0.11508068634E+03  0.25467378498E+03 -0.24760743094E+03  0.37337881701E+03  0.25500000920E-02 0. -1.
       -2    1    3    3    0  502 -0.11508068634E+03 -0.25467378498E+03 -0.89120529828E+03  0.93399635161E+03  0.25500000920E-02 0.  1.
</event>
<event>
 5   0  0.5935451E-02  0.6078335E+03  0.7818609E-02  0.9889286E-01
        2   -1    0    0  501    0  0.00000000000E+00  0.00000000000E+00  0.15509181926E+04  0.15509181926E+04  0.25500000920E-02 0.  1.
       -2   -1    0    0    0  501  0.00000000000E+00  0.00000000000E+00 -0.59555291486E+02  0.59555291541E+02  0.25500000920E-02 0. -1.
    10030    2    1    2    0    0  0.00000000000E+00  0.00000000000E+00  0.14913629011E+04  0.16104734842E+04  0.60783348074E+03 0.  0.
        3    1    3    3  502    0 -0.26716359664E+03 -0.40498771669E+02  0.11142314319E+04  0.11465287750E+04  0.10100000352E+00 0.  1.
       -3    1    3    3    0  502  0.26716359664E+03  0.40498771669E+02  0.37713146927E+03  0.46394470920E+03  0.10100000352E+00 0. -1.
</event>
<event>
 5   0  0.5999117E-02  0.6341248E+03  0.7818609E-02  0.9837032E-01
       -2   -1    0    0    0  501  0.00000000000E+00  0.00000000000E+00  0.40503123080E+02  0.40503123161E+02  0.25500000920E-02 0.  1.
        2   -1    0    0  501    0  0.00000000000E+00  0.00000000000E+00 -0.24819957018E+04  0.24819957018E+04  0.25500000920E-02 0. -1.
    10030    2    1    2    0    0  0.00000000000E+00  0.00000000000E+00 -0.24414925788E+04  0.25224988250E+04  0.63412483787E+03 0.  0.
        5    1    3    3  502    0 -0.17443752949E+03  0.15951953253E+03 -0.20611292057E+04  0.20746446986E+04  0.46999998093E+01 0. -1.
       -5    1    3    3    0  502  0.17443752949E+03 -0.15951953253E+03 -0.38036337308E+03  0.44785412640E+03  0.46999998093E+01 0.  1.
</event>
<event>
 5   0  0.6007360E-02  0.6097028E+03  0.7818609E-02  0.9885478E-01
       -2   -1    0    0    0  501  0.00000000000E+00  0.00000000000E+00  0.19351496957E+03  0.19351496959E+03  0.25500000920E-02 0.  1.
        2   -1    0    0  501    0  0.00000000000E+00  0.00000000000E+00 -0.48024387276E+03  0.48024387277E+03  0.25500000920E-02 0. -1.
    10030    2    1    2    0    0  0.00000000000E+00  0.00000000000E+00 -0.28672890319E+03  0.67375884235E+03  0.60970280771E+03 0.  0.
        4    1    3    3  502    0  0.19988085756E+03  0.22960200368E+03 -0.16129670989E+03  0.34451078188E+03  0.12699999809E+01 0. -1.
       -4    1    3    3    0  502 -0.19988085756E+03 -0.22960200368E+03 -0.12543219329E+03  0.32924806047E+03  0.12699999809E+01 0.  1.
</event>
<event>
 5   0  0.6007360E-02  0.6041386E+03  0.7818609E-02  0.9896857E-01
       -2   -1    0    0    0  501  0.00000000000E+00  0.00000000000E+00  0.29310780899E+03  0.29310780900E+03  0.25500000920E-02 0. -1.
        2   -1    0    0  501    0  0.00000000000E+00  0.00000000000E+00 -0.31130473936E+03  0.31130473937E+03  0.25500000920E-02 0.  1.
    10030    2    1    2    0    0  0.00000000000E+00  0.00000000000E+00 -0.18196930372E+02  0.60441254838E+03  0.60413856056E+03 0.  0.
        4    1    3    3  502    0 -0.19351797798E+03  0.14523943828E+03  0.17181643817E+03  0.29675950458E+03  0.12699999809E+01 0. -1.
       -4    1    3    3    0  502  0.19351797798E+03 -0.14523943828E+03 -0.19001336854E+03  0.30765304380E+03  0.12699999809E+01 0.  1.
</event>
<event>
 5   0  0.3651984E-02  0.5999173E+03  0.7818609E-02  0.9905578E-01
        1   -1    0    0  501    0  0.00000000000E+00  0.00000000000E+00  0.10443676399E+03  0.10443676411E+03  0.50400001928E-02 0.  1.
       -1   -1    0    0    0  501  0.00000000000E+00  0.00000000000E+00 -0.86152793625E+03  0.86152793626E+03  0.50400001928E-02 0. -1.
    10030    2    1    2    0    0  0.00000000000E+00  0.00000000000E+00 -0.75709117226E+03  0.96596470038E+03  0.59991729368E+03 0.  0.
        1    1    3    3  502    0  0.20611278366E+03  0.19771330404E+03 -0.52613844266E+03  0.59866074788E+03  0.50400001928E-02 0. -1.
       -1    1    3    3    0  502 -0.20611278366E+03 -0.19771330404E+03 -0.23095272960E+03  0.36730395250E+03  0.50400001928E-02 0.  1.
</event>
<event>
 5   0  0.5755078E-02  0.6019139E+03  0.7818609E-02  0.9901443E-01
        2   -1    0    0  501    0  0.00000000000E+00  0.00000000000E+00  0.65594714356E+03  0.65594714356E+03  0.25500000920E-02 0. -1.
       -2   -1    0    0    0  501  0.00000000000E+00  0.00000000000E+00 -0.13808289191E+03  0.13808289193E+03  0.25500000920E-02 0.  1.
    10030    2    1    2    0    0  0.00000000000E+00  0.00000000000E+00  0.51786425165E+03  0.79403003550E+03  0.60191387601E+03 0.  0.
        2    1    3    3  502    0 -0.21899104543E+03 -0.15994688185E+03  0.86755739938E+02  0.28472204237E+03  0.25500000920E-02 0.  1.
       -2    1    3    3    0  502  0.21899104543E+03  0.15994688185E+03  0.43110851171E+03  0.50930799313E+03  0.25500000920E-02 0. -1.
</event>
<event>
 5   0  0.3703280E-02  0.5900400E+03  0.7818609E-02  0.9926288E-01
        1   -1    0    0  501    0  0.00000000000E+00  0.00000000000E+00  0.34317258483E+03  0.34317258487E+03  0.50400001928E-02 0.  1.
       -1   -1    0    0    0  501  0.00000000000E+00  0.00000000000E+00 -0.25362395747E+03  0.25362395752E+03  0.50400001928E-02 0. -1.
    10030    2    1    2    0    0  0.00000000000E+00  0.00000000000E+00  0.89548627360E+02  0.59679654239E+03  0.59003996165E+03 0.  0.
        5    1    3    3  502    0 -0.24773699073E+03 -0.43641894953E+02  0.20060497578E+03  0.32178048088E+03  0.46999998093E+01 0.  1.
       -5    1    3    3    0  502  0.24773699073E+03  0.43641894953E+02 -0.11105634842E+03  0.27501606151E+03  0.46999998093E+01 0. -1.
</event>
<event>
 5   0  0.3478183E-02  0.5889191E+03  0.7818609E-02  0.9928666E-01
       -1   -1    0    0    0  501  0.00000000000E+00  0.00000000000E+00  0.36072485807E+03  0.36072485811E+03  0.50400001928E-02 0.  1.
        1   -1    0    0  501    0  0.00000000000E+00  0.00000000000E+00 -0.24036723011E+03  0.24036723017E+03  0.50400001928E-02 0. -1.
    10030    2    1    2    0    0  0.00000000000E+00  0.00000000000E+00  0.12035762796E+03  0.60109208827E+03  0.58891912855E+03 0.  0.
        4    1    3    3  502    0  0.64667959788E+02 -0.28145916175E+03  0.15136593865E+01  0.28879942662E+03  0.12699999809E+01 0. -1.
       -4    1    3    3    0  502 -0.64667959788E+02  0.28145916175E+03  0.11884396857E+03  0.31229266165E+03  0.12699999809E+01 0.  1.
</event>
<event>
 5   0  0.3703280E-02  0.5985631E+03  0.7818609E-02  0.9908392E-01
        1   -1    0    0  501    0  0.00000000000E+00  0.00000000000E+00  0.64022227234E+03  0.64022227236E+03  0.50400001928E-02 0. -1.
       -1   -1    0    0    0  501  0.00000000000E+00  0.00000000000E+00 -0.13990365612E+03  0.13990365622E+03  0.50400001928E-02 0.  1.
    10030    2    1    2    0    0  0.00000000000E+00  0.00000000000E+00  0.50031861622E+03  0.78012592858E+03  0.59856306828E+03 0.  0.
        5    1    3    3  502    0  0.11941714626E+03  0.18703044082E+02  0.60694152674E+03  0.61887831240E+03  0.46999998093E+01 0. -1.
       -5    1    3    3    0  502 -0.11941714626E+03 -0.18703044082E+02 -0.10662291052E+03  0.16124761618E+03  0.46999998093E+01 0.  1.
</event>
<event>
 5   0  0.5872632E-02  0.5965675E+03  0.7818609E-02  0.9912553E-01
        2   -1    0    0  501    0  0.00000000000E+00  0.00000000000E+00  0.65137448121E+03  0.65137448122E+03  0.25500000920E-02 0.  1.
       -2   -1    0    0    0  501  0.00000000000E+00  0.00000000000E+00 -0.13659302435E+03  0.13659302438E+03  0.25500000920E-02 0. -1.
    10030    2    1    2    0    0  0.00000000000E+00  0.00000000000E+00  0.51478145686E+03  0.78796750560E+03  0.59656754986E+03 0.  0.
        1    1    3    3  502    0  0.11599705615E+03 -0.23868030927E+03  0.43728444530E+03  0.51150883980E+03  0.50400001928E-02 0.  1.
       -1    1    3    3    0  502 -0.11599705615E+03  0.23868030927E+03  0.77497011562E+02  0.27645866579E+03  0.50400001928E-02 0. -1.
</event>
<event>
 5   0  0.5935451E-02  0.5862719E+03  0.7818609E-02  0.9934304E-01
        2   -1    0    0  501    0  0.00000000000E+00  0.00000000000E+00  0.67964275694E+03  0.67964275694E+03  0.25500000920E-02 0. -1.
       -2   -1    0    0    0  501  0.00000000000E+00  0.00000000000E+00 -0.12643214027E+03  0.12643214030E+03  0.25500000920E-02 0.  1.
    10030    2    1    2    0    0  0.00000000000E+00  0.00000000000E+00  0.55321061667E+03  0.80607489724E+03  0.58627191095E+03 0.  0.
        3    1    3    3  502    0  0.13510661407E+03 -0.22392451457E+02  0.63295399793E+03  0.64760017969E+03  0.10100000352E+00 0. -1.
       -3    1    3    3    0  502 -0.13510661407E+03  0.22392451457E+02 -0.79743381258E+02  0.15847471755E+03  0.10100000352E+00 0.  1.
</event>
<event>
 5   0  0.5999117E-02  0.6029294E+03  0.7818609E-02  0.9899347E-01
        2   -1    0    0  501    0  0.00000000000E+00  0.00000000000E+00  0.60245471021E+03  0.60245471022E+03  0.25500000920E-02 0. -1.
       -2   -1    0    0    0  501  0.00000000000E+00  0.00000000000E+00 -0.15085111349E+03  0.15085111351E+03  0.25500000920E-02 0.  1.
    10030    2    1    2    0    0  0.00000000000E+00  0.00000000000E+00  0.45160359672E+03  0.75330582373E+03  0.60292939511E+03 0.  0.
        5    1    3    3  502    0 -0.26853629030E+03  0.42335718036E+02  0.38848828483E+03  0.47418275979E+03  0.46999998093E+01 0.  1.
       -5    1    3    3    0  502  0.26853629030E+03 -0.42335718036E+02  0.63115311899E+02  0.27912306395E+03  0.46999998093E+01 0. -1.
</event>
<event>
 5   0  0.3703280E-02  0.6050123E+03  0.7818609E-02  0.9895061E-01
       -1   -1    0    0    0  501  0.00000000000E+00  0.00000000000E+00  0.21454649442E+03  0.21454649448E+03  0.50400001928E-02 0. -1.
        1   -1    0    0  501    0  0.00000000000E+00  0.00000000000E+00 -0.42652747555E+03  0.42652747558E+03  0.50400001928E-02 0.  1.
    10030    2    1    2    0    0  0.00000000000E+00  0.00000000000E+00 -0.21198098113E+03  0.64107397006E+03  0.60501231287E+03 0.  0.
        5    1    3    3  502    0 -0.16767858267E+03  0.21828657840E+03 -0.23885474262E+03  0.36447059616E+03  0.46999998093E+01 0.  1.
       -5    1    3    3    0  502  0.16767858267E+03 -0.21828657840E+03  0.26873761491E+02  0.27660337390E+03  0.46999998093E+01 0. -1.
</event>
<event>
 5   0  0.5935451E-02  0.5920651E+03  0.7818609E-02  0.9922007E-01
        2   -1    0    0  501    0  0.00000000000E+00  0.00000000000E+00  0.54685587208E+03  0.54685587209E+03  0.25500000920E-02 0. -1.
       -2   -1    0    0    0  501  0.00000000000E+00  0.00000000000E+00 -0.16025297225E+03  0.16025297227E+03  0.25500000920E-02 0.  1.
    10030    2    1    2    0    0  0.00000000000E+00  0.00000000000E+00  0.38660289983E+03  0.70710884436E+03  0.59206512785E+03 0.  0.
        3    1    3    3  502    0 -0.38841224949E+02 -0.29213586887E+03  0.15987653317E+03  0.33527976780E+03  0.10100000352E+00 0. -1.
       -3    1    3    3    0  502  0.38841224949E+02  0.29213586887E+03  0.22672636666E+03  0.37182907656E+03  0.10100000352E+00 0.  1.
</event>
<event>
 5   0  0.6007360E-02  0.5923403E+03  0.7818609E-02  0.9921426E-01
       -2   -1    0    0    0  501  0.00000000000E+00  0.00000000000E+00  0.12887726382E+03  0.12887726384E+03  0.25500000920E-02 0. -1.
        2   -1    0    0  501    0  0.00000000000E+00  0.00000000000E+00 -0.68062235079E+03  0.68062235080E+03  0.25500000920E-02 0.  1.
    10030    2    1    2    0    0  0.00000000000E+00  0.00000000000E+00 -0.55174508697E+03  0.80949961464E+03  0.59234026125E+03 0.  0.
        4    1    3    3  502    0 -0.10098102256E+03  0.54195586149E+02 -0.64908740302E+03  0.65912851413E+03  0.12699999809E+01 0.  1.
       -4    1    3    3    0  502  0.10098102256E+03 -0.54195586149E+02  0.97342316044E+02  0.15037110051E+03  0.12699999809E+01 0. -1.
</event>
<event>
 5   0  0.5999117E-02  0.6065279E+03  0.7818609E-02  0.9891954E-01
       -2   -1    0    0    0  501  0.00000000000E+00  0.00000000000E+00  0.21044321787E+03  0.21044321789E+03  0.25500000920E-02 0. -1.
        2   -1    0    0  501    0  0.00000000000E+00  0.00000000000E+00 -0.43702542543E+03  0.43702542543E+03  0.25500000920E-02 0.  1.
    10030    2    1    2    0    0  0.00000000000E+00  0.00000000000E+00 -0.22658220756E+03  0.64746864332E+03  0.60652794437E+03 0.  0.
        5    1    3    3  502    0 -0.26802026374E+03 -0.14020041271E+03 -0.90497306021E+02  0.31575761257E+03  0.46999998093E+01 0. -1.
       -5    1    3    3    0  502  0.26802026374E+03  0.14020041271E+03 -0.13608490153E+03  0.33171103075E+03  0.46999998093E+01 0.  1.
</event>
<event>
 5   0  0.3703280E-02  0.6004246E+03  0.7818609E-02  0.9904525E-01
       -1   -1    0    0    0  501  0.00000000000E+00  0.00000000000E+00  0.16079478612E+04  0.16079478612E+04  0.50400001928E-02 0. -1.
        1   -1    0    0  501    0  0.00000000000E+00  0.00000000000E+00 -0.56051218278E+02  0.56051218505E+02  0.50400001928E-02 0.  1.
    10030    2    1    2    0    0  0.00000000000E+00  0.00000000000E+00  0.15518966429E+04  0.16639990797E+04  0.60042463888E+03 0.  0.
        5    1    3    3  502    0 -0.23886946078E+03 -0.43523498591E+02  0.28680001054E+03  0.37580480341E+03  0.46999998093E+01 0.  1.
       -5    1    3    3    0  502  0.23886946078E+03  0.43523498591E+02  0.12650966324E+04  0.12881942763E+04  0.46999998093E+01 0. -1.
</event>
<event>
 5   0  0.5935451E-02  0.5993875E+03  0.7818609E-02  0.9906678E-01
        2   -1    0    0  501    0  0.00000000000E+00  0.00000000000E+00  0.90416130631E+03  0.90416130631E+03  0.25500000920E-02 0.  1.
       -2   -1    0    0    0  501  0.00000000000E+00  0.00000000000E+00 -0.99336652472E+02  0.99336652505E+02  0.25500000920E-02 0. -1.
    10030    2    1    2    0    0  0.00000000000E+00  0.00000000000E+00  0.80482465383E+03  0.10034979588E+04  0.59938754569E+03 0.  0.
        3    1    3    3  502    0 -0.69180001862E+02  0.25991302623E+03  0.62373504096E+03  0.67925405069E+03  0.10100000352E+00 0.  1.
       -3    1    3    3    0  502  0.69180001862E+02 -0.25991302623E+03  0.18108961288E+03  0.32424390812E+03  0.10100000352E+00 0. -1.
</event>
<event>
 5   0  0.5872632E-02  0.5999192E+03  0.7818609E-02  0.9905574E-01
       -2   -1    0    0    0  501  0.00000000000E+00  0.00000000000E+00  0.70709471050E+02  0.70709471096E+02  0.25500000920E-02 0.  1.
        2   -1    0    0  501    0  0.00000000000E+00  0.00000000000E+00 -0.12724711344E+04  0.12724711344E+04  0.25500000920E-02 0. -1.
    10030    2    1    2    0    0  0.00000000000E+00  0.00000000000E+00 -0.12017616633E+04  0.13431806055E+04  0.59991919745E+03 0.  0.
        1    1    3    3  502    0  0.17792966488E+03  0.19428211714E+03 -0.92200429391E+03  0.95890376196E+03  0.50400001928E-02 0. -1.
       -1    1    3    3    0  502 -0.17792966488E+03 -0.19428211714E+03 -0.27975736939E+03  0.38427684349E+03  0.50400001928E-02 0.  1.
</event>
<event>
 5   0  0.6007360E-02  0.6159296E+03  0.7818609E-02  0.9872897E-01
        2   -1    0    0  501    0  0.00000000000E+00  0.00000000000E+00  0.81856362011E+03  0.81856362012E+03  0.25500000920E-02 0.  1.
       -2   -1    0    0    0  501  0.00000000000E+00  0.00000000000E+00 -0.11586432619E+03  0.11586432622E+03  0.25500000920E-02 0. -1.
    10030    2    1    2    0    0  0.00000000000E+00  0.00000000000E+00  0.70269929392E+03  0.93442794634E+03  0.61592961386E+03 0.  0.
        4    1    3    3  502    0 -0.23762201291E+03  0.12724851016E+03  0.57731281103E+03  0.63714056459E+03  0.12699999809E+01 0.  1.
       -4    1    3    3    0  502  0.23762201291E+03 -0.12724851016E+03  0.12538648288E+03  0.29728738175E+03  0.12699999809E+01 0. -1.
</event>
<event>
 5   0  0.5872632E-02  0.6102468E+03  0.7818609E-02  0.9884372E-01
        2   -1    0    0  501    0  0.00000000000E+00  0.00000000000E+00  0.87966608500E+03  0.87966608501E+03  0.25500000920E-02 0. -1.
       -2   -1    0    0    0  501  0.00000000000E+00  0.00000000000E+00 -0.10583594163E+03  0.10583594166E+03  0.25500000920E-02 0.  1.
    10030    2    1    2    0    0  0.00000000000E+00  0.00000000000E+00  0.77383014337E+03  0.98550202667E+03  0.61024679744E+03 0.  0.
        1    1    3    3  502    0 -0.66030856889E+02  0.36275014904E+02  0.86440936784E+03  0.86768629470E+03  0.50400001928E-02 0. -1.
       -1    1    3    3    0  502  0.66030856889E+02 -0.36275014904E+02 -0.90579224474E+02  0.11781573197E+03  0.50400001928E-02 0.  1.
</event>
<event>
 5   0  0.5935451E-02  0.5941996E+03  0.7818609E-02  0.9917514E-01
        2   -1    0    0  501    0  0.00000000000E+00  0.00000000000E+00  0.83881718028E+03  0.83881718028E+03  0.25500000920E-02 0.  1.
       -2   -1    0    0    0  501  0.00000000000E+00  0.00000000000E+00 -0.10522946509E+03  0.10522946512E+03  0.25500000920E-02 0. -1.
    10030    2    1    2    0    0  0.00000000000E+00  0.00000000000E+00  0.73358771519E+03  0.94404664540E+03  0.59419957323E+03 0.  0.
        3    1    3    3  502    0  0.15926580872E+03  0.98613399426E+02  0.41752234191E+00  0.18732427739E+03  0.10100000352E+00 0. -1.
       -3    1    3    3    0  502 -0.15926580872E+03 -0.98613399426E+02  0.73317019285E+03  0.75672236802E+03  0.10100000352E+00 0.  1.
</event>
<event>
 5   0  0.5755078E-02  0.6046337E+03  0.7818609E-02  0.9895839E-01
       -2   -1    0    0    0  501  0.00000000000E+00  0.00000000000E+00  0.90072077258E+02  0.90072077294E+02  0.25500000920E-02 0.  1.
        2   -1    0    0  501    0  0.00000000000E+00  0.00000000000E+00 -0.10146927017E+04  0.10146927017E+04  0.25500000920E-02 0. -1.
    10030    2    1    2    0    0  0.00000000000E+00  0.00000000000E+00 -0.92462062446E+03  0.11047647790E+04  0.60463370546E+03 0.  0.
        2    1    3    3  502    0  0.19947033193E+03 -0.44279729265E+02 -0.55191450226E+02  0.21164877493E+03  0.25500000920E-02 0.  1.
       -2    1    3    3    0  502 -0.19947033193E+03  0.44279729265E+02 -0.86942917423E+03  0.89311600409E+03  0.25500000920E-02 0. -1.
</event>
<event>
 5   0  0.5872632E-02  0.5935196E+03  0.7818609E-02  0.9918943E-01
       -2   -1    0    0    0  501  0.00000000000E+00  0.00000000000E+00  0.11485895852E+04  0.11485895852E+04  0.25500000920E-02 0. -1.
        2   -1    0    0  501    0  0.00000000000E+00  0.00000000000E+00 -0.76673487867E+02  0.76673487910E+02  0.25500000920E-02 0.  1.
    10030    2    1    2    0    0  0.00000000000E+00  0.00000000000E+00  0.10719160973E+04  0.12252630731E+04  0.59351956884E+03 0.  0.
        1    1    3    3  502    0  0.69943584835E+02 -0.26376131989E+03  0.77674408424E+03  0.82328215780E+03  0.50400001928E-02 0. -1.
       -1    1    3    3    0  502 -0.69943584835E+02  0.26376131989E+03  0.29517201306E+03  0.40198091528E+03  0.50400001928E-02 0.  1.
</event>
<event>
 5   0  0.5755078E-02  0.5973876E+03  0.7818609E-02  0.9910841E-01
        2   -1    0    0  501    0  0.00000000000E+00  0.00000000000E+00  0.34351126607E+03  0.34351126608E+03  0.25500000920E-02 0. -1.
       -2   -1    0    0    0  501  0.00000000000E+00  0.00000000000E+00 -0.25972364037E+03  0.25972364039E+03  0.25500000920E-02 0.  1.
    10030    2    1    2    0    0  0.00000000000E+00  0.00000000000E+00  0.83787625698E+02  0.60323490647E+03  0.59738763476E+03 0.  0.
        2    1    3    3  502    0 -0.46792680025E+02  0.27137701118E+03 -0.74923259025E+02  0.28539189170E+03  0.25500000920E-02 0. -1.
       -2    1    3    3    0  502  0.46792680025E+02 -0.27137701118E+03  0.15871088472E+03  0.31784301477E+03  0.25500000920E-02 0.  1.
</event>
<event>
 5   0  0.3478183E-02  0.6055841E+03  0.7818609E-02  0.9893888E-01
        1   -1    0    0  501    0  0.00000000000E+00  0.00000000000E+00  0.10095170876E+04  0.10095170876E+04  0.50400001928E-02 0. -1.
       -1   -1    0    0    0  501  0.00000000000E+00  0.00000000000E+00 -0.90818706275E+02  0.90818706415E+02  0.50400001928E-02 0.  1.
    10030    2    1    2    0    0  0.00000000000E+00  0.00000000000E+00  0.91869838134E+03  0.11003357940E+04  0.60558413435E+03 0.  0.
        4    1    3    3  502    0  0.21426583093E+03  0.21270349236E+03  0.41756645048E+03  0.51528242298E+03  0.12699999809E+01 0. -1.
       -4    1    3    3    0  502 -0.21426583093E+03 -0.21270349236E+03  0.50113193086E+03  0.58505337106E+03  0.12699999809E+01 0.  1.
</event>
<event>
 5   0  0.3767635E-02  0.5993699E+03  0.7818609E-02  0.9906714E-01
       -1   -1    0    0    0  501  0.00000000000E+00  0.00000000000E+00  0.63227425117E+03  0.63227425119E+03  0.50400001928E-02 0.  1.
        1   -1    0    0  501    0  0.00000000000E+00  0.00000000000E+00 -0.14204447023E+03  0.14204447032E+03  0.50400001928E-02 0. -1.
    10030    2    1    2    0    0  0.00000000000E+00  0.00000000000E+00  0.49022978094E+03  0.77431872151E+03  0.59936987275E+03 0.  0.
        2    1    3    3  502    0 -0.90951860166E+02  0.14754074711E+03 -0.70726083160E+02  0.18719693312E+03  0.25500000920E-02 0. -1.
       -2    1    3    3    0  502  0.90951860166E+02 -0.14754074711E+03  0.56095586410E+03  0.58712178839E+03  0.25500000920E-02 0.  1.
</event>
<event>
 5   0  0.3478183E-02  0.6038317E+03  0.7818609E-02  0.9897488E-01
        1   -1    0    0  501    0  0.00000000000E+00  0.00000000000E+00  0.40626167930E+03  0.40626167934E+03  0.50400001928E-02 0.  1.
       -1   -1    0    0    0  501  0.00000000000E+00  0.00000000000E+00 -0.22437062562E+03  0.22437062568E+03  0.50400001928E-02 0. -1.
    10030    2    1    2    0    0  0.00000000000E+00  0.00000000000E+00  0.18189105368E+03  0.63063230501E+03  0.60383172219E+03 0.  0.
        4    1    3    3  502    0 -0.72447958610E+02 -0.13082885143E+03 -0.18296735760E+03  0.23631242439E+03  0.12699999809E+01 0. -1.
       -4    1    3    3    0  502  0.72447958610E+02  0.13082885143E+03  0.36485841128E+03  0.39431988063E+03  0.12699999809E+01 0.  1.
</event>
<event>
 5   0  0.2388000E-02  0.6003427E+03  0.7818609E-02  0.9904695E-01
        3   -1    0    0  501    0  0.00000000000E+00  0.00000000000E+00  0.15743972051E+04  0.15743972084E+04  0.10100000352E+00 0.  1.
       -3   -1    0    0    0  501  0.00000000000E+00  0.00000000000E+00 -0.57229998990E+02  0.57230088113E+02  0.10100000352E+00 0. -1.
    10030    2    1    2    0    0  0.00000000000E+00  0.00000000000E+00  0.15171672062E+04  0.16316272965E+04  0.60034265486E+03 0.  0.
        5    1    3    3  502    0  0.44099202581E+02  0.23634902506E+03  0.27031838149E+03  0.36180066153E+03  0.46999998093E+01 0. -1.
       -5    1    3    3    0  502 -0.44099202581E+02 -0.23634902506E+03  0.12468488247E+04  0.12698266350E+04  0.46999998093E+01 0.  1.
</event>
<event>
 5   0  0.3703280E-02  0.5946608E+03  0.7818609E-02  0.9916545E-01
        1   -1    0    0  501    0  0.00000000000E+00  0.00000000000E+00  0.40613299564E+03  0.40613299567E+03  0.50400001928E-02 0.  1.
       -1   -1    0    0    0  501  0.00000000000E+00  0.00000000000E+00 -0.21767591905E+03  0.21767591911E+03  0.50400001928E-02 0. -1.
    10030    2    1    2    0    0  0.00000000000E+00  0.00000000000E+00  0.18845707659E+03  0.62380891477E+03  0.59466082134E+03 0.  0.
        5    1    3    3  502    0  0.13271377825E+02 -0.23864114936E+03 -0.91235518783E+02  0.25587445656E+03  0.46999998093E+01 0. -1.
       -5    1    3    3    0  502 -0.13271377825E+02  0.23864114936E+03  0.27969259537E+03  0.36793445821E+03  0.46999998093E+01 0.  1.
</event>
<event>
 5   0  0.5935451E-02  0.5941063E+03  0.7818609E-02  0.9917710E-01
        2   -1    0    0  501    0  0.00000000000E+00  0.00000000000E+00  0.61016937077E+03  0.61016937077E+03  0.25500000920E-02 0. -1.
       -2   -1    0    0    0  501  0.00000000000E+00  0.00000000000E+00 -0.14461651499E+03  0.14461651501E+03  0.25500000920E-02 0.  1.
    10030    2    1    2    0    0  0.00000000000E+00  0.00000000000E+00  0.46555285578E+03  0.75478588579E+03  0.59410627994E+03 0.  0.
        3    1    3    3  502    0  0.14563209941E+03  0.21713405138E+03  0.41192718050E+03  0.48789334581E+03  0.10100000352E+00 0. -1.
       -3    1    3    3    0  502 -0.14563209941E+03 -0.21713405138E+03  0.53625675281E+02  0.26689253998E+03  0.10100000352E+00 0.  1.
</event>
<event>
 5   0  0.2388000E-02  0.6004962E+03  0.7818609E-02  0.9904377E-01
       -3   -1    0    0    0  501  0.00000000000E+00  0.00000000000E+00  0.16463956530E+03  0.16463959628E+03  0.10100000352E+00 0.  1.
        3   -1    0    0  501    0  0.00000000000E+00  0.00000000000E+00 -0.54755311746E+03  0.54755312677E+03  0.10100000352E+00 0. -1.
    10030    2    1    2    0    0  0.00000000000E+00  0.00000000000E+00 -0.38291355216E+03  0.71219272305E+03  0.60049620010E+03 0.  0.
        2    1    3    3  502    0  0.17684825561E+03 -0.23937115361E+03 -0.14438758131E+03  0.33078940179E+03  0.25500000920E-02 0. -1.
       -2    1    3    3    0  502 -0.17684825561E+03  0.23937115361E+03 -0.23852597085E+03  0.38140332126E+03  0.25500000920E-02 0.  1.
</event>
<event>
 5   0  0.5935451E-02  0.5880209E+03  0.7818609E-02  0.9930575E-01
       -2   -1    0    0    0  501  0.00000000000E+00  0.00000000000E+00  0.12095405298E+03  0.12095405301E+03  0.25500000920E-02 0.  1.
        2   -1    0    0  501    0  0.00000000000E+00  0.00000000000E+00 -0.71466915855E+03  0.71466915855E+03  0.25500000920E-02 0. -1.
    10030    2    1    2    0    0  0.00000000000E+00  0.00000000000E+00 -0.59371510557E+03  0.83562321156E+03  0.58802085432E+03 0.  0.
        3    1    3    3  502    0  0.46584353056E+01 -0.25023551353E+03 -0.77612381561E+02  0.26203664862E+03  0.10100000352E+00 0.  1.
       -3    1    3    3    0  502 -0.46584353056E+01  0.25023551353E+03 -0.51610272401E+03  0.57358656293E+03  0.10100000352E+00 0. -1.
</event>
<event>
 5   0  0.3640827E-02  0.5991570E+03  0.7818609E-02  0.9907157E-01
        1   -1    0    0  501    0  0.00000000000E+00  0.00000000000E+00  0.85412369477E+03  0.85412369478E+03  0.50400001928E-02 0. -1.
       -1   -1    0    0    0  501  0.00000000000E+00  0.00000000000E+00 -0.10507526888E+03  0.10507526900E+03  0.50400001928E-02 0.  1.
    10030    2    1    2    0    0  0.00000000000E+00  0.00000000000E+00  0.74904842589E+03  0.95919896378E+03  0.59915699761E+03 0.  0.
        3    1    3    3  502    0 -0.20743568239E+03  0.20334688202E+03  0.49181508219E+03  0.57119313899E+03  0.10100000352E+00 0. -1.
       -3    1    3    3    0  502  0.20743568239E+03 -0.20334688202E+03  0.25723334370E+03  0.38800582479E+03  0.10100000352E+00 0.  1.
</event>
<event>
 5   0  0.3767635E-02  0.5755193E+03  0.7818609E-02  0.9957539E-01
       -1   -1    0    0    0  501  0.00000000000E+00  0.00000000000E+00  0.62525944407E+02  0.62525944610E+02  0.50400001928E-02 0. -1.
        1   -1    0    0  501    0  0.00000000000E+00  0.00000000000E+00 -0.13243398911E+04  0.13243398911E+04  0.50400001928E-02 0.  1.
    10030    2    1    2    0    0  0.00000000000E+00  0.00000000000E+00 -0.12618139467E+04  0.13868658357E+04  0.57551925268E+03 0.  0.
        2    1    3    3  502    0 -0.50701123284E+02 -0.26637552369E+03 -0.86303470627E+03  0.90462999494E+03  0.25500000920E-02 0. -1.
       -2    1    3    3    0  502  0.50701123284E+02  0.26637552369E+03 -0.39877924039E+03  0.48223584074E+03  0.25500000920E-02 0.  1.
</event>
<event>
 5   0  0.3703280E-02  0.5974046E+03  0.7818609E-02  0.9910805E-01
        1   -1    0    0  501    0  0.00000000000E+00  0.00000000000E+00  0.83123815753E+03  0.83123815755E+03  0.50400001928E-02 0. -1.
       -1   -1    0    0    0  501  0.00000000000E+00  0.00000000000E+00 -0.10733755313E+03  0.10733755325E+03  0.50400001928E-02 0.  1.
    10030    2    1    2    0    0  0.00000000000E+00  0.00000000000E+00  0.72390060440E+03  0.93857571080E+03  0.59740461987E+03 0.  0.
        5    1    3    3  502    0 -0.11159839772E+03  0.23289457539E+03  0.12625087870E+03  0.28749862607E+03  0.46999998093E+01 0.  1.
       -5    1    3    3    0  502  0.11159839772E+03 -0.23289457539E+03  0.59764972571E+03  0.65107708473E+03  0.46999998093E+01 0. -1.
</event>
<event>
 5   0  0.6007360E-02  0.6147862E+03  0.7818609E-02  0.9875195E-01
        2   -1    0    0  501    0  0.00000000000E+00  0.00000000000E+00  0.94273889377E+03  0.94273889378E+03  0.25500000920E-02 0. -1.
       -2   -1    0    0    0  501  0.00000000000E+00  0.00000000000E+00 -0.10022979109E+03  0.10022979112E+03  0.25500000920E-02 0.  1.
    10030    2    1    2    0    0  0.00000000000E+00  0.00000000000E+00  0.84250910269E+03  0.10429686849E+04  0.61478621451E+03 0.  0.
        4    1    3    3  502    0 -0.68449589999E+02  0.22627517031E+03  0.87936911654E+02  0.25223067300E+03  0.12699999809E+01 0.  1.
       -4    1    3    3    0  502  0.68449589999E+02 -0.22627517031E+03  0.75457219103E+03  0.79073801189E+03  0.12699999809E+01 0. -1.
</event>
<event>
 5   0  0.6007360E-02  0.6069027E+03  0.7818609E-02  0.9891188E-01
       -2   -1    0    0    0  501  0.00000000000E+00  0.00000000000E+00  0.14260008483E+03  0.14260008485E+03  0.25500000920E-02 0.  1.
        2   -1    0    0  501    0  0.00000000000E+00  0.00000000000E+00 -0.64574091550E+03  0.64574091550E+03  0.25500000920E-02 0. -1.
    10030    2    1    2    0    0  0.00000000000E+00  0.00000000000E+00 -0.50314083067E+03  0.78834100035E+03  0.60690265888E+03 0.  0.
        4    1    3    3  502    0  0.14679191046E+02 -0.48009801958E+02 -0.64030551627E+03  0.64227189476E+03  0.12699999809E+01 0. -1.
       -4    1    3    3    0  502 -0.14679191046E+02  0.48009801958E+02  0.13716468560E+03  0.14606910559E+03  0.12699999809E+01 0.  1.
</event>
<event>
 5   0  0.5935451E-02  0.6108477E+03  0.7818609E-02  0.9883153E-01
       -2   -1    0    0    0  501  0.00000000000E+00  0.00000000000E+00  0.13947866603E+03  0.13947866605E+03  0.25500000920E-02 0. -1.
        2   -1    0    0  501    0  0.00000000000E+00  0.00000000000E+00 -0.66880284849E+03  0.66880284850E+03  0.25500000920E-02 0.  1.
    10030    2    1    2    0    0  0.00000000000E+00  0.00000000000E+00 -0.52932418246E+03  0.80828151455E+03  0.61084770330E+03 0.  0.
        3    1    3    3  502    0  0.23256683053E+03  0.74784151071E+02 -0.50722443129E+03  0.56298901748E+03  0.10100000352E+00 0.  1.
       -3    1    3    3    0  502 -0.23256683053E+03 -0.74784151071E+02 -0.22099751179E+02  0.24529249707E+03  0.10100000352E+00 0. -1.
</event>
<event>
 5   0  0.3478183E-02  0.5997108E+03  0.7818609E-02  0.9906006E-01
       -1   -1    0    0    0  501  0.00000000000E+00  0.00000000000E+00  0.91489393177E+02  0.91489393316E+02  0.50400001928E-02 0. -1.
        1   -1    0    0  501    0  0.00000000000E+00  0.00000000000E+00 -0.98277248768E+03  0.98277248770E+03  0.50400001928E-02 0.  1.
    10030    2    1    2    0    0  0.00000000000E+00  0.00000000000E+00 -0.89128309451E+03  0.10742618810E+04  0.59971079234E+03 0.  0.
        4    1    3    3  502    0 -0.19123342563E+03 -0.15231743085E+03 -0.13465195592E+03  0.27911213688E+03  0.12699999809E+01 0. -1.
       -4    1    3    3    0  502  0.19123342563E+03  0.15231743085E+03 -0.75663113859E+03  0.79514974413E+03  0.12699999809E+01 0.  1.
</event>
<event>
 5   0  0.6007360E-02  0.6013802E+03  0.7818609E-02  0.9902547E-01
        2   -1    0    0  501    0  0.00000000000E+00  0.00000000000E+00  0.19585848450E+03  0.19585848452E+03  0.25500000920E-02 0. -1.
       -2   -1    0    0    0  501  0.00000000000E+00  0.00000000000E+00 -0.46163191961E+03  0.46163191962E+03  0.25500000920E-02 0.  1.
    10030    2    1    2    0    0  0.00000000000E+00  0.00000000000E+00 -0.26577343511E+03  0.65749040414E+03  0.60138017320E+03 0.  0.
        4    1    3    3  502    0 -0.26693349651E+03 -0.13682952509E+03 -0.15574444726E+03  0.33798484618E+03  0.12699999809E+01 0.  1.
       -4    1    3    3    0  502  0.26693349651E+03  0.13682952509E+03 -0.11002898785E+03  0.31950555796E+03  0.12699999809E+01 0. -1.
</event>
<event>
 5   0  0.3478183E-02  0.5831803E+03  0.7818609E-02  0.9940929E-01
        1   -1    0    0  501    0  0.00000000000E+00  0.00000000000E+00  0.50214465848E+03  0.50214465851E+03  0.50400001928E-02 0.  1.
       -1   -1    0    0    0  501  0.00000000000E+00  0.00000000000E+00 -0.16932333864E+03  0.16932333871E+03  0.50400001928E-02 0. -1.
    10030    2    1    2    0    0  0.00000000000E+00  0.00000000000E+00  0.33282131985E+03  0.67146799722E+03  0.58318028117E+03 0.  0.
        4    1    3    3  502    0 -0.28093491534E+03  0.75700967700E+02  0.14431914686E+03  0.32478407015E+03  0.12699999809E+01 0.  1.
       -4    1    3    3    0  502  0.28093491534E+03 -0.75700967700E+02  0.18850217298E+03  0.34668392707E+03  0.12699999809E+01 0. -1.
</event>
<event>
 5   0  0.5872632E-02  0.6019458E+03  0.7818609E-02  0.9901377E-01
        2   -1    0    0  501    0  0.00000000000E+00  0.00000000000E+00  0.95585699302E+03  0.95585699302E+03  0.25500000920E-02 0.  1.
       -2   -1    0    0    0  501  0.00000000000E+00  0.00000000000E+00 -0.94768038328E+02  0.94768038363E+02  0.25500000920E-02 0. -1.
    10030    2    1    2    0    0  0.00000000000E+00  0.00000000000E+00  0.86108895469E+03  0.10506250314E+04  0.60194581873E+03 0.  0.
        1    1    3    3  502    0 -0.73469280416E+02  0.16572479488E+03  0.11208654289E+02  0.18162620064E+03  0.50400001928E-02 0. -1.
       -1    1    3    3    0  502  0.73469280416E+02 -0.16572479488E+03  0.84988030040E+03  0.86899883075E+03  0.50400001928E-02 0.  1.
</event>
<event>
 5   0  0.5999117E-02  0.5885125E+03  0.7818609E-02  0.9929530E-01
       -2   -1    0    0    0  501  0.00000000000E+00  0.00000000000E+00  0.18230034624E+03  0.18230034626E+03  0.25500000920E-02 0. -1.
        2   -1    0    0  501    0  0.00000000000E+00  0.00000000000E+00 -0.47496747255E+03  0.47496747256E+03  0.25500000920E-02 0.  1.
    10030    2    1    2    0    0  0.00000000000E+00  0.00000000000E+00 -0.29266712631E+03  0.65726781882E+03  0.58851247976E+03 0.  0.
        5    1    3    3  502    0 -0.51053037466E+02 -0.58938928940E+02  0.17050836038E+03  0.18755106221E+03  0.46999998093E+01 0. -1.
       -5    1    3    3    0  502  0.51053037466E+02  0.58938928940E+02 -0.46317548668E+03  0.46971675661E+03  0.46999998093E+01 0.  1.
</event>
<event>
 5   0  0.3478183E-02  0.5905090E+03  0.7818609E-02  0.9925295E-01
        1   -1    0    0  501    0  0.00000000000E+00  0.00000000000E+00  0.32429484958E+03  0.32429484962E+03  0.50400001928E-02 0. -1.
       -1   -1    0    0    0  501  0.00000000000E+00  0.00000000000E+00 -0.26881469717E+03  0.26881469721E+03  0.50400001928E-02 0.  1.
    10030    2    1    2    0    0  0.00000000000E+00  0.00000000000E+00  0.55480152416E+02  0.59310954683E+03  0.59050900690E+03 0.  0.
        4    1    3    3  502    0 -0.51841952534E+00  0.28453616619E+03  0.10690666802E+03  0.30396010790E+03  0.12699999809E+01 0. -1.
       -4    1    3    3    0  502  0.51841952534E+00 -0.28453616619E+03 -0.51426515608E+02  0.28914943893E+03  0.12699999809E+01 0.  1.
</event>
<event>
 5   0  0.3478183E-02  0.6020038E+03  0.7818609E-02  0.9901257E-01
        1   -1    0    0  501    0  0.00000000000E+00  0.00000000000E+00  0.41292189254E+03  0.41292189257E+03  0.50400001928E-02 0.  1.
       -1   -1    0    0    0  501  0.00000000000E+00  0.00000000000E+00 -0.21941715628E+03  0.21941715634E+03  0.50400001928E-02 0. -1.
    10030    2    1    2    0    0  0.00000000000E+00  0.00000000000E+00  0.19350473626E+03  0.63233904890E+03  0.60200381213E+03 0.  0.
        4    1    3    3  502    0 -0.22110567223E+03  0.11707426274E+03  0.27253649731E+03  0.36996196636E+03  0.12699999809E+01 0.  1.
       -4    1    3    3    0  502  0.22110567223E+03 -0.11707426274E+03 -0.79031761053E+02  0.26237708254E+03  0.12699999809E+01 0. -1.
</event>
<event>
 5   0  0.3478183E-02  0.5961537E+03  0.7818609E-02  0.9913418E-01
       -1   -1    0    0    0  501  0.00000000000E+00  0.00000000000E+00  0.13900252644E+04  0.13900252644E+04  0.50400001928E-02 0.  1.
        1   -1    0    0  501    0  0.00000000000E+00  0.00000000000E+00 -0.63919559174E+02  0.63919559373E+02  0.50400001928E-02 0. -1.
    10030    2    1    2    0    0  0.00000000000E+00  0.00000000000E+00  0.13261057053E+04  0.14539448238E+04  0.59615367916E+03 0.  0.
        4    1    3    3  502    0 -0.19141687707E+03  0.19998342609E+03  0.93259440677E+03  0.97281433582E+03  0.12699999809E+01 0.  1.
       -4    1    3    3    0  502  0.19141687707E+03 -0.19998342609E+03  0.39351129850E+03  0.48113048800E+03  0.12699999809E+01 0. -1.
</event>
<event>
 5   0  0.6007360E-02  0.5932548E+03  0.7818609E-02  0.9919500E-01
        2   -1    0    0  501    0  0.00000000000E+00  0.00000000000E+00  0.55198662515E+03  0.55198662516E+03  0.25500000920E-02 0.  1.
       -2   -1    0    0    0  501  0.00000000000E+00  0.00000000000E+00 -0.15940209395E+03  0.15940209397E+03  0.25500000920E-02 0. -1.
    10030    2    1    2    0    0  0.00000000000E+00  0.00000000000E+00  0.39258453120E+03  0.71138871913E+03  0.59325483189E+03 0.  0.
        4    1    3    3  502    0  0.21566149228E+03 -0.20355205679E+03  0.18843894368E+03  0.35136045234E+03  0.12699999809E+01 0. -1.
       -4    1    3    3    0  502 -0.21566149228E+03  0.20355205679E+03  0.20414558752E+03  0.36002826678E+03  0.12699999809E+01 0.  1.
</event>
<event>
 5   0  0.3651984E-02  0.5864923E+03  0.7818609E-02  0.9933833E-01
        1   -1    0    0  501    0  0.00000000000E+00  0.00000000000E+00  0.27490740186E+03  0.27490740190E+03  0.50400001928E-02 0. -1.
       -1   -1    0    0    0  501  0.00000000000E+00  0.00000000000E+00 -0.31280827520E+03  0.31280827524E+03  0.50400001928E-02 0.  1.
    10030    2    1    2    0    0  0.00000000000E+00  0.00000000000E+00 -0.37900873345E+02  0.58771567715E+03  0.58649231961E+03 0.  0.
        1    1    3    3  502    0 -0.31182427943E+02 -0.27796913728E+03  0.69290751773E+02  0.28816730106E+03  0.50400001928E-02 0. -1.
       -1    1    3    3    0  502  0.31182427943E+02  0.27796913728E+03 -0.10719162512E+03  0.29954837608E+03  0.50400001928E-02 0.  1.
</event>
<event>
 5   0  0.5872632E-02  0.6007770E+03  0.7818609E-02  0.9903795E-01
        2   -1    0    0  501    0  0.00000000000E+00  0.00000000000E+00  0.99151811244E+03  0.99151811244E+03  0.25500000920E-02 0.  1.
       -2   -1    0    0    0  501  0.00000000000E+00  0.00000000000E+00 -0.91005147173E+02  0.91005147209E+02  0.25500000920E-02 0. -1.
    10030    2    1    2    0    0  0.00000000000E+00  0.00000000000E+00  0.90051296527E+03  0.10825232597E+04  0.60077700278E+03 0.  0.
        1    1    3    3  502    0 -0.24136017795E+03  0.12680825937E+03  0.22306206121E+03  0.35226659411E+03  0.50400001928E-02 0. -1.
       -1    1    3    3    0  502  0.24136017795E+03 -0.12680825937E+03  0.67745090405E+03  0.73025666554E+03  0.50400001928E-02 0.  1.
</event>
<event>
 5   0  0.3703280E-02  0.6179114E+03  0.7818609E-02  0.9868927E-01
       -1   -1    0    0    0  501  0.00000000000E+00  0.00000000000E+00  0.44774507148E+02  0.44774507432E+02  0.50400001928E-02 0. -1.
        1   -1    0    0  501    0  0.00000000000E+00  0.00000000000E+00 -0.21318744252E+04  0.21318744252E+04  0.50400001928E-02 0.  1.
    10030    2    1    2    0    0  0.00000000000E+00  0.00000000000E+00 -0.20870999180E+04  0.21766489326E+04  0.61791140791E+03 0.  0.
        5    1    3    3  502    0 -0.11309127316E+03 -0.27426817129E+03 -0.13469607966E+04  0.13792527482E+04  0.46999998093E+01 0.  1.
       -5    1    3    3    0  502  0.11309127316E+03  0.27426817129E+03 -0.74013912145E+03  0.79739618443E+03  0.46999998093E+01 0. -1.
</event>
<event>
 5   0  0.3703280E-02  0.6023168E+03  0.7818609E-02  0.9900611E-01
       -1   -1    0    0    0  501  0.00000000000E+00  0.00000000000E+00  0.18754342930E+03  0.18754342936E+03  0.50400001928E-02 0. -1.
        1   -1    0    0  501    0  0.00000000000E+00  0.00000000000E+00 -0.48360200651E+03  0.48360200654E+03  0.50400001928E-02 0.  1.
    10030    2    1    2    0    0  0.00000000000E+00  0.00000000000E+00 -0.29605857721E+03  0.67114543590E+03  0.60231678956E+03 0.  0.
        5    1    3    3  502    0  0.11935106492E+03 -0.34767511353E+02  0.15757591079E+03  0.20076283073E+03  0.46999998093E+01 0. -1.
       -5    1    3    3    0  502 -0.11935106492E+03  0.34767511353E+02 -0.45363448800E+03  0.47038260517E+03  0.46999998093E+01 0.  1.
</event>
<event>
 5   0  0.5935451E-02  0.5944275E+03  0.7818609E-02  0.9917035E-01
        2   -1    0    0  501    0  0.00000000000E+00  0.00000000000E+00  0.19796661819E+04  0.19796661819E+04  0.25500000920E-02 0.  1.
       -2   -1    0    0    0  501  0.00000000000E+00  0.00000000000E+00 -0.44621677882E+02  0.44621677955E+02  0.25500000920E-02 0. -1.
    10030    2    1    2    0    0  0.00000000000E+00  0.00000000000E+00  0.19350445040E+04  0.20242878598E+04  0.59442754565E+03 0.  0.
        3    1    3    3  502    0  0.20494092530E+03 -0.60874276335E+02  0.26440338803E+03  0.34002297303E+03  0.10100000352E+00 0. -1.
       -3    1    3    3    0  502 -0.20494092530E+03  0.60874276335E+02  0.16706411160E+04  0.16842648868E+04  0.10100000352E+00 0.  1.
</event>
<event>
 5   0  0.3651984E-02  0.5985016E+03  0.7818609E-02  0.9908520E-01
       -1   -1    0    0    0  501  0.00000000000E+00  0.00000000000E+00  0.19812449938E+03  0.19812449944E+03  0.50400001928E-02 0.  1.
        1   -1    0    0  501    0  0.00000000000E+00  0.00000000000E+00 -0.45199372649E+03  0.45199372652E+03  0.50400001928E-02 0. -1.
    10030    2    1    2    0    0  0.00000000000E+00  0.00000000000E+00 -0.25386922711E+03  0.65011822596E+03  0.59850156495E+03 0.  0.
        1    1    3    3  502    0 -0.27841442674E+03  0.44624662971E+02 -0.18065749574E+02  0.28254614649E+03  0.50400001928E-02 0.  1.
       -1    1    3    3    0  502  0.27841442674E+03 -0.44624662971E+02 -0.23580347754E+03  0.36757207947E+03  0.50400001928E-02 0. -1.
</event>
<event>
 5   0  0.3703280E-02  0.5969157E+03  0.7818609E-02  0.9911826E-01
       -1   -1    0    0    0  501  0.00000000000E+00  0.00000000000E+00  0.10601423979E+03  0.10601423991E+03  0.50400001928E-02 0.  1.
        1   -1    0    0  501    0  0.00000000000E+00  0.00000000000E+00 -0.84023714941E+03  0.84023714943E+03  0.50400001928E-02 0. -1.
    10030    2    1    2    0    0  0.00000000000E+00  0.00000000000E+00 -0.73422290962E+03  0.94625138934E+03  0.59691574851E+03 0.  0.
        5    1    3    3  502    0  0.32671642234E+02  0.27267904542E+03 -0.18201393749E+03  0.32950335576E+03  0.46999998093E+01 0. -1.
       -5    1    3    3    0  502 -0.32671642234E+02 -0.27267904542E+03 -0.55220897214E+03  0.61674803358E+03  0.46999998093E+01 0.  1.
</event>
<event>
 5   0  0.2388000E-02  0.5873378E+03  0.7818609E-02  0.9932030E-01
        3   -1    0    0  501    0  0.00000000000E+00  0.00000000000E+00  0.28898264592E+03  0.28898266357E+03  0.10100000352E+00 0.  1.
       -3   -1    0    0    0  501  0.00000000000E+00  0.00000000000E+00 -0.29843115079E+03  0.29843116788E+03  0.10100000352E+00 0. -1.
    10030    2    1    2    0    0  0.00000000000E+00  0.00000000000E+00 -0.94485048671E+01  0.58741383145E+03  0.58733783731E+03 0.  0.
        2    1    3    3  502    0 -0.23691861925E+03 -0.11358313591E+03  0.12647912649E+03  0.29159651979E+03  0.25500000920E-02 0.  1.
       -2    1    3    3    0  502  0.23691861925E+03  0.11358313591E+03 -0.13592763136E+03  0.29581731167E+03  0.25500000920E-02 0. -1.
</event>
<event>
 5   0  0.2388000E-02  0.6106352E+03  0.7818609E-02  0.9883584E-01
        3   -1    0    0  501    0  0.00000000000E+00  0.00000000000E+00  0.71665995444E+03  0.71665996156E+03  0.10100000352E+00 0.  1.
       -3   -1    0    0    0  501  0.00000000000E+00  0.00000000000E+00 -0.13007397237E+03  0.13007401158E+03  0.10100000352E+00 0. -1.
    10030    2    1    2    0    0  0.00000000000E+00  0.00000000000E+00  0.58658598207E+03  0.84673397314E+03  0.61063516677E+03 0.  0.
        5    1    3    3  502    0  0.37058790931E+02 -0.30041180809E+03  0.34834345160E+03  0.46150390973E+03  0.46999998093E+01 0.  1.
       -5    1    3    3    0  502 -0.37058790931E+02  0.30041180809E+03  0.23824253047E+03  0.38523006340E+03  0.46999998093E+01 0. -1.
</event>
<event>
 5   0  0.5999117E-02  0.5882384E+03  0.7818609E-02  0.9930113E-01
       -2   -1    0    0    0  501  0.00000000000E+00  0.00000000000E+00  0.26508226090E+03  0.26508226091E+03  0.25500000920E-02 0. -1.
        2   -1    0    0  501    0  0.00000000000E+00  0.00000000000E+00 -0.32633687077E+03  0.32633687078E+03  0.25500000920E-02 0.  1.
    10030    2    1    2    0    0  0.00000000000E+00  0.00000000000E+00 -0.61254609867E+02  0.59141913169E+03  0.58823843983E+03 0.  0.
        5    1    3    3  502    0  0.30389606722E+02  0.14397021784E+03 -0.28662748695E+03  0.32222408057E+03  0.46999998093E+01 0.  1.
       -5    1    3    3    0  502 -0.30389606722E+02 -0.14397021784E+03  0.22537287709E+03  0.26919505112E+03  0.46999998093E+01 0. -1.
</event>
<event>
 5   0  0.3651984E-02  0.6018910E+03  0.7818609E-02  0.9901491E-01
       -1   -1    0    0    0  501  0.00000000000E+00  0.00000000000E+00  0.51391785786E+03  0.51391785788E+03  0.50400001928E-02 0. -1.
        1   -1    0    0  501    0  0.00000000000E+00  0.00000000000E+00 -0.17623086559E+03  0.17623086566E+03  0.50400001928E-02 0.  1.
    10030    2    1    2    0    0  0.00000000000E+00  0.00000000000E+00  0.33768699227E+03  0.69014872354E+03  0.60189098336E+03 0.  0.
        1    1    3    3  502    0 -0.54967095095E+02 -0.27252487412E+03  0.36721588535E+02  0.28042764423E+03  0.50400001928E-02 0.  1.
       -1    1    3    3    0  502  0.54967095095E+02  0.27252487412E+03  0.30096540374E+03  0.40972107931E+03  0.50400001928E-02 0. -1.
</event>
<event>
 5   0  0.3703280E-02  0.6053697E+03  0.7818609E-02  0.9894328E-01
        1   -1    0    0  501    0  0.00000000000E+00  0.00000000000E+00  0.28827376720E+03  0.28827376724E+03  0.50400001928E-02 0.  1.
       -1   -1    0    0    0  501  0.00000000000E+00  0.00000000000E+00 -0.31781631062E+03  0.31781631066E+03  0.50400001928E-02 0. -1.
    10030    2    1    2    0    0  0.00000000000E+00  0.00000000000E+00 -0.29542543429E+02  0.60609007790E+03  0.60536965621E+03 0.  0.
        5    1    3    3  502    0 -0.83762997675E+01  0.29913392080E+03  0.30501455330E+02  0.30083831828E+03  0.46999998093E+01 0.  1.
       -5    1    3    3    0  502  0.83762997675E+01 -0.29913392080E+03 -0.60043998759E+02  0.30525175963E+03  0.46999998093E+01 0. -1.
</event>
<event>
 5   0  0.3651984E-02  0.5957516E+03  0.7818609E-02  0.9914259E-01
       -1   -1    0    0    0  501  0.00000000000E+00  0.00000000000E+00  0.21608344370E+03  0.21608344376E+03  0.50400001928E-02 0.  1.
        1   -1    0    0  501    0  0.00000000000E+00  0.00000000000E+00 -0.41062842050E+03  0.41062842053E+03  0.50400001928E-02 0. -1.
    10030    2    1    2    0    0  0.00000000000E+00  0.00000000000E+00 -0.19454497680E+03  0.62671186429E+03  0.59575163688E+03 0.  0.
        1    1    3    3  502    0  0.14912174303E+02  0.18998104182E+03  0.14356815539E+03  0.23859376450E+03  0.50400001928E-02 0.  1.
       -1    1    3    3    0  502 -0.14912174303E+02 -0.18998104182E+03 -0.33811313219E+03  0.38811809978E+03  0.50400001928E-02 0. -1.
</event>
<event>
 5   0  0.6007360E-02  0.6082985E+03  0.7818609E-02  0.9888337E-01
        2   -1    0    0  501    0  0.00000000000E+00  0.00000000000E+00  0.22855063551E+04  0.22855063551E+04  0.25500000920E-02 0.  1.
       -2   -1    0    0    0  501  0.00000000000E+00  0.00000000000E+00 -0.40475396458E+02  0.40475396538E+02  0.25500000920E-02 0. -1.
    10030    2    1    2    0    0  0.00000000000E+00  0.00000000000E+00  0.22450309586E+04  0.23259817516E+04  0.60829853172E+03 0.  0.
        4    1    3    3  502    0  0.14042790580E+03 -0.26234234699E+03  0.88184207813E+03  0.93069359481E+03  0.12699999809E+01 0.  1.
       -4    1    3    3    0  502 -0.14042790580E+03  0.26234234699E+03  0.13631888805E+04  0.13952881568E+04  0.12699999809E+01 0. -1.
</event>
<event>
 5   0  0.2388000E-02  0.5790452E+03  0.7818609E-02  0.9949860E-01
        4   -1    0    0  501    0  0.00000000000E+00  0.00000000000E+00  0.50088521683E+03  0.50088682688E+03  0.12699999809E+01 0.  1.
       -4   -1    0    0    0  501  0.00000000000E+00  0.00000000000E+00 -0.16734612828E+03  0.16735094726E+03  0.12699999809E+01 0. -1.
    10030    2    1    2    0    0  0.00000000000E+00  0.00000000000E+00  0.33353908855E+03  0.66823777414E+03  0.57904524797E+03 0.  0.
        5    1    3    3  502    0  0.24009004364E+03  0.15158023060E+03  0.23186220987E+03  0.36660874202E+03  0.46999998093E+01 0.  1.
       -5    1    3    3    0  502 -0.24009004364E+03 -0.15158023060E+03  0.10167687868E+03  0.30162903212E+03  0.46999998093E+01 0. -1.
</event>
<event>
 5   0  0.3703280E-02  0.5996050E+03  0.7818609E-02  0.9906226E-01
       -1   -1    0    0    0  501  0.00000000000E+00  0.00000000000E+00  0.37044278741E+03  0.37044278745E+03  0.50400001928E-02 0. -1.
        1   -1    0    0  501    0  0.00000000000E+00  0.00000000000E+00 -0.24263271331E+03  0.24263271336E+03  0.50400001928E-02 0.  1.
    10030    2    1    2    0    0  0.00000000000E+00  0.00000000000E+00  0.12781007411E+03  0.61307550081E+03  0.59960499885E+03 0.  0.
        5    1    3    3  502    0  0.73891252801E+02 -0.22351367402E+03 -0.12584752928E+03  0.26697934441E+03  0.46999998093E+01 0.  1.
       -5    1    3    3    0  502 -0.73891252801E+02  0.22351367402E+03  0.25365760339E+03  0.34609615640E+03  0.46999998093E+01 0. -1.
</event>
<event>
 5   0  0.5872632E-02  0.5965792E+03  0.7818609E-02  0.9912529E-01
        2   -1    0    0  501    0  0.00000000000E+00  0.00000000000E+00  0.36837689834E+03  0.36837689834E+03  0.25500000920E-02 0. -1.
       -2   -1    0    0    0  501  0.00000000000E+00  0.00000000000E+00 -0.24153710910E+03  0.24153710911E+03  0.25500000920E-02 0.  1.
    10030    2    1    2    0    0  0.00000000000E+00  0.00000000000E+00  0.12683978924E+03  0.60991400746E+03  0.59657921884E+03 0.  0.
        1    1    3    3  502    0  0.22817339160E+03  0.15123071861E+03  0.18457126589E+03  0.33015205452E+03  0.50400001928E-02 0. -1.
       -1    1    3    3    0  502 -0.22817339160E+03 -0.15123071861E+03 -0.57731476653E+02  0.27976195293E+03  0.50400001928E-02 0.  1.
</event>
<event>
 5   0  0.6007360E-02  0.5967812E+03  0.7818609E-02  0.9912107E-01
       -2   -1    0    0    0  501  0.00000000000E+00  0.00000000000E+00  0.31951924811E+03  0.31951924812E+03  0.25500000920E-02 0.  1.
        2   -1    0    0  501    0  0.00000000000E+00  0.00000000000E+00 -0.27865914384E+03  0.27865914385E+03  0.25500000920E-02 0. -1.
    10030    2    1    2    0    0  0.00000000000E+00  0.00000000000E+00  0.40860104269E+02  0.59817839197E+03  0.59678123337E+03 0.  0.
        4    1    3    3  502    0  0.29589463078E+03  0.16881090702E+02 -0.14244918201E+02  0.29672063349E+03  0.12699999809E+01 0. -1.
       -4    1    3    3    0  502 -0.29589463078E+03 -0.16881090702E+02  0.55105022470E+02  0.30145775848E+03  0.12699999809E+01 0.  1.
</event>
<event>
 5   0  0.6007360E-02  0.6030002E+03  0.7818609E-02  0.9899201E-01
        2   -1    0    0  501    0  0.00000000000E+00  0.00000000000E+00  0.10475229096E+03  0.10475229099E+03  0.25500000920E-02 0. -1.
       -2   -1    0    0    0  501  0.00000000000E+00  0.00000000000E+00 -0.86778361801E+03  0.86778361802E+03  0.25500000920E-02 0.  1.
    10030    2    1    2    0    0  0.00000000000E+00  0.00000000000E+00 -0.76303132705E+03  0.97253590901E+03  0.60300023902E+03 0.  0.
        4    1    3    3  502    0  0.17615884379E+03  0.24448438728E+03 -0.39733086652E+03  0.49867623189E+03  0.12699999809E+01 0.  1.
       -4    1    3    3    0  502 -0.17615884379E+03 -0.24448438728E+03 -0.36570046053E+03  0.47385967712E+03  0.12699999809E+01 0. -1.
</event>
<event>
 5   0  0.5755078E-02  0.6029127E+03  0.7818609E-02  0.9899381E-01
        2   -1    0    0  501    0  0.00000000000E+00  0.00000000000E+00  0.89570965107E+03  0.89570965107E+03  0.25500000920E-02 0. -1.
       -2   -1    0    0    0  501  0.00000000000E+00  0.00000000000E+00 -0.10145691352E+03  0.10145691356E+03  0.25500000920E-02 0.  1.
    10030    2    1    2    0    0  0.00000000000E+00  0.00000000000E+00  0.79425273754E+03  0.99716656462E+03  0.60291271882E+03 0.  0.
        2    1    3    3  502    0 -0.15079942911E+03  0.20291222243E+03  0.66870157010E+03  0.71489553621E+03  0.25500000920E-02 0. -1.
       -2    1    3    3    0  502  0.15079942911E+03 -0.20291222243E+03  0.12555116745E+03  0.28227102842E+03  0.25500000920E-02 0.  1.
</event>
<event>
 5   0  0.5935451E-02  0.5980819E+03  0.7818609E-02  0.9909393E-01
        2   -1    0    0  501    0  0.00000000000E+00  0.00000000000E+00  0.55404083818E+03  0.55404083818E+03  0.25500000920E-02 0.  1.
       -2   -1    0    0    0  501  0.00000000000E+00  0.00000000000E+00 -0.16140597726E+03  0.16140597728E+03  0.25500000920E-02 0. -1.
    10030    2    1    2    0    0  0.00000000000E+00  0.00000000000E+00  0.39263486091E+03  0.71544681546E+03  0.59808194401E+03 0.  0.
        3    1    3    3  502    0  0.97030381489E+02 -0.28254146192E+03  0.18022728110E+03  0.34889318665E+03  0.10100000352E+00 0.  1.
       -3    1    3    3    0  502 -0.97030381489E+02  0.28254146192E+03  0.21240757981E+03  0.36655362882E+03  0.10100000352E+00 0. -1.
</event>
<event>
 5   0  0.3640827E-02  0.6018312E+03  0.7818609E-02  0.9901614E-01
        1   -1    0    0  501    0  0.00000000000E+00  0.00000000000E+00  0.21343327226E+03  0.21343327232E+03  0.50400001928E-02 0. -1.
       -1   -1    0    0    0  501  0.00000000000E+00  0.00000000000E+00 -0.42425536549E+03  0.42425536552E+03  0.50400001928E-02 0.  1.
    10030    2    1    2    0    0  0.00000000000E+00  0.00000000000E+00 -0.21082209323E+03  0.63768863784E+03  0.60183124199E+03 0.  0.
        3    1    3    3  502    0  0.29398272784E+03 -0.72084884961E+01 -0.17302850686E+03  0.34119888769E+03  0.10100000352E+00 0.  1.
       -3    1    3    3    0  502 -0.29398272784E+03  0.72084884961E+01 -0.37793586362E+02  0.29648975015E+03  0.10100000352E+00 0. -1.
</event>
<event>
 5   0  0.3478183E-02  0.5956712E+03  0.7818609E-02  0.9914428E-01
       -1   -1    0    0    0  501  0.00000000000E+00  0.00000000000E+00  0.22176190660E+03  0.22176190666E+03  0.50400001928E-02 0. -1.
        1   -1    0    0  501    0  0.00000000000E+00  0.00000000000E+00 -0.40000573957E+03  0.40000573960E+03  0.50400001928E-02 0.  1.
    10030    2    1    2    0    0  0.00000000000E+00  0.00000000000E+00 -0.17824383297E+03  0.62176764626E+03  0.59567116931E+03 0.  0.
        4    1    3    3  502    0  0.60404397610E+01 -0.28442453322E+03  0.28911259328E+01  0.28450619241E+03  0.12699999809E+01 0. -1.
       -4    1    3    3    0  502 -0.60404397610E+01  0.28442453322E+03 -0.18113495891E+03  0.33726145385E+03  0.12699999809E+01 0.  1.
</event>
<event>
 5   0  0.5935451E-02  0.5983987E+03  0.7818609E-02  0.9908734E-01
        2   -1    0    0  501    0  0.00000000000E+00  0.00000000000E+00  0.52296786966E+03  0.52296786967E+03  0.25500000920E-02 0.  1.
       -2   -1    0    0    0  501  0.00000000000E+00  0.00000000000E+00 -0.17117737277E+03  0.17117737279E+03  0.25500000920E-02 0. -1.
    10030    2    1    2    0    0  0.00000000000E+00  0.00000000000E+00  0.35179049689E+03  0.69414524246E+03  0.59839874994E+03 0.  0.
        3    1    3    3  502    0 -0.98988407183E+02  0.28193825688E+03  0.15821248994E+03  0.33811105812E+03  0.10100000352E+00 0.  1.
       -3    1    3    3    0  502  0.98988407183E+02 -0.28193825688E+03  0.19357800695E+03  0.35603418435E+03  0.10100000352E+00 0. -1.
</event>
<event>
 5   0  0.5755078E-02  0.5882220E+03  0.7818609E-02  0.9930147E-01
        2   -1    0    0  501    0  0.00000000000E+00  0.00000000000E+00  0.40963361141E+03  0.40963361141E+03  0.25500000920E-02 0.  1.
       -2   -1    0    0    0  501  0.00000000000E+00  0.00000000000E+00 -0.21116745604E+03  0.21116745605E+03  0.25500000920E-02 0. -1.
    10030    2    1    2    0    0  0.00000000000E+00  0.00000000000E+00  0.19846615537E+03  0.62080106747E+03  0.58822202487E+03 0.  0.
        2    1    3    3  502    0 -0.26384403219E+03 -0.42472211926E+02 -0.30384972356E+02  0.26896246700E+03  0.25500000920E-02 0. -1.
       -2    1    3    3    0  502  0.26384403219E+03  0.42472211926E+02  0.22885112773E+03  0.35183860046E+03  0.25500000920E-02 0.  1.
</event>
<event>
 5   0  0.3651984E-02  0.5994124E+03  0.7818609E-02  0.9906626E-01
        1   -1    0    0  501    0  0.00000000000E+00  0.00000000000E+00  0.68951800404E+03  0.68951800406E+03  0.50400001928E-02 0. -1.
       -1   -1    0    0    0  501  0.00000000000E+00  0.00000000000E+00 -0.13027044445E+03  0.13027044455E+03  0.50400001928E-02 0.  1.
    10030    2    1    2    0    0  0.00000000000E+00  0.00000000000E+00  0.55924755959E+03  0.81978844861E+03  0.59941243528E+03 0.  0.
        1    1    3    3  502    0 -0.34494804849E+02 -0.29614884548E+03  0.23792074174E+03  0.38144502830E+03  0.50400001928E-02 0.  1.
       -1    1    3    3    0  502  0.34494804849E+02  0.29614884548E+03  0.32132681785E+03  0.43834342031E+03  0.50400001928E-02 0. -1.
</event>
<event>
 5   0  0.5872632E-02  0.6041945E+03  0.7818609E-02  0.9896742E-01
       -2   -1    0    0    0  501  0.00000000000E+00  0.00000000000E+00  0.28247256281E+03  0.28247256282E+03  0.25500000920E-02 0. -1.
        2   -1    0    0  501    0  0.00000000000E+00  0.00000000000E+00 -0.32308530686E+03  0.32308530687E+03  0.25500000920E-02 0.  1.
    10030    2    1    2    0    0  0.00000000000E+00  0.00000000000E+00 -0.40612744052E+02  0.60555786970E+03  0.60419445427E+03 0.  0.
        1    1    3    3  502    0 -0.19445715154E+03  0.21705082374E+03 -0.10009815035E+03  0.30813030296E+03  0.50400001928E-02 0. -1.
       -1    1    3    3    0  502  0.19445715154E+03 -0.21705082374E+03  0.59485406302E+02  0.29742756674E+03  0.50400001928E-02 0.  1.
</event>
<event>
 5   0  0.3767635E-02  0.5971962E+03  0.7818609E-02  0.9911240E-01
        1   -1    0    0  501    0  0.00000000000E+00  0.00000000000E+00  0.16798047746E+04  0.16798047746E+04  0.50400001928E-02 0. -1.
       -1   -1    0    0    0  501  0.00000000000E+00  0.00000000000E+00 -0.53078088075E+02  0.53078088315E+02  0.50400001928E-02 0.  1.
    10030    2    1    2    0    0  0.00000000000E+00  0.00000000000E+00  0.16267266866E+04  0.17328828630E+04  0.59719620224E+03 0.  0.
        2    1    3    3  502    0 -0.73802973661E+02 -0.22034223008E+03  0.13574858195E+04  0.13772310363E+04  0.25500000920E-02 0. -1.
       -2    1    3    3    0  502  0.73802973661E+02  0.22034223008E+03  0.26924086704E+03  0.35565182661E+03  0.25500000920E-02 0.  1.
</event>
<event>
 5   0  0.5999117E-02  0.6041020E+03  0.7818609E-02  0.9896932E-01
       -2   -1    0    0    0  501  0.00000000000E+00  0.00000000000E+00  0.98869037296E+02  0.98869037329E+02  0.25500000920E-02 0. -1.
        2   -1    0    0  501    0  0.00000000000E+00  0.00000000000E+00 -0.92278454934E+03  0.92278454934E+03  0.25500000920E-02 0.  1.
    10030    2    1    2    0    0  0.00000000000E+00  0.00000000000E+00 -0.82391551204E+03  0.10216535867E+04  0.60410204450E+03 0.  0.
        5    1    3    3  502    0  0.25034647227E+02 -0.24614443375E+03 -0.11903971128E+03  0.27460218260E+03  0.46999998093E+01 0. -1.
       -5    1    3    3    0  502 -0.25034647227E+02  0.24614443375E+03 -0.70487580076E+03  0.74705140407E+03  0.46999998093E+01 0.  1.
</event>
<event>
 5   0  0.2388000E-02  0.6071215E+03  0.7818609E-02  0.9890740E-01
        4   -1    0    0  501    0  0.00000000000E+00  0.00000000000E+00  0.18885706496E+03  0.18886133507E+03  0.12699999809E+01 0. -1.
       -4   -1    0    0    0  501  0.00000000000E+00  0.00000000000E+00 -0.48791988920E+03  0.48792154203E+03  0.12699999809E+01 0.  1.
    10030    2    1    2    0    0  0.00000000000E+00  0.00000000000E+00 -0.29906282423E+03  0.67678287710E+03  0.60712147870E+03 0.  0.
        5    1    3    3  502    0  0.58453181724E+02  0.22000950377E+03 -0.37333086782E+03  0.43728592827E+03  0.46999998093E+01 0.  1.
       -5    1    3    3    0  502 -0.58453181724E+02 -0.22000950377E+03  0.74268043586E+02  0.23949694883E+03  0.46999998093E+01 0. -1.
</event>
<event>
 5   0  0.3651984E-02  0.4930204E+03  0.7818609E-02  0.1015617E+00
       -1   -1    0    0    0  501  0.00000000000E+00  0.00000000000E+00  0.17949871298E+03  0.17949871305E+03  0.50400001928E-02 0. -1.
        1   -1    0    0  501    0  0.00000000000E+00  0.00000000000E+00 -0.33853883102E+03  0.33853883106E+03  0.50400001928E-02 0.  1.
    10030    2    1    2    0    0  0.00000000000E+00  0.00000000000E+00 -0.15904011804E+03  0.51803754411E+03  0.49302042348E+03 0.  0.
        1    1    3    3  502    0 -0.18777117259E+03  0.12715824680E+03 -0.18106796224E+03  0.29019448644E+03  0.50400001928E-02 0. -1.
       -1    1    3    3    0  502  0.18777117259E+03 -0.12715824680E+03  0.22027844194E+02  0.22784305767E+03  0.50400001928E-02 0.  1.
</event>
<event>
 5   0  0.3703280E-02  0.6035984E+03  0.7818609E-02  0.9897969E-01
        1   -1    0    0  501    0  0.00000000000E+00  0.00000000000E+00  0.13031591638E+04  0.13031591638E+04  0.50400001928E-02 0. -1.
       -1   -1    0    0    0  501  0.00000000000E+00  0.00000000000E+00 -0.69893801232E+02  0.69893801414E+02  0.50400001928E-02 0.  1.
    10030    2    1    2    0    0  0.00000000000E+00  0.00000000000E+00  0.12332653626E+04  0.13730529653E+04  0.60359836879E+03 0.  0.
        5    1    3    3  502    0 -0.13139954866E+03  0.25456601195E+03  0.40093657222E+03  0.49278993574E+03  0.46999998093E+01 0.  1.
       -5    1    3    3    0  502  0.13139954866E+03 -0.25456601195E+03  0.83232879038E+03  0.88026302951E+03  0.46999998093E+01 0. -1.
</event>
<event>
 5   0  0.5872632E-02  0.6015516E+03  0.7818609E-02  0.9902192E-01
       -2   -1    0    0    0  501  0.00000000000E+00  0.00000000000E+00  0.72443613762E+02  0.72443613807E+02  0.25500000920E-02 0.  1.
        2   -1    0    0  501    0  0.00000000000E+00  0.00000000000E+00 -0.12487792157E+04  0.12487792157E+04  0.25500000920E-02 0. -1.
    10030    2    1    2    0    0  0.00000000000E+00  0.00000000000E+00 -0.11763356020E+04  0.13212228296E+04  0.60155159117E+03 0.  0.
        1    1    3    3  502    0  0.21298584776E+03 -0.20918895301E+03 -0.66866035560E+03  0.73227703814E+03  0.50400001928E-02 0.  1.
       -1    1    3    3    0  502 -0.21298584776E+03  0.20918895301E+03 -0.50767524638E+03  0.58894579142E+03  0.50400001928E-02 0. -1.
</event>
<event>
 5   0  0.3640827E-02  0.5951346E+03  0.7818609E-02  0.9915552E-01
        1   -1    0    0  501    0  0.00000000000E+00  0.00000000000E+00  0.24571480999E+03  0.24571481004E+03  0.50400001928E-02 0. -1.
       -1   -1    0    0    0  501  0.00000000000E+00  0.00000000000E+00 -0.36036201302E+03  0.36036201305E+03  0.50400001928E-02 0.  1.
    10030    2    1    2    0    0  0.00000000000E+00  0.00000000000E+00 -0.11464720302E+03  0.60607682309E+03  0.59513455145E+03 0.  0.
        3    1    3    3  502    0 -0.11821361665E+02 -0.65144015690E+02 -0.35276582529E+03  0.35892509673E+03  0.10100000352E+00 0.  1.
       -3    1    3    3    0  502  0.11821361665E+02  0.65144015690E+02  0.23811862227E+03  0.24715172636E+03  0.10100000352E+00 0. -1.
</event>
<event>
 5   0  0.5755078E-02  0.5978783E+03  0.7818609E-02  0.9909818E-01
       -2   -1    0    0    0  501  0.00000000000E+00  0.00000000000E+00  0.90359670349E+02  0.90359670385E+02  0.25500000920E-02 0.  1.
        2   -1    0    0  501    0  0.00000000000E+00  0.00000000000E+00 -0.98898784731E+03  0.98898784731E+03  0.25500000920E-02 0. -1.
    10030    2    1    2    0    0  0.00000000000E+00  0.00000000000E+00 -0.89862817696E+03  0.10793475177E+04  0.59787830161E+03 0.  0.
        2    1    3    3  502    0  0.26490556802E+03  0.52354585190E+02 -0.21778067289E+03  0.34690688095E+03  0.25500000920E-02 0.  1.
       -2    1    3    3    0  502 -0.26490556802E+03 -0.52354585190E+02 -0.68084750407E+03  0.73244063675E+03  0.25500000920E-02 0. -1.
</event>
<event>
 5   0  0.3478183E-02  0.6042334E+03  0.7818609E-02  0.9896662E-01
       -1   -1    0    0    0  501  0.00000000000E+00  0.00000000000E+00  0.62214326329E+02  0.62214326534E+02  0.50400001928E-02 0.  1.
        1   -1    0    0  501    0  0.00000000000E+00  0.00000000000E+00 -0.14670975829E+04  0.14670975829E+04  0.50400001928E-02 0. -1.
    10030    2    1    2    0    0  0.00000000000E+00  0.00000000000E+00 -0.14048832565E+04  0.15293119094E+04  0.60423335869E+03 0.  0.
        4    1    3    3  502    0 -0.15091444245E+03 -0.21656151827E+03 -0.33047298245E+03  0.42295161090E+03  0.12699999809E+01 0.  1.
       -4    1    3    3    0  502  0.15091444245E+03  0.21656151827E+03 -0.10744102741E+04  0.11063602985E+04  0.12699999809E+01 0. -1.
</event>
<event>
 5   0  0.3703280E-02  0.5980461E+03  0.7818609E-02  0.9909468E-01
        1   -1    0    0  501    0  0.00000000000E+00  0.00000000000E+00  0.68161865225E+03  0.68161865227E+03  0.50400001928E-02 0. -1.
       -1   -1    0    0    0  501  0.00000000000E+00  0.00000000000E+00 -0.13118005320E+03  0.13118005330E+03  0.50400001928E-02 0.  1.
    10030    2    1    2    0    0  0.00000000000E+00  0.00000000000E+00  0.55043859905E+03  0.81279870557E+03  0.59804605546E+03 0.  0.
        5    1    3    3  502    0 -0.10580872443E+01  0.28743378076E+03  0.16336538243E+03  0.33065032292E+03  0.46999998093E+01 0.  1.
       -5    1    3    3    0  502  0.10580872443E+01 -0.28743378076E+03  0.38707321662E+03  0.48214838265E+03  0.46999998093E+01 0. -1.
</event>
<event>
 5   0  0.5999117E-02  0.5990540E+03  0.7818609E-02  0.9907371E-01
        2   -1    0    0  501    0  0.00000000000E+00  0.00000000000E+00  0.36870587302E+03  0.36870587303E+03  0.25500000920E-02 0.  1.
       -2   -1    0    0    0  501  0.00000000000E+00  0.00000000000E+00 -0.24332790846E+03  0.24332790848E+03  0.25500000920E-02 0. -1.
    10030    2    1    2    0    0  0.00000000000E+00  0.00000000000E+00  0.12537796456E+03  0.61203378151E+03  0.59905401736E+03 0.  0.
        5    1    3    3  502    0  0.47714439902E+02  0.24694490135E+03 -0.10342506172E+03  0.27198765683E+03  0.46999998093E+01 0. -1.
       -5    1    3    3    0  502 -0.47714439902E+02 -0.24694490135E+03  0.22880302628E+03  0.34004612468E+03  0.46999998093E+01 0.  1.
</event>
<event>
 5   0  0.3703280E-02  0.5977064E+03  0.7818609E-02  0.9910176E-01
       -1   -1    0    0    0  501  0.00000000000E+00  0.00000000000E+00  0.22618556164E+03  0.22618556170E+03  0.50400001928E-02 0. -1.
        1   -1    0    0  501    0  0.00000000000E+00  0.00000000000E+00 -0.39486710564E+03  0.39486710567E+03  0.50400001928E-02 0.  1.
    10030    2    1    2    0    0  0.00000000000E+00  0.00000000000E+00 -0.16868154399E+03  0.62105266737E+03  0.59770640984E+03 0.  0.
        5    1    3    3  502    0  0.15052967460E+03  0.22365299077E+03 -0.21825983212E+03  0.34689953521E+03  0.46999998093E+01 0.  1.
       -5    1    3    3    0  502 -0.15052967460E+03 -0.22365299077E+03  0.49578288127E+02  0.27415313215E+03  0.46999998093E+01 0. -1.
</event>
<event>
 5   0  0.2388000E-02  0.5851742E+03  0.7818609E-02  0.9936651E-01
       -4   -1    0    0    0  501  0.00000000000E+00  0.00000000000E+00  0.18596057079E+03  0.18596490742E+03  0.12699999809E+01 0. -1.
        4   -1    0    0  501    0  0.00000000000E+00  0.00000000000E+00 -0.46034078785E+03  0.46034253970E+03  0.12699999809E+01 0.  1.
    10030    2    1    2    0    0  0.00000000000E+00  0.00000000000E+00 -0.27438021705E+03  0.64630744711E+03  0.58517417295E+03 0.  0.
        3    1    3    3  502    0 -0.16042282038E+03 -0.21654495718E+03 -0.26302214997E+03  0.37657384582E+03  0.10100000352E+00 0.  1.
       -3    1    3    3    0  502  0.16042282038E+03  0.21654495718E+03 -0.11358067076E+02  0.26973360129E+03  0.10100000352E+00 0. -1.
</event>
<event>
 5   0  0.5872632E-02  0.5895168E+03  0.7818609E-02  0.9927397E-01
        2   -1    0    0  501    0  0.00000000000E+00  0.00000000000E+00  0.65323280273E+03  0.65323280274E+03  0.25500000920E-02 0. -1.
       -2   -1    0    0    0  501  0.00000000000E+00  0.00000000000E+00 -0.13300392322E+03  0.13300392325E+03  0.25500000920E-02 0.  1.
    10030    2    1    2    0    0  0.00000000000E+00  0.00000000000E+00  0.52022887951E+03  0.78623672599E+03  0.58951683794E+03 0.  0.
        1    1    3    3  502    0  0.14795928949E+03 -0.73843262313E+02  0.58554123523E+03  0.60844335555E+03  0.50400001928E-02 0. -1.
       -1    1    3    3    0  502 -0.14795928949E+03  0.73843262313E+02 -0.65312355721E+02  0.17779337043E+03  0.50400001928E-02 0.  1.
</event>
<event>
 5   0  0.3478183E-02  0.6074717E+03  0.7818609E-02  0.9890025E-01
        1   -1    0    0  501    0  0.00000000000E+00  0.00000000000E+00  0.73798401391E+03  0.73798401393E+03  0.50400001928E-02 0.  1.
       -1   -1    0    0    0  501  0.00000000000E+00  0.00000000000E+00 -0.12501012566E+03  0.12501012576E+03  0.50400001928E-02 0. -1.
    10030    2    1    2    0    0  0.00000000000E+00  0.00000000000E+00  0.61297388826E+03  0.86299413969E+03  0.60747172565E+03 0.  0.
        4    1    3    3  502    0 -0.37498767793E+02 -0.84597439579E+02 -0.10449344302E+03  0.13958286751E+03  0.12699999809E+01 0. -1.
       -4    1    3    3    0  502  0.37498767793E+02  0.84597439579E+02  0.71746733127E+03  0.72341127218E+03  0.12699999809E+01 0.  1.
</event>
<event>
 5   0  0.5872632E-02  0.5977636E+03  0.7818609E-02  0.9910057E-01
        2   -1    0    0  501    0  0.00000000000E+00  0.00000000000E+00  0.68065122452E+03  0.68065122452E+03  0.25500000920E-02 0.  1.
       -2   -1    0    0    0  501  0.00000000000E+00  0.00000000000E+00 -0.13124243666E+03  0.13124243669E+03  0.25500000920E-02 0. -1.
    10030    2    1    2    0    0  0.00000000000E+00  0.00000000000E+00  0.54940878786E+03  0.81189366121E+03  0.59776358282E+03 0.  0.
        1    1    3    3  502    0  0.16134316108E+03  0.12080312046E+03 -0.25044699777E+02  0.20310649067E+03  0.50400001928E-02 0. -1.
       -1    1    3    3    0  502 -0.16134316108E+03 -0.12080312046E+03  0.57445348763E+03  0.60878717054E+03  0.50400001928E-02 0.  1.
</event>
<event>
 5   0  0.5872632E-02  0.5260495E+03  0.7818609E-02  0.1007195E+00
       -2   -1    0    0    0  501  0.00000000000E+00  0.00000000000E+00  0.48621563988E+02  0.48621564055E+02  0.25500000920E-02 0.  1.
        2   -1    0    0  501    0  0.00000000000E+00  0.00000000000E+00 -0.14228669146E+04  0.14228669146E+04  0.25500000920E-02 0. -1.
    10030    2    1    2    0    0  0.00000000000E+00  0.00000000000E+00 -0.13742453506E+04  0.14714884787E+04  0.52604948355E+03 0.  0.
        1    1    3    3  502    0  0.26227655249E+03  0.17635548704E+02 -0.66179067494E+03  0.71208630097E+03  0.50400001928E-02 0.  1.
       -1    1    3    3    0  502 -0.26227655249E+03 -0.17635548704E+02 -0.71245467567E+03  0.75940217768E+03  0.50400001928E-02 0. -1.
</event>
<event>
 5   0  0.3478183E-02  0.5960549E+03  0.7818609E-02  0.9913625E-01
       -1   -1    0    0    0  501  0.00000000000E+00  0.00000000000E+00  0.14177274861E+03  0.14177274870E+03  0.50400001928E-02 0. -1.
        1   -1    0    0  501    0  0.00000000000E+00  0.00000000000E+00 -0.62649810284E+03  0.62649810286E+03  0.50400001928E-02 0.  1.
    10030    2    1    2    0    0  0.00000000000E+00  0.00000000000E+00 -0.48472535423E+03  0.76827085156E+03  0.59605489036E+03 0.  0.
        4    1    3    3  502    0 -0.27236006213E+03 -0.52298056878E+02 -0.10173582152E+03  0.29540968244E+03  0.12699999809E+01 0.  1.
       -4    1    3    3    0  502  0.27236006213E+03  0.52298056878E+02 -0.38298953272E+03  0.47286116913E+03  0.12699999809E+01 0. -1.
</event>
<event>
 5   0  0.3640827E-02  0.6003389E+03  0.7818609E-02  0.9904703E-01
        1   -1    0    0  501    0  0.00000000000E+00  0.00000000000E+00  0.33881547783E+03  0.33881547786E+03  0.50400001928E-02 0.  1.
       -1   -1    0    0    0  501  0.00000000000E+00  0.00000000000E+00 -0.26593143430E+03  0.26593143435E+03  0.50400001928E-02 0. -1.
    10030    2    1    2    0    0  0.00000000000E+00  0.00000000000E+00  0.72884043527E+02  0.60474691221E+03  0.60033885767E+03 0.  0.
        3    1    3    3  502    0  0.25016952915E+03 -0.49276586220E+02 -0.12311513507E+03  0.28314364190E+03  0.10100000352E+00 0. -1.
       -3    1    3    3    0  502 -0.25016952915E+03  0.49276586220E+02  0.19599917860E+03  0.32160327031E+03  0.10100000352E+00 0.  1.
</event>
<event>
 5   0  0.2388000E-02  0.6018741E+03  0.7818609E-02  0.9901526E-01
        3   -1    0    0  501    0  0.00000000000E+00  0.00000000000E+00  0.18050549078E+03  0.18050551903E+03  0.10100000352E+00 0.  1.
       -3   -1    0    0    0  501  0.00000000000E+00  0.00000000000E+00 -0.50171925381E+03  0.50171926398E+03  0.10100000352E+00 0. -1.
    10030    2    1    2    0    0  0.00000000000E+00  0.00000000000E+00 -0.32121376304E+03  0.68222478301E+03  0.60187405077E+03 0.  0.
        1    1    3    3  502    0  0.11074722579E+03 -0.26394437512E+03 -0.26591583885E+03  0.39069529630E+03  0.50400001928E-02 0.  1.
       -1    1    3    3    0  502 -0.11074722579E+03  0.26394437512E+03 -0.55297924190E+02  0.29152948671E+03  0.50400001928E-02 0. -1.
</event>
<event>
 5   0  0.6007360E-02  0.6039017E+03  0.7818609E-02  0.9897344E-01
       -2   -1    0    0    0  501  0.00000000000E+00  0.00000000000E+00  0.20624717150E+03  0.20624717152E+03  0.25500000920E-02 0.  1.
        2   -1    0    0  501    0  0.00000000000E+00  0.00000000000E+00 -0.44206335847E+03  0.44206335848E+03  0.25500000920E-02 0. -1.
    10030    2    1    2    0    0  0.00000000000E+00  0.00000000000E+00 -0.23581618697E+03  0.64831053000E+03  0.60390170497E+03 0.  0.
        4    1    3    3  502    0  0.18442755517E+03 -0.23327631671E+03 -0.61700061429E+02  0.30371018015E+03  0.12699999809E+01 0.  1.
       -4    1    3    3    0  502 -0.18442755517E+03  0.23327631671E+03 -0.17411612554E+03  0.34460034985E+03  0.12699999809E+01 0. -1.
</event>
<event>
 5   0  0.3478183E-02  0.6006829E+03  0.7818609E-02  0.9903990E-01
        1   -1    0    0  501    0  0.00000000000E+00  0.00000000000E+00  0.66652397171E+03  0.66652397173E+03  0.50400001928E-02 0.  1.
       -1   -1    0    0    0  501  0.00000000000E+00  0.00000000000E+00 -0.13533645243E+03  0.13533645252E+03  0.50400001928E-02 0. -1.
    10030    2    1    2    0    0  0.00000000000E+00  0.00000000000E+00  0.53118751928E+03  0.80186042425E+03  0.60068291080E+03 0.  0.
        4    1    3    3  502    0 -0.22577177059E+03 -0.19645982426E+03  0.29920663486E+03  0.42319685512E+03  0.12699999809E+01 0. -1.
       -4    1    3    3    0  502  0.22577177059E+03  0.19645982426E+03  0.23198088442E+03  0.37866356912E+03  0.12699999809E+01 0.  1.
</event>
<event>
 5   0  0.3651984E-02  0.6046113E+03  0.7818609E-02  0.9895885E-01
        1   -1    0    0  501    0  0.00000000000E+00  0.00000000000E+00  0.42791579707E+03  0.42791579710E+03  0.50400001928E-02 0. -1.
       -1   -1    0    0    0  501  0.00000000000E+00  0.00000000000E+00 -0.21356705577E+03  0.21356705583E+03  0.50400001928E-02 0.  1.
    10030    2    1    2    0    0  0.00000000000E+00  0.00000000000E+00  0.21434874130E+03  0.64148285293E+03  0.60461133607E+03 0.  0.
        1    1    3    3  502    0  0.16349787126E+03 -0.23001532802E+03  0.22218282506E+03  0.35917100775E+03  0.50400001928E-02 0. -1.
       -1    1    3    3    0  502 -0.16349787126E+03  0.23001532802E+03 -0.78340837628E+01  0.28231184517E+03  0.50400001928E-02 0.  1.
</event>
<event>
 5   0  0.3703280E-02  0.5995029E+03  0.7818609E-02  0.9906438E-01
        1   -1    0    0  501    0  0.00000000000E+00  0.00000000000E+00  0.20580118856E+04  0.20580118856E+04  0.50400001928E-02 0. -1.
       -1   -1    0    0    0  501  0.00000000000E+00  0.00000000000E+00 -0.43659095284E+02  0.43659095575E+02  0.50400001928E-02 0.  1.
    10030    2    1    2    0    0  0.00000000000E+00  0.00000000000E+00  0.20143527903E+04  0.21016709812E+04  0.59950291849E+03 0.  0.
        5    1    3    3  502    0  0.19695022002E+03  0.66537936949E+00  0.21517751035E+03  0.29174180855E+03  0.46999998093E+01 0. -1.
       -5    1    3    3    0  502 -0.19695022002E+03 -0.66537936949E+00  0.17991752800E+04  0.18099291726E+04  0.46999998093E+01 0.  1.
</event>
<event>
 5   0  0.6007360E-02  0.5979127E+03  0.7818609E-02  0.9909746E-01
        2   -1    0    0  501    0  0.00000000000E+00  0.00000000000E+00  0.23693132930E+04  0.23693132930E+04  0.25500000920E-02 0. -1.
       -2   -1    0    0    0  501  0.00000000000E+00  0.00000000000E+00 -0.37721857818E+02  0.37721857905E+02  0.25500000920E-02 0.  1.
    10030    2    1    2    0    0  0.00000000000E+00  0.00000000000E+00  0.23315914352E+04  0.24070351509E+04  0.59791270022E+03 0.  0.
        4    1    3    3  502    0 -0.15001741649E+03  0.12129796391E+03  0.24642203604E+03  0.31295982817E+03  0.12699999809E+01 0.  1.
       -4    1    3    3    0  502  0.15001741649E+03 -0.12129796391E+03  0.20851693992E+04  0.20940753228E+04  0.12699999809E+01 0. -1.
</event>
<event>
 5   0  0.5755078E-02  0.5993542E+03  0.7818609E-02  0.9906747E-01
        2   -1    0    0  501    0  0.00000000000E+00  0.00000000000E+00  0.70624149474E+03  0.70624149474E+03  0.25500000920E-02 0.  1.
       -2   -1    0    0    0  501  0.00000000000E+00  0.00000000000E+00 -0.12716096557E+03  0.12716096559E+03  0.25500000920E-02 0. -1.
    10030    2    1    2    0    0  0.00000000000E+00  0.00000000000E+00  0.57908052917E+03  0.83340246034E+03  0.59935415376E+03 0.  0.
        2    1    3    3  502    0  0.14304940587E+03 -0.23201220958E+03  0.46273189012E+03  0.53704152545E+03  0.25500000920E-02 0.  1.
       -2    1    3    3    0  502 -0.14304940587E+03  0.23201220958E+03  0.11634863905E+03  0.29636093489E+03  0.25500000920E-02 0. -1.
</event>
<event>
 5   0  0.3703280E-02  0.5805547E+03  0.7818609E-02  0.9946591E-01
        1   -1    0    0  501    0  0.00000000000E+00  0.00000000000E+00  0.62166629277E+03  0.62166629279E+03  0.50400001928E-02 0.  1.
       -1   -1    0    0    0  501  0.00000000000E+00  0.00000000000E+00 -0.13554048521E+03  0.13554048531E+03  0.50400001928E-02 0. -1.
    10030    2    1    2    0    0  0.00000000000E+00  0.00000000000E+00  0.48612580756E+03  0.75720677810E+03  0.58055473818E+03 0.  0.
        5    1    3    3  502    0 -0.25914653806E+03  0.12864268170E+03  0.21295141841E+03  0.35927185298E+03  0.46999998093E+01 0. -1.
       -5    1    3    3    0  502  0.25914653806E+03 -0.12864268170E+03  0.27317438915E+03  0.39793492512E+03  0.46999998093E+01 0.  1.
</event>
<event>
 5   0  0.3651984E-02  0.6093551E+03  0.7818609E-02  0.9886185E-01
       -1   -1    0    0    0  501  0.00000000000E+00  0.00000000000E+00  0.24754168766E+03  0.24754168772E+03  0.50400001928E-02 0.  1.
        1   -1    0    0  501    0  0.00000000000E+00  0.00000000000E+00 -0.37500105751E+03  0.37500105755E+03  0.50400001928E-02 0. -1.
    10030    2    1    2    0    0  0.00000000000E+00  0.00000000000E+00 -0.12745936985E+03  0.62254274526E+03  0.60935505144E+03 0.  0.
        1    1    3    3  502    0 -0.25279031023E+03 -0.19651699129E+01  0.11001433155E+03  0.27569903158E+03  0.50400001928E-02 0.  1.
       -1    1    3    3    0  502  0.25279031023E+03  0.19651699129E+01 -0.23747370140E+03  0.34684371369E+03  0.50400001928E-02 0. -1.
</event>
<event>
 5   0  0.5935451E-02  0.6014985E+03  0.7818609E-02  0.9902302E-01
        2   -1    0    0  501    0  0.00000000000E+00  0.00000000000E+00  0.35949304385E+03  0.35949304386E+03  0.25500000920E-02 0. -1.
       -2   -1    0    0    0  501  0.00000000000E+00  0.00000000000E+00 -0.25160460937E+03  0.25160460938E+03  0.25500000920E-02 0.  1.
    10030    2    1    2    0    0  0.00000000000E+00  0.00000000000E+00  0.10788843448E+03  0.61109765324E+03  0.60149848504E+03 0.  0.
        3    1    3    3  502    0  0.86101700456E+01  0.29449355717E+03 -0.74310144827E+01  0.29471311545E+03  0.10100000352E+00 0. -1.
       -3    1    3    3    0  502 -0.86101700456E+01 -0.29449355717E+03  0.11531944896E+03  0.31638453779E+03  0.10100000352E+00 0.  1.
</event>
<event>
 5   0  0.6007360E-02  0.5896826E+03  0.7818609E-02  0.9927046E-01
        2   -1    0    0  501    0  0.00000000000E+00  0.00000000000E+00  0.42392119459E+03  0.42392119460E+03  0.25500000920E-02 0.  1.
       -2   -1    0    0    0  501  0.00000000000E+00  0.00000000000E+00 -0.20506500053E+03  0.20506500054E+03  0.25500000920E-02 0. -1.
    10030    2    1    2    0    0  0.00000000000E+00  0.00000000000E+00  0.21885619407E+03  0.62898619514E+03  0.58968262650E+03 0.  0.
        4    1    3    3  502    0  0.98429337845E+02  0.27762598546E+03  0.12314047869E+03  0.31926433053E+03  0.12699999809E+01 0. -1.
       -4    1    3    3    0  502 -0.98429337845E+02 -0.27762598546E+03  0.95715715375E+02  0.30972186462E+03  0.12699999809E+01 0.  1.
</event>
<event>
 5   0  0.6007360E-02  0.6057383E+03  0.7818609E-02  0.9893572E-01
       -2   -1    0    0    0  501  0.00000000000E+00  0.00000000000E+00  0.89490736350E+02  0.89490736387E+02  0.25500000920E-02 0. -1.
        2   -1    0    0  501    0  0.00000000000E+00  0.00000000000E+00 -0.10250191726E+04  0.10250191726E+04  0.25500000920E-02 0.  1.
    10030    2    1    2    0    0  0.00000000000E+00  0.00000000000E+00 -0.93552843621E+03  0.11145099090E+04  0.60573829513E+03 0.  0.
        4    1    3    3  502    0 -0.71128501316E+02 -0.98353519047E+02  0.42777664428E+02  0.12870205858E+03  0.12699999809E+01 0. -1.
       -4    1    3    3    0  502  0.71128501316E+02  0.98353519047E+02 -0.97830610064E+03  0.98580785037E+03  0.12699999809E+01 0.  1.
</event>
<event>
 5   0  0.3640827E-02  0.5965500E+03  0.7818609E-02  0.9912590E-01
       -1   -1    0    0    0  501  0.00000000000E+00  0.00000000000E+00  0.48922158531E+03  0.48922158534E+03  0.50400001928E-02 0.  1.
        1   -1    0    0  501    0  0.00000000000E+00  0.00000000000E+00 -0.18185620896E+03  0.18185620903E+03  0.50400001928E-02 0. -1.
    10030    2    1    2    0    0  0.00000000000E+00  0.00000000000E+00  0.30736537636E+03  0.67107779437E+03  0.59655002432E+03 0.  0.
        3    1    3    3  502    0  0.65162850819E+02 -0.25859700303E+03  0.33901590084E+01  0.26670228811E+03  0.10100000352E+00 0. -1.
       -3    1    3    3    0  502 -0.65162850819E+02  0.25859700303E+03  0.30397521735E+03  0.40437550626E+03  0.10100000352E+00 0.  1.
</event>
<event>
 5   0  0.3640827E-02  0.5883399E+03  0.7818609E-02  0.9929897E-01
        1   -1    0    0  501    0  0.00000000000E+00  0.00000000000E+00  0.85636831476E+03  0.85636831477E+03  0.50400001928E-02 0.  1.
       -1   -1    0    0    0  501  0.00000000000E+00  0.00000000000E+00 -0.10104991786E+03  0.10104991798E+03  0.50400001928E-02 0. -1.
    10030    2    1    2    0    0  0.00000000000E+00  0.00000000000E+00  0.75531839690E+03  0.95741823276E+03  0.58833986073E+03 0.  0.
        3    1    3    3  502    0 -0.27950639902E+03  0.68704537509E+02  0.47653552795E+03  0.55671380454E+03  0.10100000352E+00 0. -1.
       -3    1    3    3    0  502  0.27950639902E+03 -0.68704537509E+02  0.27878286895E+03  0.40070442822E+03  0.10100000352E+00 0.  1.
</event>
<event>
 5   0  0.3651984E-02  0.5998390E+03  0.7818609E-02  0.9905740E-01
        1   -1    0    0  501    0  0.00000000000E+00  0.00000000000E+00  0.50212165636E+03  0.50212165639E+03  0.50400001928E-02 0.  1.
       -1   -1    0    0    0  501  0.00000000000E+00  0.00000000000E+00 -0.17914326340E+03  0.17914326347E+03  0.50400001928E-02 0. -1.
    10030    2    1    2    0    0  0.00000000000E+00  0.00000000000E+00  0.32297839296E+03  0.68126491986E+03  0.59983901900E+03 0.  0.
        1    1    3    3  502    0  0.82530865673E+02  0.13616294583E+03  0.45015653081E+03  0.47748570017E+03  0.50400001928E-02 0.  1.
       -1    1    3    3    0  502 -0.82530865673E+02 -0.13616294583E+03 -0.12717813785E+03  0.20377921969E+03  0.50400001928E-02 0. -1.
</event>
<event>
 5   0  0.2388000E-02  0.5951073E+03  0.7818609E-02  0.9915609E-01
        4   -1    0    0  501    0  0.00000000000E+00  0.00000000000E+00  0.25125520996E+03  0.25125841963E+03  0.12699999809E+01 0.  1.
       -4   -1    0    0    0  501  0.00000000000E+00  0.00000000000E+00 -0.35237682139E+03  0.35237910998E+03  0.12699999809E+01 0. -1.
    10030    2    1    2    0    0  0.00000000000E+00  0.00000000000E+00 -0.10112161142E+03  0.60363752961E+03  0.59510729020E+03 0.  0.
        1    1    3    3  502    0  0.17870263312E+03 -0.15456202390E+03  0.13290223739E+03  0.27108495909E+03  0.50400001928E-02 0.  1.
       -1    1    3    3    0  502 -0.17870263312E+03  0.15456202390E+03 -0.23402384881E+03  0.33255257052E+03  0.50400001928E-02 0. -1.
</event>
<event>
 5   0  0.5935451E-02  0.6029035E+03  0.7818609E-02  0.9899400E-01
       -2   -1    0    0    0  501  0.00000000000E+00  0.00000000000E+00  0.12129613547E+03  0.12129613549E+03  0.25500000920E-02 0. -1.
        2   -1    0    0  501    0  0.00000000000E+00  0.00000000000E+00 -0.74918434446E+03  0.74918434446E+03  0.25500000920E-02 0.  1.
    10030    2    1    2    0    0  0.00000000000E+00  0.00000000000E+00 -0.62788820899E+03  0.87048047996E+03  0.60290352710E+03 0.  0.
        3    1    3    3  502    0 -0.25528032374E+02  0.92223390939E+02  0.98785494746E+02  0.13753333576E+03  0.10100000352E+00 0. -1.
       -3    1    3    3    0  502  0.25528032374E+02 -0.92223390939E+02 -0.72667370374E+03  0.73294714419E+03  0.10100000352E+00 0.  1.
</event>
<event>
 5   0  0.5935451E-02  0.5918706E+03  0.7818609E-02  0.9922417E-01
       -2   -1    0    0    0  501  0.00000000000E+00  0.00000000000E+00  0.11819895695E+03  0.11819895698E+03  0.25500000920E-02 0.  1.
        2   -1    0    0  501    0  0.00000000000E+00  0.00000000000E+00 -0.74093461758E+03  0.74093461758E+03  0.25500000920E-02 0. -1.
    10030    2    1    2    0    0  0.00000000000E+00  0.00000000000E+00 -0.62273566063E+03  0.85913357456E+03  0.59187059052E+03 0.  0.
        3    1    3    3  502    0 -0.95878237615E+02 -0.14114048720E+03  0.39610040931E+02  0.17516346399E+03  0.10100000352E+00 0.  1.
       -3    1    3    3    0  502  0.95878237615E+02  0.14114048720E+03 -0.66234570156E+03  0.68397011057E+03  0.10100000352E+00 0. -1.
</event>
<event>
 5   0  0.2388000E-02  0.6018104E+03  0.7818609E-02  0.9901657E-01
       -3   -1    0    0    0  501  0.00000000000E+00  0.00000000000E+00  0.69827106372E+02  0.69827179417E+02  0.10100000352E+00 0.  1.
        3   -1    0    0  501    0  0.00000000000E+00  0.00000000000E+00 -0.12966869172E+04  0.12966869211E+04  0.10100000352E+00 0. -1.
    10030    2    1    2    0    0  0.00000000000E+00  0.00000000000E+00 -0.12268598108E+04  0.13665141006E+04  0.60181042828E+03 0.  0.
        1    1    3    3  502    0  0.14223065639E+03 -0.90207829484E+02 -0.11796288636E+04  0.11915919049E+04  0.50400001928E-02 0. -1.
       -1    1    3    3    0  502 -0.14223065639E+03  0.90207829484E+02 -0.47230947266E+02  0.17492219562E+03  0.50400001928E-02 0.  1.
</event>
<event>
 5   0  0.3640827E-02  0.6073413E+03  0.7818609E-02  0.9890291E-01
        1   -1    0    0  501    0  0.00000000000E+00  0.00000000000E+00  0.64369803733E+03  0.64369803735E+03  0.50400001928E-02 0. -1.
       -1   -1    0    0    0  501  0.00000000000E+00  0.00000000000E+00 -0.14325950035E+03  0.14325950044E+03  0.50400001928E-02 0.  1.
    10030    2    1    2    0    0  0.00000000000E+00  0.00000000000E+00  0.50043853697E+03  0.78695753779E+03  0.60734128544E+03 0.  0.
        3    1    3    3  502    0 -0.16660246054E+03  0.12195340697E+03 -0.38317851796E+02  0.20999352680E+03  0.10100000352E+00 0.  1.
       -3    1    3    3    0  502  0.16660246054E+03 -0.12195340697E+03  0.53875638877E+03  0.57696401098E+03  0.10100000352E+00 0. -1.
</event>
<event>
 5   0  0.5755078E-02  0.5994139E+03  0.7818609E-02  0.9906623E-01
       -2   -1    0    0    0  501  0.00000000000E+00  0.00000000000E+00  0.30743662114E+03  0.30743662115E+03  0.25500000920E-02 0.  1.
        2   -1    0    0  501    0  0.00000000000E+00  0.00000000000E+00 -0.29217160969E+03  0.29217160970E+03  0.25500000920E-02 0. -1.
    10030    2    1    2    0    0  0.00000000000E+00  0.00000000000E+00  0.15265011448E+02  0.59960823084E+03  0.59941388866E+03 0.  0.
        2    1    3    3  502    0  0.70748886370E+02 -0.28949009484E+03 -0.24226407992E+02  0.29899304136E+03  0.25500000920E-02 0.  1.
       -2    1    3    3    0  502 -0.70748886370E+02  0.28949009484E+03  0.39491419440E+02  0.30061518948E+03  0.25500000920E-02 0. -1.
</event>
<event>
 5   0  0.5872632E-02  0.6000689E+03  0.7818609E-02  0.9905263E-01
       -2   -1    0    0    0  501  0.00000000000E+00  0.00000000000E+00  0.13109817460E+03  0.13109817462E+03  0.25500000920E-02 0.  1.
        2   -1    0    0  501    0  0.00000000000E+00  0.00000000000E+00 -0.68666599279E+03  0.68666599280E+03  0.25500000920E-02 0. -1.
    10030    2    1    2    0    0  0.00000000000E+00  0.00000000000E+00 -0.55556781819E+03  0.81776416742E+03  0.60006885679E+03 0.  0.
        1    1    3    3  502    0  0.16612088954E+03 -0.15945207747E+03 -0.15648813059E+02  0.23079428140E+03  0.50400001928E-02 0.  1.
       -1    1    3    3    0  502 -0.16612088954E+03  0.15945207747E+03 -0.53991900514E+03  0.58696988601E+03  0.50400001928E-02 0. -1.
</event>
<event>
 5   0  0.6007360E-02  0.5987664E+03  0.7818609E-02  0.9907969E-01
       -2   -1    0    0    0  501  0.00000000000E+00  0.00000000000E+00  0.87208020415E+02  0.87208020452E+02  0.25500000920E-02 0. -1.
        2   -1    0    0  501    0  0.00000000000E+00  0.00000000000E+00 -0.10277760438E+04  0.10277760438E+04  0.25500000920E-02 0.  1.
    10030    2    1    2    0    0  0.00000000000E+00  0.00000000000E+00 -0.94056802334E+03  0.11149840642E+04  0.59876644605E+03 0.  0.
        4    1    3    3  502    0  0.74640158148E+01  0.17287676948E+03 -0.15348676259E+02  0.17372185735E+03  0.12699999809E+01 0. -1.
       -4    1    3    3    0  502 -0.74640158148E+01 -0.17287676948E+03 -0.92521934709E+03  0.94126220687E+03  0.12699999809E+01 0.  1.
</event>
<event>
 5   0  0.2388000E-02  0.5982476E+03  0.7818609E-02  0.9909048E-01
       -3   -1    0    0    0  501  0.00000000000E+00  0.00000000000E+00  0.51663930247E+03  0.51663931234E+03  0.10100000352E+00 0.  1.
        3   -1    0    0  501    0  0.00000000000E+00  0.00000000000E+00 -0.17318665266E+03  0.17318668211E+03  0.10100000352E+00 0. -1.
    10030    2    1    2    0    0  0.00000000000E+00  0.00000000000E+00  0.34345264981E+03  0.68982599445E+03  0.59824759085E+03 0.  0.
        1    1    3    3  502    0  0.12163841964E+03 -0.22805755437E+03  0.34533592688E+03  0.43135027026E+03  0.50400001928E-02 0.  1.
       -1    1    3    3    0  502 -0.12163841964E+03  0.22805755437E+03 -0.18832770696E+01  0.25847572419E+03  0.50400001928E-02 0. -1.
</event>
<event>
 5   0  0.3703280E-02  0.6013838E+03  0.7818609E-02  0.9902539E-01
        1   -1    0    0  501    0  0.00000000000E+00  0.00000000000E+00  0.75488362834E+03  0.75488362836E+03  0.50400001928E-02 0. -1.
       -1   -1    0    0    0  501  0.00000000000E+00  0.00000000000E+00 -0.11977424083E+03  0.11977424094E+03  0.50400001928E-02 0.  1.
    10030    2    1    2    0    0  0.00000000000E+00  0.00000000000E+00  0.63510938751E+03  0.87465786929E+03  0.60138378280E+03 0.  0.
        5    1    3    3  502    0 -0.92184623304E+02 -0.30604731809E+02 -0.96272200796E+02  0.13683961790E+03  0.46999998093E+01 0.  1.
       -5    1    3    3    0  502  0.92184623304E+02  0.30604731809E+02  0.73138158830E+03  0.73781825139E+03  0.46999998093E+01 0. -1.
</event>
<event>
 5   0  0.5872632E-02  0.5986764E+03  0.7818609E-02  0.9908156E-01
       -2   -1    0    0    0  501  0.00000000000E+00  0.00000000000E+00  0.16240481963E+03  0.16240481965E+03  0.25500000920E-02 0. -1.
        2   -1    0    0  501    0  0.00000000000E+00  0.00000000000E+00 -0.55172852883E+03  0.55172852883E+03  0.25500000920E-02 0.  1.
    10030    2    1    2    0    0  0.00000000000E+00  0.00000000000E+00 -0.38932370920E+03  0.71413334848E+03  0.59867644757E+03 0.  0.
        1    1    3    3  502    0  0.63952952905E+02 -0.20711096197E+03 -0.44091734546E+03  0.49131765316E+03  0.50400001928E-02 0.  1.
       -1    1    3    3    0  502 -0.63952952905E+02  0.20711096197E+03  0.51593636264E+02  0.22281569532E+03  0.50400001928E-02 0. -1.
</event>
<event>
 5   0  0.5935451E-02  0.6200376E+03  0.7818609E-02  0.9864685E-01
       -2   -1    0    0    0  501  0.00000000000E+00  0.00000000000E+00  0.10975931373E+03  0.10975931376E+03  0.25500000920E-02 0. -1.
        2   -1    0    0  501    0  0.00000000000E+00  0.00000000000E+00 -0.87565826301E+03  0.87565826302E+03  0.25500000920E-02 0.  1.
    10030    2    1    2    0    0  0.00000000000E+00  0.00000000000E+00 -0.76589894928E+03  0.98541757677E+03  0.62003757958E+03 0.  0.
        3    1    3    3  502    0  0.25158111390E+02  0.17668892535E+03  0.19926853527E+02  0.17958005625E+03  0.10100000352E+00 0. -1.
       -3    1    3    3    0  502 -0.25158111390E+02 -0.17668892535E+03 -0.78582580281E+03  0.80583752052E+03  0.10100000352E+00 0.  1.
</event>
<event>
 5   0  0.3478183E-02  0.6023584E+03  0.7818609E-02  0.9900525E-01
       -1   -1    0    0    0  501  0.00000000000E+00  0.00000000000E+00  0.30161218313E+03  0.30161218317E+03  0.50400001928E-02 0. -1.
        1   -1    0    0  501    0  0.00000000000E+00  0.00000000000E+00 -0.30074687918E+03  0.30074687922E+03  0.50400001928E-02 0.  1.
    10030    2    1    2    0    0  0.00000000000E+00  0.00000000000E+00  0.86530394989E+00  0.60235906240E+03  0.60235844088E+03 0.  0.
        4    1    3    3  502    0 -0.24490948320E+03  0.17488428434E+03  0.12354998439E+02  0.30119665795E+03  0.12699999809E+01 0. -1.
       -4    1    3    3    0  502  0.24490948320E+03 -0.17488428434E+03 -0.11489694489E+02  0.30116240445E+03  0.12699999809E+01 0.  1.
</event>
<event>
 5   0  0.2388000E-02  0.5926472E+03  0.7818609E-02  0.9920779E-01
       -3   -1    0    0    0  501  0.00000000000E+00  0.00000000000E+00  0.26631428170E+03  0.26631430085E+03  0.10100000352E+00 0. -1.
        3   -1    0    0  501    0  0.00000000000E+00  0.00000000000E+00 -0.32971449559E+03  0.32971451106E+03  0.10100000352E+00 0.  1.
    10030    2    1    2    0    0  0.00000000000E+00  0.00000000000E+00 -0.63400213892E+02  0.59602881191E+03  0.59264724542E+03 0.  0.
        5    1    3    3  502    0  0.65600261397E+02  0.27985024953E+03  0.40585193224E+02  0.29032534227E+03  0.46999998093E+01 0. -1.
       -5    1    3    3    0  502 -0.65600261397E+02 -0.27985024953E+03 -0.10398540712E+03  0.30570346964E+03  0.46999998093E+01 0.  1.
</event>
<event>
 5   0  0.5999117E-02  0.6001413E+03  0.7818609E-02  0.9905113E-01
       -2   -1    0    0    0  501  0.00000000000E+00  0.00000000000E+00  0.56527723432E+02  0.56527723490E+02  0.25500000920E-02 0.  1.
        2   -1    0    0  501    0  0.00000000000E+00  0.00000000000E+00 -0.15928893487E+04  0.15928893487E+04  0.25500000920E-02 0. -1.
    10030    2    1    2    0    0  0.00000000000E+00  0.00000000000E+00 -0.15363616252E+04  0.16494170722E+04  0.60014134538E+03 0.  0.
        5    1    3    3  502    0 -0.51245877177E+02  0.18217957223E+03 -0.14080566921E+04  0.14207256156E+04  0.46999998093E+01 0. -1.
       -5    1    3    3    0  502  0.51245877177E+02 -0.18217957223E+03 -0.12830493312E+03  0.22869145661E+03  0.46999998093E+01 0.  1.
</event>
<event>
 5   0  0.5755078E-02  0.5989142E+03  0.7818609E-02  0.9907661E-01
       -2   -1    0    0    0  501  0.00000000000E+00  0.00000000000E+00  0.14559138190E+03  0.14559138192E+03  0.25500000920E-02 0.  1.
        2   -1    0    0  501    0  0.00000000000E+00  0.00000000000E+00 -0.61593313687E+03  0.61593313688E+03  0.25500000920E-02 0. -1.
    10030    2    1    2    0    0  0.00000000000E+00  0.00000000000E+00 -0.47034175498E+03  0.76152451880E+03  0.59891420609E+03 0.  0.
        2    1    3    3  502    0 -0.18491586755E+03 -0.20975078302E+03 -0.98904028982E+02  0.29659952125E+03  0.25500000920E-02 0.  1.
       -2    1    3    3    0  502  0.18491586755E+03  0.20975078302E+03 -0.37143772600E+03  0.46492499755E+03  0.25500000920E-02 0. -1.
</event>
<event>
 5   0  0.5755078E-02  0.5914139E+03  0.7818609E-02  0.9923381E-01
        2   -1    0    0  501    0  0.00000000000E+00  0.00000000000E+00  0.49391608372E+03  0.49391608372E+03  0.25500000920E-02 0. -1.
       -2   -1    0    0    0  501  0.00000000000E+00  0.00000000000E+00 -0.17703936730E+03  0.17703936732E+03  0.25500000920E-02 0.  1.
    10030    2    1    2    0    0  0.00000000000E+00  0.00000000000E+00  0.31687671642E+03  0.67095545104E+03  0.59141386852E+03 0.  0.
        2    1    3    3  502    0 -0.81949726153E+02  0.14473339944E+03  0.43581940430E+03  0.46647836788E+03  0.25500000920E-02 0. -1.
       -2    1    3    3    0  502  0.81949726153E+02 -0.14473339944E+03 -0.11894268788E+03  0.20447708316E+03  0.25500000920E-02 0.  1.
</event>
<event>
 5   0  0.3640827E-02  0.6038205E+03  0.7818609E-02  0.9897511E-01
       -1   -1    0    0    0  501  0.00000000000E+00  0.00000000000E+00  0.51277539722E+02  0.51277539970E+02  0.50400001928E-02 0.  1.
        1   -1    0    0  501    0  0.00000000000E+00  0.00000000000E+00 -0.17775773909E+04  0.17775773909E+04  0.50400001928E-02 0. -1.
    10030    2    1    2    0    0  0.00000000000E+00  0.00000000000E+00 -0.17262998512E+04  0.18288549309E+04  0.60382048824E+03 0.  0.
        3    1    3    3  502    0  0.14212148856E+03  0.21603119710E+03 -0.13351170618E+04  0.13599285181E+04  0.10100000352E+00 0. -1.
       -3    1    3    3    0  502 -0.14212148856E+03 -0.21603119710E+03 -0.39118278943E+03  0.46892641275E+03  0.10100000352E+00 0.  1.
</event>
<event>
 5   0  0.3767635E-02  0.5981697E+03  0.7818609E-02  0.9909211E-01
        1   -1    0    0  501    0  0.00000000000E+00  0.00000000000E+00  0.91551995944E+03  0.91551995945E+03  0.50400001928E-02 0.  1.
       -1   -1    0    0    0  501  0.00000000000E+00  0.00000000000E+00 -0.97705953355E+02  0.97705953485E+02  0.50400001928E-02 0. -1.
    10030    2    1    2    0    0  0.00000000000E+00  0.00000000000E+00  0.81781400608E+03  0.10132259129E+04  0.59816971012E+03 0.  0.
        2    1    3    3  502    0 -0.16926652129E+03 -0.14313504861E+02 -0.80611074268E+01  0.17006179204E+03  0.25500000920E-02 0. -1.
       -2    1    3    3    0  502  0.16926652129E+03  0.14313504861E+02  0.82587511351E+03  0.84316412090E+03  0.25500000920E-02 0.  1.
</event>
<event>
 5   0  0.5872632E-02  0.6284072E+03  0.7818609E-02  0.9848162E-01
        2   -1    0    0  501    0  0.00000000000E+00  0.00000000000E+00  0.11398325078E+04  0.11398325078E+04  0.25500000920E-02 0. -1.
       -2   -1    0    0    0  501  0.00000000000E+00  0.00000000000E+00 -0.86612634552E+02  0.86612634589E+02  0.25500000920E-02 0.  1.
    10030    2    1    2    0    0  0.00000000000E+00  0.00000000000E+00  0.10532198732E+04  0.12264451424E+04  0.62840718160E+03 0.  0.
        1    1    3    3  502    0  0.28456778464E+03 -0.19363589952E+02  0.26938773899E+03  0.39233088919E+03  0.50400001928E-02 0.  1.
       -1    1    3    3    0  502 -0.28456778464E+03  0.19363589952E+02  0.78383213424E+03  0.83411425318E+03  0.50400001928E-02 0. -1.
</event>
<event>
 5   0  0.2388000E-02  0.6027749E+03  0.7818609E-02  0.9899666E-01
        4   -1    0    0  501    0  0.00000000000E+00  0.00000000000E+00  0.10286617648E+04  0.10286625488E+04  0.12699999809E+01 0.  1.
       -4   -1    0    0    0  501  0.00000000000E+00  0.00000000000E+00 -0.88298074898E+02  0.88307207694E+02  0.12699999809E+01 0. -1.
    10030    2    1    2    0    0  0.00000000000E+00  0.00000000000E+00  0.94036368990E+03  0.11169697565E+04  0.60277488965E+03 0.  0.
        4    1    3    3  502    0  0.16004791027E+03 -0.15805088275E+03  0.98474603291E+02  0.24554892692E+03  0.12699999809E+01 0. -1.
       -4    1    3    3    0  502 -0.16004791027E+03  0.15805088275E+03  0.84188908661E+03  0.87142082955E+03  0.12699999809E+01 0.  1.
</event>
<event>
 5   0  0.3703280E-02  0.5832916E+03  0.7818609E-02  0.9940690E-01
        1   -1    0    0  501    0  0.00000000000E+00  0.00000000000E+00  0.83298745450E+03  0.83298745451E+03  0.50400001928E-02 0.  1.
       -1   -1    0    0    0  501  0.00000000000E+00  0.00000000000E+00 -0.10211111497E+03  0.10211111509E+03  0.50400001928E-02 0. -1.
    10030    2    1    2    0    0  0.00000000000E+00  0.00000000000E+00  0.73087633953E+03  0.93509856961E+03  0.58329161763E+03 0.  0.
        5    1    3    3  502    0 -0.21945466439E+03  0.14788830468E+03  0.56180745337E+03  0.62103220934E+03  0.46999998093E+01 0.  1.
       -5    1    3    3    0  502  0.21945466439E+03 -0.14788830468E+03  0.16906888616E+03  0.31406636026E+03  0.46999998093E+01 0. -1.
</event>
<event>
 5   0  0.5999117E-02  0.6009852E+03  0.7818609E-02  0.9903364E-01
        2   -1    0    0  501    0  0.00000000000E+00  0.00000000000E+00  0.19911965348E+03  0.19911965350E+03  0.25500000920E-02 0.  1.
       -2   -1    0    0    0  501  0.00000000000E+00  0.00000000000E+00 -0.45347514248E+03  0.45347514249E+03  0.25500000920E-02 0. -1.
    10030    2    1    2    0    0  0.00000000000E+00  0.00000000000E+00 -0.25435548899E+03  0.65259479599E+03  0.60098523523E+03 0.  0.
        5    1    3    3  502    0 -0.84566567436E+02 -0.28006140858E+03 -0.20152510609E+03  0.35527504175E+03  0.46999998093E+01 0. -1.
       -5    1    3    3    0  502  0.84566567436E+02  0.28006140858E+03 -0.52830382901E+02  0.29731975424E+03  0.46999998093E+01 0.  1.
</event>
<event>
 5   0  0.2388000E-02  0.5843571E+03  0.7818609E-02  0.9938402E-01
        4   -1    0    0  501    0  0.00000000000E+00  0.00000000000E+00  0.17097978493E+03  0.17098450151E+03  0.12699999809E+01 0.  1.
       -4   -1    0    0    0  501  0.00000000000E+00  0.00000000000E+00 -0.49927644835E+03  0.49927806358E+03  0.12699999809E+01 0. -1.
    10030    2    1    2    0    0  0.00000000000E+00  0.00000000000E+00 -0.32829666341E+03  0.67026256509E+03  0.58435708856E+03 0.  0.
        1    1    3    3  502    0 -0.10351007760E+03 -0.24137406643E+03 -0.17293045852E+02  0.26320111240E+03  0.50400001928E-02 0.  1.
       -1    1    3    3    0  502  0.10351007760E+03  0.24137406643E+03 -0.31100361756E+03  0.40706145269E+03  0.50400001928E-02 0. -1.
</event>
<event>
 5   0  0.3640827E-02  0.6219670E+03  0.7818609E-02  0.9860851E-01
        1   -1    0    0  501    0  0.00000000000E+00  0.00000000000E+00  0.15229501138E+04  0.15229501138E+04  0.50400001928E-02 0.  1.
       -1   -1    0    0    0  501  0.00000000000E+00  0.00000000000E+00 -0.63502238315E+02  0.63502238515E+02  0.50400001928E-02 0. -1.
    10030    2    1    2    0    0  0.00000000000E+00  0.00000000000E+00  0.14594478755E+04  0.15864523523E+04  0.62196701274E+03 0.  0.
        3    1    3    3  502    0 -0.37069906808E+02 -0.30843087346E+03  0.69303022098E+03  0.75946999880E+03  0.10100000352E+00 0.  1.
       -3    1    3    3    0  502  0.37069906808E+02  0.30843087346E+03  0.76641765450E+03  0.82698235352E+03  0.10100000352E+00 0. -1.
</event>
<event>
 5   0  0.3640827E-02  0.6033083E+03  0.7818609E-02  0.9898566E-01
       -1   -1    0    0    0  501  0.00000000000E+00  0.00000000000E+00  0.47928610840E+03  0.47928610843E+03  0.50400001928E-02 0.  1.
        1   -1    0    0  501    0  0.00000000000E+00  0.00000000000E+00 -0.18985577369E+03  0.18985577376E+03  0.50400001928E-02 0. -1.
    10030    2    1    2    0    0  0.00000000000E+00  0.00000000000E+00  0.28943033471E+03  0.66914188218E+03  0.60330832900E+03 0.  0.
        3    1    3    3  502    0  0.13952763188E+03 -0.11748484527E+03 -0.12176154876E+03  0.21930921978E+03  0.10100000352E+00 0. -1.
       -3    1    3    3    0  502 -0.13952763188E+03  0.11748484527E+03  0.41119188347E+03  0.44983266240E+03  0.10100000352E+00 0.  1.
</event>
<event>
 5   0  0.5755078E-02  0.6005733E+03  0.7818609E-02  0.9904217E-01
        2   -1    0    0  501    0  0.00000000000E+00  0.00000000000E+00  0.19826729423E+04  0.19826729423E+04  0.25500000920E-02 0.  1.
       -2   -1    0    0    0  501  0.00000000000E+00  0.00000000000E+00 -0.45480046696E+02  0.45480046767E+02  0.25500000920E-02 0. -1.
    10030    2    1    2    0    0  0.00000000000E+00  0.00000000000E+00  0.19371928956E+04  0.20281529891E+04  0.60057325306E+03 0.  0.
        2    1    3    3  502    0 -0.11814764549E+02 -0.41805757797E+02 -0.34811568029E+02  0.55670057674E+02  0.25500000920E-02 0. -1.
       -2    1    3    3    0  502  0.11814764549E+02  0.41805757797E+02  0.19720044636E+04  0.19724829314E+04  0.25500000920E-02 0.  1.
</event>
<event>
 5   0  0.5872632E-02  0.5460213E+03  0.7818609E-02  0.1002419E+00
       -2   -1    0    0    0  501  0.00000000000E+00  0.00000000000E+00  0.95569672317E+02  0.95569672351E+02  0.25500000920E-02 0.  1.
        2   -1    0    0  501    0  0.00000000000E+00  0.00000000000E+00 -0.77990034187E+03  0.77990034188E+03  0.25500000920E-02 0. -1.
    10030    2    1    2    0    0  0.00000000000E+00  0.00000000000E+00 -0.68433066956E+03  0.87547001423E+03  0.54602131874E+03 0.  0.
        1    1    3    3  502    0  0.68007899904E+02  0.22105644751E+03 -0.57475675110E+03  0.61954527712E+03  0.50400001928E-02 0. -1.
       -1    1    3    3    0  502 -0.68007899904E+02 -0.22105644751E+03 -0.10957391845E+03  0.25592473711E+03  0.50400001928E-02 0.  1.
</event>
<event>
 5   0  0.3651984E-02  0.6022794E+03  0.7818609E-02  0.9900688E-01
        1   -1    0    0  501    0  0.00000000000E+00  0.00000000000E+00  0.16064647193E+03  0.16064647201E+03  0.50400001928E-02 0. -1.
       -1   -1    0    0    0  501  0.00000000000E+00  0.00000000000E+00 -0.56450122353E+03  0.56450122355E+03  0.50400001928E-02 0.  1.
    10030    2    1    2    0    0  0.00000000000E+00  0.00000000000E+00 -0.40385475159E+03  0.72514769556E+03  0.60227943680E+03 0.  0.
        1    1    3    3  502    0  0.21325427670E+03 -0.20261142974E+03 -0.12430541754E+03  0.31934403838E+03  0.50400001928E-02 0. -1.
       -1    1    3    3    0  502 -0.21325427670E+03  0.20261142974E+03 -0.27954933405E+03  0.40580365719E+03  0.50400001928E-02 0.  1.
</event>
<event>
 5   0  0.5872632E-02  0.6053736E+03  0.7818609E-02  0.9894320E-01
        2   -1    0    0  501    0  0.00000000000E+00  0.00000000000E+00  0.44822531535E+03  0.44822531536E+03  0.25500000920E-02 0.  1.
       -2   -1    0    0    0  501  0.00000000000E+00  0.00000000000E+00 -0.20440456001E+03  0.20440456002E+03  0.25500000920E-02 0. -1.
    10030    2    1    2    0    0  0.00000000000E+00  0.00000000000E+00  0.24382075534E+03  0.65262987538E+03  0.60537359828E+03 0.  0.
        1    1    3    3  502    0  0.16559085899E+02  0.25441711523E+03 -0.53972370399E+02  0.26060561897E+03  0.50400001928E-02 0. -1.
       -1    1    3    3    0  502 -0.16559085899E+02 -0.25441711523E+03  0.29779312574E+03  0.39202425641E+03  0.50400001928E-02 0.  1.
</event>
<event>
 5   0  0.5872632E-02  0.6305753E+03  0.7818609E-02  0.9843927E-01
       -2   -1    0    0    0  501  0.00000000000E+00  0.00000000000E+00  0.16058403944E+03  0.16058403946E+03  0.25500000920E-02 0.  1.
        2   -1    0    0  501    0  0.00000000000E+00  0.00000000000E+00 -0.61902977193E+03  0.61902977194E+03  0.25500000920E-02 0. -1.
    10030    2    1    2    0    0  0.00000000000E+00  0.00000000000E+00 -0.45844573249E+03  0.77961381140E+03  0.63057529708E+03 0.  0.
        1    1    3    3  502    0 -0.18698455843E+03 -0.23915416815E+03 -0.12396308802E+03  0.32790972607E+03  0.50400001928E-02 0.  1.
       -1    1    3    3    0  502  0.18698455843E+03  0.23915416815E+03 -0.33448264447E+03  0.45170408534E+03  0.50400001928E-02 0. -1.
</event>
<event>
 5   0  0.5999117E-02  0.5941411E+03  0.7818609E-02  0.9917636E-01
        2   -1    0    0  501    0  0.00000000000E+00  0.00000000000E+00  0.25405907839E+03  0.25405907840E+03  0.25500000920E-02 0.  1.
       -2   -1    0    0    0  501  0.00000000000E+00  0.00000000000E+00 -0.34736377320E+03  0.34736377321E+03  0.25500000920E-02 0. -1.
    10030    2    1    2    0    0  0.00000000000E+00  0.00000000000E+00 -0.93304694810E+02  0.60142285162E+03  0.59414112833E+03 0.  0.
        5    1    3    3  502    0 -0.11725862408E+03  0.27290783583E+03 -0.45895984847E+02  0.30059408378E+03  0.46999998093E+01 0. -1.
       -5    1    3    3    0  502  0.11725862408E+03 -0.27290783583E+03 -0.47408709962E+02  0.30082876784E+03  0.46999998093E+01 0.  1.
</event>
<event>
 5   0  0.5935451E-02  0.5936536E+03  0.7818609E-02  0.9918661E-01
       -2   -1    0    0    0  501  0.00000000000E+00  0.00000000000E+00  0.72234163482E+02  0.72234163527E+02  0.25500000920E-02 0.  1.
        2   -1    0    0  501    0  0.00000000000E+00  0.00000000000E+00 -0.12197296893E+04  0.12197296893E+04  0.25500000920E-02 0. -1.
    10030    2    1    2    0    0  0.00000000000E+00  0.00000000000E+00 -0.11474955258E+04  0.12919638528E+04  0.59365361553E+03 0.  0.
        3    1    3    3  502    0  0.14897563712E+03  0.39539818193E+02 -0.21685365682E+02  0.15565154341E+03  0.10100000352E+00 0.  1.
       -3    1    3    3    0  502 -0.14897563712E+03 -0.39539818193E+02 -0.11258101601E+04  0.11363123094E+04  0.10100000352E+00 0. -1.
</event>
<event>
 5   0  0.3478183E-02  0.5966589E+03  0.7818609E-02  0.9912362E-01
        1   -1    0    0  501    0  0.00000000000E+00  0.00000000000E+00  0.62434786205E+03  0.62434786207E+03  0.50400001928E-02 0.  1.
       -1   -1    0    0    0  501  0.00000000000E+00  0.00000000000E+00 -0.14254947110E+03  0.14254947119E+03  0.50400001928E-02 0. -1.
    10030    2    1    2    0    0  0.00000000000E+00  0.00000000000E+00  0.48179839095E+03  0.76689733326E+03  0.59665888935E+03 0.  0.
        4    1    3    3  502    0 -0.10858314924E+03  0.55435397655E+02 -0.10906539830E+03  0.16358562779E+03  0.12699999809E+01 0. -1.
       -4    1    3    3    0  502  0.10858314924E+03 -0.55435397655E+02  0.59086378925E+03  0.60331170547E+03  0.12699999809E+01 0.  1.
</event>
<event>
 5   0  0.3651984E-02  0.6055245E+03  0.7818609E-02  0.9894010E-01
        1   -1    0    0  501    0  0.00000000000E+00  0.00000000000E+00  0.70370268879E+03  0.70370268880E+03  0.50400001928E-02 0. -1.
       -1   -1    0    0    0  501  0.00000000000E+00  0.00000000000E+00 -0.13026093274E+03  0.13026093284E+03  0.50400001928E-02 0.  1.
    10030    2    1    2    0    0  0.00000000000E+00  0.00000000000E+00  0.57344175605E+03  0.83396362164E+03  0.60552446247E+03 0.  0.
        1    1    3    3  502    0 -0.26163993719E+03  0.53928547825E+02  0.90485854603E+02  0.28204863927E+03  0.50400001928E-02 0.  1.
       -1    1    3    3    0  502  0.26163993719E+03 -0.53928547825E+02  0.48295590144E+03  0.55191498237E+03  0.50400001928E-02 0. -1.
</event>
<event>
 5   0  0.3651984E-02  0.6028889E+03  0.7818609E-02  0.9899431E-01
       -1   -1    0    0    0  501  0.00000000000E+00  0.00000000000E+00  0.44354177246E+02  0.44354177532E+02  0.50400001928E-02 0. -1.
        1   -1    0    0  501    0  0.00000000000E+00  0.00000000000E+00 -0.20487077221E+04  0.20487077221E+04  0.50400001928E-02 0.  1.
    10030    2    1    2    0    0  0.00000000000E+00  0.00000000000E+00 -0.20043535448E+04  0.20930618996E+04  0.60288886450E+03 0.  0.
        1    1    3    3  502    0 -0.26018325199E+03 -0.72555993726E+02 -0.14667787677E+04  0.14914421377E+04  0.50400001928E-02 0.  1.
       -1    1    3    3    0  502  0.26018325199E+03  0.72555993726E+02 -0.53757477714E+03  0.60161976188E+03  0.50400001928E-02 0. -1.
</event>
<event>
 5   0  0.5999117E-02  0.5830181E+03  0.7818609E-02  0.9941278E-01
       -2   -1    0    0    0  501  0.00000000000E+00  0.00000000000E+00  0.42170980835E+03  0.42170980836E+03  0.25500000920E-02 0.  1.
        2   -1    0    0  501    0  0.00000000000E+00  0.00000000000E+00 -0.20150712911E+03  0.20150712913E+03  0.25500000920E-02 0. -1.
    10030    2    1    2    0    0  0.00000000000E+00  0.00000000000E+00  0.22020267924E+03  0.62321693749E+03  0.58301812255E+03 0.  0.
        5    1    3    3  502    0  0.23839204596E+03 -0.12811590954E+03 -0.55775147554E+01  0.27073539208E+03  0.46999998093E+01 0.  1.
       -5    1    3    3    0  502 -0.23839204596E+03  0.12811590954E+03  0.22578019399E+03  0.35248154541E+03  0.46999998093E+01 0. -1.
</event>
<event>
 5   0  0.5872632E-02  0.6026919E+03  0.7818609E-02  0.9899837E-01
        2   -1    0    0  501    0  0.00000000000E+00  0.00000000000E+00  0.93857633146E+03  0.93857633146E+03  0.25500000920E-02 0.  1.
       -2   -1    0    0    0  501  0.00000000000E+00  0.00000000000E+00 -0.96752244743E+02  0.96752244776E+02  0.25500000920E-02 0. -1.
    10030    2    1    2    0    0  0.00000000000E+00  0.00000000000E+00  0.84182408672E+03  0.10353285762E+04  0.60269185145E+03 0.  0.
        1    1    3    3  502    0  0.28943890618E+03 -0.34326891010E+01  0.27695429762E+03  0.40061246456E+03  0.50400001928E-02 0. -1.
       -1    1    3    3    0  502 -0.28943890618E+03  0.34326891010E+01  0.56486978909E+03  0.63471611168E+03  0.50400001928E-02 0.  1.
</event>
<event>
 5   0  0.3640827E-02  0.6001674E+03  0.7818609E-02  0.9905059E-01
        1   -1    0    0  501    0  0.00000000000E+00  0.00000000000E+00  0.31396829036E+03  0.31396829040E+03  0.50400001928E-02 0. -1.
       -1   -1    0    0    0  501  0.00000000000E+00  0.00000000000E+00 -0.28681316953E+03  0.28681316957E+03  0.50400001928E-02 0.  1.
    10030    2    1    2    0    0  0.00000000000E+00  0.00000000000E+00  0.27155120828E+02  0.60078145997E+03  0.60016744502E+03 0.  0.
        3    1    3    3  502    0 -0.63942649930E+02 -0.28772084231E+03  0.70011515566E+02  0.30294152586E+03  0.10100000352E+00 0.  1.
       -3    1    3    3    0  502  0.63942649930E+02  0.28772084231E+03 -0.42856394738E+02  0.29783993411E+03  0.10100000352E+00 0. -1.
</event>
<event>
 5   0  0.3640827E-02  0.6844051E+03  0.7818609E-02  0.9744280E-01
       -1   -1    0    0    0  501  0.00000000000E+00  0.00000000000E+00  0.19290062919E+03  0.19290062926E+03  0.50400001928E-02 0. -1.
        1   -1    0    0  501    0  0.00000000000E+00  0.00000000000E+00 -0.60706170638E+03  0.60706170640E+03  0.50400001928E-02 0.  1.
    10030    2    1    2    0    0  0.00000000000E+00  0.00000000000E+00 -0.41416107719E+03  0.79996233566E+03  0.68440509979E+03 0.  0.
        3    1    3    3  502    0 -0.30101992408E+03  0.11013694748E+03 -0.34714403049E+03  0.47249564019E+03  0.10100000352E+00 0. -1.
       -3    1    3    3    0  502  0.30101992408E+03 -0.11013694748E+03 -0.67017046698E+02  0.32746669547E+03  0.10100000352E+00 0.  1.
</event>
<event>
 5   0  0.5872632E-02  0.6102876E+03  0.7818609E-02  0.9884289E-01
       -2   -1    0    0    0  501  0.00000000000E+00  0.00000000000E+00  0.11427870899E+03  0.11427870902E+03  0.25500000920E-02 0.  1.
        2   -1    0    0  501    0  0.00000000000E+00  0.00000000000E+00 -0.81478645847E+03  0.81478645848E+03  0.25500000920E-02 0. -1.
    10030    2    1    2    0    0  0.00000000000E+00  0.00000000000E+00 -0.70050774948E+03  0.92906516750E+03  0.61028761938E+03 0.  0.
        1    1    3    3  502    0 -0.18365894434E+03 -0.21304720010E+03 -0.53033469416E+03  0.60031208981E+03  0.50400001928E-02 0.  1.
       -1    1    3    3    0  502  0.18365894434E+03  0.21304720010E+03 -0.17017305532E+03  0.32875307769E+03  0.50400001928E-02 0. -1.
</event>
<event>
 5   0  0.3651984E-02  0.5914417E+03  0.7818609E-02  0.9923323E-01
        1   -1    0    0  501    0  0.00000000000E+00  0.00000000000E+00  0.40749750537E+03  0.40749750541E+03  0.50400001928E-02 0. -1.
       -1   -1    0    0    0  501  0.00000000000E+00  0.00000000000E+00 -0.21460455929E+03  0.21460455935E+03  0.50400001928E-02 0.  1.
    10030    2    1    2    0    0  0.00000000000E+00  0.00000000000E+00  0.19289294608E+03  0.62210206475E+03  0.59144170492E+03 0.  0.
        1    1    3    3  502    0  0.22278544770E+03  0.16799860909E+03  0.19947276401E+03  0.34299602326E+03  0.50400001928E-02 0. -1.
       -1    1    3    3    0  502 -0.22278544770E+03 -0.16799860909E+03 -0.65798179305E+01  0.27910604149E+03  0.50400001928E-02 0.  1.
</event>
<event>
 5   0  0.3767635E-02  0.6013430E+03  0.7818609E-02  0.9902624E-01
       -1   -1    0    0    0  501  0.00000000000E+00  0.00000000000E+00  0.44930234272E+02  0.44930234554E+02  0.50400001928E-02 0. -1.
        1   -1    0    0  501    0  0.00000000000E+00  0.00000000000E+00 -0.20120828644E+04  0.20120828644E+04  0.50400001928E-02 0.  1.
    10030    2    1    2    0    0  0.00000000000E+00  0.00000000000E+00 -0.19671526301E+04  0.20570130990E+04  0.60134301283E+03 0.  0.
        2    1    3    3  502    0  0.96788621770E+02  0.47401470325E+02 -0.23411077421E+02  0.11028606098E+03  0.25500000920E-02 0. -1.
       -2    1    3    3    0  502 -0.96788621770E+02 -0.47401470325E+02 -0.19437415527E+04  0.19467270380E+04  0.25500000920E-02 0.  1.
</event>
<event>
 5   0  0.3478183E-02  0.6032691E+03  0.7818609E-02  0.9898647E-01
        1   -1    0    0  501    0  0.00000000000E+00  0.00000000000E+00  0.17445446312E+04  0.17445446312E+04  0.50400001928E-02 0.  1.
       -1   -1    0    0    0  501  0.00000000000E+00  0.00000000000E+00 -0.52153099039E+02  0.52153099283E+02  0.50400001928E-02 0. -1.
    10030    2    1    2    0    0  0.00000000000E+00  0.00000000000E+00  0.16923915321E+04  0.17966977305E+04  0.60326912453E+03 0.  0.
        4    1    3    3  502    0  0.20884054847E+03 -0.15881185952E+03  0.12894099751E+04  0.13158325419E+04  0.12699999809E+01 0.  1.
       -4    1    3    3    0  502 -0.20884054847E+03  0.15881185952E+03  0.40298155702E+03  0.48086518860E+03  0.12699999809E+01 0. -1.
</event>
<event>
 5   0  0.3767635E-02  0.5832912E+03  0.7818609E-02  0.9940691E-01
        1   -1    0    0  501    0  0.00000000000E+00  0.00000000000E+00  0.22114344749E+03  0.22114344755E+03  0.50400001928E-02 0. -1.
       -1   -1    0    0    0  501  0.00000000000E+00  0.00000000000E+00 -0.38462430429E+03  0.38462430432E+03  0.50400001928E-02 0.  1.
    10030    2    1    2    0    0  0.00000000000E+00  0.00000000000E+00 -0.16348085680E+03  0.60576775187E+03  0.58329116114E+03 0.  0.
        2    1    3    3  502    0  0.12132411622E+03 -0.26383556044E+03 -0.10976931717E+03  0.31044813920E+03  0.25500000920E-02 0.  1.
       -2    1    3    3    0  502 -0.12132411622E+03  0.26383556044E+03 -0.53711539627E+02  0.29531961267E+03  0.25500000920E-02 0. -1.
</event>
<event>
 5   0  0.3478183E-02  0.6009902E+03  0.7818609E-02  0.9903354E-01
        1   -1    0    0  501    0  0.00000000000E+00  0.00000000000E+00  0.11215663348E+03  0.11215663359E+03  0.50400001928E-02 0.  1.
       -1   -1    0    0    0  501  0.00000000000E+00  0.00000000000E+00 -0.80510001334E+03  0.80510001336E+03  0.50400001928E-02 0. -1.
    10030    2    1    2    0    0  0.00000000000E+00  0.00000000000E+00 -0.69294337987E+03  0.91725664695E+03  0.60099020680E+03 0.  0.
        4    1    3    3  502    0  0.94623626914E+02  0.16816453013E+03 -0.69804699871E+03  0.72422659802E+03  0.12699999809E+01 0. -1.
       -4    1    3    3    0  502 -0.94623626914E+02 -0.16816453013E+03  0.51036188446E+01  0.19303004893E+03  0.12699999809E+01 0.  1.
</event>
<event>
 5   0  0.3640827E-02  0.6017279E+03  0.7818609E-02  0.9901828E-01
        1   -1    0    0  501    0  0.00000000000E+00  0.00000000000E+00  0.10627493713E+04  0.10627493713E+04  0.50400001928E-02 0. -1.
       -1   -1    0    0    0  501  0.00000000000E+00  0.00000000000E+00 -0.85174460671E+02  0.85174460820E+02  0.50400001928E-02 0.  1.
    10030    2    1    2    0    0  0.00000000000E+00  0.00000000000E+00  0.97757491060E+03  0.11479238321E+04  0.60172786081E+03 0.  0.
        3    1    3    3  502    0 -0.33904260108E+02 -0.23880142757E+03  0.14569885897E+03  0.28178677820E+03  0.10100000352E+00 0.  1.
       -3    1    3    3    0  502  0.33904260108E+02  0.23880142757E+03  0.83187605163E+03  0.86613705390E+03  0.10100000352E+00 0. -1.
</event>
<event>
 5   0  0.3478183E-02  0.5938764E+03  0.7818609E-02  0.9918193E-01
        1   -1    0    0  501    0  0.00000000000E+00  0.00000000000E+00  0.32486468933E+03  0.32486468937E+03  0.50400001928E-02 0.  1.
       -1   -1    0    0    0  501  0.00000000000E+00  0.00000000000E+00 -0.27141234725E+03  0.27141234730E+03  0.50400001928E-02 0. -1.
    10030    2    1    2    0    0  0.00000000000E+00  0.00000000000E+00  0.53452342074E+02  0.59627703666E+03  0.59387637736E+03 0.  0.
        4    1    3    3  502    0 -0.10332227347E+03  0.33813082917E+02  0.30416154826E+03  0.32300878798E+03  0.12699999809E+01 0.  1.
       -4    1    3    3    0  502  0.10332227347E+03 -0.33813082917E+02 -0.25070920619E+03  0.27326824868E+03  0.12699999809E+01 0. -1.
</event>
<event>
 5   0  0.5935451E-02  0.5984520E+03  0.7818609E-02  0.9908623E-01
       -2   -1    0    0    0  501  0.00000000000E+00  0.00000000000E+00  0.16582198113E+03  0.16582198115E+03  0.25500000920E-02 0.  1.
        2   -1    0    0  501    0  0.00000000000E+00  0.00000000000E+00 -0.53995367663E+03  0.53995367664E+03  0.25500000920E-02 0. -1.
    10030    2    1    2    0    0  0.00000000000E+00  0.00000000000E+00 -0.37413169551E+03  0.70577565779E+03  0.59845196427E+03 0.  0.
        3    1    3    3  502    0  0.14651172198E+03  0.25058232516E+03 -0.27275244041E+03  0.39831029400E+03  0.10100000352E+00 0. -1.
       -3    1    3    3    0  502 -0.14651172198E+03 -0.25058232516E+03 -0.10137925510E+03  0.30746536378E+03  0.10100000352E+00 0.  1.
</event>
<event>
 5   0  0.3767635E-02  0.5888276E+03  0.7818609E-02  0.9928860E-01
        1   -1    0    0  501    0  0.00000000000E+00  0.00000000000E+00  0.50814777838E+03  0.50814777840E+03  0.50400001928E-02 0.  1.
       -1   -1    0    0    0  501  0.00000000000E+00  0.00000000000E+00 -0.17057931103E+03  0.17057931110E+03  0.50400001928E-02 0. -1.
    10030    2    1    2    0    0  0.00000000000E+00  0.00000000000E+00  0.33756846735E+03  0.67872708951E+03  0.58882764191E+03 0.  0.
        2    1    3    3  502    0 -0.16316129147E+02 -0.11826183160E+03 -0.14142770272E+03  0.18507801594E+03  0.25500000920E-02 0. -1.
       -2    1    3    3    0  502  0.16316129147E+02  0.11826183160E+03  0.47899617007E+03  0.49364907356E+03  0.25500000920E-02 0.  1.
</event>
<event>
 5   0  0.3640827E-02  0.5633154E+03  0.7818609E-02  0.9984581E-01
        1   -1    0    0  501    0  0.00000000000E+00  0.00000000000E+00  0.32277465067E+03  0.32277465071E+03  0.50400001928E-02 0.  1.
       -1   -1    0    0    0  501  0.00000000000E+00  0.00000000000E+00 -0.24577850393E+03  0.24577850398E+03  0.50400001928E-02 0. -1.
    10030    2    1    2    0    0  0.00000000000E+00  0.00000000000E+00  0.76996146737E+02  0.56855315469E+03  0.56331543836E+03 0.  0.
        3    1    3    3  502    0  0.14535348983E+03  0.42013022296E+02  0.27827450643E+03  0.31674823153E+03  0.10100000352E+00 0.  1.
       -3    1    3    3    0  502 -0.14535348983E+03 -0.42013022296E+02 -0.20127835969E+03  0.25180492316E+03  0.10100000352E+00 0. -1.
</event>
<event>
 5   0  0.2388000E-02  0.6012915E+03  0.7818609E-02  0.9902730E-01
       -4   -1    0    0    0  501  0.00000000000E+00  0.00000000000E+00  0.21672008851E+03  0.21672380964E+03  0.12699999809E+01 0. -1.
        4   -1    0    0  501    0  0.00000000000E+00  0.00000000000E+00 -0.41706369067E+03  0.41706562430E+03  0.12699999809E+01 0.  1.
    10030    2    1    2    0    0  0.00000000000E+00  0.00000000000E+00 -0.20034360216E+03  0.63378943394E+03  0.60129151636E+03 0.  0.
        1    1    3    3  502    0 -0.15763375603E+03  0.24986436420E+03 -0.41416177651E+02  0.29832180834E+03  0.50400001928E-02 0. -1.
       -1    1    3    3    0  502  0.15763375603E+03 -0.24986436420E+03 -0.15892742451E+03  0.33546762560E+03  0.50400001928E-02 0.  1.
</event>
<event>
 5   0  0.5872632E-02  0.6002396E+03  0.7818609E-02  0.9904909E-01
       -2   -1    0    0    0  501  0.00000000000E+00  0.00000000000E+00  0.85283825991E+02  0.85283826029E+02  0.25500000920E-02 0. -1.
        2   -1    0    0  501    0  0.00000000000E+00  0.00000000000E+00 -0.10561426967E+04  0.10561426967E+04  0.25500000920E-02 0.  1.
    10030    2    1    2    0    0  0.00000000000E+00  0.00000000000E+00 -0.97085887066E+03  0.11414265227E+04  0.60023958545E+03 0.  0.
        1    1    3    3  502    0 -0.81588283491E+02 -0.14176024972E+03 -0.96393973276E+03  0.97771796794E+03  0.50400001928E-02 0.  1.
       -1    1    3    3    0  502  0.81588283491E+02  0.14176024972E+03 -0.69191379039E+01  0.16370855475E+03  0.50400001928E-02 0. -1.
</event>
<event>
 5   0  0.2388000E-02  0.5958402E+03  0.7818609E-02  0.9914074E-01
        3   -1    0    0  501    0  0.00000000000E+00  0.00000000000E+00  0.15022263295E+03  0.15022266690E+03  0.10100000352E+00 0. -1.
       -3   -1    0    0    0  501  0.00000000000E+00  0.00000000000E+00 -0.59083218160E+03  0.59083219023E+03  0.10100000352E+00 0.  1.
    10030    2    1    2    0    0  0.00000000000E+00  0.00000000000E+00 -0.44060954865E+03  0.74105485713E+03  0.59584018572E+03 0.  0.
        1    1    3    3  502    0 -0.21341933929E+03  0.98010227371E+02 -0.44829003340E+03  0.50608079703E+03  0.50400001928E-02 0.  1.
       -1    1    3    3    0  502  0.21341933929E+03 -0.98010227371E+02  0.76804847469E+01  0.23497406011E+03  0.50400001928E-02 0. -1.
</event>
<event>
 5   0  0.3651984E-02  0.5965575E+03  0.7818609E-02  0.9912574E-01
       -1   -1    0    0    0  501  0.00000000000E+00  0.00000000000E+00  0.31657170901E+03  0.31657170905E+03  0.50400001928E-02 0. -1.
        1   -1    0    0  501    0  0.00000000000E+00  0.00000000000E+00 -0.28104283249E+03  0.28104283253E+03  0.50400001928E-02 0.  1.
    10030    2    1    2    0    0  0.00000000000E+00  0.00000000000E+00  0.35528876524E+02  0.59761454158E+03  0.59655749031E+03 0.  0.
        1    1    3    3  502    0  0.84187924106E+02 -0.26120383545E+03  0.13482678961E+03  0.30576676314E+03  0.50400001928E-02 0. -1.
       -1    1    3    3    0  502 -0.84187924106E+02  0.26120383545E+03 -0.99297913084E+02  0.29184777845E+03  0.50400001928E-02 0.  1.
</event>
<event>
 5   0  0.5755078E-02  0.5987646E+03  0.7818609E-02  0.9907972E-01
       -2   -1    0    0    0  501  0.00000000000E+00  0.00000000000E+00  0.95070316586E+02  0.95070316620E+02  0.25500000920E-02 0.  1.
        2   -1    0    0  501    0  0.00000000000E+00  0.00000000000E+00 -0.94277336862E+03  0.94277336863E+03  0.25500000920E-02 0. -1.
    10030    2    1    2    0    0  0.00000000000E+00  0.00000000000E+00 -0.84770305204E+03  0.10378436852E+04  0.59876460364E+03 0.  0.
        2    1    3    3  502    0 -0.94078710421E+02  0.18848415130E+03 -0.79257263207E+03  0.82009051705E+03  0.25500000920E-02 0. -1.
       -2    1    3    3    0  502  0.94078710421E+02 -0.18848415130E+03 -0.55130419970E+02  0.21775316820E+03  0.25500000920E-02 0.  1.
</event>
<event>
 5   0  0.3703280E-02  0.5975640E+03  0.7818609E-02  0.9910473E-01
       -1   -1    0    0    0  501  0.00000000000E+00  0.00000000000E+00  0.36429182221E+03  0.36429182224E+03  0.50400001928E-02 0.  1.
        1   -1    0    0  501    0  0.00000000000E+00  0.00000000000E+00 -0.24505266204E+03  0.24505266209E+03  0.50400001928E-02 0. -1.
    10030    2    1    2    0    0  0.00000000000E+00  0.00000000000E+00  0.11923916017E+03  0.60934448433E+03  0.59756399094E+03 0.  0.
        5    1    3    3  502    0 -0.23428968706E+03  0.11157420500E+03  0.21055150858E+03  0.33420725374E+03  0.46999998093E+01 0.  1.
       -5    1    3    3    0  502  0.23428968706E+03 -0.11157420500E+03 -0.91312348412E+02  0.27513723059E+03  0.46999998093E+01 0. -1.
</event>
<event>
 5   0  0.3478183E-02  0.5978621E+03  0.7818609E-02  0.9909852E-01
        1   -1    0    0  501    0  0.00000000000E+00  0.00000000000E+00  0.95031774088E+03  0.95031774089E+03  0.50400001928E-02 0. -1.
       -1   -1    0    0    0  501  0.00000000000E+00  0.00000000000E+00 -0.94031463404E+02  0.94031463539E+02  0.50400001928E-02 0.  1.
    10030    2    1    2    0    0  0.00000000000E+00  0.00000000000E+00  0.85628627747E+03  0.10443492044E+04  0.59786208427E+03 0.  0.
        4    1    3    3  502    0  0.17753309682E+03 -0.18852863473E+03  0.68898002172E+03  0.73604084792E+03  0.12699999809E+01 0. -1.
       -4    1    3    3    0  502 -0.17753309682E+03  0.18852863473E+03  0.16730625575E+03  0.30830835650E+03  0.12699999809E+01 0.  1.
</event>
<event>
 5   0  0.3640827E-02  0.5856431E+03  0.7818609E-02  0.9935648E-01
       -1   -1    0    0    0  501  0.00000000000E+00  0.00000000000E+00  0.23734995736E+03  0.23734995742E+03  0.50400001928E-02 0. -1.
        1   -1    0    0  501    0  0.00000000000E+00  0.00000000000E+00 -0.36125753743E+03  0.36125753746E+03  0.50400001928E-02 0.  1.
    10030    2    1    2    0    0  0.00000000000E+00  0.00000000000E+00 -0.12390758006E+03  0.59860749488E+03  0.58564310337E+03 0.  0.
        3    1    3    3  502    0  0.20673412289E+03 -0.20193680422E+03 -0.13718230535E+02  0.28931932275E+03  0.10100000352E+00 0. -1.
       -3    1    3    3    0  502 -0.20673412289E+03  0.20193680422E+03 -0.11018934953E+03  0.30928817213E+03  0.10100000352E+00 0.  1.
</event>
<event>
 5   0  0.2388000E-02  0.5712185E+03  0.7818609E-02  0.9966986E-01
       -3   -1    0    0    0  501  0.00000000000E+00  0.00000000000E+00  0.99218960151E+02  0.99219011557E+02  0.10100000352E+00 0.  1.
        3   -1    0    0  501    0  0.00000000000E+00  0.00000000000E+00 -0.82214760394E+03  0.82214761014E+03  0.10100000352E+00 0. -1.
    10030    2    1    2    0    0  0.00000000000E+00  0.00000000000E+00 -0.72292864379E+03  0.92136662170E+03  0.57121854624E+03 0.  0.
        2    1    3    3  502    0 -0.19358889077E+02 -0.25236642245E+03 -0.57489744927E+03  0.62814859305E+03  0.25500000920E-02 0. -1.
       -2    1    3    3    0  502  0.19358889077E+02  0.25236642245E+03 -0.14803119452E+03  0.29321802865E+03  0.25500000920E-02 0.  1.
</event>
<event>
 5   0  0.5935451E-02  0.5234127E+03  0.7818609E-02  0.1007842E+00
        2   -1    0    0  501    0  0.00000000000E+00  0.00000000000E+00  0.12777817216E+04  0.12777817216E+04  0.25500000920E-02 0. -1.
       -2   -1    0    0    0  501  0.00000000000E+00  0.00000000000E+00 -0.53600864426E+02  0.53600864487E+02  0.25500000920E-02 0.  1.
    10030    2    1    2    0    0  0.00000000000E+00  0.00000000000E+00  0.12241808572E+04  0.13313825861E+04  0.52341266653E+03 0.  0.
        3    1    3    3  502    0  0.21063401266E+03 -0.10884182752E+02  0.10061935536E+04  0.10280615887E+04  0.10100000352E+00 0. -1.
       -3    1    3    3    0  502 -0.21063401266E+03  0.10884182752E+02  0.21798730360E+03  0.30332099739E+03  0.10100000352E+00 0.  1.
</event>
<event>
 5   0  0.6007360E-02  0.6042501E+03  0.7818609E-02  0.9896627E-01
        2   -1    0    0  501    0  0.00000000000E+00  0.00000000000E+00  0.99611811431E+03  0.99611811432E+03  0.25500000920E-02 0.  1.
       -2   -1    0    0    0  501  0.00000000000E+00  0.00000000000E+00 -0.91635272643E+02  0.91635272679E+02  0.25500000920E-02 0. -1.
    10030    2    1    2    0    0  0.00000000000E+00  0.00000000000E+00  0.90448284167E+03  0.10877533870E+04  0.60425013036E+03 0.  0.
        4    1    3    3  502    0 -0.15703861196E+02 -0.29879012360E+03  0.37681033925E+03  0.48115464654E+03  0.12699999809E+01 0. -1.
       -4    1    3    3    0  502  0.15703861196E+02  0.29879012360E+03  0.52767250242E+03  0.60659874046E+03  0.12699999809E+01 0.  1.
</event>
<event>
 5   0  0.3478183E-02  0.5974025E+03  0.7818609E-02  0.9910810E-01
       -1   -1    0    0    0  501  0.00000000000E+00  0.00000000000E+00  0.36675330373E+03  0.36675330376E+03  0.50400001928E-02 0.  1.
        1   -1    0    0  501    0  0.00000000000E+00  0.00000000000E+00 -0.24327643739E+03  0.24327643744E+03  0.50400001928E-02 0. -1.
    10030    2    1    2    0    0  0.00000000000E+00  0.00000000000E+00  0.12347686634E+03  0.61002974120E+03  0.59740250136E+03 0.  0.
        4    1    3    3  502    0  0.23662061369E+03  0.52540169093E+02  0.23998764222E+03  0.34109451111E+03  0.12699999809E+01 0.  1.
       -4    1    3    3    0  502 -0.23662061369E+03 -0.52540169093E+02 -0.11651077587E+03  0.26893523009E+03  0.12699999809E+01 0. -1.
</event>
<event>
 5   0  0.3703280E-02  0.6064087E+03  0.7818609E-02  0.9892199E-01
        1   -1    0    0  501    0  0.00000000000E+00  0.00000000000E+00  0.96241493991E+03  0.96241493992E+03  0.50400001928E-02 0.  1.
       -1   -1    0    0    0  501  0.00000000000E+00  0.00000000000E+00 -0.95523109141E+02  0.95523109274E+02  0.50400001928E-02 0. -1.
    10030    2    1    2    0    0  0.00000000000E+00  0.00000000000E+00  0.86689183076E+03  0.10579380492E+04  0.60640866558E+03 0.  0.
        5    1    3    3  502    0 -0.33168226764E+02 -0.81343057215E+02  0.93966124081E+03  0.94377018480E+03  0.46999998093E+01 0.  1.
       -5    1    3    3    0  502  0.33168226764E+02  0.81343057215E+02 -0.72769410050E+02  0.11416786440E+03  0.46999998093E+01 0. -1.
</event>
<event>
 5   0  0.5935451E-02  0.6028629E+03  0.7818609E-02  0.9899484E-01
       -2   -1    0    0    0  501  0.00000000000E+00  0.00000000000E+00  0.10959969367E+03  0.10959969370E+03  0.25500000920E-02 0. -1.
        2   -1    0    0  501    0  0.00000000000E+00  0.00000000000E+00 -0.82902540919E+03  0.82902540920E+03  0.25500000920E-02 0.  1.
    10030    2    1    2    0    0  0.00000000000E+00  0.00000000000E+00 -0.71942571552E+03  0.93862510290E+03  0.60286293936E+03 0.  0.
        3    1    3    3  502    0 -0.28497005039E+02 -0.14121974000E+03  0.52527622075E+02  0.15334358657E+03  0.10100000352E+00 0. -1.
       -3    1    3    3    0  502  0.28497005039E+02  0.14121974000E+03 -0.77195333759E+03  0.78528151633E+03  0.10100000352E+00 0.  1.
</event>
<event>
 5   0  0.3767635E-02  0.6056034E+03  0.7818609E-02  0.9893849E-01
        1   -1    0    0  501    0  0.00000000000E+00  0.00000000000E+00  0.95141771053E+03  0.95141771055E+03  0.50400001928E-02 0.  1.
       -1   -1    0    0    0  501  0.00000000000E+00  0.00000000000E+00 -0.96370774100E+02  0.96370774232E+02  0.50400001928E-02 0. -1.
    10030    2    1    2    0    0  0.00000000000E+00  0.00000000000E+00  0.85504693643E+03  0.10477884848E+04  0.60560337295E+03 0.  0.
        2    1    3    3  502    0  0.81891804893E+02 -0.29148814645E+03  0.43471020026E+03  0.52975896919E+03  0.25500000920E-02 0. -1.
       -2    1    3    3    0  502 -0.81891804893E+02  0.29148814645E+03  0.42033673618E+03  0.51802951558E+03  0.25500000920E-02 0.  1.
</event>
<event>
 5   0  0.5935451E-02  0.5991320E+03  0.7818609E-02  0.9907209E-01
       -2   -1    0    0    0  501  0.00000000000E+00  0.00000000000E+00  0.12107520775E+03  0.12107520778E+03  0.25500000920E-02 0. -1.
        2   -1    0    0  501    0  0.00000000000E+00  0.00000000000E+00 -0.74119041660E+03  0.74119041660E+03  0.25500000920E-02 0.  1.
    10030    2    1    2    0    0  0.00000000000E+00  0.00000000000E+00 -0.62011520885E+03  0.86226562438E+03  0.59913198441E+03 0.  0.
        3    1    3    3  502    0  0.68929816667E+02 -0.44741592629E+02  0.10453606659E+03  0.13296965502E+03  0.10100000352E+00 0. -1.
       -3    1    3    3    0  502 -0.68929816667E+02  0.44741592629E+02 -0.72465127543E+03  0.72929596936E+03  0.10100000352E+00 0.  1.
</event>
<event>
 5   0  0.3703280E-02  0.5930852E+03  0.7818609E-02  0.9919857E-01
       -1   -1    0    0    0  501  0.00000000000E+00  0.00000000000E+00  0.93893092014E+02  0.93893092149E+02  0.50400001928E-02 0.  1.
        1   -1    0    0  501    0  0.00000000000E+00  0.00000000000E+00 -0.93657069042E+03  0.93657069043E+03  0.50400001928E-02 0. -1.
    10030    2    1    2    0    0  0.00000000000E+00  0.00000000000E+00 -0.84267759841E+03  0.10304637826E+04  0.59308521509E+03 0.  0.
        5    1    3    3  502    0 -0.20903592593E+03 -0.20079288863E+03 -0.52986595781E+03  0.60398164351E+03  0.46999998093E+01 0. -1.
       -5    1    3    3    0  502  0.20903592593E+03  0.20079288863E+03 -0.31281164060E+03  0.42648213907E+03  0.46999998093E+01 0.  1.
</event>
<event>
 5   0  0.3767635E-02  0.6094351E+03  0.7818609E-02  0.9886022E-01
       -1   -1    0    0    0  501  0.00000000000E+00  0.00000000000E+00  0.74041178778E+02  0.74041178950E+02  0.50400001928E-02 0.  1.
        1   -1    0    0  501    0  0.00000000000E+00  0.00000000000E+00 -0.12540695897E+04  0.12540695897E+04  0.50400001928E-02 0. -1.
    10030    2    1    2    0    0  0.00000000000E+00  0.00000000000E+00 -0.11800284109E+04  0.13281107686E+04  0.60943511815E+03 0.  0.
        2    1    3    3  502    0 -0.26086042368E+03  0.14948567361E+03 -0.48195634291E+03  0.56804581130E+03  0.25500000920E-02 0.  1.
       -2    1    3    3    0  502  0.26086042368E+03 -0.14948567361E+03 -0.69807206797E+03  0.76006495732E+03  0.25500000920E-02 0. -1.
</event>
<event>
 5   0  0.5999117E-02  0.5993164E+03  0.7818609E-02  0.9906825E-01
        2   -1    0    0  501    0  0.00000000000E+00  0.00000000000E+00  0.11521311079E+04  0.11521311080E+04  0.25500000920E-02 0.  1.
       -2   -1    0    0    0  501  0.00000000000E+00  0.00000000000E+00 -0.77938203842E+02  0.77938203883E+02  0.25500000920E-02 0. -1.
    10030    2    1    2    0    0  0.00000000000E+00  0.00000000000E+00  0.10741929041E+04  0.12300693118E+04  0.59931637445E+03 0.  0.
        5    1    3    3  502    0  0.19450334240E+03 -0.22767984994E+03  0.51623853981E+03  0.59681989264E+03  0.46999998093E+01 0. -1.
       -5    1    3    3    0  502 -0.19450334240E+03  0.22767984994E+03  0.55795436430E+03  0.63324941919E+03  0.46999998093E+01 0.  1.
</event>
<event>
 5   0  0.3651984E-02  0.5876526E+03  0.7818609E-02  0.9931359E-01
       -1   -1    0    0    0  501  0.00000000000E+00  0.00000000000E+00  0.26239539397E+03  0.26239539402E+03  0.50400001928E-02 0.  1.
        1   -1    0    0  501    0  0.00000000000E+00  0.00000000000E+00 -0.32902211606E+03  0.32902211609E+03  0.50400001928E-02 0. -1.
    10030    2    1    2    0    0  0.00000000000E+00  0.00000000000E+00 -0.66626722081E+02  0.59141751012E+03  0.58765257694E+03 0.  0.
        1    1    3    3  502    0  0.26809430785E+03  0.12019062933E+03 -0.29609771863E+02  0.29529152357E+03  0.50400001928E-02 0.  1.
       -1    1    3    3    0  502 -0.26809430785E+03 -0.12019062933E+03 -0.37016950218E+02  0.29612598655E+03  0.50400001928E-02 0. -1.
</event>
<event>
 5   0  0.3651984E-02  0.5871411E+03  0.7818609E-02  0.9932449E-01
        1   -1    0    0  501    0  0.00000000000E+00  0.00000000000E+00  0.74459300617E+02  0.74459300787E+02  0.50400001928E-02 0.  1.
       -1   -1    0    0    0  501  0.00000000000E+00  0.00000000000E+00 -0.11574602212E+04  0.11574602212E+04  0.50400001928E-02 0. -1.
    10030    2    1    2    0    0  0.00000000000E+00  0.00000000000E+00 -0.10830009205E+04  0.12319195220E+04  0.58714113694E+03 0.  0.
        1    1    3    3  502    0 -0.10705975932E+03 -0.11586482003E+03 -0.10609701986E+04  0.10726342391E+04  0.50400001928E-02 0. -1.
       -1    1    3    3    0  502  0.10705975932E+03  0.11586482003E+03 -0.22030721920E+02  0.15928528282E+03  0.50400001928E-02 0.  1.
</event>
<event>
 5   0  0.5935451E-02  0.6033634E+03  0.7818609E-02  0.9898452E-01
        2   -1    0    0  501    0  0.00000000000E+00  0.00000000000E+00  0.14545509308E+04  0.14545509308E+04  0.25500000920E-02 0. -1.
       -2   -1    0    0    0  501  0.00000000000E+00  0.00000000000E+00 -0.62570418691E+02  0.62570418743E+02  0.25500000920E-02 0.  1.
    10030    2    1    2    0    0  0.00000000000E+00  0.00000000000E+00  0.13919805121E+04  0.15171213495E+04  0.60336344201E+03 0.  0.
        3    1    3    3  502    0  0.16500394914E+03 -0.17399402065E+03  0.23569225227E+03  0.33623068039E+03  0.10100000352E+00 0.  1.
       -3    1    3    3    0  502 -0.16500394914E+03  0.17399402065E+03  0.11562882598E+04  0.11808906691E+04  0.10100000352E+00 0. -1.
</event>
<event>
 5   0  0.3767635E-02  0.6020643E+03  0.7818609E-02  0.9901132E-01
       -1   -1    0    0    0  501  0.00000000000E+00  0.00000000000E+00  0.54360382453E+02  0.54360382686E+02  0.50400001928E-02 0. -1.
        1   -1    0    0  501    0  0.00000000000E+00  0.00000000000E+00 -0.16670295599E+04  0.16670295599E+04  0.50400001928E-02 0.  1.
    10030    2    1    2    0    0  0.00000000000E+00  0.00000000000E+00 -0.16126691775E+04  0.17213899426E+04  0.60206433093E+03 0.  0.
        2    1    3    3  502    0 -0.64222624930E+02 -0.18669175891E+03 -0.15659711457E+03  0.25199407671E+03  0.25500000920E-02 0. -1.
       -2    1    3    3    0  502  0.64222624930E+02  0.18669175891E+03 -0.14560720629E+04  0.14693958659E+04  0.25500000920E-02 0.  1.
</event>
<event>
 5   0  0.3651984E-02  0.6016442E+03  0.7818609E-02  0.9902001E-01
       -1   -1    0    0    0  501  0.00000000000E+00  0.00000000000E+00  0.30013289805E+03  0.30013289810E+03  0.50400001928E-02 0.  1.
        1   -1    0    0  501    0  0.00000000000E+00  0.00000000000E+00 -0.30151285192E+03  0.30151285196E+03  0.50400001928E-02 0. -1.
    10030    2    1    2    0    0  0.00000000000E+00  0.00000000000E+00 -0.13799538645E+01  0.60164575006E+03  0.60164416750E+03 0.  0.
        1    1    3    3  502    0  0.19523776100E+03  0.22536302651E+03  0.39155441419E+02  0.30073148431E+03  0.50400001928E-02 0. -1.
       -1    1    3    3    0  502 -0.19523776100E+03 -0.22536302651E+03 -0.40535395284E+02  0.30091426575E+03  0.50400001928E-02 0.  1.
</event>
<event>
 5   0  0.5999117E-02  0.6042834E+03  0.7818609E-02  0.9896559E-01
       -2   -1    0    0    0  501  0.00000000000E+00  0.00000000000E+00  0.10613594403E+03  0.10613594406E+03  0.25500000920E-02 0.  1.
        2   -1    0    0  501    0  0.00000000000E+00  0.00000000000E+00 -0.86011966568E+03  0.86011966568E+03  0.25500000920E-02 0. -1.
    10030    2    1    2    0    0  0.00000000000E+00  0.00000000000E+00 -0.75398372165E+03  0.96625560974E+03  0.60428341931E+03 0.  0.
        5    1    3    3  502    0 -0.29724168559E+03 -0.35087314481E+00 -0.46332036918E+03  0.55049123269E+03  0.46999998093E+01 0.  1.
       -5    1    3    3    0  502  0.29724168559E+03  0.35087314481E+00 -0.29066335246E+03  0.41576437706E+03  0.46999998093E+01 0. -1.
</event>
<event>
 5   0  0.3703280E-02  0.6046217E+03  0.7818609E-02  0.9895864E-01
       -1   -1    0    0    0  501  0.00000000000E+00  0.00000000000E+00  0.13658714666E+03  0.13658714675E+03  0.50400001928E-02 0.  1.
        1   -1    0    0  501    0  0.00000000000E+00  0.00000000000E+00 -0.66911016163E+03  0.66911016164E+03  0.50400001928E-02 0. -1.
    10030    2    1    2    0    0  0.00000000000E+00  0.00000000000E+00 -0.53252301497E+03  0.80569730839E+03  0.60462169270E+03 0.  0.
        5    1    3    3  502    0 -0.52962266436E+02  0.27964658855E+02  0.12855266998E+03  0.14189750797E+03  0.46999998093E+01 0.  1.
       -5    1    3    3    0  502  0.52962266436E+02 -0.27964658855E+02 -0.66107568495E+03  0.66379980042E+03  0.46999998093E+01 0. -1.
</event>
<event>
 5   0  0.5935451E-02  0.6143334E+03  0.7818609E-02  0.9876107E-01
        2   -1    0    0  501    0  0.00000000000E+00  0.00000000000E+00  0.43873141927E+03  0.43873141927E+03  0.25500000920E-02 0.  1.
       -2   -1    0    0    0  501  0.00000000000E+00  0.00000000000E+00 -0.21505500690E+03  0.21505500692E+03  0.25500000920E-02 0. -1.
    10030    2    1    2    0    0  0.00000000000E+00  0.00000000000E+00  0.22367641236E+03  0.65378642619E+03  0.61433342219E+03 0.  0.
        3    1    3    3  502    0 -0.10212357682E+02 -0.26694096387E+03 -0.49522407572E+02  0.27168777943E+03  0.10100000352E+00 0. -1.
       -3    1    3    3    0  502  0.10212357682E+02  0.26694096387E+03  0.27319881994E+03  0.38209864676E+03  0.10100000352E+00 0.  1.
</event>
<event>
 5   0  0.3767635E-02  0.5977819E+03  0.7818609E-02  0.9910019E-01
        1   -1    0    0  501    0  0.00000000000E+00  0.00000000000E+00  0.38561086691E+03  0.38561086694E+03  0.50400001928E-02 0.  1.
       -1   -1    0    0    0  501  0.00000000000E+00  0.00000000000E+00 -0.23167344930E+03  0.23167344935E+03  0.50400001928E-02 0. -1.
    10030    2    1    2    0    0  0.00000000000E+00  0.00000000000E+00  0.15393741762E+03  0.61728431630E+03  0.59778189886E+03 0.  0.
        2    1    3    3  502    0  0.19759240986E+03 -0.20794778466E+03 -0.97395347519E+01  0.28701898914E+03  0.25500000920E-02 0. -1.
       -2    1    3    3    0  502 -0.19759240986E+03  0.20794778466E+03  0.16367695237E+03  0.33026532716E+03  0.25500000920E-02 0.  1.
</event>
<event>
 5   0  0.3767635E-02  0.6034370E+03  0.7818609E-02  0.9898301E-01
        1   -1    0    0  501    0  0.00000000000E+00  0.00000000000E+00  0.23056229709E+03  0.23056229715E+03  0.50400001928E-02 0.  1.
       -1   -1    0    0    0  501  0.00000000000E+00  0.00000000000E+00 -0.39483499210E+03  0.39483499213E+03  0.50400001928E-02 0. -1.
    10030    2    1    2    0    0  0.00000000000E+00  0.00000000000E+00 -0.16427269500E+03  0.62539728928E+03  0.60343703161E+03 0.  0.
        2    1    3    3  502    0 -0.26598212169E+03  0.11563318548E+03 -0.16832865085E+03  0.33533872032E+03  0.25500000920E-02 0. -1.
       -2    1    3    3    0  502  0.26598212169E+03 -0.11563318548E+03  0.40559558493E+01  0.29005856896E+03  0.25500000920E-02 0.  1.
</event>
<event>
 5   0  0.3478183E-02  0.5983710E+03  0.7818609E-02  0.9908792E-01
        1   -1    0    0  501    0  0.00000000000E+00  0.00000000000E+00  0.25752848735E+03  0.25752848740E+03  0.50400001928E-02 0. -1.
       -1   -1    0    0    0  501  0.00000000000E+00  0.00000000000E+00 -0.34758077047E+03  0.34758077051E+03  0.50400001928E-02 0.  1.
    10030    2    1    2    0    0  0.00000000000E+00  0.00000000000E+00 -0.90052283126E+02  0.60510925790E+03  0.59837095543E+03 0.  0.
        4    1    3    3  502    0  0.11653288405E+03 -0.99216270208E+02 -0.30499411694E+03  0.34124303012E+03  0.12699999809E+01 0.  1.
       -4    1    3    3    0  502 -0.11653288405E+03  0.99216270208E+02  0.21494183381E+03  0.26386622778E+03  0.12699999809E+01 0. -1.
</event>
<event>
 5   0  0.3478183E-02  0.6017163E+03  0.7818609E-02  0.9901852E-01
       -1   -1    0    0    0  501  0.00000000000E+00  0.00000000000E+00  0.37055272537E+03  0.37055272541E+03  0.50400001928E-02 0.  1.
        1   -1    0    0  501    0  0.00000000000E+00  0.00000000000E+00 -0.24427194387E+03  0.24427194392E+03  0.50400001928E-02 0. -1.
    10030    2    1    2    0    0  0.00000000000E+00  0.00000000000E+00  0.12628078150E+03  0.61482466932E+03  0.60171632705E+03 0.  0.
        4    1    3    3  502    0 -0.19644052396E+02 -0.27474552166E+03 -0.60504160526E+02  0.28201658959E+03  0.12699999809E+01 0. -1.
       -4    1    3    3    0  502  0.19644052396E+02  0.27474552166E+03  0.18678494203E+03  0.33280807973E+03  0.12699999809E+01 0.  1.
</event>
<event>
 5   0  0.5755078E-02  0.6002054E+03  0.7818609E-02  0.9904980E-01
        2   -1    0    0  501    0  0.00000000000E+00  0.00000000000E+00  0.10412439248E+04  0.10412439248E+04  0.25500000920E-02 0.  1.
       -2   -1    0    0    0  501  0.00000000000E+00  0.00000000000E+00 -0.86494280166E+02  0.86494280204E+02  0.25500000920E-02 0. -1.
    10030    2    1    2    0    0  0.00000000000E+00  0.00000000000E+00  0.95474964462E+03  0.11277382050E+04  0.60020544408E+03 0.  0.
        2    1    3    3  502    0 -0.14950719105E+03  0.16102034603E+03  0.86143685273E+03  0.88901822437E+03  0.25500000920E-02 0.  1.
       -2    1    3    3    0  502  0.14950719105E+03 -0.16102034603E+03  0.93312791889E+02  0.23871998062E+03  0.25500000920E-02 0. -1.
</event>
<event>
 5   0  0.5872632E-02  0.6072660E+03  0.7818609E-02  0.9890445E-01
        2   -1    0    0  501    0  0.00000000000E+00  0.00000000000E+00  0.15746576620E+04  0.15746576620E+04  0.25500000920E-02 0.  1.
       -2   -1    0    0    0  501  0.00000000000E+00  0.00000000000E+00 -0.58547954764E+02  0.58547954820E+02  0.25500000920E-02 0. -1.
    10030    2    1    2    0    0  0.00000000000E+00  0.00000000000E+00  0.15161097073E+04  0.16332056169E+04  0.60726595694E+03 0.  0.
        1    1    3    3  502    0 -0.17771874208E+03  0.11845535947E+03  0.13384842156E+04  0.13554171384E+04  0.50400001928E-02 0.  1.
       -1    1    3    3    0  502  0.17771874208E+03 -0.11845535947E+03  0.17762549164E+03  0.27778847849E+03  0.50400001928E-02 0. -1.
</event>
<event>
 5   0  0.5935451E-02  0.6459350E+03  0.7818609E-02  0.9814437E-01
       -2   -1    0    0    0  501  0.00000000000E+00  0.00000000000E+00  0.17643750543E+03  0.17643750545E+03  0.25500000920E-02 0. -1.
        2   -1    0    0  501    0  0.00000000000E+00  0.00000000000E+00 -0.59118954023E+03  0.59118954024E+03  0.25500000920E-02 0.  1.
    10030    2    1    2    0    0  0.00000000000E+00  0.00000000000E+00 -0.41475203480E+03  0.76762704569E+03  0.64593500517E+03 0.  0.
        3    1    3    3  502    0 -0.15216034945E+03  0.23113189181E+03 -0.40528341105E+03  0.49074369770E+03  0.10100000352E+00 0.  1.
       -3    1    3    3    0  502  0.15216034945E+03 -0.23113189181E+03 -0.94686237485E+01  0.27688334799E+03  0.10100000352E+00 0. -1.
</event>
<event>
 5   0  0.5872632E-02  0.5827819E+03  0.7818609E-02  0.9941786E-01
       -2   -1    0    0    0  501  0.00000000000E+00  0.00000000000E+00  0.23394025895E+03  0.23394025897E+03  0.25500000920E-02 0.  1.
        2   -1    0    0  501    0  0.00000000000E+00  0.00000000000E+00 -0.36295031930E+03  0.36295031931E+03  0.25500000920E-02 0. -1.
    10030    2    1    2    0    0  0.00000000000E+00  0.00000000000E+00 -0.12901006035E+03  0.59689057828E+03  0.58278192042E+03 0.  0.
        1    1    3    3  502    0  0.16620104912E+03 -0.22124754584E+03  0.29003787094E+02  0.27823458621E+03  0.50400001928E-02 0.  1.
       -1    1    3    3    0  502 -0.16620104912E+03  0.22124754584E+03 -0.15801384744E+03  0.31865599207E+03  0.50400001928E-02 0. -1.
</event>
<event>
 5   0  0.6007360E-02  0.5935968E+03  0.7818609E-02  0.9918780E-01
        2   -1    0    0  501    0  0.00000000000E+00  0.00000000000E+00  0.13962906288E+03  0.13962906290E+03  0.25500000920E-02 0. -1.
       -2   -1    0    0    0  501  0.00000000000E+00  0.00000000000E+00 -0.63088071014E+03  0.63088071014E+03  0.25500000920E-02 0.  1.
    10030    2    1    2    0    0  0.00000000000E+00  0.00000000000E+00 -0.49125164726E+03  0.77050977305E+03  0.59359677343E+03 0.  0.
        4    1    3    3  502    0  0.59204233187E+02  0.21117934761E+03  0.13935258734E+02  0.21976729151E+03  0.12699999809E+01 0. -1.
       -4    1    3    3    0  502 -0.59204233187E+02 -0.21117934761E+03 -0.50518690599E+03  0.55074248154E+03  0.12699999809E+01 0.  1.
</event>
<event>
 5   0  0.3651984E-02  0.6016677E+03  0.7818609E-02  0.9901952E-01
        1   -1    0    0  501    0  0.00000000000E+00  0.00000000000E+00  0.12176542859E+04  0.12176542860E+04  0.50400001928E-02 0.  1.
       -1   -1    0    0    0  501  0.00000000000E+00  0.00000000000E+00 -0.74324066122E+02  0.74324066293E+02  0.50400001928E-02 0. -1.
    10030    2    1    2    0    0  0.00000000000E+00  0.00000000000E+00  0.11433302198E+04  0.12919783522E+04  0.60166774146E+03 0.  0.
        1    1    3    3  502    0 -0.16040302857E+02 -0.40313176507E+02 -0.67570394882E+02  0.80300696172E+02  0.50400001928E-02 0. -1.
       -1    1    3    3    0  502  0.16040302857E+02  0.40313176507E+02  0.12109006147E+04  0.12116776561E+04  0.50400001928E-02 0.  1.
</event>
<event>
 5   0  0.3651984E-02  0.5956770E+03  0.7818609E-02  0.9914416E-01
        1   -1    0    0  501    0  0.00000000000E+00  0.00000000000E+00  0.11624888855E+04  0.11624888855E+04  0.50400001928E-02 0.  1.
       -1   -1    0    0    0  501  0.00000000000E+00  0.00000000000E+00 -0.76308497773E+02  0.76308497940E+02  0.50400001928E-02 0. -1.
    10030    2    1    2    0    0  0.00000000000E+00  0.00000000000E+00  0.10861803877E+04  0.12387973834E+04  0.59567702872E+03 0.  0.
        1    1    3    3  502    0  0.58729981950E+02  0.11746644661E+03  0.10990220385E+04  0.11068410085E+04  0.50400001928E-02 0.  1.
       -1    1    3    3    0  502 -0.58729981950E+02 -0.11746644661E+03 -0.12841650856E+02  0.13195637492E+03  0.50400001928E-02 0. -1.
</event>
<event>
 5   0  0.3703280E-02  0.5934220E+03  0.7818609E-02  0.9919148E-01
        1   -1    0    0  501    0  0.00000000000E+00  0.00000000000E+00  0.58129394124E+03  0.58129394126E+03  0.50400001928E-02 0.  1.
       -1   -1    0    0    0  501  0.00000000000E+00  0.00000000000E+00 -0.15145076688E+03  0.15145076696E+03  0.50400001928E-02 0. -1.
    10030    2    1    2    0    0  0.00000000000E+00  0.00000000000E+00  0.42984317436E+03  0.73274470822E+03  0.59342198551E+03 0.  0.
        5    1    3    3  502    0 -0.22870233573E+03  0.51147513114E+01 -0.18331974114E+02  0.22954099922E+03  0.46999998093E+01 0. -1.
       -5    1    3    3    0  502  0.22870233573E+03 -0.51147513114E+01  0.44817514848E+03  0.50320370901E+03  0.46999998093E+01 0.  1.
</event>
<event>
 5   0  0.3478183E-02  0.5905572E+03  0.7818609E-02  0.9925193E-01
       -1   -1    0    0    0  501  0.00000000000E+00  0.00000000000E+00  0.57210580535E+02  0.57210580757E+02  0.50400001928E-02 0.  1.
        1   -1    0    0  501    0  0.00000000000E+00  0.00000000000E+00 -0.15240092067E+04  0.15240092067E+04  0.50400001928E-02 0. -1.
    10030    2    1    2    0    0  0.00000000000E+00  0.00000000000E+00 -0.14667986261E+04  0.15812197874E+04  0.59055720006E+03 0.  0.
        4    1    3    3  502    0 -0.91960291158E+01  0.25916582967E+03 -0.11114526160E+04  0.11413062800E+04  0.12699999809E+01 0. -1.
       -4    1    3    3    0  502  0.91960291158E+01 -0.25916582967E+03 -0.35534601014E+03  0.43991350745E+03  0.12699999809E+01 0.  1.
</event>
<event>
 5   0  0.3478183E-02  0.5948362E+03  0.7818609E-02  0.9916178E-01
        1   -1    0    0  501    0  0.00000000000E+00  0.00000000000E+00  0.11317484217E+04  0.11317484217E+04  0.50400001928E-02 0.  1.
       -1   -1    0    0    0  501  0.00000000000E+00  0.00000000000E+00 -0.78160049459E+02  0.78160049622E+02  0.50400001928E-02 0. -1.
    10030    2    1    2    0    0  0.00000000000E+00  0.00000000000E+00  0.10535883723E+04  0.12099084714E+04  0.59483615466E+03 0.  0.
        4    1    3    3  502    0  0.56355348062E+02  0.19757218728E+02 -0.65834230873E+02  0.88893373215E+02  0.12699999809E+01 0. -1.
       -4    1    3    3    0  502 -0.56355348062E+02 -0.19757218728E+02  0.11194226031E+04  0.11210150982E+04  0.12699999809E+01 0.  1.
</event>
<event>
 5   0  0.3640827E-02  0.5984914E+03  0.7818609E-02  0.9908541E-01
       -1   -1    0    0    0  501  0.00000000000E+00  0.00000000000E+00  0.27628881940E+03  0.27628881944E+03  0.50400001928E-02 0.  1.
        1   -1    0    0  501    0  0.00000000000E+00  0.00000000000E+00 -0.32411006402E+03  0.32411006406E+03  0.50400001928E-02 0. -1.
    10030    2    1    2    0    0  0.00000000000E+00  0.00000000000E+00 -0.47821244621E+02  0.60039888350E+03  0.59849139331E+03 0.  0.
        3    1    3    3  502    0  0.18503238619E+03 -0.13833856872E+03 -0.21470994623E+03  0.31539644060E+03  0.10100000352E+00 0. -1.
       -3    1    3    3    0  502 -0.18503238619E+03  0.13833856872E+03  0.16688870160E+03  0.28500244290E+03  0.10100000352E+00 0.  1.
</event>
<event>
 5   0  0.6007360E-02  0.6010797E+03  0.7818609E-02  0.9903169E-01
        2   -1    0    0  501    0  0.00000000000E+00  0.00000000000E+00  0.24781206984E+04  0.24781206984E+04  0.25500000920E-02 0.  1.
       -2   -1    0    0    0  501  0.00000000000E+00  0.00000000000E+00 -0.36448669714E+02  0.36448669803E+02  0.25500000920E-02 0. -1.
    10030    2    1    2    0    0  0.00000000000E+00  0.00000000000E+00  0.24416720287E+04  0.25145693682E+04  0.60107970507E+03 0.  0.
        4    1    3    3  502    0  0.17896731411E+03  0.23846702193E+03  0.10628172943E+04  0.11038469251E+04  0.12699999809E+01 0. -1.
       -4    1    3    3    0  502 -0.17896731411E+03 -0.23846702193E+03  0.13788547344E+04  0.14107224432E+04  0.12699999809E+01 0.  1.
</event>
<event>
 5   0  0.3767635E-02  0.6009069E+03  0.7818609E-02  0.9903526E-01
       -1   -1    0    0    0  501  0.00000000000E+00  0.00000000000E+00  0.81005609461E+02  0.81005609617E+02  0.50400001928E-02 0.  1.
        1   -1    0    0  501    0  0.00000000000E+00  0.00000000000E+00 -0.11143952867E+04  0.11143952868E+04  0.50400001928E-02 0. -1.
    10030    2    1    2    0    0  0.00000000000E+00  0.00000000000E+00 -0.10333896773E+04  0.11954008964E+04  0.60090687959E+03 0.  0.
        2    1    3    3  502    0  0.74563744633E+02  0.16727884621E+03 -0.42874214423E+02  0.18809615273E+03  0.25500000920E-02 0.  1.
       -2    1    3    3    0  502 -0.74563744633E+02 -0.16727884621E+03 -0.99051546286E+03  0.10073047436E+04  0.25500000920E-02 0. -1.
</event>
<event>
 5   0  0.3640827E-02  0.6009973E+03  0.7818609E-02  0.9903339E-01
        1   -1    0    0  501    0  0.00000000000E+00  0.00000000000E+00  0.54966607787E+03  0.54966607790E+03  0.50400001928E-02 0. -1.
       -1   -1    0    0    0  501  0.00000000000E+00  0.00000000000E+00 -0.16428054229E+03  0.16428054236E+03  0.50400001928E-02 0.  1.
    10030    2    1    2    0    0  0.00000000000E+00  0.00000000000E+00  0.38538553559E+03  0.71394662026E+03  0.60099730910E+03 0.  0.
        3    1    3    3  502    0  0.26252385908E+03 -0.12896986343E+03  0.11084205791E+03  0.31279062368E+03  0.10100000352E+00 0.  1.
       -3    1    3    3    0  502 -0.26252385908E+03  0.12896986343E+03  0.27454347767E+03  0.40115599658E+03  0.10100000352E+00 0. -1.
</event>
<event>
 5   0  0.5999117E-02  0.6083681E+03  0.7818609E-02  0.9888195E-01
        2   -1    0    0  501    0  0.00000000000E+00  0.00000000000E+00  0.36795249804E+03  0.36795249805E+03  0.25500000920E-02 0. -1.
       -2   -1    0    0    0  501  0.00000000000E+00  0.00000000000E+00 -0.25146710054E+03  0.25146710055E+03  0.25500000920E-02 0.  1.
    10030    2    1    2    0    0  0.00000000000E+00  0.00000000000E+00  0.11648539750E+03  0.61941959861E+03  0.60836813798E+03 0.  0.
        5    1    3    3  502    0  0.76951397008E+02 -0.11939960847E+03  0.33206696431E+03  0.36120401823E+03  0.46999998093E+01 0. -1.
       -5    1    3    3    0  502 -0.76951397008E+02  0.11939960847E+03 -0.21558156680E+03  0.25821558038E+03  0.46999998093E+01 0.  1.
</event>
<event>
 5   0  0.3767635E-02  0.6165102E+03  0.7818609E-02  0.9871733E-01
       -1   -1    0    0    0  501  0.00000000000E+00  0.00000000000E+00  0.80081221616E+03  0.80081221617E+03  0.50400001928E-02 0. -1.
        1   -1    0    0  501    0  0.00000000000E+00  0.00000000000E+00 -0.11865603137E+03  0.11865603148E+03  0.50400001928E-02 0.  1.
    10030    2    1    2    0    0  0.00000000000E+00  0.00000000000E+00  0.68215618478E+03  0.91946824766E+03  0.61651017673E+03 0.  0.
        2    1    3    3  502    0 -0.11017733348E+03 -0.39649367116E+02 -0.84195765390E+02  0.14422220370E+03  0.25500000920E-02 0.  1.
       -2    1    3    3    0  502  0.11017733348E+03  0.39649367116E+02  0.76635195017E+03  0.77524604395E+03  0.25500000920E-02 0. -1.
</event>
<event>
 5   0  0.3640827E-02  0.6019646E+03  0.7818609E-02  0.9901338E-01
       -1   -1    0    0    0  501  0.00000000000E+00  0.00000000000E+00  0.11706844656E+03  0.11706844667E+03  0.50400001928E-02 0.  1.
        1   -1    0    0  501    0  0.00000000000E+00  0.00000000000E+00 -0.77382385265E+03  0.77382385267E+03  0.50400001928E-02 0. -1.
    10030    2    1    2    0    0  0.00000000000E+00  0.00000000000E+00 -0.65675540609E+03  0.89089229934E+03  0.60196463816E+03 0.  0.
        3    1    3    3  502    0 -0.14966429163E+03  0.19189258947E+03 -0.66258471100E+02  0.25221491089E+03  0.10100000352E+00 0.  1.
       -3    1    3    3    0  502  0.14966429163E+03 -0.19189258947E+03 -0.59049693499E+03  0.63867738845E+03  0.10100000352E+00 0. -1.
</event>
<event>
 5   0  0.3703280E-02  0.6181627E+03  0.7818609E-02  0.9868425E-01
        1   -1    0    0  501    0  0.00000000000E+00  0.00000000000E+00  0.63164420010E+03  0.63164420012E+03  0.50400001928E-02 0.  1.
       -1   -1    0    0    0  501  0.00000000000E+00  0.00000000000E+00 -0.15124221621E+03  0.15124221630E+03  0.50400001928E-02 0. -1.
    10030    2    1    2    0    0  0.00000000000E+00  0.00000000000E+00  0.48040198389E+03  0.78288641642E+03  0.61816266054E+03 0.  0.
        5    1    3    3  502    0  0.13857415723E+03  0.77294075123E+02 -0.95669999821E+02  0.18534295230E+03  0.46999998093E+01 0. -1.
       -5    1    3    3    0  502 -0.13857415723E+03 -0.77294075123E+02  0.57607198371E+03  0.59754346412E+03  0.46999998093E+01 0.  1.
</event>
<event>
 5   0  0.5755078E-02  0.6074740E+03  0.7818609E-02  0.9890020E-01
       -2   -1    0    0    0  501  0.00000000000E+00  0.00000000000E+00  0.13231450548E+03  0.13231450551E+03  0.25500000920E-02 0.  1.
        2   -1    0    0  501    0  0.00000000000E+00  0.00000000000E+00 -0.69724915804E+03  0.69724915805E+03  0.25500000920E-02 0. -1.
    10030    2    1    2    0    0  0.00000000000E+00  0.00000000000E+00 -0.56493465256E+03  0.82956366356E+03  0.60747404079E+03 0.  0.
        2    1    3    3  502    0 -0.26217997039E+03  0.64561653145E+02 -0.92508984392E+02  0.28541978931E+03  0.25500000920E-02 0.  1.
       -2    1    3    3    0  502  0.26217997039E+03 -0.64561653145E+02 -0.47242566817E+03  0.54414387425E+03  0.25500000920E-02 0. -1.
</event>
<event>
 5   0  0.5755078E-02  0.5948473E+03  0.7818609E-02  0.9916154E-01
       -2   -1    0    0    0  501  0.00000000000E+00  0.00000000000E+00  0.12710992773E+03  0.12710992776E+03  0.25500000920E-02 0.  1.
        2   -1    0    0  501    0  0.00000000000E+00  0.00000000000E+00 -0.69593946605E+03  0.69593946605E+03  0.25500000920E-02 0. -1.
    10030    2    1    2    0    0  0.00000000000E+00  0.00000000000E+00 -0.56882953832E+03  0.82304939381E+03  0.59484725854E+03 0.  0.
        2    1    3    3  502    0 -0.24494379161E+03  0.79556777095E+02 -0.49026488134E+03  0.55379273714E+03  0.25500000920E-02 0. -1.
       -2    1    3    3    0  502  0.24494379161E+03 -0.79556777095E+02 -0.78564656975E+02  0.26925665667E+03  0.25500000920E-02 0.  1.
</event>
<event>
 5   0  0.5935451E-02  0.6015632E+03  0.7818609E-02  0.9902168E-01
       -2   -1    0    0    0  501  0.00000000000E+00  0.00000000000E+00  0.52524691218E+02  0.52524691280E+02  0.25500000920E-02 0.  1.
        2   -1    0    0  501    0  0.00000000000E+00  0.00000000000E+00 -0.17224200825E+04  0.17224200825E+04  0.25500000920E-02 0. -1.
    10030    2    1    2    0    0  0.00000000000E+00  0.00000000000E+00 -0.16698953913E+04  0.17749447738E+04  0.60156324036E+03 0.  0.
        3    1    3    3  502    0 -0.12952071939E+03  0.13449129656E+03 -0.15307158819E+04  0.15420618168E+04  0.10100000352E+00 0. -1.
       -3    1    3    3    0  502  0.12952071939E+03 -0.13449129656E+03 -0.13917950934E+03  0.23288295692E+03  0.10100000352E+00 0.  1.
</event>
<event>
 5   0  0.6007360E-02  0.5277384E+03  0.7818609E-02  0.1006782E+00
        2   -1    0    0  501    0  0.00000000000E+00  0.00000000000E+00  0.31524357057E+03  0.31524357058E+03  0.25500000920E-02 0. -1.
       -2   -1    0    0    0  501  0.00000000000E+00  0.00000000000E+00 -0.22086718187E+03  0.22086718188E+03  0.25500000920E-02 0.  1.
    10030    2    1    2    0    0  0.00000000000E+00  0.00000000000E+00  0.94376388699E+02  0.53611075246E+03  0.52773841641E+03 0.  0.
        4    1    3    3  502    0  0.13293933041E+03  0.68109413924E+02  0.26815587207E+03  0.30695430028E+03  0.12699999809E+01 0. -1.
       -4    1    3    3    0  502 -0.13293933041E+03 -0.68109413924E+02 -0.17377948337E+03  0.22915645218E+03  0.12699999809E+01 0.  1.
</event>
<event>
 5   0  0.3651984E-02  0.6135093E+03  0.7818609E-02  0.9877768E-01
        1   -1    0    0  501    0  0.00000000000E+00  0.00000000000E+00  0.74104189011E+03  0.74104189013E+03  0.50400001928E-02 0.  1.
       -1   -1    0    0    0  501  0.00000000000E+00  0.00000000000E+00 -0.12698124153E+03  0.12698124163E+03  0.50400001928E-02 0. -1.
    10030    2    1    2    0    0  0.00000000000E+00  0.00000000000E+00  0.61406064858E+03  0.86802313176E+03  0.61350931300E+03 0.  0.
        1    1    3    3  502    0  0.37385889756E+02 -0.18577874836E+03 -0.34259244545E+02  0.19257503462E+03  0.50400001928E-02 0. -1.
       -1    1    3    3    0  502 -0.37385889756E+02  0.18577874836E+03  0.64831989312E+03  0.67544809715E+03  0.50400001928E-02 0.  1.
</event>
<event>
 5   0  0.6007360E-02  0.5915583E+03  0.7818609E-02  0.9923076E-01
       -2   -1    0    0    0  501  0.00000000000E+00  0.00000000000E+00  0.81277113822E+02  0.81277113862E+02  0.25500000920E-02 0.  1.
        2   -1    0    0  501    0  0.00000000000E+00  0.00000000000E+00 -0.10763828505E+04  0.10763828505E+04  0.25500000920E-02 0. -1.
    10030    2    1    2    0    0  0.00000000000E+00  0.00000000000E+00 -0.99510573668E+03  0.11576599644E+04  0.59155825235E+03 0.  0.
        4    1    3    3  502    0 -0.22691514405E+03 -0.11857547267E+03 -0.20772973749E+03  0.32970271770E+03  0.12699999809E+01 0. -1.
       -4    1    3    3    0  502  0.22691514405E+03  0.11857547267E+03 -0.78737599918E+03  0.82795724667E+03  0.12699999809E+01 0.  1.
</event>
<event>
 5   0  0.3478183E-02  0.5892138E+03  0.7818609E-02  0.9928040E-01
       -1   -1    0    0    0  501  0.00000000000E+00  0.00000000000E+00  0.99211543312E+02  0.99211543440E+02  0.50400001928E-02 0. -1.
        1   -1    0    0  501    0  0.00000000000E+00  0.00000000000E+00 -0.87483002605E+03  0.87483002607E+03  0.50400001928E-02 0.  1.
    10030    2    1    2    0    0  0.00000000000E+00  0.00000000000E+00 -0.77561848274E+03  0.97404156951E+03  0.58921383925E+03 0.  0.
        4    1    3    3  502    0  0.13549806383E+03  0.24880095415E+03 -0.25422334314E+03  0.38064781778E+03  0.12699999809E+01 0. -1.
       -4    1    3    3    0  502 -0.13549806383E+03 -0.24880095415E+03 -0.52139513960E+03  0.59339375172E+03  0.12699999809E+01 0.  1.
</event>
<event>
 5   0  0.5872632E-02  0.6026616E+03  0.7818609E-02  0.9899899E-01
        2   -1    0    0  501    0  0.00000000000E+00  0.00000000000E+00  0.11286088160E+04  0.11286088160E+04  0.25500000920E-02 0.  1.
       -2   -1    0    0    0  501  0.00000000000E+00  0.00000000000E+00 -0.80453258463E+02  0.80453258504E+02  0.25500000920E-02 0. -1.
    10030    2    1    2    0    0  0.00000000000E+00  0.00000000000E+00  0.10481555575E+04  0.12090620745E+04  0.60266161916E+03 0.  0.
        1    1    3    3  502    0 -0.25969660755E+03  0.15233520211E+03  0.49935055288E+03  0.58309460335E+03  0.50400001928E-02 0.  1.
       -1    1    3    3    0  502  0.25969660755E+03 -0.15233520211E+03  0.54880500462E+03  0.62596747112E+03  0.50400001928E-02 0. -1.
</event>
<event>
 5   0  0.3640827E-02  0.5975522E+03  0.7818609E-02  0.9910497E-01
       -1   -1    0    0    0  501  0.00000000000E+00  0.00000000000E+00  0.13830417086E+03  0.13830417095E+03  0.50400001928E-02 0.  1.
        1   -1    0    0  501    0  0.00000000000E+00  0.00000000000E+00 -0.64544092671E+03  0.64544092673E+03  0.50400001928E-02 0. -1.
    10030    2    1    2    0    0  0.00000000000E+00  0.00000000000E+00 -0.50713675585E+03  0.78374509768E+03  0.59755224793E+03 0.  0.
        3    1    3    3  502    0  0.32700576624E+02  0.60317261722E+02 -0.63496827606E+03  0.63866440450E+03  0.10100000352E+00 0. -1.
       -3    1    3    3    0  502 -0.32700576624E+02 -0.60317261722E+02  0.12783152021E+03  0.14508069318E+03  0.10100000352E+00 0.  1.
</event>
<event>
 5   0  0.5935451E-02  0.6012292E+03  0.7818609E-02  0.9902859E-01
        2   -1    0    0  501    0  0.00000000000E+00  0.00000000000E+00  0.10214221495E+04  0.10214221495E+04  0.25500000920E-02 0. -1.
       -2   -1    0    0    0  501  0.00000000000E+00  0.00000000000E+00 -0.88473841824E+02  0.88473841861E+02  0.25500000920E-02 0.  1.
    10030    2    1    2    0    0  0.00000000000E+00  0.00000000000E+00  0.93294830768E+03  0.11098959914E+04  0.60122921324E+03 0.  0.
        3    1    3    3  502    0 -0.78348896375E+02  0.28354846563E+03  0.35221532749E+03  0.45890514166E+03  0.10100000352E+00 0.  1.
       -3    1    3    3    0  502  0.78348896375E+02 -0.28354846563E+03  0.58073298019E+03  0.65099084971E+03  0.10100000352E+00 0. -1.
</event>
<event>
 5   0  0.3703280E-02  0.5990564E+03  0.7818609E-02  0.9907366E-01
       -1   -1    0    0    0  501  0.00000000000E+00  0.00000000000E+00  0.13276410894E+03  0.13276410903E+03  0.50400001928E-02 0.  1.
        1   -1    0    0  501    0  0.00000000000E+00  0.00000000000E+00 -0.67576359055E+03  0.67576359057E+03  0.50400001928E-02 0. -1.
    10030    2    1    2    0    0  0.00000000000E+00  0.00000000000E+00 -0.54299948161E+03  0.80852769961E+03  0.59905642806E+03 0.  0.
        5    1    3    3  502    0  0.13124908775E+03  0.26698749682E+03 -0.31798822597E+03  0.43548507248E+03  0.46999998093E+01 0. -1.
       -5    1    3    3    0  502 -0.13124908775E+03 -0.26698749682E+03 -0.22501125564E+03  0.37304262713E+03  0.46999998093E+01 0.  1.
</event>
<event>
 5   0  0.5872632E-02  0.6005051E+03  0.7818609E-02  0.9904359E-01
        2   -1    0    0  501    0  0.00000000000E+00  0.00000000000E+00  0.16609162287E+03  0.16609162289E+03  0.25500000920E-02 0. -1.
       -2   -1    0    0    0  501  0.00000000000E+00  0.00000000000E+00 -0.54278228225E+03  0.54278228226E+03  0.25500000920E-02 0.  1.
    10030    2    1    2    0    0  0.00000000000E+00  0.00000000000E+00 -0.37669065939E+03  0.70887390515E+03  0.60050508784E+03 0.  0.
        1    1    3    3  502    0 -0.29244678422E+03  0.59424348271E+02 -0.22741160957E+03  0.37519650180E+03  0.50400001928E-02 0.  1.
       -1    1    3    3    0  502  0.29244678422E+03 -0.59424348271E+02 -0.14927904982E+03  0.33367740335E+03  0.50400001928E-02 0. -1.
</event>
<event>
 5   0  0.5935451E-02  0.5967639E+03  0.7818609E-02  0.9912143E-01
        2   -1    0    0  501    0  0.00000000000E+00  0.00000000000E+00  0.12569286017E+04  0.12569286017E+04  0.25500000920E-02 0.  1.
       -2   -1    0    0    0  501  0.00000000000E+00  0.00000000000E+00 -0.70832802490E+02  0.70832802536E+02  0.25500000920E-02 0. -1.
    10030    2    1    2    0    0  0.00000000000E+00  0.00000000000E+00  0.11860957992E+04  0.13277614042E+04  0.59676385755E+03 0.  0.
        3    1    3    3  502    0 -0.25590370283E+03 -0.88296567610E+02  0.31383149272E+03  0.41445531122E+03  0.10100000352E+00 0. -1.
       -3    1    3    3    0  502  0.25590370283E+03  0.88296567610E+02  0.87226430648E+03  0.91330609302E+03  0.10100000352E+00 0.  1.
</event>
<event>
 5   0  0.3703280E-02  0.5778512E+03  0.7818609E-02  0.9952454E-01
        1   -1    0    0  501    0  0.00000000000E+00  0.00000000000E+00  0.69287758716E+02  0.69287758900E+02  0.50400001928E-02 0.  1.
       -1   -1    0    0    0  501  0.00000000000E+00  0.00000000000E+00 -0.12048017202E+04  0.12048017202E+04  0.50400001928E-02 0. -1.
    10030    2    1    2    0    0  0.00000000000E+00  0.00000000000E+00 -0.11355139614E+04  0.12740894791E+04  0.57785123003E+03 0.  0.
        5    1    3    3  502    0  0.10760742332E+03 -0.10448077994E+03 -0.11121437259E+04  0.11222216127E+04  0.46999998093E+01 0. -1.
       -5    1    3    3    0  502 -0.10760742332E+03  0.10448077994E+03 -0.23370235548E+02  0.15186786638E+03  0.46999998093E+01 0.  1.
</event>
<event>
 5   0  0.3478183E-02  0.6007656E+03  0.7818609E-02  0.9903819E-01
        1   -1    0    0  501    0  0.00000000000E+00  0.00000000000E+00  0.10813989514E+03  0.10813989526E+03  0.50400001928E-02 0.  1.
       -1   -1    0    0    0  501  0.00000000000E+00  0.00000000000E+00 -0.83438064519E+03  0.83438064521E+03  0.50400001928E-02 0. -1.
    10030    2    1    2    0    0  0.00000000000E+00  0.00000000000E+00 -0.72624075005E+03  0.94252054047E+03  0.60076562998E+03 0.  0.
        4    1    3    3  502    0 -0.77595804015E+01 -0.75875251457E+02 -0.81893175008E+03  0.82247680153E+03  0.12699999809E+01 0. -1.
       -4    1    3    3    0  502  0.77595804015E+01  0.75875251457E+02  0.92691000026E+02  0.12004373893E+03  0.12699999809E+01 0.  1.
</event>
<event>
 5   0  0.3767635E-02  0.5818914E+03  0.7818609E-02  0.9943704E-01
       -1   -1    0    0    0  501  0.00000000000E+00  0.00000000000E+00  0.14534473122E+03  0.14534473131E+03  0.50400001928E-02 0.  1.
        1   -1    0    0  501    0  0.00000000000E+00  0.00000000000E+00 -0.58240437853E+03  0.58240437855E+03  0.50400001928E-02 0. -1.
    10030    2    1    2    0    0  0.00000000000E+00  0.00000000000E+00 -0.43705964731E+03  0.72774910986E+03  0.58189142595E+03 0.  0.
        2    1    3    3  502    0 -0.10363076012E+03 -0.17444573135E+03 -0.47931223758E+03  0.52049098813E+03  0.25500000920E-02 0. -1.
       -2    1    3    3    0  502  0.10363076012E+03  0.17444573135E+03  0.42252590271E+02  0.20725812173E+03  0.25500000920E-02 0.  1.
</event>
<event>
 5   0  0.6007360E-02  0.5969032E+03  0.7818609E-02  0.9911852E-01
       -2   -1    0    0    0  501  0.00000000000E+00  0.00000000000E+00  0.14472507369E+03  0.14472507371E+03  0.25500000920E-02 0.  1.
        2   -1    0    0  501    0  0.00000000000E+00  0.00000000000E+00 -0.61546600620E+03  0.61546600621E+03  0.25500000920E-02 0. -1.
    10030    2    1    2    0    0  0.00000000000E+00  0.00000000000E+00 -0.47074093251E+03  0.76019107992E+03  0.59690321866E+03 0.  0.
        4    1    3    3  502    0  0.24590835977E+03  0.16911650080E+03 -0.23621329102E+03  0.38061745100E+03  0.12699999809E+01 0. -1.
       -4    1    3    3    0  502 -0.24590835977E+03 -0.16911650080E+03 -0.23452764149E+03  0.37957362892E+03  0.12699999809E+01 0.  1.
</event>
<event>
 5   0  0.5872632E-02  0.5981539E+03  0.7818609E-02  0.9909244E-01
       -2   -1    0    0    0  501  0.00000000000E+00  0.00000000000E+00  0.36053404441E+03  0.36053404442E+03  0.25500000920E-02 0.  1.
        2   -1    0    0  501    0  0.00000000000E+00  0.00000000000E+00 -0.24809592114E+03  0.24809592115E+03  0.25500000920E-02 0. -1.
    10030    2    1    2    0    0  0.00000000000E+00  0.00000000000E+00  0.11243812327E+03  0.60862996557E+03  0.59815391282E+03 0.  0.
        1    1    3    3  502    0 -0.14701760668E+03 -0.18086332924E+03  0.24690809046E+03  0.33954281865E+03  0.50400001928E-02 0.  1.
       -1    1    3    3    0  502  0.14701760668E+03  0.18086332924E+03 -0.13446996719E+03  0.26908714692E+03  0.50400001928E-02 0. -1.
</event>
<event>
 5   0  0.3478183E-02  0.6443876E+03  0.7818609E-02  0.9817368E-01
       -1   -1    0    0    0  501  0.00000000000E+00  0.00000000000E+00  0.14362836045E+03  0.14362836053E+03  0.50400001928E-02 0.  1.
        1   -1    0    0  501    0  0.00000000000E+00  0.00000000000E+00 -0.72276004605E+03  0.72276004607E+03  0.50400001928E-02 0. -1.
    10030    2    1    2    0    0  0.00000000000E+00  0.00000000000E+00 -0.57913168560E+03  0.86638840660E+03  0.64438758665E+03 0.  0.
        4    1    3    3  502    0 -0.22417792657E+03  0.19916134624E+03 -0.44800329369E+03  0.53910068508E+03  0.12699999809E+01 0. -1.
       -4    1    3    3    0  502  0.22417792657E+03 -0.19916134624E+03 -0.13112839192E+03  0.32728772153E+03  0.12699999809E+01 0.  1.
</event>
<event>
 5   0  0.5999117E-02  0.5989383E+03  0.7818609E-02  0.9907611E-01
       -2   -1    0    0    0  501  0.00000000000E+00  0.00000000000E+00  0.16825562483E+03  0.16825562485E+03  0.25500000920E-02 0.  1.
        2   -1    0    0  501    0  0.00000000000E+00  0.00000000000E+00 -0.53300905371E+03  0.53300905371E+03  0.25500000920E-02 0. -1.
    10030    2    1    2    0    0  0.00000000000E+00  0.00000000000E+00 -0.36475342888E+03  0.70126467856E+03  0.59893829859E+03 0.  0.
        5    1    3    3  502    0  0.28286167107E+03 -0.93050040077E+02 -0.14552487020E+03  0.33146434614E+03  0.46999998093E+01 0.  1.
       -5    1    3    3    0  502 -0.28286167107E+03  0.93050040077E+02 -0.21922855868E+03  0.36980033242E+03  0.46999998093E+01 0. -1.
</event>
<event>
 5   0  0.3478183E-02  0.6205343E+03  0.7818609E-02  0.9863697E-01
       -1   -1    0    0    0  501  0.00000000000E+00  0.00000000000E+00  0.94542732628E+02  0.94542732763E+02  0.50400001928E-02 0.  1.
        1   -1    0    0  501    0  0.00000000000E+00  0.00000000000E+00 -0.10182241892E+04  0.10182241892E+04  0.50400001928E-02 0. -1.
    10030    2    1    2    0    0  0.00000000000E+00  0.00000000000E+00 -0.92368145653E+03  0.11127669219E+04  0.62053427739E+03 0.  0.
        4    1    3    3  502    0 -0.19365177246E+03 -0.17208007274E+03 -0.76801526077E+03  0.81053168605E+03  0.12699999809E+01 0. -1.
       -4    1    3    3    0  502  0.19365177246E+03  0.17208007274E+03 -0.15566619576E+03  0.30223523589E+03  0.12699999809E+01 0.  1.
</event>
<event>
 5   0  0.3640827E-02  0.5790145E+03  0.7818609E-02  0.9949927E-01
       -1   -1    0    0    0  501  0.00000000000E+00  0.00000000000E+00  0.53848873237E+02  0.53848873472E+02  0.50400001928E-02 0. -1.
        1   -1    0    0  501    0  0.00000000000E+00  0.00000000000E+00 -0.15564754716E+04  0.15564754716E+04  0.50400001928E-02 0.  1.
    10030    2    1    2    0    0  0.00000000000E+00  0.00000000000E+00 -0.15026265984E+04  0.16103243451E+04  0.57901450953E+03 0.  0.
        3    1    3    3  502    0 -0.14318122451E+03 -0.19259452028E+03 -0.12016609912E+04  0.12253908194E+04  0.10100000352E+00 0.  1.
       -3    1    3    3    0  502  0.14318122451E+03  0.19259452028E+03 -0.30096560714E+03  0.38493352566E+03  0.10100000352E+00 0. -1.
</event>
<event>
 5   0  0.2388000E-02  0.5966485E+03  0.7818609E-02  0.9912384E-01
       -3   -1    0    0    0  501  0.00000000000E+00  0.00000000000E+00  0.38415066230E+03  0.38415067557E+03  0.10100000352E+00 0. -1.
        3   -1    0    0  501    0  0.00000000000E+00  0.00000000000E+00 -0.23167304035E+03  0.23167306236E+03  0.10100000352E+00 0.  1.
    10030    2    1    2    0    0  0.00000000000E+00  0.00000000000E+00  0.15247762195E+03  0.61582373794E+03  0.59664851547E+03 0.  0.
        2    1    3    3  502    0 -0.79041127943E+02  0.28608853029E+03  0.10725822539E+03  0.31559225908E+03  0.25500000920E-02 0.  1.
       -2    1    3    3    0  502  0.79041127943E+02 -0.28608853029E+03  0.45219396559E+02  0.30023147886E+03  0.25500000920E-02 0. -1.
</event>
<event>
 5   0  0.3767635E-02  0.6114156E+03  0.7818609E-02  0.9882001E-01
       -1   -1    0    0    0  501  0.00000000000E+00  0.00000000000E+00  0.29376038441E+03  0.29376038445E+03  0.50400001928E-02 0. -1.
        1   -1    0    0  501    0  0.00000000000E+00  0.00000000000E+00 -0.31814113587E+03  0.31814113591E+03  0.50400001928E-02 0.  1.
    10030    2    1    2    0    0  0.00000000000E+00  0.00000000000E+00 -0.24380751462E+02  0.61190152037E+03  0.61141561117E+03 0.  0.
        2    1    3    3  502    0  0.24947128785E+03 -0.30144235898E+02 -0.18643406649E+03  0.31289336774E+03  0.25500000920E-02 0.  1.
       -2    1    3    3    0  502 -0.24947128785E+03  0.30144235898E+02  0.16205331503E+03  0.29900815263E+03  0.25500000920E-02 0. -1.
</event>
<event>
 5   0  0.2388000E-02  0.5963169E+03  0.7818609E-02  0.9913077E-01
       -3   -1    0    0    0  501  0.00000000000E+00  0.00000000000E+00  0.16343436407E+03  0.16343439528E+03  0.10100000352E+00 0. -1.
        3   -1    0    0  501    0  0.00000000000E+00  0.00000000000E+00 -0.54393973733E+03  0.54393974670E+03  0.10100000352E+00 0.  1.
    10030    2    1    2    0    0  0.00000000000E+00  0.00000000000E+00 -0.38050537326E+03  0.70737414198E+03  0.59631689366E+03 0.  0.
        4    1    3    3  502    0  0.24372783161E+03 -0.80990166885E+02 -0.10608276367E+02  0.25705410221E+03  0.12699999809E+01 0. -1.
       -4    1    3    3    0  502 -0.24372783161E+03  0.80990166885E+02 -0.36989709689E+03  0.45032003977E+03  0.12699999809E+01 0.  1.
</event>
<event>
 5   0  0.6007360E-02  0.6015861E+03  0.7818609E-02  0.9902121E-01
       -2   -1    0    0    0  501  0.00000000000E+00  0.00000000000E+00  0.30537884169E+03  0.30537884170E+03  0.25500000920E-02 0. -1.
        2   -1    0    0  501    0  0.00000000000E+00  0.00000000000E+00 -0.29627608592E+03  0.29627608593E+03  0.25500000920E-02 0.  1.
    10030    2    1    2    0    0  0.00000000000E+00  0.00000000000E+00  0.91027557737E+01  0.60165492763E+03  0.60158606349E+03 0.  0.
        4    1    3    3  502    0 -0.19468529038E+03 -0.53395054089E+01 -0.22469956027E+03  0.29735900506E+03  0.12699999809E+01 0.  1.
       -4    1    3    3    0  502  0.19468529038E+03  0.53395054089E+01  0.23380231604E+03  0.30429592257E+03  0.12699999809E+01 0. -1.
</event>
<event>
 5   0  0.3651984E-02  0.6081727E+03  0.7818609E-02  0.9888594E-01
       -1   -1    0    0    0  501  0.00000000000E+00  0.00000000000E+00  0.34169096763E+03  0.34169096767E+03  0.50400001928E-02 0. -1.
        1   -1    0    0  501    0  0.00000000000E+00  0.00000000000E+00 -0.27062030536E+03  0.27062030541E+03  0.50400001928E-02 0.  1.
    10030    2    1    2    0    0  0.00000000000E+00  0.00000000000E+00  0.71070662264E+02  0.61231127308E+03  0.60817271897E+03 0.  0.
        1    1    3    3  502    0  0.26538781704E+02  0.16841206351E+03 -0.21797483165E+03  0.27673083913E+03  0.50400001928E-02 0.  1.
       -1    1    3    3    0  502 -0.26538781704E+02 -0.16841206351E+03  0.28904549391E+03  0.33558043394E+03  0.50400001928E-02 0. -1.
</event>
<event>
 5   0  0.3640827E-02  0.6144467E+03  0.7818609E-02  0.9875879E-01
        1   -1    0    0  501    0  0.00000000000E+00  0.00000000000E+00  0.10235905928E+04  0.10235905928E+04  0.50400001928E-02 0. -1.
       -1   -1    0    0    0  501  0.00000000000E+00  0.00000000000E+00 -0.92210879839E+02  0.92210879977E+02  0.50400001928E-02 0.  1.
    10030    2    1    2    0    0  0.00000000000E+00  0.00000000000E+00  0.93137971291E+03  0.11158014727E+04  0.61444670798E+03 0.  0.
        3    1    3    3  502    0  0.10235561311E+03  0.10117782447E+03  0.95858617609E+03  0.96933022799E+03  0.10100000352E+00 0. -1.
       -3    1    3    3    0  502 -0.10235561311E+03 -0.10117782447E+03 -0.27206463181E+02  0.14647124475E+03  0.10100000352E+00 0.  1.
</event>
<event>
 5   0  0.5755078E-02  0.5655766E+03  0.7818609E-02  0.9979515E-01
        2   -1    0    0  501    0  0.00000000000E+00  0.00000000000E+00  0.12183045063E+04  0.12183045063E+04  0.25500000920E-02 0.  1.
       -2   -1    0    0    0  501  0.00000000000E+00  0.00000000000E+00 -0.65639755082E+02  0.65639755131E+02  0.25500000920E-02 0. -1.
    10030    2    1    2    0    0  0.00000000000E+00  0.00000000000E+00  0.11526647512E+04  0.12839442615E+04  0.56557655342E+03 0.  0.
        2    1    3    3  502    0 -0.15408975999E+03  0.22559479874E+03  0.41055627521E+03  0.49314614718E+03  0.25500000920E-02 0.  1.
       -2    1    3    3    0  502  0.15408975999E+03 -0.22559479874E+03  0.74210847604E+03  0.79079811429E+03  0.25500000920E-02 0. -1.
</event>
<event>
 5   0  0.6007360E-02  0.5977416E+03  0.7818609E-02  0.9910103E-01
        2   -1    0    0  501    0  0.00000000000E+00  0.00000000000E+00  0.10830849399E+04  0.10830849399E+04  0.25500000920E-02 0.  1.
       -2   -1    0    0    0  501  0.00000000000E+00  0.00000000000E+00 -0.82471597014E+02  0.82471597054E+02  0.25500000920E-02 0. -1.
    10030    2    1    2    0    0  0.00000000000E+00  0.00000000000E+00  0.10006133429E+04  0.11655565369E+04  0.59774156529E+03 0.  0.
        4    1    3    3  502    0 -0.10978102109E+03 -0.15391527194E+03  0.48947102460E+02  0.19529264007E+03  0.12699999809E+01 0. -1.
       -4    1    3    3    0  502  0.10978102109E+03  0.15391527194E+03  0.95166624039E+03  0.97026389685E+03  0.12699999809E+01 0.  1.
</event>
<event>
 5   0  0.3703280E-02  0.5943233E+03  0.7818609E-02  0.9917254E-01
       -1   -1    0    0    0  501  0.00000000000E+00  0.00000000000E+00  0.37525764762E+02  0.37525765101E+02  0.50400001928E-02 0.  1.
        1   -1    0    0  501    0  0.00000000000E+00  0.00000000000E+00 -0.23531843348E+04  0.23531843349E+04  0.50400001928E-02 0. -1.
    10030    2    1    2    0    0  0.00000000000E+00  0.00000000000E+00 -0.23156585701E+04  0.23907101000E+04  0.59432328644E+03 0.  0.
        5    1    3    3  502    0  0.16836780047E+03  0.16982020920E+02 -0.17540765716E+03  0.24377457099E+03  0.46999998093E+01 0.  1.
       -5    1    3    3    0  502 -0.16836780047E+03 -0.16982020920E+02 -0.21402509129E+04  0.21469355290E+04  0.46999998093E+01 0. -1.
</event>
<event>
 5   0  0.6007360E-02  0.5831688E+03  0.7818609E-02  0.9940954E-01
        2   -1    0    0  501    0  0.00000000000E+00  0.00000000000E+00  0.19270102951E+03  0.19270102953E+03  0.25500000920E-02 0.  1.
       -2   -1    0    0    0  501  0.00000000000E+00  0.00000000000E+00 -0.44120916707E+03  0.44120916708E+03  0.25500000920E-02 0. -1.
    10030    2    1    2    0    0  0.00000000000E+00  0.00000000000E+00 -0.24850813756E+03  0.63391019660E+03  0.58316879454E+03 0.  0.
        4    1    3    3  502    0  0.26740066510E+01  0.17480228710E+03  0.12941046517E+03  0.21751246236E+03  0.12699999809E+01 0.  1.
       -4    1    3    3    0  502 -0.26740066510E+01 -0.17480228710E+03 -0.37791860273E+03  0.41639773424E+03  0.12699999809E+01 0. -1.
</event>
<event>
 5   0  0.3767635E-02  0.5961142E+03  0.7818609E-02  0.9913501E-01
       -1   -1    0    0    0  501  0.00000000000E+00  0.00000000000E+00  0.19772425737E+03  0.19772425744E+03  0.50400001928E-02 0. -1.
        1   -1    0    0  501    0  0.00000000000E+00  0.00000000000E+00 -0.44930267988E+03  0.44930267991E+03  0.50400001928E-02 0.  1.
    10030    2    1    2    0    0  0.00000000000E+00  0.00000000000E+00 -0.25157842251E+03  0.64702693735E+03  0.59611421303E+03 0.  0.
        2    1    3    3  502    0 -0.25653697772E+03  0.63507650229E+02 -0.27537711802E+03  0.38167656427E+03  0.25500000920E-02 0.  1.
       -2    1    3    3    0  502  0.25653697772E+03 -0.63507650229E+02  0.23798695510E+02  0.26535037308E+03  0.25500000920E-02 0. -1.
</event>
<event>
 5   0  0.5999117E-02  0.5327512E+03  0.7818609E-02  0.1005567E+00
       -2   -1    0    0    0  501  0.00000000000E+00  0.00000000000E+00  0.22802421954E+03  0.22802421955E+03  0.25500000920E-02 0. -1.
        2   -1    0    0  501    0  0.00000000000E+00  0.00000000000E+00 -0.31117725735E+03  0.31117725736E+03  0.25500000920E-02 0.  1.
    10030    2    1    2    0    0  0.00000000000E+00  0.00000000000E+00 -0.83153037810E+02  0.53920147691E+03  0.53275116612E+03 0.  0.
        5    1    3    3  502    0  0.19226302156E+03  0.74606209193E+02 -0.21214803839E+03  0.29590545129E+03  0.46999998093E+01 0.  1.
       -5    1    3    3    0  502 -0.19226302156E+03 -0.74606209193E+02  0.12899500058E+03  0.24329602562E+03  0.46999998093E+01 0. -1.
</event>
<event>
 5   0  0.3767635E-02  0.5914434E+03  0.7818609E-02  0.9923319E-01
        1   -1    0    0  501    0  0.00000000000E+00  0.00000000000E+00  0.15095536195E+04  0.15095536195E+04  0.50400001928E-02 0. -1.
       -1   -1    0    0    0  501  0.00000000000E+00  0.00000000000E+00 -0.57931912323E+02  0.57931912542E+02  0.50400001928E-02 0.  1.
    10030    2    1    2    0    0  0.00000000000E+00  0.00000000000E+00  0.14516217072E+04  0.15674855321E+04  0.59144341440E+03 0.  0.
        2    1    3    3  502    0 -0.16059826024E+03 -0.69255960020E+02  0.93827330845E+02  0.19847356804E+03  0.25500000920E-02 0.  1.
       -2    1    3    3    0  502  0.16059826024E+03  0.69255960020E+02  0.13577943763E+04  0.13690119640E+04  0.25500000920E-02 0. -1.
</event>
<event>
 5   0  0.5935451E-02  0.5181723E+03  0.7818609E-02  0.1009142E+00
        2   -1    0    0  501    0  0.00000000000E+00  0.00000000000E+00  0.78605061325E+03  0.78605061325E+03  0.25500000920E-02 0.  1.
       -2   -1    0    0    0  501  0.00000000000E+00  0.00000000000E+00 -0.85396077700E+02  0.85396077738E+02  0.25500000920E-02 0. -1.
    10030    2    1    2    0    0  0.00000000000E+00  0.00000000000E+00  0.70065453555E+03  0.87144669099E+03  0.51817232371E+03 0.  0.
        3    1    3    3  502    0 -0.83785895790E+02  0.97500204525E+02  0.72862932856E+03  0.73988314946E+03  0.10100000352E+00 0.  1.
       -3    1    3    3    0  502  0.83785895790E+02 -0.97500204525E+02 -0.27974793010E+02  0.13156354153E+03  0.10100000352E+00 0. -1.
</event>
<event>
 5   0  0.2388000E-02  0.6007398E+03  0.7818609E-02  0.9903872E-01
        4   -1    0    0  501    0  0.00000000000E+00  0.00000000000E+00  0.10779947657E+04  0.10779955138E+04  0.12699999809E+01 0.  1.
       -4   -1    0    0    0  501  0.00000000000E+00  0.00000000000E+00 -0.83688757024E+02  0.83698392770E+02  0.12699999809E+01 0. -1.
    10030    2    1    2    0    0  0.00000000000E+00  0.00000000000E+00  0.99430600867E+03  0.11616939066E+04  0.60073978866E+03 0.  0.
        2    1    3    3  502    0  0.21168103611E+02  0.24201230163E+03  0.83874734107E+03  0.87322113173E+03  0.25500000920E-02 0.  1.
       -2    1    3    3    0  502 -0.21168103611E+02 -0.24201230163E+03  0.15555866761E+03  0.28847277484E+03  0.25500000920E-02 0. -1.
</event>
<event>
 5   0  0.5755078E-02  0.6028067E+03  0.7818609E-02  0.9899600E-01
       -2   -1    0    0    0  501  0.00000000000E+00  0.00000000000E+00  0.92828614846E+02  0.92828614881E+02  0.25500000920E-02 0.  1.
        2   -1    0    0  501    0  0.00000000000E+00  0.00000000000E+00 -0.97862028499E+03  0.97862028500E+03  0.25500000920E-02 0. -1.
    10030    2    1    2    0    0  0.00000000000E+00  0.00000000000E+00 -0.88579167015E+03  0.10714488999E+04  0.60280665403E+03 0.  0.
        2    1    3    3  502    0 -0.12370873695E+03 -0.34342128525E+02 -0.92758716836E+03  0.93643002317E+03  0.25500000920E-02 0. -1.
       -2    1    3    3    0  502  0.12370873695E+03  0.34342128525E+02  0.41795498210E+02  0.13501887671E+03  0.25500000920E-02 0.  1.
</event>
<event>
 5   0  0.3703280E-02  0.5998036E+03  0.7818609E-02  0.9905814E-01
        1   -1    0    0  501    0  0.00000000000E+00  0.00000000000E+00  0.18558101823E+03  0.18558101830E+03  0.50400001928E-02 0. -1.
       -1   -1    0    0    0  501  0.00000000000E+00  0.00000000000E+00 -0.48464591973E+03  0.48464591976E+03  0.50400001928E-02 0.  1.
    10030    2    1    2    0    0  0.00000000000E+00  0.00000000000E+00 -0.29906490150E+03  0.67022693806E+03  0.59980357884E+03 0.  0.
        5    1    3    3  502    0  0.16052925811E+03 -0.18537408757E+03  0.43316574575E+02  0.24906145965E+03  0.46999998093E+01 0. -1.
       -5    1    3    3    0  502 -0.16052925811E+03  0.18537408757E+03 -0.34238147608E+03  0.42116547841E+03  0.46999998093E+01 0.  1.
</event>
<event>
 5   0  0.6007360E-02  0.5950755E+03  0.7818609E-02  0.9915676E-01
        2   -1    0    0  501    0  0.00000000000E+00  0.00000000000E+00  0.16079043822E+04  0.16079043822E+04  0.25500000920E-02 0.  1.
       -2   -1    0    0    0  501  0.00000000000E+00  0.00000000000E+00 -0.55058447356E+02  0.55058447415E+02  0.25500000920E-02 0. -1.
    10030    2    1    2    0    0  0.00000000000E+00  0.00000000000E+00  0.15528459348E+04  0.16629628296E+04  0.59507552069E+03 0.  0.
        4    1    3    3  502    0  0.28088686066E+03 -0.75567375691E+02  0.60147379432E+03  0.66811690213E+03  0.12699999809E+01 0. -1.
       -4    1    3    3    0  502 -0.28088686066E+03  0.75567375691E+02  0.95137214049E+03  0.99484592745E+03  0.12699999809E+01 0.  1.
</event>
<event>
 5   0  0.5999117E-02  0.6039756E+03  0.7818609E-02  0.9897192E-01
        2   -1    0    0  501    0  0.00000000000E+00  0.00000000000E+00  0.34098610594E+03  0.34098610595E+03  0.25500000920E-02 0. -1.
       -2   -1    0    0    0  501  0.00000000000E+00  0.00000000000E+00 -0.26744973152E+03  0.26744973153E+03  0.25500000920E-02 0.  1.
    10030    2    1    2    0    0  0.00000000000E+00  0.00000000000E+00  0.73536374417E+02  0.60843583748E+03  0.60397563690E+03 0.  0.
        5    1    3    3  502    0  0.14878340217E+03  0.25438444614E+03  0.10303086840E+03  0.31222651560E+03  0.46999998093E+01 0. -1.
       -5    1    3    3    0  502 -0.14878340217E+03 -0.25438444614E+03 -0.29494493986E+02  0.29620932189E+03  0.46999998093E+01 0.  1.
</event>
<event>
 5   0  0.3478183E-02  0.6117732E+03  0.7818609E-02  0.9881277E-01
       -1   -1    0    0    0  501  0.00000000000E+00  0.00000000000E+00  0.95287117706E+02  0.95287117839E+02  0.50400001928E-02 0. -1.
        1   -1    0    0  501    0  0.00000000000E+00  0.00000000000E+00 -0.98194404255E+03  0.98194404256E+03  0.50400001928E-02 0.  1.
    10030    2    1    2    0    0  0.00000000000E+00  0.00000000000E+00 -0.88665692485E+03  0.10772311604E+04  0.61177321825E+03 0.  0.
        4    1    3    3  502    0  0.20879863528E+03  0.11060213192E+03 -0.78538064647E+03  0.82015490880E+03  0.12699999809E+01 0.  1.
       -4    1    3    3    0  502 -0.20879863528E+03 -0.11060213192E+03 -0.10127627838E+03  0.25707625161E+03  0.12699999809E+01 0. -1.
</event>
<event>
 5   0  0.2388000E-02  0.6174712E+03  0.7818609E-02  0.9869807E-01
        4   -1    0    0  501    0  0.00000000000E+00  0.00000000000E+00  0.20111980961E+03  0.20112381937E+03  0.12699999809E+01 0. -1.
       -4   -1    0    0    0  501  0.00000000000E+00  0.00000000000E+00 -0.47392524361E+03  0.47392694525E+03  0.12699999809E+01 0.  1.
    10030    2    1    2    0    0  0.00000000000E+00  0.00000000000E+00 -0.27280543400E+03  0.67505076462E+03  0.61747123819E+03 0.  0.
        4    1    3    3  502    0  0.83896454337E+02  0.25128470189E+03 -0.30972156001E+03  0.40756799935E+03  0.12699999809E+01 0. -1.
       -4    1    3    3    0  502 -0.83896454337E+02 -0.25128470189E+03  0.36916126016E+02  0.26748276527E+03  0.12699999809E+01 0.  1.
</event>
<event>
 5   0  0.5999117E-02  0.5944312E+03  0.7818609E-02  0.9917027E-01
       -2   -1    0    0    0  501  0.00000000000E+00  0.00000000000E+00  0.20102827560E+03  0.20102827562E+03  0.25500000920E-02 0.  1.
        2   -1    0    0  501    0  0.00000000000E+00  0.00000000000E+00 -0.43942637878E+03  0.43942637879E+03  0.25500000920E-02 0. -1.
    10030    2    1    2    0    0  0.00000000000E+00  0.00000000000E+00 -0.23839810318E+03  0.64045465441E+03  0.59443124813E+03 0.  0.
        5    1    3    3  502    0 -0.23249528865E+03  0.12073069760E+03  0.31967361907E+02  0.26395825960E+03  0.46999998093E+01 0.  1.
       -5    1    3    3    0  502  0.23249528865E+03 -0.12073069760E+03 -0.27036546509E+03  0.37649639480E+03  0.46999998093E+01 0. -1.
</event>
<event>
 5   0  0.3640827E-02  0.5748361E+03  0.7818609E-02  0.9959034E-01
        1   -1    0    0  501    0  0.00000000000E+00  0.00000000000E+00  0.83148787993E+02  0.83148788146E+02  0.50400001928E-02 0.  1.
       -1   -1    0    0    0  501  0.00000000000E+00  0.00000000000E+00 -0.99350986230E+03  0.99350986231E+03  0.50400001928E-02 0. -1.
    10030    2    1    2    0    0  0.00000000000E+00  0.00000000000E+00 -0.91036107431E+03  0.10766586505E+04  0.57483611925E+03 0.  0.
        3    1    3    3  502    0 -0.16802269854E+03  0.19957445403E+03 -0.22927401047E+03  0.34731566623E+03  0.10100000352E+00 0.  1.
       -3    1    3    3    0  502  0.16802269854E+03 -0.19957445403E+03 -0.68108706384E+03  0.72934298423E+03  0.10100000352E+00 0. -1.
</event>
<event>
 5   0  0.5872632E-02  0.6058065E+03  0.7818609E-02  0.9893432E-01
        2   -1    0    0  501    0  0.00000000000E+00  0.00000000000E+00  0.19658870531E+03  0.19658870533E+03  0.25500000920E-02 0.  1.
       -2   -1    0    0    0  501  0.00000000000E+00  0.00000000000E+00 -0.46671242722E+03  0.46671242723E+03  0.25500000920E-02 0. -1.
    10030    2    1    2    0    0  0.00000000000E+00  0.00000000000E+00 -0.27012372191E+03  0.66330113256E+03  0.60580654281E+03 0.  0.
        1    1    3    3  502    0 -0.18397938276E+03 -0.94688155021E+02  0.10714787602E+03  0.23301271927E+03  0.50400001928E-02 0.  1.
       -1    1    3    3    0  502  0.18397938276E+03  0.94688155021E+02 -0.37727159793E+03  0.43028841329E+03  0.50400001928E-02 0. -1.
</event>
<event>
 5   0  0.3651984E-02  0.6035378E+03  0.7818609E-02  0.9898093E-01
        1   -1    0    0  501    0  0.00000000000E+00  0.00000000000E+00  0.12726974626E+04  0.12726974626E+04  0.50400001928E-02 0.  1.
       -1   -1    0    0    0  501  0.00000000000E+00  0.00000000000E+00 -0.71552321978E+02  0.71552322156E+02  0.50400001928E-02 0. -1.
    10030    2    1    2    0    0  0.00000000000E+00  0.00000000000E+00  0.12011451406E+04  0.13442497848E+04  0.60353776601E+03 0.  0.
        1    1    3    3  502    0 -0.86282543346E+02  0.16894983271E+03  0.77868746377E+02  0.20506648909E+03  0.50400001928E-02 0. -1.
       -1    1    3    3    0  502  0.86282543346E+02 -0.16894983271E+03  0.11232763942E+04  0.11391832957E+04  0.50400001928E-02 0.  1.
</event>
<event>
 5   0  0.5872632E-02  0.5847127E+03  0.7818609E-02  0.9937640E-01
        2   -1    0    0  501    0  0.00000000000E+00  0.00000000000E+00  0.10202536026E+04  0.10202536026E+04  0.25500000920E-02 0.  1.
       -2   -1    0    0    0  501  0.00000000000E+00  0.00000000000E+00 -0.83775467736E+02  0.83775467775E+02  0.25500000920E-02 0. -1.
    10030    2    1    2    0    0  0.00000000000E+00  0.00000000000E+00  0.93647813486E+03  0.11040290704E+04  0.58471265692E+03 0.  0.
        1    1    3    3  502    0  0.22927544891E+03  0.92856185110E+02  0.76246888456E+03  0.80159110682E+03  0.50400001928E-02 0. -1.
       -1    1    3    3    0  502 -0.22927544891E+03 -0.92856185110E+02  0.17400925030E+03  0.30243796356E+03  0.50400001928E-02 0.  1.
</event>
<event>
 5   0  0.5872632E-02  0.5990206E+03  0.7818609E-02  0.9907440E-01
       -2   -1    0    0    0  501  0.00000000000E+00  0.00000000000E+00  0.13384167147E+03  0.13384167150E+03  0.25500000920E-02 0.  1.
        2   -1    0    0  501    0  0.00000000000E+00  0.00000000000E+00 -0.67024283898E+03  0.67024283898E+03  0.25500000920E-02 0. -1.
    10030    2    1    2    0    0  0.00000000000E+00  0.00000000000E+00 -0.53640116750E+03  0.80408451048E+03  0.59902060690E+03 0.  0.
        1    1    3    3  502    0 -0.23983767944E+03  0.11632465122E+03 -0.84870837046E+02  0.27974380416E+03  0.50400001928E-02 0.  1.
       -1    1    3    3    0  502  0.23983767944E+03 -0.11632465122E+03 -0.45153033046E+03  0.52434070632E+03  0.50400001928E-02 0. -1.
</event>
<event>
 5   0  0.5999117E-02  0.6062196E+03  0.7818609E-02  0.9892586E-01
       -2   -1    0    0    0  501  0.00000000000E+00  0.00000000000E+00  0.80317039775E+02  0.80317039815E+02  0.25500000920E-02 0. -1.
        2   -1    0    0  501    0  0.00000000000E+00  0.00000000000E+00 -0.11439110255E+04  0.11439110255E+04  0.25500000920E-02 0.  1.
    10030    2    1    2    0    0  0.00000000000E+00  0.00000000000E+00 -0.10635939858E+04  0.12242280654E+04  0.60621958848E+03 0.  0.
        5    1    3    3  502    0  0.84313938232E+02  0.18753735432E+03 -0.82161159140E+02  0.22147606081E+03  0.46999998093E+01 0. -1.
       -5    1    3    3    0  502 -0.84313938232E+02 -0.18753735432E+03 -0.98143282662E+03  0.10027520045E+04  0.46999998093E+01 0.  1.
</event>
<event>
 5   0  0.5935451E-02  0.5947954E+03  0.7818609E-02  0.9916263E-01
        2   -1    0    0  501    0  0.00000000000E+00  0.00000000000E+00  0.63357533805E+03  0.63357533805E+03  0.25500000920E-02 0. -1.
       -2   -1    0    0    0  501  0.00000000000E+00  0.00000000000E+00 -0.13959727372E+03  0.13959727374E+03  0.25500000920E-02 0.  1.
    10030    2    1    2    0    0  0.00000000000E+00  0.00000000000E+00  0.49397806433E+03  0.77317261180E+03  0.59479539305E+03 0.  0.
        3    1    3    3  502    0  0.16775235809E+03 -0.18702860832E+03  0.40126375368E+02  0.25442226746E+03  0.10100000352E+00 0. -1.
       -3    1    3    3    0  502 -0.16775235809E+03  0.18702860832E+03  0.45385168896E+03  0.51875034434E+03  0.10100000352E+00 0.  1.
</event>
<event>
 5   0  0.3767635E-02  0.6006158E+03  0.7818609E-02  0.9904129E-01
        1   -1    0    0  501    0  0.00000000000E+00  0.00000000000E+00  0.35216264723E+03  0.35216264726E+03  0.50400001928E-02 0.  1.
       -1   -1    0    0    0  501  0.00000000000E+00  0.00000000000E+00 -0.25608857615E+03  0.25608857620E+03  0.50400001928E-02 0. -1.
    10030    2    1    2    0    0  0.00000000000E+00  0.00000000000E+00  0.96074071076E+02  0.60825122346E+03  0.60061578710E+03 0.  0.
        2    1    3    3  502    0  0.18644176516E+03  0.88049482281E+02  0.26915094148E+03  0.33905084048E+03  0.25500000920E-02 0.  1.
       -2    1    3    3    0  502 -0.18644176516E+03 -0.88049482281E+02 -0.17307687040E+03  0.26920038298E+03  0.25500000920E-02 0. -1.
</event>
<event>
 5   0  0.3640827E-02  0.5797240E+03  0.7818609E-02  0.9948389E-01
       -1   -1    0    0    0  501  0.00000000000E+00  0.00000000000E+00  0.20890700219E+03  0.20890700226E+03  0.50400001928E-02 0. -1.
        1   -1    0    0  501    0  0.00000000000E+00  0.00000000000E+00 -0.40218843863E+03  0.40218843866E+03  0.50400001928E-02 0.  1.
    10030    2    1    2    0    0  0.00000000000E+00  0.00000000000E+00 -0.19328143643E+03  0.61109544091E+03  0.57972400695E+03 0.  0.
        3    1    3    3  502    0  0.66751123364E+02 -0.16378399154E+02  0.20019312572E+03  0.21166308657E+03  0.10100000352E+00 0. -1.
       -3    1    3    3    0  502 -0.66751123364E+02  0.16378399154E+02 -0.39347456216E+03  0.39943235434E+03  0.10100000352E+00 0.  1.
</event>
<event>
 5   0  0.3703280E-02  0.5793171E+03  0.7818609E-02  0.9949271E-01
        1   -1    0    0  501    0  0.00000000000E+00  0.00000000000E+00  0.17579643174E+04  0.17579643175E+04  0.50400001928E-02 0. -1.
       -1   -1    0    0    0  501  0.00000000000E+00  0.00000000000E+00 -0.47726835658E+02  0.47726835924E+02  0.50400001928E-02 0.  1.
    10030    2    1    2    0    0  0.00000000000E+00  0.00000000000E+00  0.17102374818E+04  0.18056911534E+04  0.57931709561E+03 0.  0.
        5    1    3    3  502    0 -0.11661821594E+03  0.22828615268E+03  0.12752181793E+04  0.13007374334E+04  0.46999998093E+01 0. -1.
       -5    1    3    3    0  502  0.11661821594E+03 -0.22828615268E+03  0.43501930245E+03  0.50495371996E+03  0.46999998093E+01 0.  1.
</event>
<event>
 5   0  0.2388000E-02  0.6026275E+03  0.7818609E-02  0.9899970E-01
        3   -1    0    0  501    0  0.00000000000E+00  0.00000000000E+00  0.14679136638E+03  0.14679140112E+03  0.10100000352E+00 0.  1.
       -3   -1    0    0    0  501  0.00000000000E+00  0.00000000000E+00 -0.61849650691E+03  0.61849651516E+03  0.10100000352E+00 0. -1.
    10030    2    1    2    0    0  0.00000000000E+00  0.00000000000E+00 -0.47170514053E+03  0.76528791628E+03  0.60262745971E+03 0.  0.
        1    1    3    3  502    0 -0.12693047007E+02 -0.18864814831E+02 -0.61740550842E+03  0.61782404982E+03  0.50400001928E-02 0. -1.
       -1    1    3    3    0  502  0.12693047007E+02  0.18864814831E+02  0.14570036789E+03  0.14746386646E+03  0.50400001928E-02 0.  1.
</event>
<event>
 5   0  0.3767635E-02  0.6001594E+03  0.7818609E-02  0.9905075E-01
        1   -1    0    0  501    0  0.00000000000E+00  0.00000000000E+00  0.92204955845E+03  0.92204955847E+03  0.50400001928E-02 0. -1.
       -1   -1    0    0    0  501  0.00000000000E+00  0.00000000000E+00 -0.97660514866E+02  0.97660514996E+02  0.50400001928E-02 0.  1.
    10030    2    1    2    0    0  0.00000000000E+00  0.00000000000E+00  0.82438904359E+03  0.10197100735E+04  0.60015942776E+03 0.  0.
        2    1    3    3  502    0 -0.20813340863E+03  0.72765344572E+02  0.75804311271E+03  0.78945783414E+03  0.25500000920E-02 0. -1.
       -2    1    3    3    0  502  0.20813340863E+03 -0.72765344572E+02  0.66345930877E+02  0.23025223932E+03  0.25500000920E-02 0.  1.
</event>
<event>
 5   0  0.3651984E-02  0.6250472E+03  0.7818609E-02  0.9854762E-01
        1   -1    0    0  501    0  0.00000000000E+00  0.00000000000E+00  0.13666303477E+04  0.13666303477E+04  0.50400001928E-02 0.  1.
       -1   -1    0    0    0  501  0.00000000000E+00  0.00000000000E+00 -0.71468495454E+02  0.71468495632E+02  0.50400001928E-02 0. -1.
    10030    2    1    2    0    0  0.00000000000E+00  0.00000000000E+00  0.12951618522E+04  0.14380988433E+04  0.62504724597E+03 0.  0.
        1    1    3    3  502    0 -0.45222185415E+02  0.47195447381E+02 -0.55565830659E+02  0.85790546503E+02  0.50400001928E-02 0. -1.
       -1    1    3    3    0  502  0.45222185415E+02 -0.47195447381E+02  0.13507276829E+04  0.13523082968E+04  0.50400001928E-02 0.  1.
</event>
<event>
 5   0  0.6007360E-02  0.5983282E+03  0.7818609E-02  0.9908881E-01
        2   -1    0    0  501    0  0.00000000000E+00  0.00000000000E+00  0.59085087141E+03  0.59085087141E+03  0.25500000920E-02 0.  1.
       -2   -1    0    0    0  501  0.00000000000E+00  0.00000000000E+00 -0.15147505810E+03  0.15147505812E+03  0.25500000920E-02 0. -1.
    10030    2    1    2    0    0  0.00000000000E+00  0.00000000000E+00  0.43937581331E+03  0.74232592953E+03  0.59832823796E+03 0.  0.
        4    1    3    3  502    0  0.21277101069E+03 -0.16633086613E+03  0.37934439450E+03  0.46566215496E+03  0.12699999809E+01 0.  1.
       -4    1    3    3    0  502 -0.21277101069E+03  0.16633086613E+03  0.60031418804E+02  0.27666377458E+03  0.12699999809E+01 0. -1.
</event>
<event>
 5   0  0.3640827E-02  0.5967893E+03  0.7818609E-02  0.9912090E-01
        1   -1    0    0  501    0  0.00000000000E+00  0.00000000000E+00  0.50276740904E+03  0.50276740907E+03  0.50400001928E-02 0. -1.
       -1   -1    0    0    0  501  0.00000000000E+00  0.00000000000E+00 -0.17709850503E+03  0.17709850510E+03  0.50400001928E-02 0.  1.
    10030    2    1    2    0    0  0.00000000000E+00  0.00000000000E+00  0.32566890401E+03  0.67986591417E+03  0.59678926449E+03 0.  0.
        3    1    3    3  502    0 -0.20906594966E+02  0.29516403111E+03  0.20666732394E+03  0.36092974934E+03  0.10100000352E+00 0. -1.
       -3    1    3    3    0  502  0.20906594966E+02 -0.29516403111E+03  0.11900158007E+03  0.31893616483E+03  0.10100000352E+00 0.  1.
</event>
<event>
 5   0  0.5755078E-02  0.6022555E+03  0.7818609E-02  0.9900738E-01
        2   -1    0    0  501    0  0.00000000000E+00  0.00000000000E+00  0.75244080507E+03  0.75244080508E+03  0.25500000920E-02 0. -1.
       -2   -1    0    0    0  501  0.00000000000E+00  0.00000000000E+00 -0.12051171718E+03  0.12051171721E+03  0.25500000920E-02 0.  1.
    10030    2    1    2    0    0  0.00000000000E+00  0.00000000000E+00  0.63192908789E+03  0.87295252228E+03  0.60225553882E+03 0.  0.
        2    1    3    3  502    0 -0.21852233683E+03  0.16169176134E+03  0.50373521042E+03  0.57240317924E+03  0.25500000920E-02 0. -1.
       -2    1    3    3    0  502  0.21852233683E+03 -0.16169176134E+03  0.12819387747E+03  0.30054934305E+03  0.25500000920E-02 0.  1.
</event>
<event>
 5   0  0.3703280E-02  0.5782366E+03  0.7818609E-02  0.9951616E-01
        1   -1    0    0  501    0  0.00000000000E+00  0.00000000000E+00  0.47052111324E+03  0.47052111327E+03  0.50400001928E-02 0. -1.
       -1   -1    0    0    0  501  0.00000000000E+00  0.00000000000E+00 -0.17765277949E+03  0.17765277956E+03  0.50400001928E-02 0.  1.
    10030    2    1    2    0    0  0.00000000000E+00  0.00000000000E+00  0.29286833375E+03  0.64817389283E+03  0.57823657307E+03 0.  0.
        5    1    3    3  502    0 -0.87808522802E+02 -0.20521421313E+03 -0.59479321999E+02  0.23104780823E+03  0.46999998093E+01 0.  1.
       -5    1    3    3    0  502  0.87808522802E+02  0.20521421313E+03  0.35234765575E+03  0.41712608460E+03  0.46999998093E+01 0. -1.
</event>
<event>
 5   0  0.6007360E-02  0.6009597E+03  0.7818609E-02  0.9903417E-01
        2   -1    0    0  501    0  0.00000000000E+00  0.00000000000E+00  0.36825516182E+03  0.36825516183E+03  0.25500000920E-02 0. -1.
       -2   -1    0    0    0  501  0.00000000000E+00  0.00000000000E+00 -0.24517816902E+03  0.24517816904E+03  0.25500000920E-02 0.  1.
    10030    2    1    2    0    0  0.00000000000E+00  0.00000000000E+00  0.12307699280E+03  0.61343333087E+03  0.60095965361E+03 0.  0.
        4    1    3    3  502    0  0.72194425459E+02 -0.26387951141E+03 -0.65306978326E+02  0.28126685892E+03  0.12699999809E+01 0.  1.
       -4    1    3    3    0  502 -0.72194425459E+02  0.26387951141E+03  0.18838397113E+03  0.33216647195E+03  0.12699999809E+01 0. -1.
</event>
<event>
 5   0  0.5872632E-02  0.5902412E+03  0.7818609E-02  0.9925862E-01
        2   -1    0    0  501    0  0.00000000000E+00  0.00000000000E+00  0.84831239911E+03  0.84831239911E+03  0.25500000920E-02 0. -1.
       -2   -1    0    0    0  501  0.00000000000E+00  0.00000000000E+00 -0.10266992473E+03  0.10266992477E+03  0.25500000920E-02 0.  1.
    10030    2    1    2    0    0  0.00000000000E+00  0.00000000000E+00  0.74564247437E+03  0.95098232388E+03  0.59024120556E+03 0.  0.
        1    1    3    3  502    0  0.16906901061E+02  0.84591571299E+02 -0.81903238636E+02  0.11895258620E+03  0.50400001928E-02 0.  1.
       -1    1    3    3    0  502 -0.16906901061E+02 -0.84591571299E+02  0.82754571301E+03  0.83202973768E+03  0.50400001928E-02 0. -1.
</event>
<event>
 5   0  0.5872632E-02  0.5992603E+03  0.7818609E-02  0.9906942E-01
        2   -1    0    0  501    0  0.00000000000E+00  0.00000000000E+00  0.40230224515E+03  0.40230224516E+03  0.25500000920E-02 0. -1.
       -2   -1    0    0    0  501  0.00000000000E+00  0.00000000000E+00 -0.22316114336E+03  0.22316114338E+03  0.25500000920E-02 0.  1.
    10030    2    1    2    0    0  0.00000000000E+00  0.00000000000E+00  0.17914110179E+03  0.62546338854E+03  0.59926030743E+03 0.  0.
        1    1    3    3  502    0  0.22962514680E+03 -0.40739024626E+02  0.28592099804E+03  0.36896909535E+03  0.50400001928E-02 0. -1.
       -1    1    3    3    0  502 -0.22962514680E+03  0.40739024626E+02 -0.10677989625E+03  0.25649429320E+03  0.50400001928E-02 0.  1.
</event>
<event>
 5   0  0.3767635E-02  0.5724947E+03  0.7818609E-02  0.9964173E-01
        1   -1    0    0  501    0  0.00000000000E+00  0.00000000000E+00  0.76670505564E+03  0.76670505566E+03  0.50400001928E-02 0.  1.
       -1   -1    0    0    0  501  0.00000000000E+00  0.00000000000E+00 -0.10686970048E+03  0.10686970060E+03  0.50400001928E-02 0. -1.
    10030    2    1    2    0    0  0.00000000000E+00  0.00000000000E+00  0.65983535516E+03  0.87357475626E+03  0.57249468019E+03 0.  0.
        2    1    3    3  502    0  0.27805537533E+03  0.41538184208E+02  0.24778284191E+03  0.37474864810E+03  0.25500000920E-02 0. -1.
       -2    1    3    3    0  502 -0.27805537533E+03 -0.41538184208E+02  0.41205251325E+03  0.49882610816E+03  0.25500000920E-02 0.  1.
</event>
<event>
 5   0  0.6007360E-02  0.5970108E+03  0.7818609E-02  0.9911627E-01
       -2   -1    0    0    0  501  0.00000000000E+00  0.00000000000E+00  0.13313344068E+03  0.13313344071E+03  0.25500000920E-02 0. -1.
        2   -1    0    0  501    0  0.00000000000E+00  0.00000000000E+00 -0.66929434814E+03  0.66929434815E+03  0.25500000920E-02 0.  1.
    10030    2    1    2    0    0  0.00000000000E+00  0.00000000000E+00 -0.53616090746E+03  0.80242778885E+03  0.59701075169E+03 0.  0.
        4    1    3    3  502    0  0.18187038066E+03 -0.18883579533E+03 -0.76258384349E+02  0.27304348929E+03  0.12699999809E+01 0. -1.
       -4    1    3    3    0  502 -0.18187038066E+03  0.18883579533E+03 -0.45990252311E+03  0.52938429956E+03  0.12699999809E+01 0.  1.
</event>
<event>
 5   0  0.6007360E-02  0.6026872E+03  0.7818609E-02  0.9899847E-01
       -2   -1    0    0    0  501  0.00000000000E+00  0.00000000000E+00  0.41359856083E+03  0.41359856083E+03  0.25500000920E-02 0.  1.
        2   -1    0    0  501    0  0.00000000000E+00  0.00000000000E+00 -0.21955583759E+03  0.21955583760E+03  0.25500000920E-02 0. -1.
    10030    2    1    2    0    0  0.00000000000E+00  0.00000000000E+00  0.19404272324E+03  0.63315439844E+03  0.60268724378E+03 0.  0.
        4    1    3    3  502    0  0.81347107207E+02 -0.23080574976E+03  0.28174452432E+03  0.37318927619E+03  0.12699999809E+01 0.  1.
       -4    1    3    3    0  502 -0.81347107207E+02  0.23080574976E+03 -0.87701801086E+02  0.25996512225E+03  0.12699999809E+01 0. -1.
</event>
<event>
 5   0  0.2388000E-02  0.5993941E+03  0.7818609E-02  0.9906664E-01
       -4   -1    0    0    0  501  0.00000000000E+00  0.00000000000E+00  0.52269897350E+03  0.52270051635E+03  0.12699999809E+01 0.  1.
        4   -1    0    0  501    0  0.00000000000E+00  0.00000000000E+00 -0.17183153425E+03  0.17183622745E+03  0.12699999809E+01 0. -1.
    10030    2    1    2    0    0  0.00000000000E+00  0.00000000000E+00  0.35086743924E+03  0.69453674380E+03  0.59939413458E+03 0.  0.
        4    1    3    3  502    0 -0.75176409600E+02  0.10167040683E+03 -0.13940949203E+03  0.18821525856E+03  0.12699999809E+01 0. -1.
       -4    1    3    3    0  502  0.75176409600E+02 -0.10167040683E+03  0.49027693127E+03  0.50632148525E+03  0.12699999809E+01 0.  1.
</event>
<event>
 5   0  0.6007360E-02  0.6008796E+03  0.7818609E-02  0.9903583E-01
        2   -1    0    0  501    0  0.00000000000E+00  0.00000000000E+00  0.90565059131E+03  0.90565059132E+03  0.25500000920E-02 0.  1.
       -2   -1    0    0    0  501  0.00000000000E+00  0.00000000000E+00 -0.99667672435E+02  0.99667672468E+02  0.25500000920E-02 0. -1.
    10030    2    1    2    0    0  0.00000000000E+00  0.00000000000E+00  0.80598291888E+03  0.10053182638E+04  0.60087964350E+03 0.  0.
        4    1    3    3  502    0 -0.15221564351E+03  0.14990101422E+03  0.75641323926E+03  0.78600414606E+03  0.12699999809E+01 0.  1.
       -4    1    3    3    0  502  0.15221564351E+03 -0.14990101422E+03  0.49569679613E+02  0.21931411772E+03  0.12699999809E+01 0. -1.
</event>
<event>
 5   0  0.3640827E-02  0.6006836E+03  0.7818609E-02  0.9903989E-01
       -1   -1    0    0    0  501  0.00000000000E+00  0.00000000000E+00  0.54392143540E+03  0.54392143543E+03  0.50400001928E-02 0.  1.
        1   -1    0    0  501    0  0.00000000000E+00  0.00000000000E+00 -0.16584233929E+03  0.16584233937E+03  0.50400001928E-02 0. -1.
    10030    2    1    2    0    0  0.00000000000E+00  0.00000000000E+00  0.37807909611E+03  0.70976377479E+03  0.60068362146E+03 0.  0.
        3    1    3    3  502    0  0.11774559655E+03  0.12513125701E+03 -0.10203401595E+03  0.19983194840E+03  0.10100000352E+00 0. -1.
       -3    1    3    3    0  502 -0.11774559655E+03 -0.12513125701E+03  0.48011311207E+03  0.50993182639E+03  0.10100000352E+00 0.  1.
</event>
<event>
 5   0  0.3703280E-02  0.6110262E+03  0.7818609E-02  0.9882791E-01
        1   -1    0    0  501    0  0.00000000000E+00  0.00000000000E+00  0.49603391675E+03  0.49603391678E+03  0.50400001928E-02 0.  1.
       -1   -1    0    0    0  501  0.00000000000E+00  0.00000000000E+00 -0.18816908538E+03  0.18816908545E+03  0.50400001928E-02 0. -1.
    10030    2    1    2    0    0  0.00000000000E+00  0.00000000000E+00  0.30786483137E+03  0.68420300222E+03  0.61102618099E+03 0.  0.
        5    1    3    3  502    0 -0.11180875958E+03 -0.18684222409E+03 -0.85981192760E+02  0.23414967633E+03  0.46999998093E+01 0. -1.
       -5    1    3    3    0  502  0.11180875958E+03  0.18684222409E+03  0.39384602413E+03  0.45005332589E+03  0.46999998093E+01 0.  1.
</event>
<event>
 5   0  0.3640827E-02  0.6175014E+03  0.7818609E-02  0.9869747E-01
        1   -1    0    0  501    0  0.00000000000E+00  0.00000000000E+00  0.48751107042E+03  0.48751107045E+03  0.50400001928E-02 0. -1.
       -1   -1    0    0    0  501  0.00000000000E+00  0.00000000000E+00 -0.19553810297E+03  0.19553810303E+03  0.50400001928E-02 0.  1.
    10030    2    1    2    0    0  0.00000000000E+00  0.00000000000E+00  0.29197296745E+03  0.68304917348E+03  0.61750138435E+03 0.  0.
        3    1    3    3  502    0 -0.20331062080E+03 -0.67806390319E+02 -0.99852876691E+02  0.23643925707E+03  0.10100000352E+00 0.  1.
       -3    1    3    3    0  502  0.20331062080E+03  0.67806390319E+02  0.39182584415E+03  0.44660991641E+03  0.10100000352E+00 0. -1.
</event>
<event>
 5   0  0.2388000E-02  0.6069130E+03  0.7818609E-02  0.9891167E-01
        4   -1    0    0  501    0  0.00000000000E+00  0.00000000000E+00  0.14645528573E+03  0.14646079209E+03  0.12699999809E+01 0. -1.
       -4   -1    0    0    0  501  0.00000000000E+00  0.00000000000E+00 -0.62874632728E+03  0.62874760991E+03  0.12699999809E+01 0.  1.
    10030    2    1    2    0    0  0.00000000000E+00  0.00000000000E+00 -0.48229104155E+03  0.77520840200E+03  0.60691302324E+03 0.  0.
        3    1    3    3  502    0 -0.36805280505E+02 -0.28434676668E+03 -0.11419648002E+03  0.30862365212E+03  0.10100000352E+00 0. -1.
       -3    1    3    3    0  502  0.36805280505E+02  0.28434676668E+03 -0.36809456153E+03  0.46658474988E+03  0.10100000352E+00 0.  1.
</event>
<event>
 5   0  0.5935451E-02  0.6016952E+03  0.7818609E-02  0.9901895E-01
       -2   -1    0    0    0  501  0.00000000000E+00  0.00000000000E+00  0.22236239238E+03  0.22236239239E+03  0.25500000920E-02 0.  1.
        2   -1    0    0  501    0  0.00000000000E+00  0.00000000000E+00 -0.40703501968E+03  0.40703501969E+03  0.25500000920E-02 0. -1.
    10030    2    1    2    0    0  0.00000000000E+00  0.00000000000E+00 -0.18467262730E+03  0.62939741208E+03  0.60169520778E+03 0.  0.
        3    1    3    3  502    0 -0.16610048419E+03 -0.72369638538E+02 -0.34356577660E+03  0.38841239486E+03  0.10100000352E+00 0. -1.
       -3    1    3    3    0  502  0.16610048419E+03  0.72369638538E+02  0.15889314930E+03  0.24098501722E+03  0.10100000352E+00 0.  1.
</event>
<event>
 5   0  0.5999117E-02  0.6052794E+03  0.7818609E-02  0.9894513E-01
       -2   -1    0    0    0  501  0.00000000000E+00  0.00000000000E+00  0.64903238324E+02  0.64903238374E+02  0.25500000920E-02 0. -1.
        2   -1    0    0  501    0  0.00000000000E+00  0.00000000000E+00 -0.14111898185E+04  0.14111898185E+04  0.25500000920E-02 0.  1.
    10030    2    1    2    0    0  0.00000000000E+00  0.00000000000E+00 -0.13462865802E+04  0.14760930569E+04  0.60527940374E+03 0.  0.
        5    1    3    3  502    0  0.11321032563E+03  0.27878672513E+03 -0.59487353128E+03  0.66665975142E+03  0.46999998093E+01 0. -1.
       -5    1    3    3    0  502 -0.11321032563E+03 -0.27878672513E+03 -0.75141304887E+03  0.80943330543E+03  0.46999998093E+01 0.  1.
</event>
<event>
 5   0  0.5755078E-02  0.6054950E+03  0.7818609E-02  0.9894071E-01
       -2   -1    0    0    0  501  0.00000000000E+00  0.00000000000E+00  0.10694434476E+03  0.10694434479E+03  0.25500000920E-02 0. -1.
        2   -1    0    0  501    0  0.00000000000E+00  0.00000000000E+00 -0.85704446525E+03  0.85704446525E+03  0.25500000920E-02 0.  1.
    10030    2    1    2    0    0  0.00000000000E+00  0.00000000000E+00 -0.75010012049E+03  0.96398881005E+03  0.60549503313E+03 0.  0.
        2    1    3    3  502    0  0.22587266110E+02  0.65059432813E+02 -0.84440796755E+03  0.84721173862E+03  0.25500000920E-02 0.  1.
       -2    1    3    3    0  502 -0.22587266110E+02 -0.65059432813E+02  0.94307847060E+02  0.11677707143E+03  0.25500000920E-02 0. -1.
</event>
<event>
 5   0  0.3767635E-02  0.5280829E+03  0.7818609E-02  0.1006698E+00
        1   -1    0    0  501    0  0.00000000000E+00  0.00000000000E+00  0.43106748330E+03  0.43106748333E+03  0.50400001928E-02 0.  1.
       -1   -1    0    0    0  501  0.00000000000E+00  0.00000000000E+00 -0.16173313945E+03  0.16173313953E+03  0.50400001928E-02 0. -1.
    10030    2    1    2    0    0  0.00000000000E+00  0.00000000000E+00  0.26933434384E+03  0.59280062286E+03  0.52808293826E+03 0.  0.
        2    1    3    3  502    0  0.78248997077E+02 -0.22355907994E+03  0.36776540688E+01  0.23688624467E+03  0.25500000920E-02 0.  1.
       -2    1    3    3    0  502 -0.78248997077E+02  0.22355907994E+03  0.26565668978E+03  0.35591437818E+03  0.25500000920E-02 0. -1.
</event>
<event>
 5   0  0.5872632E-02  0.6015356E+03  0.7818609E-02  0.9902225E-01
        2   -1    0    0  501    0  0.00000000000E+00  0.00000000000E+00  0.18461321261E+04  0.18461321261E+04  0.25500000920E-02 0. -1.
       -2   -1    0    0    0  501  0.00000000000E+00  0.00000000000E+00 -0.49000428616E+02  0.49000428683E+02  0.25500000920E-02 0.  1.
    10030    2    1    2    0    0  0.00000000000E+00  0.00000000000E+00  0.17971316975E+04  0.18951325548E+04  0.60153558673E+03 0.  0.
        1    1    3    3  502    0 -0.10401455182E+03 -0.24174450605E+03  0.13573041102E+04  0.13825823234E+04  0.50400001928E-02 0. -1.
       -1    1    3    3    0  502  0.10401455182E+03  0.24174450605E+03  0.43982758725E+03  0.51255023142E+03  0.50400001928E-02 0.  1.
</event>
<event>
 5   0  0.3703280E-02  0.6008465E+03  0.7818609E-02  0.9903651E-01
       -1   -1    0    0    0  501  0.00000000000E+00  0.00000000000E+00  0.11482913766E+03  0.11482913777E+03  0.50400001928E-02 0. -1.
        1   -1    0    0  501    0  0.00000000000E+00  0.00000000000E+00 -0.78598620666E+03  0.78598620667E+03  0.50400001928E-02 0.  1.
    10030    2    1    2    0    0  0.00000000000E+00  0.00000000000E+00 -0.67115706899E+03  0.90081534445E+03  0.60084646419E+03 0.  0.
        5    1    3    3  502    0  0.57446381151E+02 -0.51554666018E+02  0.99651862231E+02  0.12613704428E+03  0.46999998093E+01 0. -1.
       -5    1    3    3    0  502 -0.57446381151E+02  0.51554666018E+02 -0.77080893123E+03  0.77467830017E+03  0.46999998093E+01 0.  1.
</event>
<event>
 5   0  0.2388000E-02  0.6046127E+03  0.7818609E-02  0.9895882E-01
        4   -1    0    0  501    0  0.00000000000E+00  0.00000000000E+00  0.48721776899E+03  0.48721942420E+03  0.12699999809E+01 0. -1.
       -4   -1    0    0    0  501  0.00000000000E+00  0.00000000000E+00 -0.18756932644E+03  0.18757362587E+03  0.12699999809E+01 0.  1.
    10030    2    1    2    0    0  0.00000000000E+00  0.00000000000E+00  0.29964844255E+03  0.67479305007E+03  0.60461266221E+03 0.  0.
        4    1    3    3  502    0  0.17228420053E+03 -0.44176705678E+02 -0.12299636448E+03  0.21624788012E+03  0.12699999809E+01 0.  1.
       -4    1    3    3    0  502 -0.17228420053E+03  0.44176705678E+02  0.42264480703E+03  0.45854516996E+03  0.12699999809E+01 0. -1.
</event>
<event>
 5   0  0.3651984E-02  0.5984833E+03  0.7818609E-02  0.9908558E-01
       -1   -1    0    0    0  501  0.00000000000E+00  0.00000000000E+00  0.41923715140E+03  0.41923715143E+03  0.50400001928E-02 0.  1.
        1   -1    0    0  501    0  0.00000000000E+00  0.00000000000E+00 -0.21359163919E+03  0.21359163925E+03  0.50400001928E-02 0. -1.
    10030    2    1    2    0    0  0.00000000000E+00  0.00000000000E+00  0.20564551221E+03  0.63282879068E+03  0.59848325091E+03 0.  0.
        1    1    3    3  502    0  0.28915584756E+03  0.86924180211E+00  0.21371707871E+02  0.28994587371E+03  0.50400001928E-02 0. -1.
       -1    1    3    3    0  502 -0.28915584756E+03 -0.86924180211E+00  0.18427380433E+03  0.34288291697E+03  0.50400001928E-02 0.  1.
</event>
<event>
 5   0  0.2388000E-02  0.5982633E+03  0.7818609E-02  0.9909016E-01
       -3   -1    0    0    0  501  0.00000000000E+00  0.00000000000E+00  0.60806070232E+03  0.60806071071E+03  0.10100000352E+00 0.  1.
        3   -1    0    0  501    0  0.00000000000E+00  0.00000000000E+00 -0.14715591944E+03  0.14715595410E+03  0.10100000352E+00 0. -1.
    10030    2    1    2    0    0  0.00000000000E+00  0.00000000000E+00  0.46090478288E+03  0.75521666480E+03  0.59826331320E+03 0.  0.
        1    1    3    3  502    0  0.15850587902E+03 -0.25156872795E+03  0.18918288046E+03  0.35242176557E+03  0.50400001928E-02 0. -1.
       -1    1    3    3    0  502 -0.15850587902E+03  0.25156872795E+03  0.27172190242E+03  0.40279489923E+03  0.50400001928E-02 0.  1.
</event>
<event>
 5   0  0.3640827E-02  0.5975423E+03  0.7818609E-02  0.9910518E-01
        1   -1    0    0  501    0  0.00000000000E+00  0.00000000000E+00  0.89210030981E+03  0.89210030982E+03  0.50400001928E-02 0. -1.
       -1   -1    0    0    0  501  0.00000000000E+00  0.00000000000E+00 -0.10006072244E+03  0.10006072256E+03  0.50400001928E-02 0.  1.
    10030    2    1    2    0    0  0.00000000000E+00  0.00000000000E+00  0.79203958737E+03  0.99216103239E+03  0.59754230496E+03 0.  0.
        3    1    3    3  502    0  0.15503969235E+03 -0.16576008256E+03  0.73412079529E+02  0.23854361194E+03  0.10100000352E+00 0.  1.
       -3    1    3    3    0  502 -0.15503969235E+03  0.16576008256E+03  0.71862750784E+03  0.75361742045E+03  0.10100000352E+00 0. -1.
</event>
<event>
 5   0  0.3767635E-02  0.5947835E+03  0.7818609E-02  0.9916288E-01
        1   -1    0    0  501    0  0.00000000000E+00  0.00000000000E+00  0.57396598965E+03  0.57396598967E+03  0.50400001928E-02 0. -1.
       -1   -1    0    0    0  501  0.00000000000E+00  0.00000000000E+00 -0.15408900048E+03  0.15408900057E+03  0.50400001928E-02 0.  1.
    10030    2    1    2    0    0  0.00000000000E+00  0.00000000000E+00  0.41987698917E+03  0.72805499024E+03  0.59478347554E+03 0.  0.
        2    1    3    3  502    0  0.18121267963E+03 -0.46415549798E+02 -0.73055184285E+02  0.20082205675E+03  0.25500000920E-02 0.  1.
       -2    1    3    3    0  502 -0.18121267963E+03  0.46415549798E+02  0.49293217345E+03  0.52723293349E+03  0.25500000920E-02 0. -1.
</event>
<event>
 5   0  0.3640827E-02  0.6001864E+03  0.7818609E-02  0.9905019E-01
       -1   -1    0    0    0  501  0.00000000000E+00  0.00000000000E+00  0.25244920882E+03  0.25244920887E+03  0.50400001928E-02 0.  1.
        1   -1    0    0  501    0  0.00000000000E+00  0.00000000000E+00 -0.35672886335E+03  0.35672886339E+03  0.50400001928E-02 0. -1.
    10030    2    1    2    0    0  0.00000000000E+00  0.00000000000E+00 -0.10427965454E+03  0.60917807226E+03  0.60018636886E+03 0.  0.
        3    1    3    3  502    0 -0.20249841038E+03  0.88630852105E+02  0.15386610615E+03  0.26932475373E+03  0.10100000352E+00 0.  1.
       -3    1    3    3    0  502  0.20249841038E+03 -0.88630852105E+02 -0.25814576069E+03  0.33985331853E+03  0.10100000352E+00 0. -1.
</event>
<event>
 5   0  0.3478183E-02  0.6020560E+03  0.7818609E-02  0.9901150E-01
       -1   -1    0    0    0  501  0.00000000000E+00  0.00000000000E+00  0.15314406064E+03  0.15314406072E+03  0.50400001928E-02 0.  1.
        1   -1    0    0  501    0  0.00000000000E+00  0.00000000000E+00 -0.59171639086E+03  0.59171639088E+03  0.50400001928E-02 0. -1.
    10030    2    1    2    0    0  0.00000000000E+00  0.00000000000E+00 -0.43857233022E+03  0.74486045160E+03  0.60205598039E+03 0.  0.
        4    1    3    3  502    0 -0.10704707577E+03 -0.69767904673E+02 -0.55649741448E+03  0.57097952869E+03  0.12699999809E+01 0. -1.
       -4    1    3    3    0  502  0.10704707577E+03  0.69767904673E+02  0.11792508426E+03  0.17388092291E+03  0.12699999809E+01 0.  1.
</event>
<event>
 5   0  0.2388000E-02  0.5995102E+03  0.7818609E-02  0.9906423E-01
       -4   -1    0    0    0  501  0.00000000000E+00  0.00000000000E+00  0.24983064215E+03  0.24983387012E+03  0.12699999809E+01 0. -1.
        4   -1    0    0  501    0  0.00000000000E+00  0.00000000000E+00 -0.35964949339E+03  0.35965173571E+03  0.12699999809E+01 0.  1.
    10030    2    1    2    0    0  0.00000000000E+00  0.00000000000E+00 -0.10981885124E+03  0.60948560583E+03  0.59951023646E+03 0.  0.
        3    1    3    3  502    0  0.46332540311E+02  0.29577313621E+03 -0.70147769184E+02  0.30748849103E+03  0.10100000352E+00 0. -1.
       -3    1    3    3    0  502 -0.46332540311E+02 -0.29577313621E+03 -0.39671082060E+02  0.30199711480E+03  0.10100000352E+00 0.  1.
</event>
<event>
 5   0  0.5755078E-02  0.5977358E+03  0.7818609E-02  0.9910115E-01
       -2   -1    0    0    0  501  0.00000000000E+00  0.00000000000E+00  0.95452690529E+02  0.95452690563E+02  0.25500000920E-02 0. -1.
        2   -1    0    0  501    0  0.00000000000E+00  0.00000000000E+00 -0.93577272371E+03  0.93577272372E+03  0.25500000920E-02 0.  1.
    10030    2    1    2    0    0  0.00000000000E+00  0.00000000000E+00 -0.84032003318E+03  0.10312254143E+04  0.59773580860E+03 0.  0.
        2    1    3    3  502    0 -0.12265174303E+03 -0.16813035245E+03 -0.79022162418E+03  0.81716673990E+03  0.25500000920E-02 0.  1.
       -2    1    3    3    0  502  0.12265174303E+03  0.16813035245E+03 -0.50098409008E+02  0.21405867437E+03  0.25500000920E-02 0. -1.
</event>
<event>
 5   0  0.3767635E-02  0.5951879E+03  0.7818609E-02  0.9915440E-01
        1   -1    0    0  501    0  0.00000000000E+00  0.00000000000E+00  0.79460413521E+03  0.79460413523E+03  0.50400001928E-02 0.  1.
       -1   -1    0    0    0  501  0.00000000000E+00  0.00000000000E+00 -0.11145442555E+03  0.11145442566E+03  0.50400001928E-02 0. -1.
    10030    2    1    2    0    0  0.00000000000E+00  0.00000000000E+00  0.68314970966E+03  0.90605856089E+03  0.59518786106E+03 0.  0.
        2    1    3    3  502    0 -0.14412036571E+03 -0.10748624505E+02  0.73759687469E+03  0.75162182133E+03  0.25500000920E-02 0.  1.
       -2    1    3    3    0  502  0.14412036571E+03  0.10748624505E+02 -0.54447165025E+02  0.15443673957E+03  0.25500000920E-02 0. -1.
</event>
<event>
 5   0  0.3703280E-02  0.5995143E+03  0.7818609E-02  0.9906414E-01
        1   -1    0    0  501    0  0.00000000000E+00  0.00000000000E+00  0.69360516460E+03  0.69360516461E+03  0.50400001928E-02 0.  1.
       -1   -1    0    0    0  501  0.00000000000E+00  0.00000000000E+00 -0.12954683399E+03  0.12954683408E+03  0.50400001928E-02 0. -1.
    10030    2    1    2    0    0  0.00000000000E+00  0.00000000000E+00  0.56405833061E+03  0.82315199870E+03  0.59951431395E+03 0.  0.
        5    1    3    3  502    0 -0.27134014085E+03  0.95867789646E+02  0.39703772417E+03  0.49038469546E+03  0.46999998093E+01 0.  1.
       -5    1    3    3    0  502  0.27134014085E+03 -0.95867789646E+02  0.16702060644E+03  0.33276730324E+03  0.46999998093E+01 0. -1.
</event>
<event>
 5   0  0.3703280E-02  0.5985766E+03  0.7818609E-02  0.9908364E-01
       -1   -1    0    0    0  501  0.00000000000E+00  0.00000000000E+00  0.24042519919E+03  0.24042519924E+03  0.50400001928E-02 0. -1.
        1   -1    0    0  501    0  0.00000000000E+00  0.00000000000E+00 -0.37256276648E+03  0.37256276652E+03  0.50400001928E-02 0.  1.
    10030    2    1    2    0    0  0.00000000000E+00  0.00000000000E+00 -0.13213756730E+03  0.61298796576E+03  0.59857656943E+03 0.  0.
        5    1    3    3  502    0  0.37045053897E+02  0.25493106747E+03  0.89877539386E+02  0.27287771485E+03  0.46999998093E+01 0. -1.
       -5    1    3    3    0  502 -0.37045053897E+02 -0.25493106747E+03 -0.22201510668E+03  0.34011025091E+03  0.46999998093E+01 0.  1.
</event>
<event>
 5   0  0.5935451E-02  0.5984126E+03  0.7818609E-02  0.9908705E-01
       -2   -1    0    0    0  501  0.00000000000E+00  0.00000000000E+00  0.19677693175E+03  0.19677693176E+03  0.25500000920E-02 0. -1.
        2   -1    0    0  501    0  0.00000000000E+00  0.00000000000E+00 -0.45495373413E+03  0.45495373413E+03  0.25500000920E-02 0.  1.
    10030    2    1    2    0    0  0.00000000000E+00  0.00000000000E+00 -0.25817680238E+03  0.65173066590E+03  0.59841256637E+03 0.  0.
        3    1    3    3  502    0 -0.36612992689E+02  0.22808330447E+03 -0.33619454379E+03  0.40790842904E+03  0.10100000352E+00 0.  1.
       -3    1    3    3    0  502  0.36612992689E+02 -0.22808330447E+03  0.78017741407E+02  0.24382223686E+03  0.10100000352E+00 0. -1.
</event>
<event>
 5   0  0.5935451E-02  0.5952545E+03  0.7818609E-02  0.9915301E-01
       -2   -1    0    0    0  501  0.00000000000E+00  0.00000000000E+00  0.87105743696E+02  0.87105743733E+02  0.25500000920E-02 0. -1.
        2   -1    0    0  501    0  0.00000000000E+00  0.00000000000E+00 -0.10169476992E+04  0.10169476992E+04  0.25500000920E-02 0.  1.
    10030    2    1    2    0    0  0.00000000000E+00  0.00000000000E+00 -0.92984195553E+03  0.11040534430E+04  0.59525451922E+03 0.  0.
        3    1    3    3  502    0  0.64294572664E+02 -0.43257616170E+02 -0.99790825936E+03  0.10009125425E+04  0.10100000352E+00 0.  1.
       -3    1    3    3    0  502 -0.64294572664E+02  0.43257616170E+02  0.68066303829E+02  0.10314090046E+03  0.10100000352E+00 0. -1.
</event>
<event>
 5   0  0.6007360E-02  0.5901464E+03  0.7818609E-02  0.9926063E-01
       -2   -1    0    0    0  501  0.00000000000E+00  0.00000000000E+00  0.87448655434E+02  0.87448655471E+02  0.25500000920E-02 0. -1.
        2   -1    0    0  501    0  0.00000000000E+00  0.00000000000E+00 -0.99564940872E+03  0.99564940873E+03  0.25500000920E-02 0.  1.
    10030    2    1    2    0    0  0.00000000000E+00  0.00000000000E+00 -0.90820075329E+03  0.10830980642E+04  0.59014642962E+03 0.  0.
        4    1    3    3  502    0 -0.26037738140E+03  0.66095769846E+02 -0.67813948185E+03  0.72941058484E+03  0.12699999809E+01 0.  1.
       -4    1    3    3    0  502  0.26037738140E+03 -0.66095769846E+02 -0.23006127144E+03  0.35368747935E+03  0.12699999809E+01 0. -1.
</event>
<event>
 5   0  0.5935451E-02  0.5981753E+03  0.7818609E-02  0.9909199E-01
       -2   -1    0    0    0  501  0.00000000000E+00  0.00000000000E+00  0.10166358388E+03  0.10166358392E+03  0.25500000920E-02 0. -1.
        2   -1    0    0  501    0  0.00000000000E+00  0.00000000000E+00 -0.87989653590E+03  0.87989653590E+03  0.25500000920E-02 0.  1.
    10030    2    1    2    0    0  0.00000000000E+00  0.00000000000E+00 -0.77823295201E+03  0.98156011982E+03  0.59817534320E+03 0.  0.
        3    1    3    3  502    0  0.22575165115E+03 -0.17954259083E+03 -0.51888517374E+03  0.59366756999E+03  0.10100000352E+00 0.  1.
       -3    1    3    3    0  502 -0.22575165115E+03  0.17954259083E+03 -0.25934777827E+03  0.38789254983E+03  0.10100000352E+00 0. -1.
</event>
<event>
 5   0  0.5872632E-02  0.5960660E+03  0.7818609E-02  0.9913602E-01
       -2   -1    0    0    0  501  0.00000000000E+00  0.00000000000E+00  0.89387567583E+02  0.89387567619E+02  0.25500000920E-02 0.  1.
        2   -1    0    0  501    0  0.00000000000E+00  0.00000000000E+00 -0.99369143888E+03  0.99369143888E+03  0.25500000920E-02 0. -1.
    10030    2    1    2    0    0  0.00000000000E+00  0.00000000000E+00 -0.90430387129E+03  0.10830790065E+04  0.59606597175E+03 0.  0.
        1    1    3    3  502    0 -0.27691369621E+03 -0.57418067862E+02 -0.62304727437E+03  0.68422652374E+03  0.50400001928E-02 0. -1.
       -1    1    3    3    0  502  0.27691369621E+03  0.57418067862E+02 -0.28125659692E+03  0.39885248275E+03  0.50400001928E-02 0.  1.
</event>
<event>
 5   0  0.5935451E-02  0.6009697E+03  0.7818609E-02  0.9903396E-01
        2   -1    0    0  501    0  0.00000000000E+00  0.00000000000E+00  0.19364391737E+04  0.19364391737E+04  0.25500000920E-02 0. -1.
       -2   -1    0    0    0  501  0.00000000000E+00  0.00000000000E+00 -0.46627408178E+02  0.46627408248E+02  0.25500000920E-02 0.  1.
    10030    2    1    2    0    0  0.00000000000E+00  0.00000000000E+00  0.18898117656E+04  0.19830665820E+04  0.60096968255E+03 0.  0.
        3    1    3    3  502    0 -0.40956919686E+02  0.29764968904E+03  0.93078106757E+03  0.97807270313E+03  0.10100000352E+00 0.  1.
       -3    1    3    3    0  502  0.40956919686E+02 -0.29764968904E+03  0.95903069798E+03  0.10049938789E+04  0.10100000352E+00 0. -1.
</event>
<event>
 5   0  0.5999117E-02  0.6009870E+03  0.7818609E-02  0.9903361E-01
        2   -1    0    0  501    0  0.00000000000E+00  0.00000000000E+00  0.10930453573E+04  0.10930453573E+04  0.25500000920E-02 0. -1.
       -2   -1    0    0    0  501  0.00000000000E+00  0.00000000000E+00 -0.82609865711E+02  0.82609865750E+02  0.25500000920E-02 0.  1.
    10030    2    1    2    0    0  0.00000000000E+00  0.00000000000E+00  0.10104354916E+04  0.11756552230E+04  0.60098695562E+03 0.  0.
        5    1    3    3  502    0 -0.67739608985E+02  0.15600082655E+03  0.98974681299E+03  0.10042637882E+04  0.46999998093E+01 0. -1.
       -5    1    3    3    0  502  0.67739608985E+02 -0.15600082655E+03  0.20688678586E+02  0.17139143482E+03  0.46999998093E+01 0.  1.
</event>
<event>
 5   0  0.3640827E-02  0.5983449E+03  0.7818609E-02  0.9908846E-01
       -1   -1    0    0    0  501  0.00000000000E+00  0.00000000000E+00  0.15731623726E+03  0.15731623734E+03  0.50400001928E-02 0.  1.
        1   -1    0    0  501    0  0.00000000000E+00  0.00000000000E+00 -0.56894424818E+03  0.56894424820E+03  0.50400001928E-02 0. -1.
    10030    2    1    2    0    0  0.00000000000E+00  0.00000000000E+00 -0.41162801092E+03  0.72626048554E+03  0.59834494523E+03 0.  0.
        3    1    3    3  502    0  0.11930205927E+03 -0.13638519849E+03  0.83133114807E+02  0.19936155269E+03  0.10100000352E+00 0.  1.
       -3    1    3    3    0  502 -0.11930205927E+03  0.13638519849E+03 -0.49476112573E+03  0.52689893286E+03  0.10100000352E+00 0. -1.
</event>
<event>
 5   0  0.2388000E-02  0.5940156E+03  0.7818609E-02  0.9917900E-01
       -3   -1    0    0    0  501  0.00000000000E+00  0.00000000000E+00  0.94086674912E+02  0.94086729123E+02  0.10100000352E+00 0. -1.
        3   -1    0    0  501    0  0.00000000000E+00  0.00000000000E+00 -0.93757801431E+03  0.93757801975E+03  0.10100000352E+00 0.  1.
    10030    2    1    2    0    0  0.00000000000E+00  0.00000000000E+00 -0.84349133940E+03  0.10316647489E+04  0.59401558433E+03 0.  0.
        1    1    3    3  502    0 -0.17862113157E+03  0.91016818795E+01 -0.83356484358E+03  0.85253662545E+03  0.50400001928E-02 0.  1.
       -1    1    3    3    0  502  0.17862113157E+03 -0.91016818795E+01 -0.99264958130E+01  0.17912812342E+03  0.50400001928E-02 0. -1.
</event>
<event>
 5   0  0.3651984E-02  0.5852682E+03  0.7818609E-02  0.9936450E-01
        1   -1    0    0  501    0  0.00000000000E+00  0.00000000000E+00  0.13458189321E+03  0.13458189331E+03  0.50400001928E-02 0.  1.
       -1   -1    0    0    0  501  0.00000000000E+00  0.00000000000E+00 -0.63630196184E+03  0.63630196186E+03  0.50400001928E-02 0. -1.
    10030    2    1    2    0    0  0.00000000000E+00  0.00000000000E+00 -0.50172006862E+03  0.77088385516E+03  0.58526822133E+03 0.  0.
        1    1    3    3  502    0  0.35741318724E+01 -0.32820393017E+02 -0.63384116794E+03  0.63470038507E+03  0.50400001928E-02 0. -1.
       -1    1    3    3    0  502 -0.35741318724E+01  0.32820393017E+02  0.13212109931E+03  0.13618347009E+03  0.50400001928E-02 0.  1.
</event>
<event>
 5   0  0.3640827E-02  0.6014338E+03  0.7818609E-02  0.9902436E-01
        1   -1    0    0  501    0  0.00000000000E+00  0.00000000000E+00  0.12604564662E+04  0.12604564662E+04  0.50400001928E-02 0. -1.
       -1   -1    0    0    0  501  0.00000000000E+00  0.00000000000E+00 -0.71744377645E+02  0.71744377822E+02  0.50400001928E-02 0.  1.
    10030    2    1    2    0    0  0.00000000000E+00  0.00000000000E+00  0.11887120886E+04  0.13322008441E+04  0.60143383624E+03 0.  0.
        3    1    3    3  502    0  0.21475152634E+03 -0.20731061117E+03  0.51343130005E+03  0.59389192421E+03  0.10100000352E+00 0.  1.
       -3    1    3    3    0  502 -0.21475152634E+03  0.20731061117E+03  0.67528078854E+03  0.73830891986E+03  0.10100000352E+00 0. -1.
</event>
<event>
 5   0  0.3478183E-02  0.5975325E+03  0.7818609E-02  0.9910539E-01
       -1   -1    0    0    0  501  0.00000000000E+00  0.00000000000E+00  0.14960216575E+03  0.14960216584E+03  0.50400001928E-02 0.  1.
        1   -1    0    0  501    0  0.00000000000E+00  0.00000000000E+00 -0.59665760414E+03  0.59665760416E+03  0.50400001928E-02 0. -1.
    10030    2    1    2    0    0  0.00000000000E+00  0.00000000000E+00 -0.44705543838E+03  0.74625977000E+03  0.59753249228E+03 0.  0.
        4    1    3    3  502    0 -0.59268153134E+02 -0.64473312059E+02  0.13320860225E+03  0.15942291729E+03  0.12699999809E+01 0.  1.
       -4    1    3    3    0  502  0.59268153134E+02  0.64473312059E+02 -0.58026404063E+03  0.58683685271E+03  0.12699999809E+01 0. -1.
</event>
<event>
 5   0  0.3478183E-02  0.5995844E+03  0.7818609E-02  0.9906269E-01
       -1   -1    0    0    0  501  0.00000000000E+00  0.00000000000E+00  0.35182042514E+03  0.35182042517E+03  0.50400001928E-02 0. -1.
        1   -1    0    0  501    0  0.00000000000E+00  0.00000000000E+00 -0.25545809633E+03  0.25545809638E+03  0.50400001928E-02 0.  1.
    10030    2    1    2    0    0  0.00000000000E+00  0.00000000000E+00  0.96362328811E+02  0.60727852155E+03  0.59958444303E+03 0.  0.
        4    1    3    3  502    0  0.37033057633E+02 -0.29739645387E+03  0.55872360532E+02  0.30485969184E+03  0.12699999809E+01 0.  1.
       -4    1    3    3    0  502 -0.37033057633E+02  0.29739645387E+03  0.40489968279E+02  0.30241882971E+03  0.12699999809E+01 0. -1.
</event>
<event>
 5   0  0.6007360E-02  0.6103033E+03  0.7818609E-02  0.9884258E-01
        2   -1    0    0  501    0  0.00000000000E+00  0.00000000000E+00  0.79821525285E+03  0.79821525285E+03  0.25500000920E-02 0. -1.
       -2   -1    0    0    0  501  0.00000000000E+00  0.00000000000E+00 -0.11665717706E+03  0.11665717709E+03  0.25500000920E-02 0.  1.
    10030    2    1    2    0    0  0.00000000000E+00  0.00000000000E+00  0.68155807579E+03  0.91487242994E+03  0.61030332818E+03 0.  0.
        4    1    3    3  502    0 -0.15370909953E+03 -0.62903079761E+02 -0.42966762222E+02  0.17155477340E+03  0.12699999809E+01 0.  1.
       -4    1    3    3    0  502  0.15370909953E+03  0.62903079761E+02  0.72452483801E+03  0.74331765654E+03  0.12699999809E+01 0. -1.
</event>
<event>
 5   0  0.5999117E-02  0.6017974E+03  0.7818609E-02  0.9901684E-01
        2   -1    0    0  501    0  0.00000000000E+00  0.00000000000E+00  0.30811867538E+03  0.30811867539E+03  0.25500000920E-02 0. -1.
       -2   -1    0    0    0  501  0.00000000000E+00  0.00000000000E+00 -0.29384792102E+03  0.29384792103E+03  0.25500000920E-02 0.  1.
    10030    2    1    2    0    0  0.00000000000E+00  0.00000000000E+00  0.14270754357E+02  0.60196659642E+03  0.60179741506E+03 0.  0.
        5    1    3    3  502    0  0.66354862268E+02  0.12008305617E+02  0.30042553932E+03  0.30793629508E+03  0.46999998093E+01 0. -1.
       -5    1    3    3    0  502 -0.66354862268E+02 -0.12008305617E+02 -0.28615478496E+03  0.29403030134E+03  0.46999998093E+01 0.  1.
</event>
<event>
 5   0  0.3478183E-02  0.5852869E+03  0.7818609E-02  0.9936410E-01
       -1   -1    0    0    0  501  0.00000000000E+00  0.00000000000E+00  0.23023582438E+03  0.23023582443E+03  0.50400001928E-02 0. -1.
        1   -1    0    0  501    0  0.00000000000E+00  0.00000000000E+00 -0.37196728521E+03  0.37196728524E+03  0.50400001928E-02 0.  1.
    10030    2    1    2    0    0  0.00000000000E+00  0.00000000000E+00 -0.14173146083E+03  0.60220310967E+03  0.58528691965E+03 0.  0.
        4    1    3    3  502    0 -0.18122975623E+03 -0.20702327855E+03 -0.17342474316E+03  0.32523932242E+03  0.12699999809E+01 0.  1.
       -4    1    3    3    0  502  0.18122975623E+03  0.20702327855E+03  0.31693282328E+02  0.27696378726E+03  0.12699999809E+01 0. -1.
</event>
<event>
 5   0  0.5935451E-02  0.6000436E+03  0.7818609E-02  0.9905316E-01
       -2   -1    0    0    0  501  0.00000000000E+00  0.00000000000E+00  0.70640477928E+02  0.70640477974E+02  0.25500000920E-02 0. -1.
        2   -1    0    0  501    0  0.00000000000E+00  0.00000000000E+00 -0.12742422341E+04  0.12742422341E+04  0.25500000920E-02 0.  1.
    10030    2    1    2    0    0  0.00000000000E+00  0.00000000000E+00 -0.12036017562E+04  0.13448827121E+04  0.60004359990E+03 0.  0.
        3    1    3    3  502    0  0.77333036066E+02  0.51287858333E+02 -0.12412702485E+04  0.12447339807E+04  0.10100000352E+00 0.  1.
       -3    1    3    3    0  502 -0.77333036066E+02 -0.51287858333E+02  0.37668492280E+02  0.10014873135E+03  0.10100000352E+00 0. -1.
</event>
<event>
 5   0  0.5872632E-02  0.5994088E+03  0.7818609E-02  0.9906633E-01
        2   -1    0    0  501    0  0.00000000000E+00  0.00000000000E+00  0.11844632538E+03  0.11844632540E+03  0.25500000920E-02 0. -1.
       -2   -1    0    0    0  501  0.00000000000E+00  0.00000000000E+00 -0.75834120420E+03  0.75834120420E+03  0.25500000920E-02 0.  1.
    10030    2    1    2    0    0  0.00000000000E+00  0.00000000000E+00 -0.63989487883E+03  0.87678752961E+03  0.59940880551E+03 0.  0.
        1    1    3    3  502    0 -0.88822631407E+02 -0.18419318191E+03  0.54636868026E+00  0.20449177650E+03  0.50400001928E-02 0. -1.
       -1    1    3    3    0  502  0.88822631407E+02  0.18419318191E+03 -0.64044124751E+03  0.67229575311E+03  0.50400001928E-02 0.  1.
</event>
<event>
 5   0  0.2388000E-02  0.5256532E+03  0.7818609E-02  0.1007292E+00
       -3   -1    0    0    0  501  0.00000000000E+00  0.00000000000E+00  0.10434561024E+03  0.10434565912E+03  0.10100000352E+00 0. -1.
        3   -1    0    0  501    0  0.00000000000E+00  0.00000000000E+00 -0.66200958295E+03  0.66200959065E+03  0.10100000352E+00 0.  1.
    10030    2    1    2    0    0  0.00000000000E+00  0.00000000000E+00 -0.55766397271E+03  0.76635524978E+03  0.52565317692E+03 0.  0.
        3    1    3    3  502    0  0.23163954327E+03  0.87031995428E+02 -0.40797322133E+03  0.47715155429E+03  0.10100000352E+00 0.  1.
       -3    1    3    3    0  502 -0.23163954327E+03 -0.87031995428E+02 -0.14969075138E+03  0.28920369549E+03  0.10100000352E+00 0. -1.
</event>
<event>
 5   0  0.5755078E-02  0.6046232E+03  0.7818609E-02  0.9895860E-01
        2   -1    0    0  501    0  0.00000000000E+00  0.00000000000E+00  0.82709528349E+03  0.82709528349E+03  0.25500000920E-02 0. -1.
       -2   -1    0    0    0  501  0.00000000000E+00  0.00000000000E+00 -0.11049792823E+03  0.11049792826E+03  0.25500000920E-02 0.  1.
    10030    2    1    2    0    0  0.00000000000E+00  0.00000000000E+00  0.71659735526E+03  0.93759321175E+03  0.60462323901E+03 0.  0.
        2    1    3    3  502    0 -0.79052599771E+01 -0.35541141378E+02 -0.10708550902E+03  0.11310602157E+03  0.25500000920E-02 0.  1.
       -2    1    3    3    0  502  0.79052599771E+01  0.35541141378E+02  0.82368286428E+03  0.82448719019E+03  0.25500000920E-02 0. -1.
</event>
<event>
 5   0  0.2388000E-02  0.5953040E+03  0.7818609E-02  0.9915197E-01
        4   -1    0    0  501    0  0.00000000000E+00  0.00000000000E+00  0.19679026044E+03  0.19679435841E+03  0.12699999809E+01 0.  1.
       -4   -1    0    0    0  501  0.00000000000E+00  0.00000000000E+00 -0.45019916721E+03  0.45020095852E+03  0.12699999809E+01 0. -1.
    10030    2    1    2    0    0  0.00000000000E+00  0.00000000000E+00 -0.25340890677E+03  0.64699531694E+03  0.59530401150E+03 0.  0.
        4    1    3    3  502    0 -0.37984447582E+02  0.52185825835E+02 -0.44250142269E+03  0.44718597994E+03  0.12699999809E+01 0. -1.
       -4    1    3    3    0  502  0.37984447582E+02 -0.52185825835E+02  0.18909251591E+03  0.19980933700E+03  0.12699999809E+01 0.  1.
</event>
<event>
 5   0  0.3478183E-02  0.5996423E+03  0.7818609E-02  0.9906149E-01
       -1   -1    0    0    0  501  0.00000000000E+00  0.00000000000E+00  0.14197360955E+03  0.14197360964E+03  0.50400001928E-02 0.  1.
        1   -1    0    0  501    0  0.00000000000E+00  0.00000000000E+00 -0.63316494565E+03  0.63316494567E+03  0.50400001928E-02 0. -1.
    10030    2    1    2    0    0  0.00000000000E+00  0.00000000000E+00 -0.49119133610E+03  0.77513855531E+03  0.59964226941E+03 0.  0.
        4    1    3    3  502    0 -0.24337919670E+03 -0.82225200057E+02 -0.44542347004E+03  0.51419655529E+03  0.12699999809E+01 0. -1.
       -4    1    3    3    0  502  0.24337919670E+03  0.82225200057E+02 -0.45767866065E+02  0.26094200002E+03  0.12699999809E+01 0.  1.
</event>
<event>
 5   0  0.5999117E-02  0.6359888E+03  0.7818609E-02  0.9833431E-01
       -2   -1    0    0    0  501  0.00000000000E+00  0.00000000000E+00  0.47288596880E+03  0.47288596880E+03  0.25500000920E-02 0. -1.
        2   -1    0    0  501    0  0.00000000000E+00  0.00000000000E+00 -0.21383681374E+03  0.21383681376E+03  0.25500000920E-02 0.  1.
    10030    2    1    2    0    0  0.00000000000E+00  0.00000000000E+00  0.25904915506E+03  0.68672278256E+03  0.63598876983E+03 0.  0.
        5    1    3    3  502    0 -0.60449194515E+02 -0.13658850636E+03  0.43260754669E+03  0.45769193203E+03  0.46999998093E+01 0. -1.
       -5    1    3    3    0  502  0.60449194515E+02  0.13658850636E+03 -0.17355839164E+03  0.22903085053E+03  0.46999998093E+01 0.  1.
</event>
<event>
 5   0  0.2388000E-02  0.5999946E+03  0.7818609E-02  0.9905417E-01
       -4   -1    0    0    0  501  0.00000000000E+00  0.00000000000E+00  0.52628936727E+03  0.52629089960E+03  0.12699999809E+01 0.  1.
        4   -1    0    0  501    0  0.00000000000E+00  0.00000000000E+00 -0.17100135589E+03  0.17100607187E+03  0.12699999809E+01 0. -1.
    10030    2    1    2    0    0  0.00000000000E+00  0.00000000000E+00  0.35528801139E+03  0.69729697147E+03  0.59999457946E+03 0.  0.
        2    1    3    3  502    0 -0.19418383562E+03  0.22232637149E+03  0.23981745915E+03  0.38032721595E+03  0.25500000920E-02 0.  1.
       -2    1    3    3    0  502  0.19418383562E+03 -0.22232637149E+03  0.11547055224E+03  0.31696975552E+03  0.25500000920E-02 0. -1.
</event>
<event>
 5   0  0.3703280E-02  0.6045331E+03  0.7818609E-02  0.9896046E-01
       -1   -1    0    0    0  501  0.00000000000E+00  0.00000000000E+00  0.40406264010E+03  0.40406264013E+03  0.50400001928E-02 0.  1.
        1   -1    0    0  501    0  0.00000000000E+00  0.00000000000E+00 -0.22611609960E+03  0.22611609966E+03  0.50400001928E-02 0. -1.
    10030    2    1    2    0    0  0.00000000000E+00  0.00000000000E+00  0.17794654050E+03  0.63017873979E+03  0.60453310315E+03 0.  0.
        5    1    3    3  502    0  0.17744287287E+03 -0.18794233718E+03 -0.74307065816E+02  0.26898313193E+03  0.46999998093E+01 0. -1.
       -5    1    3    3    0  502 -0.17744287287E+03  0.18794233718E+03  0.25225360631E+03  0.36119560785E+03  0.46999998093E+01 0.  1.
</event>
<event>
 5   0  0.3478183E-02  0.5791263E+03  0.7818609E-02  0.9949684E-01
        1   -1    0    0  501    0  0.00000000000E+00  0.00000000000E+00  0.84266409133E+02  0.84266409283E+02  0.50400001928E-02 0.  1.
       -1   -1    0    0    0  501  0.00000000000E+00  0.00000000000E+00 -0.99502073230E+03  0.99502073232E+03  0.50400001928E-02 0. -1.
    10030    2    1    2    0    0  0.00000000000E+00  0.00000000000E+00 -0.91075432317E+03  0.10792871416E+04  0.57912632201E+03 0.  0.
        4    1    3    3  502    0  0.37025619450E+02 -0.44745050805E+01 -0.99052076188E+03  0.99122344116E+03  0.12699999809E+01 0. -1.
       -4    1    3    3    0  502 -0.37025619450E+02  0.44745050805E+01  0.79766438707E+02  0.88063700441E+02  0.12699999809E+01 0.  1.
</event>
<event>
 5   0  0.3640827E-02  0.6012538E+03  0.7818609E-02  0.9902808E-01
        1   -1    0    0  501    0  0.00000000000E+00  0.00000000000E+00  0.20543297156E+04  0.20543297156E+04  0.50400001928E-02 0.  1.
       -1   -1    0    0    0  501  0.00000000000E+00  0.00000000000E+00 -0.43993197543E+02  0.43993197831E+02  0.50400001928E-02 0. -1.
    10030    2    1    2    0    0  0.00000000000E+00  0.00000000000E+00  0.20103365181E+04  0.20983229135E+04  0.60125380101E+03 0.  0.
        3    1    3    3  502    0  0.22558601088E+02 -0.31434106309E+02 -0.35267719640E+02  0.52352800995E+02  0.10100000352E+00 0. -1.
       -3    1    3    3    0  502 -0.22558601088E+02  0.31434106309E+02  0.20456042377E+04  0.20459701125E+04  0.10100000352E+00 0.  1.
</event>
<event>
 5   0  0.2388000E-02  0.6029735E+03  0.7818609E-02  0.9899256E-01
        3   -1    0    0  501    0  0.00000000000E+00  0.00000000000E+00  0.57501167151E+03  0.57501168038E+03  0.10100000352E+00 0.  1.
       -3   -1    0    0    0  501  0.00000000000E+00  0.00000000000E+00 -0.15807375425E+03  0.15807378652E+03  0.10100000352E+00 0. -1.
    10030    2    1    2    0    0  0.00000000000E+00  0.00000000000E+00  0.41693791726E+03  0.73308546690E+03  0.60297352755E+03 0.  0.
        3    1    3    3  502    0 -0.26557825339E+02  0.36960905691E+02  0.57081095430E+03  0.57262254792E+03  0.10100000352E+00 0.  1.
       -3    1    3    3    0  502  0.26557825339E+02 -0.36960905691E+02 -0.15387303704E+03  0.16046291898E+03  0.10100000352E+00 0. -1.
</event>
<event>
 5   0  0.2388000E-02  0.6492108E+03  0.7818609E-02  0.9808261E-01
       -3   -1    0    0    0  501  0.00000000000E+00  0.00000000000E+00  0.28936334685E+03  0.28936336448E+03  0.10100000352E+00 0.  1.
        3   -1    0    0  501    0  0.00000000000E+00  0.00000000000E+00 -0.36413963583E+03  0.36413964983E+03  0.10100000352E+00 0. -1.
    10030    2    1    2    0    0  0.00000000000E+00  0.00000000000E+00 -0.74776288972E+02  0.65350301431E+03  0.64921082579E+03 0.  0.
        4    1    3    3  502    0 -0.27240930223E+03 -0.17325371753E+03 -0.71425642707E+02  0.33064620656E+03  0.12699999809E+01 0.  1.
       -4    1    3    3    0  502  0.27240930223E+03  0.17325371753E+03 -0.33506462656E+01  0.32285680775E+03  0.12699999809E+01 0. -1.
</event>
<event>
 5   0  0.3703280E-02  0.5867736E+03  0.7818609E-02  0.9933233E-01
       -1   -1    0    0    0  501  0.00000000000E+00  0.00000000000E+00  0.46002987068E+03  0.46002987071E+03  0.50400001928E-02 0.  1.
        1   -1    0    0  501    0  0.00000000000E+00  0.00000000000E+00 -0.18710915734E+03  0.18710915741E+03  0.50400001928E-02 0. -1.
    10030    2    1    2    0    0  0.00000000000E+00  0.00000000000E+00  0.27292071334E+03  0.64713902812E+03  0.58677355593E+03 0.  0.
        5    1    3    3  502    0 -0.18109729915E+02 -0.24405822409E+03 -0.41924091273E+02  0.24833867699E+03  0.46999998093E+01 0. -1.
       -5    1    3    3    0  502  0.18109729915E+02  0.24405822409E+03  0.31484480461E+03  0.39880035112E+03  0.46999998093E+01 0.  1.
</event>
<event>
 5   0  0.3478183E-02  0.5974329E+03  0.7818609E-02  0.9910746E-01
        1   -1    0    0  501    0  0.00000000000E+00  0.00000000000E+00  0.29518265506E+03  0.29518265511E+03  0.50400001928E-02 0. -1.
       -1   -1    0    0    0  501  0.00000000000E+00  0.00000000000E+00 -0.30229251295E+03  0.30229251299E+03  0.50400001928E-02 0.  1.
    10030    2    1    2    0    0  0.00000000000E+00  0.00000000000E+00 -0.71098578837E+01  0.59747516810E+03  0.59743286352E+03 0.  0.
        4    1    3    3  502    0  0.25242876757E+03 -0.77887857072E+02  0.13589343561E+03  0.29707817106E+03  0.12699999809E+01 0. -1.
       -4    1    3    3    0  502 -0.25242876757E+03  0.77887857072E+02 -0.14300329349E+03  0.30039699704E+03  0.12699999809E+01 0.  1.
</event>
<event>
 5   0  0.3703280E-02  0.6077233E+03  0.7818609E-02  0.9889511E-01
        1   -1    0    0  501    0  0.00000000000E+00  0.00000000000E+00  0.16089480464E+03  0.16089480472E+03  0.50400001928E-02 0.  1.
       -1   -1    0    0    0  501  0.00000000000E+00  0.00000000000E+00 -0.57386498068E+03  0.57386498070E+03  0.50400001928E-02 0. -1.
    10030    2    1    2    0    0  0.00000000000E+00  0.00000000000E+00 -0.41297017604E+03  0.73475978541E+03  0.60772327252E+03 0.  0.
        5    1    3    3  502    0 -0.19309537486E+02 -0.24052499690E+03 -0.42969787396E+03  0.49283616472E+03  0.46999998093E+01 0. -1.
       -5    1    3    3    0  502  0.19309537486E+02  0.24052499690E+03  0.16727697923E+02  0.24192362069E+03  0.46999998093E+01 0.  1.
</event>
<event>
 5   0  0.5872632E-02  0.6060852E+03  0.7818609E-02  0.9892861E-01
        2   -1    0    0  501    0  0.00000000000E+00  0.00000000000E+00  0.11676000063E+04  0.11676000063E+04  0.25500000920E-02 0. -1.
       -2   -1    0    0    0  501  0.00000000000E+00  0.00000000000E+00 -0.78652641724E+02  0.78652641766E+02  0.25500000920E-02 0.  1.
    10030    2    1    2    0    0  0.00000000000E+00  0.00000000000E+00  0.10889473646E+04  0.12462526481E+04  0.60608522503E+03 0.  0.
        1    1    3    3  502    0 -0.28550912716E+03 -0.53864696428E+01  0.75306078607E+03  0.80538501556E+03  0.50400001928E-02 0. -1.
       -1    1    3    3    0  502  0.28550912716E+03  0.53864696428E+01  0.33588657851E+03  0.44086763251E+03  0.50400001928E-02 0.  1.
</event>
<event>
 5   0  0.3651984E-02  0.6022823E+03  0.7818609E-02  0.9900682E-01
        1   -1    0    0  501    0  0.00000000000E+00  0.00000000000E+00  0.66980192998E+03  0.66980193000E+03  0.50400001928E-02 0. -1.
       -1   -1    0    0    0  501  0.00000000000E+00  0.00000000000E+00 -0.13539223731E+03  0.13539223741E+03  0.50400001928E-02 0.  1.
    10030    2    1    2    0    0  0.00000000000E+00  0.00000000000E+00  0.53440969267E+03  0.80519416741E+03  0.60228226573E+03 0.  0.
        1    1    3    3  502    0 -0.12082398473E+03  0.26545812150E+03  0.16698571562E+03  0.33608135742E+03  0.50400001928E-02 0. -1.
       -1    1    3    3    0  502  0.12082398473E+03 -0.26545812150E+03  0.36742397705E+03  0.46911280999E+03  0.50400001928E-02 0.  1.
</event>
<event>
 5   0  0.6007360E-02  0.6041065E+03  0.7818609E-02  0.9896923E-01
       -2   -1    0    0    0  501  0.00000000000E+00  0.00000000000E+00  0.20313679521E+03  0.20313679523E+03  0.25500000920E-02 0. -1.
        2   -1    0    0  501    0  0.00000000000E+00  0.00000000000E+00 -0.44913661789E+03  0.44913661790E+03  0.25500000920E-02 0.  1.
    10030    2    1    2    0    0  0.00000000000E+00  0.00000000000E+00 -0.24599982268E+03  0.65227341313E+03  0.60410652431E+03 0.  0.
        4    1    3    3  502    0 -0.16220489673E+03 -0.23594318753E+03 -0.22687300075E+03  0.36531163085E+03  0.12699999809E+01 0. -1.
       -4    1    3    3    0  502  0.16220489673E+03  0.23594318753E+03 -0.19126821929E+02  0.28696178227E+03  0.12699999809E+01 0.  1.
</event>
<event>
 5   0  0.5999117E-02  0.6054188E+03  0.7818609E-02  0.9894227E-01
        2   -1    0    0  501    0  0.00000000000E+00  0.00000000000E+00  0.62379173670E+03  0.62379173670E+03  0.25500000920E-02 0. -1.
       -2   -1    0    0    0  501  0.00000000000E+00  0.00000000000E+00 -0.14689673432E+03  0.14689673434E+03  0.25500000920E-02 0.  1.
    10030    2    1    2    0    0  0.00000000000E+00  0.00000000000E+00  0.47689500238E+03  0.77068847104E+03  0.60541876095E+03 0.  0.
        5    1    3    3  502    0 -0.11500838919E+03  0.10940682292E+03 -0.89612379002E+02  0.18234377137E+03  0.46999998093E+01 0.  1.
       -5    1    3    3    0  502  0.11500838919E+03 -0.10940682292E+03  0.56650738138E+03  0.58834469968E+03  0.46999998093E+01 0. -1.
</event>
<event>
 5   0  0.2388000E-02  0.5765211E+03  0.7818609E-02  0.9955351E-01
        4   -1    0    0  501    0  0.00000000000E+00  0.00000000000E+00  0.21153210711E+03  0.21153591950E+03  0.12699999809E+01 0.  1.
       -4   -1    0    0    0  501  0.00000000000E+00  0.00000000000E+00 -0.39281215556E+03  0.39281420857E+03  0.12699999809E+01 0. -1.
    10030    2    1    2    0    0  0.00000000000E+00  0.00000000000E+00 -0.18128004845E+03  0.60435012807E+03  0.57652113694E+03 0.  0.
        1    1    3    3  502    0  0.25922075906E+02  0.59441472029E+02 -0.38506955662E+03  0.39049174905E+03  0.50400001928E-02 0. -1.
       -1    1    3    3    0  502 -0.25922075906E+02 -0.59441472029E+02  0.20378950817E+03  0.21385837903E+03  0.50400001928E-02 0.  1.
</event>
<event>
 5   0  0.3651984E-02  0.6024112E+03  0.7818609E-02  0.9900416E-01
        1   -1    0    0  501    0  0.00000000000E+00  0.00000000000E+00  0.18569017639E+03  0.18569017646E+03  0.50400001928E-02 0.  1.
       -1   -1    0    0    0  501  0.00000000000E+00  0.00000000000E+00 -0.48858161641E+03  0.48858161644E+03  0.50400001928E-02 0. -1.
    10030    2    1    2    0    0  0.00000000000E+00  0.00000000000E+00 -0.30289144002E+03  0.67427179289E+03  0.60241117706E+03 0.  0.
        1    1    3    3  502    0 -0.29891389182E+03  0.21830326114E+02 -0.11789079519E+03  0.32206259870E+03  0.50400001928E-02 0.  1.
       -1    1    3    3    0  502  0.29891389182E+03 -0.21830326114E+02 -0.18500064483E+03  0.35220919420E+03  0.50400001928E-02 0. -1.
</event>
<event>
 5   0  0.5755078E-02  0.5464418E+03  0.7818609E-02  0.1002321E+00
        2   -1    0    0  501    0  0.00000000000E+00  0.00000000000E+00  0.14793797079E+04  0.14793797079E+04  0.25500000920E-02 0.  1.
       -2   -1    0    0    0  501  0.00000000000E+00  0.00000000000E+00 -0.50460099057E+02  0.50460099121E+02  0.25500000920E-02 0. -1.
    10030    2    1    2    0    0  0.00000000000E+00  0.00000000000E+00  0.14289196088E+04  0.15298398070E+04  0.54644175043E+03 0.  0.
        2    1    3    3  502    0 -0.16291004043E+03 -0.12722299147E+03  0.21423800914E+03  0.29769664996E+03  0.25500000920E-02 0. -1.
       -2    1    3    3    0  502  0.16291004043E+03  0.12722299147E+03  0.12146815997E+04  0.12321431570E+04  0.25500000920E-02 0.  1.
</event>
<event>
 5   0  0.3640827E-02  0.6052284E+03  0.7818609E-02  0.9894618E-01
        1   -1    0    0  501    0  0.00000000000E+00  0.00000000000E+00  0.96947153171E+03  0.96947153172E+03  0.50400001928E-02 0.  1.
       -1   -1    0    0    0  501  0.00000000000E+00  0.00000000000E+00 -0.94459040318E+02  0.94459040452E+02  0.50400001928E-02 0. -1.
    10030    2    1    2    0    0  0.00000000000E+00  0.00000000000E+00  0.87501249139E+03  0.10639305722E+04  0.60522838856E+03 0.  0.
        3    1    3    3  502    0  0.12760189580E+03 -0.47575516688E+02  0.91256098755E+03  0.92266637513E+03  0.10100000352E+00 0.  1.
       -3    1    3    3    0  502 -0.12760189580E+03  0.47575516688E+02 -0.37548496162E+02  0.14126419704E+03  0.10100000352E+00 0. -1.
</event>
<event>
 5   0  0.3640827E-02  0.5956847E+03  0.7818609E-02  0.9914400E-01
       -1   -1    0    0    0  501  0.00000000000E+00  0.00000000000E+00  0.30317844602E+03  0.30317844606E+03  0.50400001928E-02 0.  1.
        1   -1    0    0  501    0  0.00000000000E+00  0.00000000000E+00 -0.29260015373E+03  0.29260015377E+03  0.50400001928E-02 0. -1.
    10030    2    1    2    0    0  0.00000000000E+00  0.00000000000E+00  0.10578292291E+02  0.59577859983E+03  0.59568468148E+03 0.  0.
        3    1    3    3  502    0  0.16538373564E+03  0.13771177669E+03  0.21121900147E+03  0.30154566857E+03  0.10100000352E+00 0.  1.
       -3    1    3    3    0  502 -0.16538373564E+03 -0.13771177669E+03 -0.20064070918E+03  0.29423293125E+03  0.10100000352E+00 0. -1.
</event>
<event>
 5   0  0.5755078E-02  0.7080273E+03  0.7818609E-02  0.9703602E-01
       -2   -1    0    0    0  501  0.00000000000E+00  0.00000000000E+00  0.80391699706E+02  0.80391699746E+02  0.25500000920E-02 0.  1.
        2   -1    0    0  501    0  0.00000000000E+00  0.00000000000E+00 -0.15589377390E+04  0.15589377390E+04  0.25500000920E-02 0. -1.
    10030    2    1    2    0    0  0.00000000000E+00  0.00000000000E+00 -0.14785460392E+04  0.16393294387E+04  0.70802727237E+03 0.  0.
        2    1    3    3  502    0 -0.32532386808E+03  0.14173672144E+02 -0.41770510308E+03  0.52963578549E+03  0.25500000920E-02 0.  1.
       -2    1    3    3    0  502  0.32532386808E+03 -0.14173672144E+02 -0.10608409362E+04  0.11096936532E+04  0.25500000920E-02 0. -1.
</event>
<event>
 5   0  0.3640827E-02  0.5997003E+03  0.7818609E-02  0.9906028E-01
       -1   -1    0    0    0  501  0.00000000000E+00  0.00000000000E+00  0.15014227430E+03  0.15014227439E+03  0.50400001928E-02 0.  1.
        1   -1    0    0  501    0  0.00000000000E+00  0.00000000000E+00 -0.59883275295E+03  0.59883275297E+03  0.50400001928E-02 0. -1.
    10030    2    1    2    0    0  0.00000000000E+00  0.00000000000E+00 -0.44869047865E+03  0.74897502735E+03  0.59970029679E+03 0.  0.
        3    1    3    3  502    0 -0.81933192840E+02 -0.92907645744E+02 -0.56538203020E+03  0.57879333876E+03  0.10100000352E+00 0. -1.
       -3    1    3    3    0  502  0.81933192840E+02  0.92907645744E+02  0.11669155155E+03  0.17018168859E+03  0.10100000352E+00 0.  1.
</event>
<event>
 5   0  0.5935451E-02  0.5987199E+03  0.7818609E-02  0.9908065E-01
       -2   -1    0    0    0  501  0.00000000000E+00  0.00000000000E+00  0.71615313380E+03  0.71615313380E+03  0.25500000920E-02 0. -1.
        2   -1    0    0  501    0  0.00000000000E+00  0.00000000000E+00 -0.12513577421E+03  0.12513577423E+03  0.25500000920E-02 0.  1.
    10030    2    1    2    0    0  0.00000000000E+00  0.00000000000E+00  0.59101735959E+03  0.84128890804E+03  0.59871989064E+03 0.  0.
        3    1    3    3  502    0 -0.29270098093E+03 -0.24283798769E+02  0.37687136454E+03  0.47780289108E+03  0.10100000352E+00 0. -1.
       -3    1    3    3    0  502  0.29270098093E+03  0.24283798769E+02  0.21414599506E+03  0.36348601695E+03  0.10100000352E+00 0.  1.
</event>
<event>
 5   0  0.5935451E-02  0.6170024E+03  0.7818609E-02  0.9870746E-01
        2   -1    0    0  501    0  0.00000000000E+00  0.00000000000E+00  0.59057125769E+03  0.59057125770E+03  0.25500000920E-02 0.  1.
       -2   -1    0    0    0  501  0.00000000000E+00  0.00000000000E+00 -0.16115413722E+03  0.16115413724E+03  0.25500000920E-02 0. -1.
    10030    2    1    2    0    0  0.00000000000E+00  0.00000000000E+00  0.42941712048E+03  0.75172539493E+03  0.61700243600E+03 0.  0.
        3    1    3    3  502    0 -0.10539091741E+03  0.25106180706E+02  0.56663150730E+03  0.57689586672E+03  0.10100000352E+00 0.  1.
       -3    1    3    3    0  502  0.10539091741E+03 -0.25106180706E+02 -0.13721438682E+03  0.17482952821E+03  0.10100000352E+00 0. -1.
</event>
<event>
 5   0  0.5755078E-02  0.6017573E+03  0.7818609E-02  0.9901767E-01
       -2   -1    0    0    0  501  0.00000000000E+00  0.00000000000E+00  0.15247672733E+03  0.15247672735E+03  0.25500000920E-02 0. -1.
        2   -1    0    0  501    0  0.00000000000E+00  0.00000000000E+00 -0.59371667702E+03  0.59371667703E+03  0.25500000920E-02 0.  1.
    10030    2    1    2    0    0  0.00000000000E+00  0.00000000000E+00 -0.44123994969E+03  0.74619340438E+03  0.60175734606E+03 0.  0.
        2    1    3    3  502    0  0.17292517131E+03 -0.27026331561E+02 -0.52409520808E+03  0.55254802923E+03  0.25500000920E-02 0.  1.
       -2    1    3    3    0  502 -0.17292517131E+03  0.27026331561E+02  0.82855258385E+02  0.19364537515E+03  0.25500000920E-02 0. -1.
</event>
<event>
 5   0  0.3478183E-02  0.6034145E+03  0.7818609E-02  0.9898347E-01
        1   -1    0    0  501    0  0.00000000000E+00  0.00000000000E+00  0.42447399104E+03  0.42447399107E+03  0.50400001928E-02 0.  1.
       -1   -1    0    0    0  501  0.00000000000E+00  0.00000000000E+00 -0.21444719052E+03  0.21444719058E+03  0.50400001928E-02 0. -1.
    10030    2    1    2    0    0  0.00000000000E+00  0.00000000000E+00  0.21002680053E+03  0.63892118165E+03  0.60341446736E+03 0.  0.
        4    1    3    3  502    0  0.16320113580E+03  0.24051274420E+03  0.19067275870E+03  0.34761861955E+03  0.12699999809E+01 0.  1.
       -4    1    3    3    0  502 -0.16320113580E+03 -0.24051274420E+03  0.19354041822E+02  0.29130256210E+03  0.12699999809E+01 0. -1.
</event>
<event>
 5   0  0.5872632E-02  0.5933631E+03  0.7818609E-02  0.9919272E-01
       -2   -1    0    0    0  501  0.00000000000E+00  0.00000000000E+00  0.27614253432E+03  0.27614253433E+03  0.25500000920E-02 0.  1.
        2   -1    0    0  501    0  0.00000000000E+00  0.00000000000E+00 -0.31874823707E+03  0.31874823708E+03  0.25500000920E-02 0. -1.
    10030    2    1    2    0    0  0.00000000000E+00  0.00000000000E+00 -0.42605702753E+02  0.59489077141E+03  0.59336311311E+03 0.  0.
        1    1    3    3  502    0 -0.21099199685E+03 -0.63165052723E+02 -0.22059213134E+03  0.31171835855E+03  0.50400001928E-02 0. -1.
       -1    1    3    3    0  502  0.21099199685E+03  0.63165052723E+02  0.17798642859E+03  0.28317241286E+03  0.50400001928E-02 0.  1.
</event>
<event>
 5   0  0.5755078E-02  0.5986930E+03  0.7818609E-02  0.9908121E-01
       -2   -1    0    0    0  501  0.00000000000E+00  0.00000000000E+00  0.53461178663E+03  0.53461178664E+03  0.25500000920E-02 0.  1.
        2   -1    0    0  501    0  0.00000000000E+00  0.00000000000E+00 -0.16761380020E+03  0.16761380022E+03  0.25500000920E-02 0. -1.
    10030    2    1    2    0    0  0.00000000000E+00  0.00000000000E+00  0.36699798643E+03  0.70222558686E+03  0.59869295369E+03 0.  0.
        2    1    3    3  502    0  0.95388418028E+02 -0.26255583225E+03  0.57313203712E+02  0.28516542334E+03  0.25500000920E-02 0. -1.
       -2    1    3    3    0  502 -0.95388418028E+02  0.26255583225E+03  0.30968478271E+03  0.41706016352E+03  0.25500000920E-02 0.  1.
</event>
<event>
 5   0  0.5872632E-02  0.6033650E+03  0.7818609E-02  0.9898449E-01
        2   -1    0    0  501    0  0.00000000000E+00  0.00000000000E+00  0.16047184416E+04  0.16047184416E+04  0.25500000920E-02 0.  1.
       -2   -1    0    0    0  501  0.00000000000E+00  0.00000000000E+00 -0.56715446957E+02  0.56715447014E+02  0.25500000920E-02 0. -1.
    10030    2    1    2    0    0  0.00000000000E+00  0.00000000000E+00  0.15480029947E+04  0.16614338887E+04  0.60336497647E+03 0.  0.
        1    1    3    3  502    0  0.25292875520E+03  0.11071017014E+03  0.11087963502E+04  0.11426543849E+04  0.50400001928E-02 0.  1.
       -1    1    3    3    0  502 -0.25292875520E+03 -0.11071017014E+03  0.43920664445E+03  0.51877950377E+03  0.50400001928E-02 0. -1.
</event>
<event>
 5   0  0.5935451E-02  0.6035283E+03  0.7818609E-02  0.9898113E-01
       -2   -1    0    0    0  501  0.00000000000E+00  0.00000000000E+00  0.14682928762E+03  0.14682928764E+03  0.25500000920E-02 0. -1.
        2   -1    0    0  501    0  0.00000000000E+00  0.00000000000E+00 -0.62018693103E+03  0.62018693103E+03  0.25500000920E-02 0.  1.
    10030    2    1    2    0    0  0.00000000000E+00  0.00000000000E+00 -0.47335764341E+03  0.76701621867E+03  0.60352831014E+03 0.  0.
        3    1    3    3  502    0 -0.26057023745E+03  0.81475782236E+02 -0.73299683775E+02  0.28268004100E+03  0.10100000352E+00 0. -1.
       -3    1    3    3    0  502  0.26057023745E+03 -0.81475782236E+02 -0.40005795964E+03  0.48433617768E+03  0.10100000352E+00 0.  1.
</event>
<event>
 5   0  0.2388000E-02  0.5939139E+03  0.7818609E-02  0.9918114E-01
       -4   -1    0    0    0  501  0.00000000000E+00  0.00000000000E+00  0.18484024913E+03  0.18484461204E+03  0.12699999809E+01 0. -1.
        4   -1    0    0  501    0  0.00000000000E+00  0.00000000000E+00 -0.47706827700E+03  0.47706996743E+03  0.12699999809E+01 0.  1.
    10030    2    1    2    0    0  0.00000000000E+00  0.00000000000E+00 -0.29222802787E+03  0.66191457947E+03  0.59391387443E+03 0.  0.
        1    1    3    3  502    0 -0.16739132315E+03 -0.22636383392E+03 -0.40837016892E+02  0.28447865007E+03  0.50400001928E-02 0. -1.
       -1    1    3    3    0  502  0.16739132315E+03  0.22636383392E+03 -0.25139101098E+03  0.37743592939E+03  0.50400001928E-02 0.  1.
</event>
<event>
 5   0  0.5872632E-02  0.5998459E+03  0.7818609E-02  0.9905726E-01
       -2   -1    0    0    0  501  0.00000000000E+00  0.00000000000E+00  0.18201053893E+03  0.18201053895E+03  0.25500000920E-02 0. -1.
        2   -1    0    0  501    0  0.00000000000E+00  0.00000000000E+00 -0.49422288671E+03  0.49422288672E+03  0.25500000920E-02 0.  1.
    10030    2    1    2    0    0  0.00000000000E+00  0.00000000000E+00 -0.31221234779E+03  0.67623342567E+03  0.59984589344E+03 0.  0.
        1    1    3    3  502    0 -0.12040821649E+03 -0.24419691987E+03 -0.29791661729E+03  0.40358962469E+03  0.50400001928E-02 0.  1.
       -1    1    3    3    0  502  0.12040821649E+03  0.24419691987E+03 -0.14295730493E+02  0.27264380097E+03  0.50400001928E-02 0. -1.
</event>
<event>
 5   0  0.6007360E-02  0.5908378E+03  0.7818609E-02  0.9924599E-01
        2   -1    0    0  501    0  0.00000000000E+00  0.00000000000E+00  0.27154637078E+03  0.27154637079E+03  0.25500000920E-02 0.  1.
       -2   -1    0    0    0  501  0.00000000000E+00  0.00000000000E+00 -0.32139018019E+03  0.32139018020E+03  0.25500000920E-02 0. -1.
    10030    2    1    2    0    0  0.00000000000E+00  0.00000000000E+00 -0.49843809406E+02  0.59293655099E+03  0.59083783576E+03 0.  0.
        4    1    3    3  502    0  0.19105447946E+03  0.61335331318E+02 -0.24250275545E+03  0.31475869533E+03  0.12699999809E+01 0. -1.
       -4    1    3    3    0  502 -0.19105447946E+03 -0.61335331318E+02  0.19265894604E+03  0.27817785566E+03  0.12699999809E+01 0.  1.
</event>
<event>
 5   0  0.3651984E-02  0.6119522E+03  0.7818609E-02  0.9880915E-01
        1   -1    0    0  501    0  0.00000000000E+00  0.00000000000E+00  0.34505609932E+03  0.34505609935E+03  0.50400001928E-02 0. -1.
       -1   -1    0    0    0  501  0.00000000000E+00  0.00000000000E+00 -0.27132221380E+03  0.27132221385E+03  0.50400001928E-02 0.  1.
    10030    2    1    2    0    0  0.00000000000E+00  0.00000000000E+00  0.73733885511E+02  0.61637831320E+03  0.61195223598E+03 0.  0.
        1    1    3    3  502    0 -0.20540415397E+03  0.15887756369E+03  0.19986582352E+03  0.32768779981E+03  0.50400001928E-02 0. -1.
       -1    1    3    3    0  502  0.20540415397E+03 -0.15887756369E+03 -0.12613193801E+03  0.28869051339E+03  0.50400001928E-02 0.  1.
</event>
<event>
 5   0  0.3767635E-02  0.6087945E+03  0.7818609E-02  0.9887326E-01
       -1   -1    0    0    0  501  0.00000000000E+00  0.00000000000E+00  0.37200930148E+03  0.37200930151E+03  0.50400001928E-02 0.  1.
        1   -1    0    0  501    0  0.00000000000E+00  0.00000000000E+00 -0.24907353477E+03  0.24907353483E+03  0.50400001928E-02 0. -1.
    10030    2    1    2    0    0  0.00000000000E+00  0.00000000000E+00  0.12293576670E+03  0.62108283634E+03  0.60879445370E+03 0.  0.
        2    1    3    3  502    0  0.13879098971E+03 -0.87306386867E+02  0.32310565787E+03  0.36232942216E+03  0.25500000920E-02 0.  1.
       -2    1    3    3    0  502 -0.13879098971E+03  0.87306386867E+02 -0.20016989117E+03  0.25875341417E+03  0.25500000920E-02 0. -1.
</event>
<event>
 5   0  0.3703280E-02  0.5964804E+03  0.7818609E-02  0.9912735E-01
       -1   -1    0    0    0  501  0.00000000000E+00  0.00000000000E+00  0.58416515499E+02  0.58416515717E+02  0.50400001928E-02 0.  1.
        1   -1    0    0  501    0  0.00000000000E+00  0.00000000000E+00 -0.15226381798E+04  0.15226381798E+04  0.50400001928E-02 0. -1.
    10030    2    1    2    0    0  0.00000000000E+00  0.00000000000E+00 -0.14642216643E+04  0.15810546955E+04  0.59648040038E+03 0.  0.
        5    1    3    3  502    0  0.24159305589E+03 -0.96969311533E+02 -0.11176388523E+04  0.11475665323E+04  0.46999998093E+01 0. -1.
       -5    1    3    3    0  502 -0.24159305589E+03  0.96969311533E+02 -0.34658281205E+03  0.43348816321E+03  0.46999998093E+01 0.  1.
</event>
<event>
 5   0  0.3703280E-02  0.5995751E+03  0.7818609E-02  0.9906288E-01
       -1   -1    0    0    0  501  0.00000000000E+00  0.00000000000E+00  0.12647571432E+03  0.12647571442E+03  0.50400001928E-02 0. -1.
        1   -1    0    0  501    0  0.00000000000E+00  0.00000000000E+00 -0.71059166279E+03  0.71059166281E+03  0.50400001928E-02 0.  1.
    10030    2    1    2    0    0  0.00000000000E+00  0.00000000000E+00 -0.58411594847E+03  0.83706737723E+03  0.59957514355E+03 0.  0.
        5    1    3    3  502    0  0.12083722906E+03  0.23592686892E+02 -0.67361069963E+03  0.68478589022E+03  0.46999998093E+01 0.  1.
       -5    1    3    3    0  502 -0.12083722906E+03 -0.23592686892E+02  0.89494751153E+02  0.15228148700E+03  0.46999998093E+01 0. -1.
</event>
<event>
 5   0  0.3651984E-02  0.5983127E+03  0.7818609E-02  0.9908913E-01
       -1   -1    0    0    0  501  0.00000000000E+00  0.00000000000E+00  0.62911602760E+02  0.62911602962E+02  0.50400001928E-02 0. -1.
        1   -1    0    0  501    0  0.00000000000E+00  0.00000000000E+00 -0.14225440583E+04  0.14225440583E+04  0.50400001928E-02 0.  1.
    10030    2    1    2    0    0  0.00000000000E+00  0.00000000000E+00 -0.13596324555E+04  0.14854556613E+04  0.59831271710E+03 0.  0.
        1    1    3    3  502    0  0.12366636113E+03 -0.17343084527E+03 -0.12013272398E+04  0.12200650655E+04  0.50400001928E-02 0.  1.
       -1    1    3    3    0  502 -0.12366636113E+03  0.17343084527E+03 -0.15830521576E+03  0.26539059578E+03  0.50400001928E-02 0. -1.
</event>
<event>
 5   0  0.6007360E-02  0.6004974E+03  0.7818609E-02  0.9904375E-01
       -2   -1    0    0    0  501  0.00000000000E+00  0.00000000000E+00  0.27250321265E+03  0.27250321266E+03  0.25500000920E-02 0.  1.
        2   -1    0    0  501    0  0.00000000000E+00  0.00000000000E+00 -0.33081913490E+03  0.33081913491E+03  0.25500000920E-02 0. -1.
    10030    2    1    2    0    0  0.00000000000E+00  0.00000000000E+00 -0.58315922247E+02  0.60332234757E+03  0.60049738408E+03 0.  0.
        4    1    3    3  502    0  0.24508873917E+02 -0.24945508331E+03 -0.19522055211E+03  0.31771244916E+03  0.12699999809E+01 0. -1.
       -4    1    3    3    0  502 -0.24508873917E+02  0.24945508331E+03  0.13690462986E+03  0.28560989840E+03  0.12699999809E+01 0.  1.
</event>
<event>
 5   0  0.3651984E-02  0.6187168E+03  0.7818609E-02  0.9867318E-01
       -1   -1    0    0    0  501  0.00000000000E+00  0.00000000000E+00  0.18176467065E+03  0.18176467072E+03  0.50400001928E-02 0.  1.
        1   -1    0    0  501    0  0.00000000000E+00  0.00000000000E+00 -0.52651944909E+03  0.52651944911E+03  0.50400001928E-02 0. -1.
    10030    2    1    2    0    0  0.00000000000E+00  0.00000000000E+00 -0.34475477843E+03  0.70828411983E+03  0.61871684732E+03 0.  0.
        1    1    3    3  502    0 -0.16748924578E+03  0.42233896482E+02 -0.46617424714E+03  0.49714663650E+03  0.50400001928E-02 0. -1.
       -1    1    3    3    0  502  0.16748924578E+03 -0.42233896482E+02  0.12141946870E+03  0.21113748333E+03  0.50400001928E-02 0.  1.
</event>
<event>
 5   0  0.5999117E-02  0.6020605E+03  0.7818609E-02  0.9901140E-01
        2   -1    0    0  501    0  0.00000000000E+00  0.00000000000E+00  0.70642687025E+03  0.70642687025E+03  0.25500000920E-02 0.  1.
       -2   -1    0    0    0  501  0.00000000000E+00  0.00000000000E+00 -0.12827826106E+03  0.12827826109E+03  0.25500000920E-02 0. -1.
    10030    2    1    2    0    0  0.00000000000E+00  0.00000000000E+00  0.57814860919E+03  0.83470513134E+03  0.60206049694E+03 0.  0.
        5    1    3    3  502    0  0.19839317526E+03  0.19567575437E+03  0.44683499011E+03  0.52662363337E+03  0.46999998093E+01 0.  1.
       -5    1    3    3    0  502 -0.19839317526E+03 -0.19567575437E+03  0.13131361908E+03  0.30808149797E+03  0.46999998093E+01 0. -1.
</event>
<event>
 5   0  0.5999117E-02  0.5858400E+03  0.7818609E-02  0.9935227E-01
       -2   -1    0    0    0  501  0.00000000000E+00  0.00000000000E+00  0.10927169867E+03  0.10927169870E+03  0.25500000920E-02 0. -1.
        2   -1    0    0  501    0  0.00000000000E+00  0.00000000000E+00 -0.78521822242E+03  0.78521822243E+03  0.25500000920E-02 0.  1.
    10030    2    1    2    0    0  0.00000000000E+00  0.00000000000E+00 -0.67594652376E+03  0.89448992112E+03  0.58584000888E+03 0.  0.
        5    1    3    3  502    0 -0.69118582306E+02  0.21310269741E+03 -0.62601791190E+03  0.66491402007E+03  0.46999998093E+01 0.  1.
       -5    1    3    3    0  502  0.69118582306E+02 -0.21310269741E+03 -0.49928611854E+02  0.22957590105E+03  0.46999998093E+01 0. -1.
</event>
<event>
 5   0  0.5999117E-02  0.5567287E+03  0.7818609E-02  0.9999484E-01
       -2   -1    0    0    0  501  0.00000000000E+00  0.00000000000E+00  0.36433455954E+03  0.36433455955E+03  0.25500000920E-02 0.  1.
        2   -1    0    0  501    0  0.00000000000E+00  0.00000000000E+00 -0.21268013777E+03  0.21268013779E+03  0.25500000920E-02 0. -1.
    10030    2    1    2    0    0  0.00000000000E+00  0.00000000000E+00  0.15165442177E+03  0.57701469734E+03  0.55672874661E+03 0.  0.
        5    1    3    3  502    0  0.89252243113E+02  0.19658328378E+03  0.25787975068E+03  0.33635547590E+03  0.46999998093E+01 0.  1.
       -5    1    3    3    0  502 -0.89252243113E+02 -0.19658328378E+03 -0.10622532891E+03  0.24065922143E+03  0.46999998093E+01 0. -1.
</event>
<event>
 5   0  0.2388000E-02  0.5962563E+03  0.7818609E-02  0.9913204E-01
        3   -1    0    0  501    0  0.00000000000E+00  0.00000000000E+00  0.33139277953E+03  0.33139279492E+03  0.10100000352E+00 0. -1.
       -3   -1    0    0    0  501  0.00000000000E+00  0.00000000000E+00 -0.26820250030E+03  0.26820251932E+03  0.10100000352E+00 0.  1.
    10030    2    1    2    0    0  0.00000000000E+00  0.00000000000E+00  0.63190279233E+02  0.59959531424E+03  0.59625626157E+03 0.  0.
        5    1    3    3  502    0  0.17122336865E+03 -0.37821595111E+02 -0.21081574990E+03  0.27425040644E+03  0.46999998093E+01 0. -1.
       -5    1    3    3    0  502 -0.17122336865E+03  0.37821595111E+02  0.27400602914E+03  0.32534490780E+03  0.46999998093E+01 0.  1.
</event>
<event>
 5   0  0.5755078E-02  0.5987659E+03  0.7818609E-02  0.9907970E-01
        2   -1    0    0  501    0  0.00000000000E+00  0.00000000000E+00  0.50846254361E+03  0.50846254361E+03  0.25500000920E-02 0.  1.
       -2   -1    0    0    0  501  0.00000000000E+00  0.00000000000E+00 -0.17627677633E+03  0.17627677635E+03  0.25500000920E-02 0. -1.
    10030    2    1    2    0    0  0.00000000000E+00  0.00000000000E+00  0.33218576728E+03  0.68473931996E+03  0.59876585768E+03 0.  0.
        2    1    3    3  502    0  0.24622642127E+03 -0.84628903629E+02  0.33509840041E+03  0.42435885737E+03  0.25500000920E-02 0.  1.
       -2    1    3    3    0  502 -0.24622642127E+03  0.84628903629E+02 -0.29126331378E+01  0.26038046259E+03  0.25500000920E-02 0. -1.
</event>
<event>
 5   0  0.3478183E-02  0.5984188E+03  0.7818609E-02  0.9908692E-01
       -1   -1    0    0    0  501  0.00000000000E+00  0.00000000000E+00  0.18129751992E+03  0.18129751999E+03  0.50400001928E-02 0. -1.
        1   -1    0    0  501    0  0.00000000000E+00  0.00000000000E+00 -0.49380862519E+03  0.49380862521E+03  0.50400001928E-02 0.  1.
    10030    2    1    2    0    0  0.00000000000E+00  0.00000000000E+00 -0.31251110527E+03  0.67510614520E+03  0.59841884694E+03 0.  0.
        4    1    3    3  502    0 -0.47909424379E+01 -0.13001577082E+03 -0.46022362341E+03  0.47826190549E+03  0.12699999809E+01 0.  1.
       -4    1    3    3    0  502  0.47909424379E+01  0.13001577082E+03  0.14771251814E+03  0.19684423971E+03  0.12699999809E+01 0. -1.
</event>
<event>
 5   0  0.5872632E-02  0.6111478E+03  0.7818609E-02  0.9882544E-01
       -2   -1    0    0    0  501  0.00000000000E+00  0.00000000000E+00  0.47627230765E+02  0.47627230833E+02  0.25500000920E-02 0.  1.
        2   -1    0    0  501    0  0.00000000000E+00  0.00000000000E+00 -0.19605465492E+04  0.19605465492E+04  0.25500000920E-02 0. -1.
    10030    2    1    2    0    0  0.00000000000E+00  0.00000000000E+00 -0.19129193185E+04  0.20081737801E+04  0.61114778244E+03 0.  0.
        1    1    3    3  502    0  0.25652076454E+03 -0.16546834226E+03 -0.91084257666E+03  0.96063357968E+03  0.50400001928E-02 0. -1.
       -1    1    3    3    0  502 -0.25652076454E+03  0.16546834226E+03 -0.10020767418E+04  0.10475402004E+04  0.50400001928E-02 0.  1.
</event>
<event>
 5   0  0.5999117E-02  0.5979184E+03  0.7818609E-02  0.9909734E-01
        2   -1    0    0  501    0  0.00000000000E+00  0.00000000000E+00  0.62251969013E+03  0.62251969014E+03  0.25500000920E-02 0.  1.
       -2   -1    0    0    0  501  0.00000000000E+00  0.00000000000E+00 -0.14357235133E+03  0.14357235135E+03  0.25500000920E-02 0. -1.
    10030    2    1    2    0    0  0.00000000000E+00  0.00000000000E+00  0.47894733881E+03  0.76609204149E+03  0.59791844150E+03 0.  0.
        5    1    3    3  502    0 -0.10508416478E+03  0.12139013785E+03  0.56253617212E+03  0.58501904431E+03  0.46999998093E+01 0.  1.
       -5    1    3    3    0  502  0.10508416478E+03 -0.12139013785E+03 -0.83588833314E+02  0.18107299718E+03  0.46999998093E+01 0. -1.
</event>
<event>
 5   0  0.6007360E-02  0.5989106E+03  0.7818609E-02  0.9907669E-01
        2   -1    0    0  501    0  0.00000000000E+00  0.00000000000E+00  0.90967140393E+03  0.90967140393E+03  0.25500000920E-02 0.  1.
       -2   -1    0    0    0  501  0.00000000000E+00  0.00000000000E+00 -0.98577880476E+02  0.98577880509E+02  0.25500000920E-02 0. -1.
    10030    2    1    2    0    0  0.00000000000E+00  0.00000000000E+00  0.81109352345E+03  0.10082492844E+04  0.59891060751E+03 0.  0.
        4    1    3    3  502    0 -0.17834916313E+03  0.21927739932E+03  0.57203920707E+03  0.63806070962E+03  0.12699999809E+01 0. -1.
       -4    1    3    3    0  502  0.17834916313E+03 -0.21927739932E+03  0.23905431639E+03  0.37018857482E+03  0.12699999809E+01 0.  1.
</event>
<event>
 5   0  0.5935451E-02  0.5882605E+03  0.7818609E-02  0.9930066E-01
        2   -1    0    0  501    0  0.00000000000E+00  0.00000000000E+00  0.29079028088E+03  0.29079028089E+03  0.25500000920E-02 0. -1.
       -2   -1    0    0    0  501  0.00000000000E+00  0.00000000000E+00 -0.29750860200E+03  0.29750860201E+03  0.25500000920E-02 0.  1.
    10030    2    1    2    0    0  0.00000000000E+00  0.00000000000E+00 -0.67183211176E+01  0.58829888290E+03  0.58826052033E+03 0.  0.
        3    1    3    3  502    0  0.26140823763E+03 -0.52575890048E+02 -0.12752082658E+03  0.29556735667E+03  0.10100000352E+00 0.  1.
       -3    1    3    3    0  502 -0.26140823763E+03  0.52575890048E+02  0.12080250547E+03  0.29273152622E+03  0.10100000352E+00 0. -1.
</event>
<event>
 5   0  0.5999117E-02  0.6551122E+03  0.7818609E-02  0.9797234E-01
        2   -1    0    0  501    0  0.00000000000E+00  0.00000000000E+00  0.70498018129E+03  0.70498018130E+03  0.25500000920E-02 0. -1.
       -2   -1    0    0    0  501  0.00000000000E+00  0.00000000000E+00 -0.15219290641E+03  0.15219290644E+03  0.25500000920E-02 0.  1.
    10030    2    1    2    0    0  0.00000000000E+00  0.00000000000E+00  0.55278727488E+03  0.85717308773E+03  0.65511215152E+03 0.  0.
        5    1    3    3  502    0 -0.19935396693E+02 -0.28345039573E+03  0.63277594791E+02  0.29114891530E+03  0.46999998093E+01 0. -1.
       -5    1    3    3    0  502  0.19935396693E+02  0.28345039573E+03  0.48950968009E+03  0.56602417243E+03  0.46999998093E+01 0.  1.
</event>
<event>
 5   0  0.3478183E-02  0.6006148E+03  0.7818609E-02  0.9904131E-01
       -1   -1    0    0    0  501  0.00000000000E+00  0.00000000000E+00  0.10344771204E+03  0.10344771216E+03  0.50400001928E-02 0. -1.
        1   -1    0    0  501    0  0.00000000000E+00  0.00000000000E+00 -0.87178849557E+03  0.87178849558E+03  0.50400001928E-02 0.  1.
    10030    2    1    2    0    0  0.00000000000E+00  0.00000000000E+00 -0.76834078353E+03  0.97523620774E+03  0.60061476942E+03 0.  0.
        4    1    3    3  502    0  0.71364679001E+01 -0.52889325818E+02 -0.86402230638E+03  0.86566989597E+03  0.12699999809E+01 0.  1.
       -4    1    3    3    0  502 -0.71364679001E+01  0.52889325818E+02  0.95681522852E+02  0.10956631177E+03  0.12699999809E+01 0. -1.
</event>
<event>
 5   0  0.3640827E-02  0.5957577E+03  0.7818609E-02  0.9914247E-01
        1   -1    0    0  501    0  0.00000000000E+00  0.00000000000E+00  0.41967922531E+03  0.41967922534E+03  0.50400001928E-02 0.  1.
       -1   -1    0    0    0  501  0.00000000000E+00  0.00000000000E+00 -0.21142769261E+03  0.21142769267E+03  0.50400001928E-02 0. -1.
    10030    2    1    2    0    0  0.00000000000E+00  0.00000000000E+00  0.20825153270E+03  0.63110691801E+03  0.59575770333E+03 0.  0.
        3    1    3    3  502    0  0.16473603882E+03  0.22999445402E+03  0.20291343714E+03  0.34815123803E+03  0.10100000352E+00 0.  1.
       -3    1    3    3    0  502 -0.16473603882E+03 -0.22999445402E+03  0.53380955591E+01  0.28295567998E+03  0.10100000352E+00 0. -1.
</event>
<event>
 5   0  0.3703280E-02  0.6100180E+03  0.7818609E-02  0.9884837E-01
        1   -1    0    0  501    0  0.00000000000E+00  0.00000000000E+00  0.40701487470E+03  0.40701487473E+03  0.50400001928E-02 0. -1.
       -1   -1    0    0    0  501  0.00000000000E+00  0.00000000000E+00 -0.22856778990E+03  0.22856778995E+03  0.50400001928E-02 0.  1.
    10030    2    1    2    0    0  0.00000000000E+00  0.00000000000E+00  0.17844708481E+03  0.63558266469E+03  0.61001800102E+03 0.  0.
        5    1    3    3  502    0  0.16699680405E+03  0.80236740553E+02  0.34162032797E+03  0.38865460962E+03  0.46999998093E+01 0. -1.
       -5    1    3    3    0  502 -0.16699680405E+03 -0.80236740553E+02 -0.16317324316E+03  0.24692805507E+03  0.46999998093E+01 0.  1.
</event>
<event>
 5   0  0.5872632E-02  0.6029295E+03  0.7818609E-02  0.9899347E-01
        2   -1    0    0  501    0  0.00000000000E+00  0.00000000000E+00  0.54608573162E+03  0.54608573162E+03  0.25500000920E-02 0. -1.
       -2   -1    0    0    0  501  0.00000000000E+00  0.00000000000E+00 -0.16642256517E+03  0.16642256519E+03  0.25500000920E-02 0.  1.
    10030    2    1    2    0    0  0.00000000000E+00  0.00000000000E+00  0.37966316644E+03  0.71250829682E+03  0.60292947604E+03 0.  0.
        1    1    3    3  502    0  0.16793549679E+03  0.20417443442E+03  0.18615441357E+02  0.26502087736E+03  0.50400001928E-02 0.  1.
       -1    1    3    3    0  502 -0.16793549679E+03 -0.20417443442E+03  0.36104772509E+03  0.44748741946E+03  0.50400001928E-02 0. -1.
</event>
<event>
 5   0  0.5999117E-02  0.5966676E+03  0.7818609E-02  0.9912344E-01
       -2   -1    0    0    0  501  0.00000000000E+00  0.00000000000E+00  0.50206884422E+02  0.50206884486E+02  0.25500000920E-02 0.  1.
        2   -1    0    0  501    0  0.00000000000E+00  0.00000000000E+00 -0.17727262593E+04  0.17727262593E+04  0.25500000920E-02 0. -1.
    10030    2    1    2    0    0  0.00000000000E+00  0.00000000000E+00 -0.17225193749E+04  0.18229331438E+04  0.59666762095E+03 0.  0.
        5    1    3    3  502    0 -0.29605482647E+03  0.33266879667E+02 -0.81534769705E+03  0.86808358045E+03  0.46999998093E+01 0.  1.
       -5    1    3    3    0  502  0.29605482647E+03 -0.33266879667E+02 -0.90717167781E+03  0.95484956332E+03  0.46999998093E+01 0. -1.
</event>
<event>
 5   0  0.3703280E-02  0.6011371E+03  0.7818609E-02  0.9903050E-01
       -1   -1    0    0    0  501  0.00000000000E+00  0.00000000000E+00  0.54204335809E+03  0.54204335812E+03  0.50400001928E-02 0.  1.
        1   -1    0    0  501    0  0.00000000000E+00  0.00000000000E+00 -0.16666829423E+03  0.16666829431E+03  0.50400001928E-02 0. -1.
    10030    2    1    2    0    0  0.00000000000E+00  0.00000000000E+00  0.37537506386E+03  0.70871165243E+03  0.60113706234E+03 0.  0.
        5    1    3    3  502    0 -0.57971531530E+02 -0.20146429831E+03  0.44156158468E+03  0.48882234505E+03  0.46999998093E+01 0.  1.
       -5    1    3    3    0  502  0.57971531530E+02  0.20146429831E+03 -0.66186520817E+02  0.21988930737E+03  0.46999998093E+01 0. -1.
</event>
<event>
 5   0  0.3651984E-02  0.6008438E+03  0.7818609E-02  0.9903657E-01
        1   -1    0    0  501    0  0.00000000000E+00  0.00000000000E+00  0.45747145119E+03  0.45747145121E+03  0.50400001928E-02 0.  1.
       -1   -1    0    0    0  501  0.00000000000E+00  0.00000000000E+00 -0.19728733758E+03  0.19728733764E+03  0.50400001928E-02 0. -1.
    10030    2    1    2    0    0  0.00000000000E+00  0.00000000000E+00  0.26018411361E+03  0.65475878885E+03  0.60084382214E+03 0.  0.
        1    1    3    3  502    0  0.25285598969E+03 -0.26386186809E+02 -0.44336378638E+02  0.25806607075E+03  0.50400001928E-02 0. -1.
       -1    1    3    3    0  502 -0.25285598969E+03  0.26386186809E+02  0.30452049225E+03  0.39669271811E+03  0.50400001928E-02 0.  1.
</event>
<event>
 5   0  0.5755078E-02  0.6051866E+03  0.7818609E-02  0.9894703E-01
       -2   -1    0    0    0  501  0.00000000000E+00  0.00000000000E+00  0.57733673618E+03  0.57733673619E+03  0.25500000920E-02 0.  1.
        2   -1    0    0  501    0  0.00000000000E+00  0.00000000000E+00 -0.15859499095E+03  0.15859499097E+03  0.25500000920E-02 0. -1.
    10030    2    1    2    0    0  0.00000000000E+00  0.00000000000E+00  0.41874174523E+03  0.73593172716E+03  0.60518663059E+03 0.  0.
        2    1    3    3  502    0  0.12808683298E+03 -0.14023964738E+03  0.49582355836E+03  0.53095611543E+03  0.25500000920E-02 0.  1.
       -2    1    3    3    0  502 -0.12808683298E+03  0.14023964738E+03 -0.77081813132E+02  0.20497561173E+03  0.25500000920E-02 0. -1.
</event>
<event>
 5   0  0.3478183E-02  0.6014651E+03  0.7818609E-02  0.9902371E-01
        1   -1    0    0  501    0  0.00000000000E+00  0.00000000000E+00  0.37714320193E+03  0.37714320197E+03  0.50400001928E-02 0. -1.
       -1   -1    0    0    0  501  0.00000000000E+00  0.00000000000E+00 -0.23980298254E+03  0.23980298259E+03  0.50400001928E-02 0.  1.
    10030    2    1    2    0    0  0.00000000000E+00  0.00000000000E+00  0.13734021939E+03  0.61694618456E+03  0.60146509357E+03 0.  0.
        4    1    3    3  502    0  0.68038622176E+02 -0.15901842164E+03 -0.18367489249E+03  0.25229782314E+03  0.12699999809E+01 0.  1.
       -4    1    3    3    0  502 -0.68038622176E+02  0.15901842164E+03  0.32101511188E+03  0.36464836142E+03  0.12699999809E+01 0. -1.
</event>
<event>
 5   0  0.6007360E-02  0.6699967E+03  0.7818609E-02  0.9769964E-01
        2   -1    0    0  501    0  0.00000000000E+00  0.00000000000E+00  0.19052689075E+04  0.19052689075E+04  0.25500000920E-02 0. -1.
       -2   -1    0    0    0  501  0.00000000000E+00  0.00000000000E+00 -0.58901862629E+02  0.58901862684E+02  0.25500000920E-02 0.  1.
    10030    2    1    2    0    0  0.00000000000E+00  0.00000000000E+00  0.18463670449E+04  0.19641707702E+04  0.66999667915E+03 0.  0.
        4    1    3    3  502    0 -0.26483676895E+03 -0.87363914410E+02  0.37904503595E+03  0.47058232002E+03  0.12699999809E+01 0.  1.
       -4    1    3    3    0  502  0.26483676895E+03  0.87363914410E+02  0.14673220089E+04  0.14935884502E+04  0.12699999809E+01 0. -1.
</event>
<event>
 5   0  0.5872632E-02  0.5963328E+03  0.7818609E-02  0.9913044E-01
        2   -1    0    0  501    0  0.00000000000E+00  0.00000000000E+00  0.32858127541E+03  0.32858127542E+03  0.25500000920E-02 0. -1.
       -2   -1    0    0    0  501  0.00000000000E+00  0.00000000000E+00 -0.27056688955E+03  0.27056688956E+03  0.25500000920E-02 0.  1.
    10030    2    1    2    0    0  0.00000000000E+00  0.00000000000E+00  0.58014385860E+02  0.59914816498E+03  0.59633283880E+03 0.  0.
        1    1    3    3  502    0 -0.20110999241E+03  0.13075039158E+03  0.20693736410E+03  0.31680272510E+03  0.50400001928E-02 0.  1.
       -1    1    3    3    0  502  0.20110999241E+03 -0.13075039158E+03 -0.14892297824E+03  0.28234543988E+03  0.50400001928E-02 0. -1.
</event>
<event>
 5   0  0.2388000E-02  0.5962142E+03  0.7818609E-02  0.9913292E-01
        4   -1    0    0  501    0  0.00000000000E+00  0.00000000000E+00  0.34938718511E+03  0.34938949329E+03  0.12699999809E+01 0. -1.
       -4   -1    0    0    0  501  0.00000000000E+00  0.00000000000E+00 -0.25434875112E+03  0.25435192174E+03  0.12699999809E+01 0.  1.
    10030    2    1    2    0    0  0.00000000000E+00  0.00000000000E+00  0.95038433994E+02  0.60374141503E+03  0.59621421677E+03 0.  0.
        2    1    3    3  502    0  0.12346095583E+03 -0.21468794931E+03 -0.12051040749E+03  0.27542019082E+03  0.25500000920E-02 0.  1.
       -2    1    3    3    0  502 -0.12346095583E+03  0.21468794931E+03  0.21554884148E+03  0.32832122421E+03  0.25500000920E-02 0. -1.
</event>
<event>
 5   0  0.3651984E-02  0.5969889E+03  0.7818609E-02  0.9911673E-01
       -1   -1    0    0    0  501  0.00000000000E+00  0.00000000000E+00  0.61525834642E+02  0.61525834849E+02  0.50400001928E-02 0.  1.
        1   -1    0    0  501    0  0.00000000000E+00  0.00000000000E+00 -0.14481550495E+04  0.14481550495E+04  0.50400001928E-02 0. -1.
    10030    2    1    2    0    0  0.00000000000E+00  0.00000000000E+00 -0.13866292148E+04  0.15096808843E+04  0.59698893883E+03 0.  0.
        1    1    3    3  502    0  0.42508759213E+02 -0.85449842902E+02  0.21901809455E+02  0.97920169243E+02  0.50400001928E-02 0.  1.
       -1    1    3    3    0  502 -0.42508759213E+02  0.85449842902E+02 -0.14085310243E+04  0.14117607151E+04  0.50400001928E-02 0. -1.
</event>
<event>
 5   0  0.3703280E-02  0.6039624E+03  0.7818609E-02  0.9897219E-01
        1   -1    0    0  501    0  0.00000000000E+00  0.00000000000E+00  0.12105889680E+04  0.12105889680E+04  0.50400001928E-02 0.  1.
       -1   -1    0    0    0  501  0.00000000000E+00  0.00000000000E+00 -0.75329167713E+02  0.75329167882E+02  0.50400001928E-02 0. -1.
    10030    2    1    2    0    0  0.00000000000E+00  0.00000000000E+00  0.11352598003E+04  0.12859181359E+04  0.60396244756E+03 0.  0.
        5    1    3    3  502    0  0.21319522862E+03  0.20162047010E+03  0.41606368410E+03  0.50915036944E+03  0.46999998093E+01 0. -1.
       -5    1    3    3    0  502 -0.21319522862E+03 -0.20162047010E+03  0.71919611616E+03  0.77676776643E+03  0.46999998093E+01 0.  1.
</event>
<event>
 5   0  0.6007360E-02  0.5980558E+03  0.7818609E-02  0.9909448E-01
       -2   -1    0    0    0  501  0.00000000000E+00  0.00000000000E+00  0.11950094294E+03  0.11950094296E+03  0.25500000920E-02 0.  1.
        2   -1    0    0  501    0  0.00000000000E+00  0.00000000000E+00 -0.74825932263E+03  0.74825932263E+03  0.25500000920E-02 0. -1.
    10030    2    1    2    0    0  0.00000000000E+00  0.00000000000E+00 -0.62875837969E+03  0.86776026560E+03  0.59805583227E+03 0.  0.
        4    1    3    3  502    0 -0.18828622366E+03 -0.20461993676E+03 -0.47395316539E+03  0.54950362730E+03  0.12699999809E+01 0. -1.
       -4    1    3    3    0  502  0.18828622366E+03  0.20461993676E+03 -0.15480521430E+03  0.31825663829E+03  0.12699999809E+01 0.  1.
</event>
<event>
 5   0  0.2388000E-02  0.5943573E+03  0.7818609E-02  0.9917183E-01
       -3   -1    0    0    0  501  0.00000000000E+00  0.00000000000E+00  0.10168338657E+03  0.10168343673E+03  0.10100000352E+00 0.  1.
        3   -1    0    0  501    0  0.00000000000E+00  0.00000000000E+00 -0.86853039365E+03  0.86853039952E+03  0.10100000352E+00 0. -1.
    10030    2    1    2    0    0  0.00000000000E+00  0.00000000000E+00 -0.76684700708E+03  0.97021383625E+03  0.59435726276E+03 0.  0.
        1    1    3    3  502    0  0.25040811280E+03  0.15378691111E+03 -0.31114593603E+03  0.42797947441E+03  0.50400001928E-02 0. -1.
       -1    1    3    3    0  502 -0.25040811280E+03 -0.15378691111E+03 -0.45570107105E+03  0.54223436184E+03  0.50400001928E-02 0.  1.
</event>
<event>
 5   0  0.3478183E-02  0.5979355E+03  0.7818609E-02  0.9909699E-01
        1   -1    0    0  501    0  0.00000000000E+00  0.00000000000E+00  0.26732096948E+03  0.26732096953E+03  0.50400001928E-02 0.  1.
       -1   -1    0    0    0  501  0.00000000000E+00  0.00000000000E+00 -0.33436097910E+03  0.33436097914E+03  0.50400001928E-02 0. -1.
    10030    2    1    2    0    0  0.00000000000E+00  0.00000000000E+00 -0.67040009619E+02  0.60168194867E+03  0.59793545175E+03 0.  0.
        4    1    3    3  502    0  0.29863135133E+03 -0.37020624493E+01 -0.19807480717E+02  0.29931311107E+03  0.12699999809E+01 0.  1.
       -4    1    3    3    0  502 -0.29863135133E+03  0.37020624493E+01 -0.47232528902E+02  0.30236883760E+03  0.12699999809E+01 0. -1.
</event>
<event>
 5   0  0.6007360E-02  0.5822645E+03  0.7818609E-02  0.9942900E-01
       -2   -1    0    0    0  501  0.00000000000E+00  0.00000000000E+00  0.45383451135E+03  0.45383451136E+03  0.25500000920E-02 0.  1.
        2   -1    0    0  501    0  0.00000000000E+00  0.00000000000E+00 -0.18675967600E+03  0.18675967602E+03  0.25500000920E-02 0. -1.
    10030    2    1    2    0    0  0.00000000000E+00  0.00000000000E+00  0.26707483535E+03  0.64059418737E+03  0.58226449765E+03 0.  0.
        4    1    3    3  502    0  0.22023097149E+03  0.84352899828E+01 -0.75737991928E+02  0.23304654308E+03  0.12699999809E+01 0. -1.
       -4    1    3    3    0  502 -0.22023097149E+03 -0.84352899828E+01  0.34281282728E+03  0.40754764429E+03  0.12699999809E+01 0.  1.
</event>
<event>
 5   0  0.2388000E-02  0.6013665E+03  0.7818609E-02  0.9902575E-01
        4   -1    0    0  501    0  0.00000000000E+00  0.00000000000E+00  0.51283869511E+03  0.51284026763E+03  0.12699999809E+01 0.  1.
       -4   -1    0    0    0  501  0.00000000000E+00  0.00000000000E+00 -0.17628990520E+03  0.17629447971E+03  0.12699999809E+01 0. -1.
    10030    2    1    2    0    0  0.00000000000E+00  0.00000000000E+00  0.33654878991E+03  0.68913474735E+03  0.60136645401E+03 0.  0.
        1    1    3    3  502    0 -0.33122722445E+02 -0.13965240475E+03  0.47105308519E+03  0.49243366862E+03  0.50400001928E-02 0.  1.
       -1    1    3    3    0  502  0.33122722445E+02  0.13965240475E+03 -0.13450429528E+03  0.19670107872E+03  0.50400001928E-02 0. -1.
</event>
<event>
 5   0  0.5872632E-02  0.5977026E+03  0.7818609E-02  0.9910184E-01
        2   -1    0    0  501    0  0.00000000000E+00  0.00000000000E+00  0.10601810871E+03  0.10601810874E+03  0.25500000920E-02 0.  1.
       -2   -1    0    0    0  501  0.00000000000E+00  0.00000000000E+00 -0.84242304273E+03  0.84242304273E+03  0.25500000920E-02 0. -1.
    10030    2    1    2    0    0  0.00000000000E+00  0.00000000000E+00 -0.73640493401E+03  0.94844115148E+03  0.59770259408E+03 0.  0.
        1    1    3    3  502    0 -0.16141616337E+02  0.16735833458E+02 -0.84098554572E+03  0.84130691666E+03  0.50400001928E-02 0. -1.
       -1    1    3    3    0  502  0.16141616337E+02 -0.16735833458E+02  0.10458061170E+03  0.10713423481E+03  0.50400001928E-02 0.  1.
</event>
<event>
 5   0  0.3651984E-02  0.5986910E+03  0.7818609E-02  0.9908126E-01
       -1   -1    0    0    0  501  0.00000000000E+00  0.00000000000E+00  0.13710514409E+03  0.13710514418E+03  0.50400001928E-02 0.  1.
        1   -1    0    0  501    0  0.00000000000E+00  0.00000000000E+00 -0.65356940365E+03  0.65356940367E+03  0.50400001928E-02 0. -1.
    10030    2    1    2    0    0  0.00000000000E+00  0.00000000000E+00 -0.51646425956E+03  0.79067454786E+03  0.59869099644E+03 0.  0.
        1    1    3    3  502    0  0.22804590458E+02 -0.51076327102E+01  0.13589856066E+03  0.13789327784E+03  0.50400001928E-02 0.  1.
       -1    1    3    3    0  502 -0.22804590458E+02  0.51076327102E+01 -0.65236282022E+03  0.65278127002E+03  0.50400001928E-02 0. -1.
</event>
<event>
 5   0  0.3478183E-02  0.6008821E+03  0.7818609E-02  0.9903578E-01
        1   -1    0    0  501    0  0.00000000000E+00  0.00000000000E+00  0.51877914552E+03  0.51877914555E+03  0.50400001928E-02 0. -1.
       -1   -1    0    0    0  501  0.00000000000E+00  0.00000000000E+00 -0.17399468518E+03  0.17399468525E+03  0.50400001928E-02 0.  1.
    10030    2    1    2    0    0  0.00000000000E+00  0.00000000000E+00  0.34478446034E+03  0.69277383080E+03  0.60088206543E+03 0.  0.
        4    1    3    3  502    0  0.20962727468E+03  0.12457817047E+03  0.37472992111E+03  0.44708773358E+03  0.12699999809E+01 0. -1.
       -4    1    3    3    0  502 -0.20962727468E+03 -0.12457817047E+03 -0.29945460765E+02  0.24568609722E+03  0.12699999809E+01 0.  1.
</event>
<event>
 5   0  0.3640827E-02  0.5921869E+03  0.7818609E-02  0.9921750E-01
       -1   -1    0    0    0  501  0.00000000000E+00  0.00000000000E+00  0.50170895187E+03  0.50170895189E+03  0.50400001928E-02 0. -1.
        1   -1    0    0  501    0  0.00000000000E+00  0.00000000000E+00 -0.17474538013E+03  0.17474538020E+03  0.50400001928E-02 0.  1.
    10030    2    1    2    0    0  0.00000000000E+00  0.00000000000E+00  0.32696357174E+03  0.67645433209E+03  0.59218686761E+03 0.  0.
        3    1    3    3  502    0  0.64211036916E+02 -0.76050409178E+02 -0.15506311074E+03  0.18425878679E+03  0.10100000352E+00 0.  1.
       -3    1    3    3    0  502 -0.64211036916E+02  0.76050409178E+02  0.48202668247E+03  0.49219554530E+03  0.10100000352E+00 0. -1.
</event>
<event>
 5   0  0.5935451E-02  0.6029441E+03  0.7818609E-02  0.9899317E-01
        2   -1    0    0  501    0  0.00000000000E+00  0.00000000000E+00  0.40501377140E+03  0.40501377141E+03  0.25500000920E-02 0.  1.
       -2   -1    0    0    0  501  0.00000000000E+00  0.00000000000E+00 -0.22440072690E+03  0.22440072691E+03  0.25500000920E-02 0. -1.
    10030    2    1    2    0    0  0.00000000000E+00  0.00000000000E+00  0.18061304450E+03  0.62941449832E+03  0.60294405947E+03 0.  0.
        3    1    3    3  502    0  0.18463506643E+03 -0.99115524789E+02 -0.13593711775E+03  0.24978571855E+03  0.10100000352E+00 0.  1.
       -3    1    3    3    0  502 -0.18463506643E+03  0.99115524789E+02  0.31655016225E+03  0.37962877977E+03  0.10100000352E+00 0. -1.
</event>
<event>
 5   0  0.5755078E-02  0.6001139E+03  0.7818609E-02  0.9905170E-01
        2   -1    0    0  501    0  0.00000000000E+00  0.00000000000E+00  0.60202708833E+02  0.60202708887E+02  0.25500000920E-02 0.  1.
       -2   -1    0    0    0  501  0.00000000000E+00  0.00000000000E+00 -0.14955167940E+04  0.14955167940E+04  0.25500000920E-02 0. -1.
    10030    2    1    2    0    0  0.00000000000E+00  0.00000000000E+00 -0.14353140852E+04  0.15557195029E+04  0.60011386303E+03 0.  0.
        2    1    3    3  502    0  0.10631633993E+03 -0.85149730800E+02 -0.14107500105E+04  0.14173105633E+04  0.25500000920E-02 0. -1.
       -2    1    3    3    0  502 -0.10631633993E+03  0.85149730800E+02 -0.24564074714E+02  0.13840893961E+03  0.25500000920E-02 0.  1.
</event>
<event>
 5   0  0.3767635E-02  0.5950499E+03  0.7818609E-02  0.9915730E-01
       -1   -1    0    0    0  501  0.00000000000E+00  0.00000000000E+00  0.17119780504E+03  0.17119780511E+03  0.50400001928E-02 0.  1.
        1   -1    0    0  501    0  0.00000000000E+00  0.00000000000E+00 -0.51706906267E+03  0.51706906269E+03  0.50400001928E-02 0. -1.
    10030    2    1    2    0    0  0.00000000000E+00  0.00000000000E+00 -0.34587125763E+03  0.68826686780E+03  0.59504987561E+03 0.  0.
        2    1    3    3  502    0  0.17753051600E+03 -0.34222396112E+01 -0.44906433588E+03  0.48289499232E+03  0.25500000920E-02 0. -1.
       -2    1    3    3    0  502 -0.17753051600E+03  0.34222396112E+01  0.10319307826E+03  0.20537187549E+03  0.25500000920E-02 0.  1.
</event>
<event>
 5   0  0.5872632E-02  0.6002778E+03  0.7818609E-02  0.9904830E-01
       -2   -1    0    0    0  501  0.00000000000E+00  0.00000000000E+00  0.26971306688E+03  0.26971306689E+03  0.25500000920E-02 0.  1.
        2   -1    0    0  501    0  0.00000000000E+00  0.00000000000E+00 -0.33399706626E+03  0.33399706627E+03  0.25500000920E-02 0. -1.
    10030    2    1    2    0    0  0.00000000000E+00  0.00000000000E+00 -0.64283999376E+02  0.60371013316E+03  0.60027784592E+03 0.  0.
        1    1    3    3  502    0 -0.70581769064E+02 -0.27981169154E+03  0.50834318303E+02  0.29301961844E+03  0.50400001928E-02 0.  1.
       -1    1    3    3    0  502  0.70581769064E+02  0.27981169154E+03 -0.11511831768E+03  0.31069051472E+03  0.50400001928E-02 0. -1.
</event>
<event>
 5   0  0.5999117E-02  0.6139995E+03  0.7818609E-02  0.9876780E-01
        2   -1    0    0  501    0  0.00000000000E+00  0.00000000000E+00  0.92074189516E+03  0.92074189517E+03  0.25500000920E-02 0.  1.
       -2   -1    0    0    0  501  0.00000000000E+00  0.00000000000E+00 -0.10236185995E+03  0.10236185998E+03  0.25500000920E-02 0. -1.
    10030    2    1    2    0    0  0.00000000000E+00  0.00000000000E+00  0.81838003521E+03  0.10231037552E+04  0.61399952099E+03 0.  0.
        5    1    3    3  502    0 -0.56815830533E+02  0.25857877763E+02 -0.91614085784E+02  0.11095899762E+03  0.46999998093E+01 0. -1.
       -5    1    3    3    0  502  0.56815830533E+02 -0.25857877763E+02  0.90999412099E+03  0.91214475753E+03  0.46999998093E+01 0.  1.
</event>
<event>
 5   0  0.3478183E-02  0.6151197E+03  0.7818609E-02  0.9874525E-01
       -1   -1    0    0    0  501  0.00000000000E+00  0.00000000000E+00  0.13666324790E+03  0.13666324800E+03  0.50400001928E-02 0.  1.
        1   -1    0    0  501    0  0.00000000000E+00  0.00000000000E+00 -0.69216168502E+03  0.69216168503E+03  0.50400001928E-02 0. -1.
    10030    2    1    2    0    0  0.00000000000E+00  0.00000000000E+00 -0.55549843711E+03  0.82882493303E+03  0.61511970866E+03 0.  0.
        4    1    3    3  502    0  0.24990924853E+02 -0.20897139274E+03 -0.57993771414E+03  0.61694647620E+03  0.12699999809E+01 0. -1.
       -4    1    3    3    0  502 -0.24990924853E+02  0.20897139274E+03  0.24439277025E+02  0.21187845683E+03  0.12699999809E+01 0.  1.
</event>
<event>
 5   0  0.5872632E-02  0.6022411E+03  0.7818609E-02  0.9900767E-01
        2   -1    0    0  501    0  0.00000000000E+00  0.00000000000E+00  0.40315902915E+03  0.40315902916E+03  0.25500000920E-02 0. -1.
       -2   -1    0    0    0  501  0.00000000000E+00  0.00000000000E+00 -0.22490771642E+03  0.22490771644E+03  0.25500000920E-02 0.  1.
    10030    2    1    2    0    0  0.00000000000E+00  0.00000000000E+00  0.17825131273E+03  0.62806674560E+03  0.60224107003E+03 0.  0.
        1    1    3    3  502    0  0.68739327546E+02 -0.73019973477E+02  0.38523190664E+03  0.39807114138E+03  0.50400001928E-02 0. -1.
       -1    1    3    3    0  502 -0.68739327546E+02  0.73019973477E+02 -0.20698059391E+03  0.22999560422E+03  0.50400001928E-02 0.  1.
</event>
<event>
 5   0  0.3651984E-02  0.5088872E+03  0.7818609E-02  0.1011485E+00
       -1   -1    0    0    0  501  0.00000000000E+00  0.00000000000E+00  0.70883806368E+02  0.70883806547E+02  0.50400001928E-02 0. -1.
        1   -1    0    0  501    0  0.00000000000E+00  0.00000000000E+00 -0.91334739275E+03  0.91334739277E+03  0.50400001928E-02 0.  1.
    10030    2    1    2    0    0  0.00000000000E+00  0.00000000000E+00 -0.84246358639E+03  0.98423119931E+03  0.50888717740E+03 0.  0.
        1    1    3    3  502    0  0.19703880918E+03  0.12864278862E+03 -0.23403191550E+03  0.33187979283E+03  0.50400001928E-02 0. -1.
       -1    1    3    3    0  502 -0.19703880918E+03 -0.12864278862E+03 -0.60843167088E+03  0.65235140649E+03  0.50400001928E-02 0.  1.
</event>
<event>
 5   0  0.5872632E-02  0.6195052E+03  0.7818609E-02  0.9865745E-01
       -2   -1    0    0    0  501  0.00000000000E+00  0.00000000000E+00  0.86885887921E+02  0.86885887959E+02  0.25500000920E-02 0. -1.
        2   -1    0    0  501    0  0.00000000000E+00  0.00000000000E+00 -0.11042836850E+04  0.11042836850E+04  0.25500000920E-02 0.  1.
    10030    2    1    2    0    0  0.00000000000E+00  0.00000000000E+00 -0.10173977970E+04  0.11911695729E+04  0.61950518483E+03 0.  0.
        1    1    3    3  502    0  0.65185021176E+02  0.87152341232E+02  0.48912880409E+02  0.11931926694E+03  0.50400001928E-02 0. -1.
       -1    1    3    3    0  502 -0.65185021176E+02 -0.87152341232E+02 -0.10663106774E+04  0.10718503060E+04  0.50400001928E-02 0.  1.
</event>
<event>
 5   0  0.3767635E-02  0.6050240E+03  0.7818609E-02  0.9895037E-01
        1   -1    0    0  501    0  0.00000000000E+00  0.00000000000E+00  0.11627617261E+04  0.11627617261E+04  0.50400001928E-02 0. -1.
       -1   -1    0    0    0  501  0.00000000000E+00  0.00000000000E+00 -0.78703583837E+02  0.78703583998E+02  0.50400001928E-02 0.  1.
    10030    2    1    2    0    0  0.00000000000E+00  0.00000000000E+00  0.10840581422E+04  0.12414653101E+04  0.60502401637E+03 0.  0.
        2    1    3    3  502    0  0.12220970636E+03 -0.36898611558E+02 -0.20725961017E+02  0.12933014084E+03  0.25500000920E-02 0.  1.
       -2    1    3    3    0  502 -0.12220970636E+03  0.36898611558E+02  0.11047841032E+04  0.11121351692E+04  0.25500000920E-02 0. -1.
</event>
<event>
 5   0  0.5755078E-02  0.6022820E+03  0.7818609E-02  0.9900683E-01
        2   -1    0    0  501    0  0.00000000000E+00  0.00000000000E+00  0.37340281961E+03  0.37340281961E+03  0.25500000920E-02 0. -1.
       -2   -1    0    0    0  501  0.00000000000E+00  0.00000000000E+00 -0.24286342487E+03  0.24286342488E+03  0.25500000920E-02 0.  1.
    10030    2    1    2    0    0  0.00000000000E+00  0.00000000000E+00  0.13053939474E+03  0.61626624450E+03  0.60228195268E+03 0.  0.
        2    1    3    3  502    0 -0.43892901697E+02 -0.11346065499E+03 -0.21660059479E+03  0.24842649762E+03  0.25500000920E-02 0.  1.
       -2    1    3    3    0  502  0.43892901697E+02  0.11346065499E+03  0.34713998952E+03  0.36783974688E+03  0.25500000920E-02 0. -1.
</event>
<event>
 5   0  0.5755078E-02  0.5992731E+03  0.7818609E-02  0.9906915E-01
       -2   -1    0    0    0  501  0.00000000000E+00  0.00000000000E+00  0.99302527379E+02  0.99302527411E+02  0.25500000920E-02 0. -1.
        2   -1    0    0  501    0  0.00000000000E+00  0.00000000000E+00 -0.90412660072E+03  0.90412660072E+03  0.25500000920E-02 0.  1.
    10030    2    1    2    0    0  0.00000000000E+00  0.00000000000E+00 -0.80482407334E+03  0.10034291281E+04  0.59927308146E+03 0.  0.
        2    1    3    3  502    0 -0.15855205828E+03 -0.18917219865E+03 -0.68685086591E+03  0.72985545688E+03  0.25500000920E-02 0.  1.
       -2    1    3    3    0  502  0.15855205828E+03  0.18917219865E+03 -0.11797320743E+03  0.27357367125E+03  0.25500000920E-02 0. -1.
</event>
<event>
 5   0  0.3478183E-02  0.5944766E+03  0.7818609E-02  0.9916932E-01
        1   -1    0    0  501    0  0.00000000000E+00  0.00000000000E+00  0.37273246558E+03  0.37273246561E+03  0.50400001928E-02 0.  1.
       -1   -1    0    0    0  501  0.00000000000E+00  0.00000000000E+00 -0.23703488236E+03  0.23703488241E+03  0.50400001928E-02 0. -1.
    10030    2    1    2    0    0  0.00000000000E+00  0.00000000000E+00  0.13569758322E+03  0.60976734802E+03  0.59447656356E+03 0.  0.
        4    1    3    3  502    0  0.13489892733E+02  0.22660892209E+03 -0.12895986797E+03  0.26108588860E+03  0.12699999809E+01 0. -1.
       -4    1    3    3    0  502 -0.13489892733E+02 -0.22660892209E+03  0.26465745119E+03  0.34868145943E+03  0.12699999809E+01 0.  1.
</event>
<event>
 5   0  0.3703280E-02  0.6021241E+03  0.7818609E-02  0.9901009E-01
       -1   -1    0    0    0  501  0.00000000000E+00  0.00000000000E+00  0.33758317552E+02  0.33758317928E+02  0.50400001928E-02 0.  1.
        1   -1    0    0  501    0  0.00000000000E+00  0.00000000000E+00 -0.26849195684E+04  0.26849195684E+04  0.50400001928E-02 0. -1.
    10030    2    1    2    0    0  0.00000000000E+00  0.00000000000E+00 -0.26511612509E+04  0.27186778863E+04  0.60212413308E+03 0.  0.
        5    1    3    3  502    0  0.19491565990E+03 -0.83019015699E+02 -0.22911463675E+04  0.23009254744E+04  0.46999998093E+01 0. -1.
       -5    1    3    3    0  502 -0.19491565990E+03  0.83019015699E+02 -0.36001488330E+03  0.41775241189E+03  0.46999998093E+01 0.  1.
</event>
<event>
 5   0  0.2388000E-02  0.4998682E+03  0.7818609E-02  0.1013813E+00
       -4   -1    0    0    0  501  0.00000000000E+00  0.00000000000E+00  0.78038373454E+03  0.78038476794E+03  0.12699999809E+01 0.  1.
        4   -1    0    0  501    0  0.00000000000E+00  0.00000000000E+00 -0.80040468005E+02  0.80050542899E+02  0.12699999809E+01 0. -1.
    10030    2    1    2    0    0  0.00000000000E+00  0.00000000000E+00  0.70034326653E+03  0.86043531084E+03  0.49986821579E+03 0.  0.
        1    1    3    3  502    0 -0.13878171467E+03  0.19499927734E+03  0.47408278423E+03  0.53107397679E+03  0.50400001928E-02 0.  1.
       -1    1    3    3    0  502  0.13878171467E+03 -0.19499927734E+03  0.22626048230E+03  0.32936133405E+03  0.50400001928E-02 0. -1.
</event>
<event>
 5   0  0.5935451E-02  0.6030346E+03  0.7818609E-02  0.9899130E-01
       -2   -1    0    0    0  501  0.00000000000E+00  0.00000000000E+00  0.18183410893E+03  0.18183410894E+03  0.25500000920E-02 0.  1.
        2   -1    0    0  501    0  0.00000000000E+00  0.00000000000E+00 -0.49997596308E+03  0.49997596309E+03  0.25500000920E-02 0. -1.
    10030    2    1    2    0    0  0.00000000000E+00  0.00000000000E+00 -0.31814185415E+03  0.68181007203E+03  0.60303460511E+03 0.  0.
        3    1    3    3  502    0 -0.26674387631E+03  0.70583493377E+02 -0.29651756750E+03  0.40503950810E+03  0.10100000352E+00 0. -1.
       -3    1    3    3    0  502  0.26674387631E+03 -0.70583493377E+02 -0.21624286657E+02  0.27677056393E+03  0.10100000352E+00 0.  1.
</event>
<event>
 5   0  0.2388000E-02  0.5921620E+03  0.7818609E-02  0.9921802E-01
        4   -1    0    0  501    0  0.00000000000E+00  0.00000000000E+00  0.56838842740E+03  0.56838984624E+03  0.12699999809E+01 0.  1.
       -4   -1    0    0    0  501  0.00000000000E+00  0.00000000000E+00 -0.15422824572E+03  0.15423347457E+03  0.12699999809E+01 0. -1.
    10030    2    1    2    0    0  0.00000000000E+00  0.00000000000E+00  0.41416018168E+03  0.72262332081E+03  0.59216197757E+03 0.  0.
        3    1    3    3  502    0  0.27930517676E+03  0.74401003919E+02  0.28538059456E+03  0.40618836160E+03  0.10100000352E+00 0.  1.
       -3    1    3    3    0  502 -0.27930517676E+03 -0.74401003919E+02  0.12877958713E+03  0.31643495921E+03  0.10100000352E+00 0. -1.
</event>
<event>
 5   0  0.3651984E-02  0.5989364E+03  0.7818609E-02  0.9907615E-01
       -1   -1    0    0    0  501  0.00000000000E+00  0.00000000000E+00  0.18289712494E+03  0.18289712501E+03  0.50400001928E-02 0. -1.
        1   -1    0    0  501    0  0.00000000000E+00  0.00000000000E+00 -0.49033692779E+03  0.49033692781E+03  0.50400001928E-02 0.  1.
    10030    2    1    2    0    0  0.00000000000E+00  0.00000000000E+00 -0.30743980285E+03  0.67323405282E+03  0.59893643862E+03 0.  0.
        1    1    3    3  502    0  0.29239599355E+03  0.39528931286E+02 -0.96148595378E+02  0.31032645049E+03  0.50400001928E-02 0.  1.
       -1    1    3    3    0  502 -0.29239599355E+03 -0.39528931286E+02 -0.21129120747E+03  0.36290760234E+03  0.50400001928E-02 0. -1.
</event>
<event>
 5   0  0.5872632E-02  0.5873821E+03  0.7818609E-02  0.9931936E-01
        2   -1    0    0  501    0  0.00000000000E+00  0.00000000000E+00  0.77404995978E+03  0.77404995978E+03  0.25500000920E-02 0.  1.
       -2   -1    0    0    0  501  0.00000000000E+00  0.00000000000E+00 -0.11143264849E+03  0.11143264852E+03  0.25500000920E-02 0. -1.
    10030    2    1    2    0    0  0.00000000000E+00  0.00000000000E+00  0.66261731129E+03  0.88548260831E+03  0.58738211447E+03 0.  0.
        1    1    3    3  502    0  0.95996393470E+01  0.88270940818E+02 -0.90713931389E+02  0.12693671432E+03  0.50400001928E-02 0. -1.
       -1    1    3    3    0  502 -0.95996393470E+01 -0.88270940818E+02  0.75333124268E+03  0.75854589399E+03  0.50400001928E-02 0.  1.
</event>
<event>
 5   0  0.3703280E-02  0.5909465E+03  0.7818609E-02  0.9924369E-01
       -1   -1    0    0    0  501  0.00000000000E+00  0.00000000000E+00  0.25502730791E+03  0.25502730796E+03  0.50400001928E-02 0.  1.
        1   -1    0    0  501    0  0.00000000000E+00  0.00000000000E+00 -0.34233374283E+03  0.34233374287E+03  0.50400001928E-02 0. -1.
    10030    2    1    2    0    0  0.00000000000E+00  0.00000000000E+00 -0.87306434919E+02  0.59736105083E+03  0.59094653859E+03 0.  0.
        5    1    3    3  502    0 -0.15966110392E+03 -0.93118223208E+02  0.18932562344E+03  0.26462984202E+03  0.46999998093E+01 0.  1.
       -5    1    3    3    0  502  0.15966110392E+03  0.93118223208E+02 -0.27663205836E+03  0.33273120880E+03  0.46999998093E+01 0. -1.
</event>
<event>
 5   0  0.3703280E-02  0.5887562E+03  0.7818609E-02  0.9929012E-01
        1   -1    0    0  501    0  0.00000000000E+00  0.00000000000E+00  0.25640488020E+03  0.25640488025E+03  0.50400001928E-02 0.  1.
       -1   -1    0    0    0  501  0.00000000000E+00  0.00000000000E+00 -0.33797508574E+03  0.33797508578E+03  0.50400001928E-02 0. -1.
    10030    2    1    2    0    0  0.00000000000E+00  0.00000000000E+00 -0.81570205542E+02  0.59437996603E+03  0.58875618518E+03 0.  0.
        5    1    3    3  502    0 -0.15335144624E+03 -0.25487969874E+02 -0.29311265344E+03  0.33181835434E+03  0.46999998093E+01 0. -1.
       -5    1    3    3    0  502  0.15335144624E+03  0.25487969874E+02  0.21154244789E+03  0.26256161169E+03  0.46999998093E+01 0.  1.
</event>
<event>
 5   0  0.5755078E-02  0.5955737E+03  0.7818609E-02  0.9914632E-01
        2   -1    0    0  501    0  0.00000000000E+00  0.00000000000E+00  0.59213719834E+03  0.59213719834E+03  0.25500000920E-02 0.  1.
       -2   -1    0    0    0  501  0.00000000000E+00  0.00000000000E+00 -0.14975754464E+03  0.14975754466E+03  0.25500000920E-02 0. -1.
    10030    2    1    2    0    0  0.00000000000E+00  0.00000000000E+00  0.44237965370E+03  0.74189474300E+03  0.59557371641E+03 0.  0.
        2    1    3    3  502    0 -0.68190499569E+02 -0.15155761405E+03  0.52899490140E+03  0.55448648345E+03  0.25500000920E-02 0.  1.
       -2    1    3    3    0  502  0.68190499569E+02  0.15155761405E+03 -0.86615247700E+02  0.18740825955E+03  0.25500000920E-02 0. -1.
</event>
<event>
 5   0  0.5755078E-02  0.5958093E+03  0.7818609E-02  0.9914139E-01
        2   -1    0    0  501    0  0.00000000000E+00  0.00000000000E+00  0.81813636377E+02  0.81813636416E+02  0.25500000920E-02 0.  1.
       -2   -1    0    0    0  501  0.00000000000E+00  0.00000000000E+00 -0.10847479355E+04  0.10847479355E+04  0.25500000920E-02 0. -1.
    10030    2    1    2    0    0  0.00000000000E+00  0.00000000000E+00 -0.10029342991E+04  0.11665615719E+04  0.59580927546E+03 0.  0.
        2    1    3    3  502    0  0.20547277820E+02 -0.22924450143E+03 -0.13115184621E+03  0.26490760433E+03  0.25500000920E-02 0.  1.
       -2    1    3    3    0  502 -0.20547277820E+02  0.22924450143E+03 -0.87178245294E+03  0.90165396762E+03  0.25500000920E-02 0. -1.
</event>
<event>
 5   0  0.3651984E-02  0.5976210E+03  0.7818609E-02  0.9910354E-01
        1   -1    0    0  501    0  0.00000000000E+00  0.00000000000E+00  0.78653056553E+03  0.78653056554E+03  0.50400001928E-02 0.  1.
       -1   -1    0    0    0  501  0.00000000000E+00  0.00000000000E+00 -0.11352098389E+03  0.11352098400E+03  0.50400001928E-02 0. -1.
    10030    2    1    2    0    0  0.00000000000E+00  0.00000000000E+00  0.67300958164E+03  0.90005154954E+03  0.59762102947E+03 0.  0.
        1    1    3    3  502    0 -0.30000100012E+02 -0.74928313488E+02  0.76980318732E+03  0.77402274217E+03  0.50400001928E-02 0.  1.
       -1    1    3    3    0  502  0.30000100012E+02  0.74928313488E+02 -0.96793605681E+02  0.12602880738E+03  0.50400001928E-02 0. -1.
</event>
<event>
 5   0  0.5999117E-02  0.6081454E+03  0.7818609E-02  0.9888650E-01
        2   -1    0    0  501    0  0.00000000000E+00  0.00000000000E+00  0.50698557716E+03  0.50698557717E+03  0.25500000920E-02 0.  1.
       -2   -1    0    0    0  501  0.00000000000E+00  0.00000000000E+00 -0.18237246477E+03  0.18237246479E+03  0.25500000920E-02 0. -1.
    10030    2    1    2    0    0  0.00000000000E+00  0.00000000000E+00  0.32461311239E+03  0.68935804196E+03  0.60814540801E+03 0.  0.
        5    1    3    3  502    0  0.96629103646E+02 -0.46216149099E+02 -0.16023530174E+03  0.19279667536E+03  0.46999998093E+01 0. -1.
       -5    1    3    3    0  502 -0.96629103646E+02  0.46216149099E+02  0.48484841413E+03  0.49656136659E+03  0.46999998093E+01 0.  1.
</event>
<event>
 5   0  0.3478183E-02  0.6031775E+03  0.7818609E-02  0.9898836E-01
       -1   -1    0    0    0  501  0.00000000000E+00  0.00000000000E+00  0.98715627909E+02  0.98715628037E+02  0.50400001928E-02 0. -1.
        1   -1    0    0  501    0  0.00000000000E+00  0.00000000000E+00 -0.92139187518E+03  0.92139187519E+03  0.50400001928E-02 0.  1.
    10030    2    1    2    0    0  0.00000000000E+00  0.00000000000E+00 -0.82267624727E+03  0.10201075032E+04  0.60317751145E+03 0.  0.
        4    1    3    3  502    0 -0.26152708948E+03  0.39442939450E+02 -0.16624499546E+03  0.31239586332E+03  0.12699999809E+01 0. -1.
       -4    1    3    3    0  502  0.26152708948E+03 -0.39442939450E+02 -0.65643125181E+03  0.70771163991E+03  0.12699999809E+01 0.  1.
</event>
<event>
 5   0  0.5755078E-02  0.6009746E+03  0.7818609E-02  0.9903386E-01
       -2   -1    0    0    0  501  0.00000000000E+00  0.00000000000E+00  0.11627714144E+03  0.11627714147E+03  0.25500000920E-02 0.  1.
        2   -1    0    0  501    0  0.00000000000E+00  0.00000000000E+00 -0.77652949697E+03  0.77652949698E+03  0.25500000920E-02 0. -1.
    10030    2    1    2    0    0  0.00000000000E+00  0.00000000000E+00 -0.66025235553E+03  0.89280663845E+03  0.60097464229E+03 0.  0.
        2    1    3    3  502    0 -0.34965344575E+02 -0.29843186300E+03 -0.32580056524E+03  0.44320442292E+03  0.25500000920E-02 0.  1.
       -2    1    3    3    0  502  0.34965344575E+02  0.29843186300E+03 -0.33445179029E+03  0.44960221553E+03  0.25500000920E-02 0. -1.
</event>
<event>
 5   0  0.3640827E-02  0.6078811E+03  0.7818609E-02  0.9889189E-01
       -1   -1    0    0    0  501  0.00000000000E+00  0.00000000000E+00  0.16804811236E+03  0.16804811244E+03  0.50400001928E-02 0. -1.
        1   -1    0    0  501    0  0.00000000000E+00  0.00000000000E+00 -0.54972272784E+03  0.54972272786E+03  0.50400001928E-02 0.  1.
    10030    2    1    2    0    0  0.00000000000E+00  0.00000000000E+00 -0.38167461548E+03  0.71777084030E+03  0.60788112907E+03 0.  0.
        3    1    3    3  502    0  0.48852849028E+02  0.26374696404E+03 -0.22061661667E+02  0.26913897713E+03  0.10100000352E+00 0. -1.
       -3    1    3    3    0  502 -0.48852849028E+02 -0.26374696404E+03 -0.35961295381E+03  0.44863186316E+03  0.10100000352E+00 0.  1.
</event>
<event>
 5   0  0.3703280E-02  0.5962043E+03  0.7818609E-02  0.9913312E-01
        1   -1    0    0  501    0  0.00000000000E+00  0.00000000000E+00  0.52248464915E+03  0.52248464917E+03  0.50400001928E-02 0. -1.
       -1   -1    0    0    0  501  0.00000000000E+00  0.00000000000E+00 -0.17008135745E+03  0.17008135753E+03  0.50400001928E-02 0.  1.
    10030    2    1    2    0    0  0.00000000000E+00  0.00000000000E+00  0.35240329170E+03  0.69256600670E+03  0.59620432205E+03 0.  0.
        5    1    3    3  502    0  0.28073169139E+03  0.68560510671E+02  0.91379276785E+02  0.30312223343E+03  0.46999998093E+01 0.  1.
       -5    1    3    3    0  502 -0.28073169139E+03 -0.68560510671E+02  0.26102401491E+03  0.38944377326E+03  0.46999998093E+01 0. -1.
</event>
<event>
 5   0  0.2388000E-02  0.5898192E+03  0.7818609E-02  0.9926756E-01
       -4   -1    0    0    0  501  0.00000000000E+00  0.00000000000E+00  0.58938502403E+03  0.58938639232E+03  0.12699999809E+01 0.  1.
        4   -1    0    0  501    0  0.00000000000E+00  0.00000000000E+00 -0.14755915509E+03  0.14756462026E+03  0.12699999809E+01 0. -1.
    10030    2    1    2    0    0  0.00000000000E+00  0.00000000000E+00  0.44182586894E+03  0.73695101258E+03  0.58981920660E+03 0.  0.
        3    1    3    3  502    0  0.90070390700E+02 -0.46338312982E+01  0.57173441421E+03  0.57880428321E+03  0.10100000352E+00 0.  1.
       -3    1    3    3    0  502 -0.90070390700E+02  0.46338312982E+01 -0.12990854527E+03  0.15814672936E+03  0.10100000352E+00 0. -1.
</event>
<event>
 5   0  0.3703280E-02  0.5981592E+03  0.7818609E-02  0.9909233E-01
       -1   -1    0    0    0  501  0.00000000000E+00  0.00000000000E+00  0.91066613310E+02  0.91066613450E+02  0.50400001928E-02 0. -1.
        1   -1    0    0  501    0  0.00000000000E+00  0.00000000000E+00 -0.98223262687E+03  0.98223262688E+03  0.50400001928E-02 0.  1.
    10030    2    1    2    0    0  0.00000000000E+00  0.00000000000E+00 -0.89116601356E+03  0.10732992403E+04  0.59815917244E+03 0.  0.
        5    1    3    3  502    0 -0.17543841786E+03  0.22623883535E+03 -0.60060231412E+03  0.66536296772E+03  0.46999998093E+01 0.  1.
       -5    1    3    3    0  502  0.17543841786E+03 -0.22623883535E+03 -0.29056369943E+03  0.40793627261E+03  0.46999998093E+01 0. -1.
</event>
<event>
 5   0  0.5755078E-02  0.5971897E+03  0.7818609E-02  0.9911254E-01
       -2   -1    0    0    0  501  0.00000000000E+00  0.00000000000E+00  0.22737592820E+03  0.22737592822E+03  0.25500000920E-02 0. -1.
        2   -1    0    0  501    0  0.00000000000E+00  0.00000000000E+00 -0.39212097901E+03  0.39212097902E+03  0.25500000920E-02 0.  1.
    10030    2    1    2    0    0  0.00000000000E+00  0.00000000000E+00 -0.16474505081E+03  0.61949690724E+03  0.59718965690E+03 0.  0.
        2    1    3    3  502    0 -0.29512281505E+03  0.14794082466E+02 -0.12690063272E+03  0.32158997408E+03  0.25500000920E-02 0.  1.
       -2    1    3    3    0  502  0.29512281505E+03 -0.14794082466E+02 -0.37844418091E+02  0.29790693316E+03  0.25500000920E-02 0. -1.
</event>
<event>
 5   0  0.5755078E-02  0.5968371E+03  0.7818609E-02  0.9911990E-01
        2   -1    0    0  501    0  0.00000000000E+00  0.00000000000E+00  0.46387765442E+03  0.46387765443E+03  0.25500000920E-02 0.  1.
       -2   -1    0    0    0  501  0.00000000000E+00  0.00000000000E+00 -0.19197653006E+03  0.19197653008E+03  0.25500000920E-02 0. -1.
    10030    2    1    2    0    0  0.00000000000E+00  0.00000000000E+00  0.27190112436E+03  0.65585418451E+03  0.59683707150E+03 0.  0.
        2    1    3    3  502    0 -0.34260297578E+02  0.98455524925E+02 -0.17131721015E+03  0.20054137947E+03  0.25500000920E-02 0. -1.
       -2    1    3    3    0  502  0.34260297578E+02 -0.98455524925E+02  0.44321833451E+03  0.45531280504E+03  0.25500000920E-02 0.  1.
</event>
<event>
 5   0  0.3767635E-02  0.6016272E+03  0.7818609E-02  0.9902036E-01
       -1   -1    0    0    0  501  0.00000000000E+00  0.00000000000E+00  0.18365484490E+03  0.18365484497E+03  0.50400001928E-02 0.  1.
        1   -1    0    0  501    0  0.00000000000E+00  0.00000000000E+00 -0.49271138945E+03  0.49271138948E+03  0.50400001928E-02 0. -1.
    10030    2    1    2    0    0  0.00000000000E+00  0.00000000000E+00 -0.30905654455E+03  0.67636623445E+03  0.60162723956E+03 0.  0.
        2    1    3    3  502    0  0.16494437216E+03  0.50043909708E+01 -0.43728257168E+03  0.46738392927E+03  0.25500000920E-02 0. -1.
       -2    1    3    3    0  502 -0.16494437216E+03 -0.50043909708E+01  0.12822602713E+03  0.20898230518E+03  0.25500000920E-02 0.  1.
</event>
<event>
 5   0  0.6007360E-02  0.5784249E+03  0.7818609E-02  0.9951207E-01
       -2   -1    0    0    0  501  0.00000000000E+00  0.00000000000E+00  0.25346425128E+03  0.25346425129E+03  0.25500000920E-02 0.  1.
        2   -1    0    0  501    0  0.00000000000E+00  0.00000000000E+00 -0.33000249550E+03  0.33000249551E+03  0.25500000920E-02 0. -1.
    10030    2    1    2    0    0  0.00000000000E+00  0.00000000000E+00 -0.76538244223E+02  0.58346674680E+03  0.57842487999E+03 0.  0.
        4    1    3    3  502    0  0.78860633331E+02  0.27432981639E+03 -0.85219160519E+02  0.29789220511E+03  0.12699999809E+01 0.  1.
       -4    1    3    3    0  502 -0.78860633331E+02 -0.27432981639E+03  0.86809162963E+01  0.28557454168E+03  0.12699999809E+01 0. -1.
</event>
<event>
 5   0  0.3703280E-02  0.6133433E+03  0.7818609E-02  0.9878103E-01
        1   -1    0    0  501    0  0.00000000000E+00  0.00000000000E+00  0.21368735149E+04  0.21368735149E+04  0.50400001928E-02 0.  1.
       -1   -1    0    0    0  501  0.00000000000E+00  0.00000000000E+00 -0.44011723270E+02  0.44011723558E+02  0.50400001928E-02 0. -1.
    10030    2    1    2    0    0  0.00000000000E+00  0.00000000000E+00  0.20928617916E+04  0.21808852384E+04  0.61334325176E+03 0.  0.
        5    1    3    3  502    0  0.17009451980E+03  0.11512074948E+03  0.23684364668E+03  0.31353139492E+03  0.46999998093E+01 0. -1.
       -5    1    3    3    0  502 -0.17009451980E+03 -0.11512074948E+03  0.18560181449E+04  0.18673538435E+04  0.46999998093E+01 0.  1.
</event>
<event>
 5   0  0.3703280E-02  0.6017738E+03  0.7818609E-02  0.9901733E-01
        1   -1    0    0  501    0  0.00000000000E+00  0.00000000000E+00  0.44709107926E+03  0.44709107929E+03  0.50400001928E-02 0.  1.
       -1   -1    0    0    0  501  0.00000000000E+00  0.00000000000E+00 -0.20249326037E+03  0.20249326044E+03  0.50400001928E-02 0. -1.
    10030    2    1    2    0    0  0.00000000000E+00  0.00000000000E+00  0.24459781889E+03  0.64958433972E+03  0.60177381250E+03 0.  0.
        5    1    3    3  502    0  0.11551654352E+03 -0.22718383654E+03  0.29485648343E+03  0.38976788379E+03  0.46999998093E+01 0.  1.
       -5    1    3    3    0  502 -0.11551654352E+03  0.22718383654E+03 -0.50258664545E+02  0.25981645593E+03  0.46999998093E+01 0. -1.
</event>
<event>
 5   0  0.3640827E-02  0.6076948E+03  0.7818609E-02  0.9889569E-01
       -1   -1    0    0    0  501  0.00000000000E+00  0.00000000000E+00  0.11787207035E+03  0.11787207046E+03  0.50400001928E-02 0. -1.
        1   -1    0    0  501    0  0.00000000000E+00  0.00000000000E+00 -0.78324943401E+03  0.78324943402E+03  0.50400001928E-02 0.  1.
    10030    2    1    2    0    0  0.00000000000E+00  0.00000000000E+00 -0.66537736366E+03  0.90112150448E+03  0.60769476694E+03 0.  0.
        3    1    3    3  502    0 -0.19124758114E+03 -0.50824127807E+02  0.92188717957E+01  0.19810029545E+03  0.10100000352E+00 0. -1.
       -3    1    3    3    0  502  0.19124758114E+03  0.50824127807E+02 -0.67459623545E+03  0.70302120903E+03  0.10100000352E+00 0.  1.
</event>
<event>
 5   0  0.5755078E-02  0.5956525E+03  0.7818609E-02  0.9914467E-01
        2   -1    0    0  501    0  0.00000000000E+00  0.00000000000E+00  0.52541488604E+03  0.52541488604E+03  0.25500000920E-02 0.  1.
       -2   -1    0    0    0  501  0.00000000000E+00  0.00000000000E+00 -0.16881984894E+03  0.16881984896E+03  0.25500000920E-02 0. -1.
    10030    2    1    2    0    0  0.00000000000E+00  0.00000000000E+00  0.35659503710E+03  0.69423473500E+03  0.59565245471E+03 0.  0.
        2    1    3    3  502    0 -0.88972669160E+02  0.42774344776E+02  0.50579076289E+03  0.51533491659E+03  0.25500000920E-02 0.  1.
       -2    1    3    3    0  502  0.88972669160E+02 -0.42774344776E+02 -0.14919572579E+03  0.17889981841E+03  0.25500000920E-02 0. -1.
</event>
<event>
 5   0  0.3478183E-02  0.5762243E+03  0.7818609E-02  0.9955999E-01
        1   -1    0    0  501    0  0.00000000000E+00  0.00000000000E+00  0.42101566716E+03  0.42101566719E+03  0.50400001928E-02 0. -1.
       -1   -1    0    0    0  501  0.00000000000E+00  0.00000000000E+00 -0.19716277374E+03  0.19716277380E+03  0.50400001928E-02 0.  1.
    10030    2    1    2    0    0  0.00000000000E+00  0.00000000000E+00  0.22385289342E+03  0.61817844099E+03  0.57622432005E+03 0.  0.
        4    1    3    3  502    0 -0.10594537553E+03  0.10595357093E+03 -0.15207260961E+03  0.21349068664E+03  0.12699999809E+01 0.  1.
       -4    1    3    3    0  502  0.10594537553E+03 -0.10595357093E+03  0.37592550303E+03  0.40468775435E+03  0.12699999809E+01 0. -1.
</event>
<event>
 5   0  0.5755078E-02  0.5951209E+03  0.7818609E-02  0.9915581E-01
       -2   -1    0    0    0  501  0.00000000000E+00  0.00000000000E+00  0.12193119292E+03  0.12193119295E+03  0.25500000920E-02 0. -1.
        2   -1    0    0  501    0  0.00000000000E+00  0.00000000000E+00 -0.72616543139E+03  0.72616543139E+03  0.25500000920E-02 0.  1.
    10030    2    1    2    0    0  0.00000000000E+00  0.00000000000E+00 -0.60423423847E+03  0.84809662434E+03  0.59512088627E+03 0.  0.
        2    1    3    3  502    0  0.67690048192E+02  0.98679302904E+02 -0.69036440503E+03  0.70065866096E+03  0.25500000920E-02 0.  1.
       -2    1    3    3    0  502 -0.67690048192E+02 -0.98679302904E+02  0.86130166561E+02  0.14743796337E+03  0.25500000920E-02 0. -1.
</event>
<event>
 5   0  0.5755078E-02  0.5982198E+03  0.7818609E-02  0.9909106E-01
        2   -1    0    0  501    0  0.00000000000E+00  0.00000000000E+00  0.95753424452E+03  0.95753424452E+03  0.25500000920E-02 0.  1.
       -2   -1    0    0    0  501  0.00000000000E+00  0.00000000000E+00 -0.93434485872E+02  0.93434485907E+02  0.25500000920E-02 0. -1.
    10030    2    1    2    0    0  0.00000000000E+00  0.00000000000E+00  0.86409975864E+03  0.10509687304E+04  0.59821975849E+03 0.  0.
        2    1    3    3  502    0  0.44989261525E+02  0.24649705853E+03  0.71902041363E+03  0.76142970046E+03  0.25500000920E-02 0.  1.
       -2    1    3    3    0  502 -0.44989261525E+02 -0.24649705853E+03  0.14507934501E+03  0.28953902996E+03  0.25500000920E-02 0. -1.
</event>
<event>
 5   0  0.3640827E-02  0.5986444E+03  0.7818609E-02  0.9908223E-01
        1   -1    0    0  501    0  0.00000000000E+00  0.00000000000E+00  0.55105165009E+03  0.55105165012E+03  0.50400001928E-02 0. -1.
       -1   -1    0    0    0  501  0.00000000000E+00  0.00000000000E+00 -0.16258687569E+03  0.16258687576E+03  0.50400001928E-02 0.  1.
    10030    2    1    2    0    0  0.00000000000E+00  0.00000000000E+00  0.38846477441E+03  0.71363852588E+03  0.59864435575E+03 0.  0.
        3    1    3    3  502    0 -0.37346669444E+02 -0.29646719315E+03  0.17337298787E+03  0.34546457627E+03  0.10100000352E+00 0.  1.
       -3    1    3    3    0  502  0.37346669444E+02  0.29646719315E+03  0.21509178654E+03  0.36817394961E+03  0.10100000352E+00 0. -1.
</event>
<event>
 5   0  0.3651984E-02  0.6089626E+03  0.7818609E-02  0.9886984E-01
        1   -1    0    0  501    0  0.00000000000E+00  0.00000000000E+00  0.31721049151E+03  0.31721049155E+03  0.50400001928E-02 0. -1.
       -1   -1    0    0    0  501  0.00000000000E+00  0.00000000000E+00 -0.29226287035E+03  0.29226287039E+03  0.50400001928E-02 0.  1.
    10030    2    1    2    0    0  0.00000000000E+00  0.00000000000E+00  0.24947621156E+02  0.60947336194E+03  0.60896255641E+03 0.  0.
        1    1    3    3  502    0 -0.23559924744E+03 -0.78062493834E+02  0.18899661371E+03  0.31196230278E+03  0.50400001928E-02 0. -1.
       -1    1    3    3    0  502  0.23559924744E+03  0.78062493834E+02 -0.16404899255E+03  0.29751105916E+03  0.50400001928E-02 0.  1.
</event>
<event>
 5   0  0.3640827E-02  0.5999829E+03  0.7818609E-02  0.9905442E-01
       -1   -1    0    0    0  501  0.00000000000E+00  0.00000000000E+00  0.82851560244E+02  0.82851560397E+02  0.50400001928E-02 0. -1.
        1   -1    0    0  501    0  0.00000000000E+00  0.00000000000E+00 -0.10862181083E+04  0.10862181083E+04  0.50400001928E-02 0.  1.
    10030    2    1    2    0    0  0.00000000000E+00  0.00000000000E+00 -0.10033665481E+04  0.11690696687E+04  0.59998288353E+03 0.  0.
        3    1    3    3  502    0  0.18838517519E+03  0.21917369146E+02 -0.95458186365E+03  0.97323989330E+03  0.10100000352E+00 0.  1.
       -3    1    3    3    0  502 -0.18838517519E+03 -0.21917369146E+02 -0.48784684405E+02  0.19582977541E+03  0.10100000352E+00 0. -1.
</event>
<event>
 5   0  0.3703280E-02  0.6391026E+03  0.7818609E-02  0.9827445E-01
       -1   -1    0    0    0  501  0.00000000000E+00  0.00000000000E+00  0.47284080575E+03  0.47284080578E+03  0.50400001928E-02 0. -1.
        1   -1    0    0  501    0  0.00000000000E+00  0.00000000000E+00 -0.21595648472E+03  0.21595648478E+03  0.50400001928E-02 0.  1.
    10030    2    1    2    0    0  0.00000000000E+00  0.00000000000E+00  0.25688432104E+03  0.68879729056E+03  0.63910261546E+03 0.  0.
        5    1    3    3  502    0  0.26355941784E+02  0.32850994688E+02  0.46979881485E+03  0.47170630688E+03  0.46999998093E+01 0. -1.
       -5    1    3    3    0  502 -0.26355941784E+02 -0.32850994688E+02 -0.21291449381E+03  0.21709098368E+03  0.46999998093E+01 0.  1.
</event>
<event>
 5   0  0.3478183E-02  0.5991993E+03  0.7818609E-02  0.9907069E-01
       -1   -1    0    0    0  501  0.00000000000E+00  0.00000000000E+00  0.13551976206E+04  0.13551976206E+04  0.50400001928E-02 0. -1.
        1   -1    0    0  501    0  0.00000000000E+00  0.00000000000E+00 -0.66233847810E+02  0.66233848002E+02  0.50400001928E-02 0.  1.
    10030    2    1    2    0    0  0.00000000000E+00  0.00000000000E+00  0.12889637728E+04  0.14214314686E+04  0.59919930941E+03 0.  0.
        4    1    3    3  502    0  0.19719856476E+03 -0.37569541102E+02  0.11691211513E+03  0.23231185920E+03  0.12699999809E+01 0.  1.
       -4    1    3    3    0  502 -0.19719856476E+03  0.37569541102E+02  0.11720516577E+04  0.11891196094E+04  0.12699999809E+01 0. -1.
</event>
<event>
 5   0  0.3478183E-02  0.6006618E+03  0.7818609E-02  0.9904034E-01
       -1   -1    0    0    0  501  0.00000000000E+00  0.00000000000E+00  0.90926232992E+03  0.90926232994E+03  0.50400001928E-02 0. -1.
        1   -1    0    0  501    0  0.00000000000E+00  0.00000000000E+00 -0.99199808381E+02  0.99199808509E+02  0.50400001928E-02 0.  1.
    10030    2    1    2    0    0  0.00000000000E+00  0.00000000000E+00  0.81006252154E+03  0.10084621384E+04  0.60066179825E+03 0.  0.
        4    1    3    3  502    0 -0.16649577625E+03 -0.90360935930E+02  0.79629883749E+03  0.81852268981E+03  0.12699999809E+01 0. -1.
       -4    1    3    3    0  502  0.16649577625E+03  0.90360935930E+02  0.13763684056E+02  0.18993944864E+03  0.12699999809E+01 0.  1.
</event>
<event>
 5   0  0.5872632E-02  0.6170401E+03  0.7818609E-02  0.9870671E-01
        2   -1    0    0  501    0  0.00000000000E+00  0.00000000000E+00  0.31133284086E+04  0.31133284086E+04  0.25500000920E-02 0.  1.
       -2   -1    0    0    0  501  0.00000000000E+00  0.00000000000E+00 -0.30573270309E+02  0.30573270415E+02  0.25500000920E-02 0. -1.
    10030    2    1    2    0    0  0.00000000000E+00  0.00000000000E+00  0.30827551383E+04  0.31439016790E+04  0.61704013213E+03 0.  0.
        1    1    3    3  502    0  0.86706480714E+02 -0.14634446837E+03  0.28528168975E+04  0.28578836519E+04  0.50400001928E-02 0.  1.
       -1    1    3    3    0  502 -0.86706480714E+02  0.14634446837E+03  0.22993824077E+03  0.28601802708E+03  0.50400001928E-02 0. -1.
</event>
<event>
 5   0  0.5935451E-02  0.5927577E+03  0.7818609E-02  0.9920546E-01
       -2   -1    0    0    0  501  0.00000000000E+00  0.00000000000E+00  0.40988715081E+02  0.40988715160E+02  0.25500000920E-02 0. -1.
        2   -1    0    0  501    0  0.00000000000E+00  0.00000000000E+00 -0.21430392182E+04  0.21430392182E+04  0.25500000920E-02 0.  1.
    10030    2    1    2    0    0  0.00000000000E+00  0.00000000000E+00 -0.21020505032E+04  0.21840279334E+04  0.59275770434E+03 0.  0.
        3    1    3    3  502    0 -0.12059872863E+03  0.21334087325E+03 -0.16651590327E+04  0.16830962527E+04  0.10100000352E+00 0.  1.
       -3    1    3    3    0  502  0.12059872863E+03 -0.21334087325E+03 -0.43689147046E+03  0.50093168068E+03  0.10100000352E+00 0. -1.
</event>
<event>
 5   0  0.3703280E-02  0.6006764E+03  0.7818609E-02  0.9904004E-01
        1   -1    0    0  501    0  0.00000000000E+00  0.00000000000E+00  0.99151378844E+02  0.99151378972E+02  0.50400001928E-02 0.  1.
       -1   -1    0    0    0  501  0.00000000000E+00  0.00000000000E+00 -0.90975061078E+03  0.90975061079E+03  0.50400001928E-02 0. -1.
    10030    2    1    2    0    0  0.00000000000E+00  0.00000000000E+00 -0.81059923194E+03  0.10089019898E+04  0.60067637721E+03 0.  0.
        5    1    3    3  502    0 -0.13736064362E+03 -0.39116646721E+02 -0.84899291267E+03  0.86093502323E+03  0.46999998093E+01 0. -1.
       -5    1    3    3    0  502  0.13736064362E+03  0.39116646721E+02  0.38393680733E+02  0.14796696653E+03  0.46999998093E+01 0.  1.
</event>
<event>
 5   0  0.5755078E-02  0.5977169E+03  0.7818609E-02  0.9910154E-01
        2   -1    0    0  501    0  0.00000000000E+00  0.00000000000E+00  0.10089654298E+04  0.10089654298E+04  0.25500000920E-02 0.  1.
       -2   -1    0    0    0  501  0.00000000000E+00  0.00000000000E+00 -0.88522720234E+02  0.88522720270E+02  0.25500000920E-02 0. -1.
    10030    2    1    2    0    0  0.00000000000E+00  0.00000000000E+00  0.92044270954E+03  0.10974881500E+04  0.59771687106E+03 0.  0.
        2    1    3    3  502    0 -0.14226969667E+03  0.20722617974E+03  0.16339734424E+03  0.29980334934E+03  0.25500000920E-02 0. -1.
       -2    1    3    3    0  502  0.14226969667E+03 -0.20722617974E+03  0.75704536529E+03  0.79768480071E+03  0.25500000920E-02 0.  1.
</event>
<event>
 5   0  0.6007360E-02  0.5973912E+03  0.7818609E-02  0.9910833E-01
        2   -1    0    0  501    0  0.00000000000E+00  0.00000000000E+00  0.72775835272E+03  0.72775835272E+03  0.25500000920E-02 0.  1.
       -2   -1    0    0    0  501  0.00000000000E+00  0.00000000000E+00 -0.12259436929E+03  0.12259436931E+03  0.25500000920E-02 0. -1.
    10030    2    1    2    0    0  0.00000000000E+00  0.00000000000E+00  0.60516398343E+03  0.85035272203E+03  0.59739124954E+03 0.  0.
        4    1    3    3  502    0  0.80580310959E+02 -0.24678601504E+03  0.92312157045E+02  0.27553524452E+03  0.12699999809E+01 0. -1.
       -4    1    3    3    0  502 -0.80580310959E+02  0.24678601504E+03  0.51285182638E+03  0.57481747752E+03  0.12699999809E+01 0.  1.
</event>
<event>
 5   0  0.3478183E-02  0.5974984E+03  0.7818609E-02  0.9910610E-01
        1   -1    0    0  501    0  0.00000000000E+00  0.00000000000E+00  0.23564550619E+03  0.23564550624E+03  0.50400001928E-02 0. -1.
       -1   -1    0    0    0  501  0.00000000000E+00  0.00000000000E+00 -0.37875145791E+03  0.37875145795E+03  0.50400001928E-02 0.  1.
    10030    2    1    2    0    0  0.00000000000E+00  0.00000000000E+00 -0.14310595173E+03  0.61439696419E+03  0.59749838174E+03 0.  0.
        4    1    3    3  502    0  0.64392785343E+02  0.28374861246E+01  0.22840768949E+03  0.23733134570E+03  0.12699999809E+01 0. -1.
       -4    1    3    3    0  502 -0.64392785343E+02 -0.28374861246E+01 -0.37151364122E+03  0.37706561849E+03  0.12699999809E+01 0.  1.
</event>
<event>
 5   0  0.5999117E-02  0.5955531E+03  0.7818609E-02  0.9914675E-01
        2   -1    0    0  501    0  0.00000000000E+00  0.00000000000E+00  0.32563413834E+03  0.32563413835E+03  0.25500000920E-02 0. -1.
       -2   -1    0    0    0  501  0.00000000000E+00  0.00000000000E+00 -0.27230218521E+03  0.27230218522E+03  0.25500000920E-02 0.  1.
    10030    2    1    2    0    0  0.00000000000E+00  0.00000000000E+00  0.53331953131E+02  0.59793632357E+03  0.59555314609E+03 0.  0.
        5    1    3    3  502    0 -0.26850967875E+02 -0.31866274215E+02  0.32265471927E+03  0.32536839394E+03  0.46999998093E+01 0. -1.
       -5    1    3    3    0  502  0.26850967875E+02  0.31866274215E+02 -0.26932276614E+03  0.27256792964E+03  0.46999998093E+01 0.  1.
</event>
<event>
 5   0  0.5872632E-02  0.5588125E+03  0.7818609E-02  0.9994745E-01
       -2   -1    0    0    0  501  0.00000000000E+00  0.00000000000E+00  0.52746384166E+02  0.52746384228E+02  0.25500000920E-02 0.  1.
        2   -1    0    0  501    0  0.00000000000E+00  0.00000000000E+00 -0.14800606540E+04  0.14800606540E+04  0.25500000920E-02 0. -1.
    10030    2    1    2    0    0  0.00000000000E+00  0.00000000000E+00 -0.14273142698E+04  0.15328070382E+04  0.55881248337E+03 0.  0.
        1    1    3    3  502    0 -0.94051524745E+02  0.17202111045E+03 -0.12597145801E+04  0.12748795140E+04  0.50400001928E-02 0. -1.
       -1    1    3    3    0  502  0.94051524745E+02 -0.17202111045E+03 -0.16759968967E+03  0.25792752422E+03  0.50400001928E-02 0.  1.
</event>
<event>
 5   0  0.3478183E-02  0.6320171E+03  0.7818609E-02  0.9841121E-01
        1   -1    0    0  501    0  0.00000000000E+00  0.00000000000E+00  0.28301466928E+03  0.28301466933E+03  0.50400001928E-02 0. -1.
       -1   -1    0    0    0  501  0.00000000000E+00  0.00000000000E+00 -0.35284882569E+03  0.35284882572E+03  0.50400001928E-02 0.  1.
    10030    2    1    2    0    0  0.00000000000E+00  0.00000000000E+00 -0.69834156402E+02  0.63586349505E+03  0.63201706855E+03 0.  0.
        4    1    3    3  502    0 -0.30101879054E+03  0.92738933235E+02 -0.60507262323E+02  0.32074220753E+03  0.12699999809E+01 0.  1.
       -4    1    3    3    0  502  0.30101879054E+03 -0.92738933235E+02 -0.93268940787E+01  0.31512128752E+03  0.12699999809E+01 0. -1.
</event>
<event>
 5   0  0.2388000E-02  0.5952117E+03  0.7818609E-02  0.9915390E-01
        3   -1    0    0  501    0  0.00000000000E+00  0.00000000000E+00  0.45215568038E+03  0.45215569166E+03  0.10100000352E+00 0. -1.
       -3   -1    0    0    0  501  0.00000000000E+00  0.00000000000E+00 -0.19588215751E+03  0.19588218355E+03  0.10100000352E+00 0.  1.
    10030    2    1    2    0    0  0.00000000000E+00  0.00000000000E+00  0.25627352287E+03  0.64803787522E+03  0.59521170115E+03 0.  0.
        4    1    3    3  502    0  0.26167749760E+03 -0.50366764806E+02 -0.16120629889E+02  0.26697080618E+03  0.12699999809E+01 0.  1.
       -4    1    3    3    0  502 -0.26167749760E+03  0.50366764806E+02  0.27239415276E+03  0.38106706903E+03  0.12699999809E+01 0. -1.
</event>
<event>
 5   0  0.3651984E-02  0.5876687E+03  0.7818609E-02  0.9931325E-01
        1   -1    0    0  501    0  0.00000000000E+00  0.00000000000E+00  0.56264644883E+03  0.56264644886E+03  0.50400001928E-02 0. -1.
       -1   -1    0    0    0  501  0.00000000000E+00  0.00000000000E+00 -0.15345092136E+03  0.15345092145E+03  0.50400001928E-02 0.  1.
    10030    2    1    2    0    0  0.00000000000E+00  0.00000000000E+00  0.40919552747E+03  0.71609737030E+03  0.58766866860E+03 0.  0.
        1    1    3    3  502    0  0.26051449300E+03 -0.13250887044E+03  0.24140116456E+03  0.37907904727E+03  0.50400001928E-02 0. -1.
       -1    1    3    3    0  502 -0.26051449300E+03  0.13250887044E+03  0.16779436291E+03  0.33701832303E+03  0.50400001928E-02 0.  1.
</event>
<event>
 5   0  0.6007360E-02  0.6185689E+03  0.7818609E-02  0.9867613E-01
        2   -1    0    0  501    0  0.00000000000E+00  0.00000000000E+00  0.59247007902E+03  0.59247007902E+03  0.25500000920E-02 0. -1.
       -2   -1    0    0    0  501  0.00000000000E+00  0.00000000000E+00 -0.16145437083E+03  0.16145437085E+03  0.25500000920E-02 0.  1.
    10030    2    1    2    0    0  0.00000000000E+00  0.00000000000E+00  0.43101570819E+03  0.75392444987E+03  0.61856894151E+03 0.  0.
        4    1    3    3  502    0 -0.15241909538E+03 -0.40744254230E+02 -0.10871577675E+03  0.19160482223E+03  0.12699999809E+01 0.  1.
       -4    1    3    3    0  502  0.15241909538E+03  0.40744254230E+02  0.53973148494E+03  0.56231962764E+03  0.12699999809E+01 0. -1.
</event>
<event>
 5   0  0.5935451E-02  0.6041470E+03  0.7818609E-02  0.9896840E-01
       -2   -1    0    0    0  501  0.00000000000E+00  0.00000000000E+00  0.83009664640E+02  0.83009664679E+02  0.25500000920E-02 0.  1.
        2   -1    0    0  501    0  0.00000000000E+00  0.00000000000E+00 -0.10992502857E+04  0.10992502857E+04  0.25500000920E-02 0. -1.
    10030    2    1    2    0    0  0.00000000000E+00  0.00000000000E+00 -0.10162406211E+04  0.11822599504E+04  0.60414699403E+03 0.  0.
        3    1    3    3  502    0 -0.17366024803E+03 -0.23630393312E+03 -0.64992467034E+03  0.71302140071E+03  0.10100000352E+00 0.  1.
       -3    1    3    3    0  502  0.17366024803E+03  0.23630393312E+03 -0.36631595077E+03  0.46923854972E+03  0.10100000352E+00 0. -1.
</event>
<event>
 5   0  0.5755078E-02  0.5976611E+03  0.7818609E-02  0.9910270E-01
       -2   -1    0    0    0  501  0.00000000000E+00  0.00000000000E+00  0.38154170263E+02  0.38154170348E+02  0.25500000920E-02 0.  1.
        2   -1    0    0  501    0  0.00000000000E+00  0.00000000000E+00 -0.23404962697E+04  0.23404962697E+04  0.25500000920E-02 0. -1.
    10030    2    1    2    0    0  0.00000000000E+00  0.00000000000E+00 -0.23023420995E+04  0.23786504401E+04  0.59766108549E+03 0.  0.
        2    1    3    3  502    0 -0.96199321408E+02  0.35778035534E+02 -0.22681452826E+04  0.22704663398E+04  0.25500000920E-02 0. -1.
       -2    1    3    3    0  502  0.96199321408E+02 -0.35778035534E+02 -0.34196816918E+02  0.10818410031E+03  0.25500000920E-02 0.  1.
</event>
<event>
 5   0  0.5755078E-02  0.6052837E+03  0.7818609E-02  0.9894504E-01
       -2   -1    0    0    0  501  0.00000000000E+00  0.00000000000E+00  0.22398459762E+03  0.22398459764E+03  0.25500000920E-02 0.  1.
        2   -1    0    0  501    0  0.00000000000E+00  0.00000000000E+00 -0.40892141975E+03  0.40892141975E+03  0.25500000920E-02 0. -1.
    10030    2    1    2    0    0  0.00000000000E+00  0.00000000000E+00 -0.18493682212E+03  0.63290601739E+03  0.60528373402E+03 0.  0.
        2    1    3    3  502    0 -0.27000046022E+03  0.10065176465E+03 -0.18921693154E+03  0.34472318378E+03  0.25500000920E-02 0.  1.
       -2    1    3    3    0  502  0.27000046022E+03 -0.10065176465E+03  0.42801094148E+01  0.28818283361E+03  0.25500000920E-02 0. -1.
</event>
<event>
 5   0  0.6007360E-02  0.6042177E+03  0.7818609E-02  0.9896694E-01
       -2   -1    0    0    0  501  0.00000000000E+00  0.00000000000E+00  0.19356763500E+03  0.19356763501E+03  0.25500000920E-02 0.  1.
        2   -1    0    0  501    0  0.00000000000E+00  0.00000000000E+00 -0.47151355021E+03  0.47151355022E+03  0.25500000920E-02 0. -1.
    10030    2    1    2    0    0  0.00000000000E+00  0.00000000000E+00 -0.27794591521E+03  0.66508118523E+03  0.60421771835E+03 0.  0.
        4    1    3    3  502    0 -0.31518964373E+02  0.12799803513E+02 -0.46939559730E+03  0.47062843067E+03  0.12699999809E+01 0. -1.
       -4    1    3    3    0  502  0.31518964373E+02 -0.12799803513E+02  0.19144968209E+03  0.19445275456E+03  0.12699999809E+01 0.  1.
</event>
<event>
 5   0  0.5999117E-02  0.6144371E+03  0.7818609E-02  0.9875898E-01
        2   -1    0    0  501    0  0.00000000000E+00  0.00000000000E+00  0.85785528058E+03  0.85785528058E+03  0.25500000920E-02 0.  1.
       -2   -1    0    0    0  501  0.00000000000E+00  0.00000000000E+00 -0.11002232202E+03  0.11002232205E+03  0.25500000920E-02 0. -1.
    10030    2    1    2    0    0  0.00000000000E+00  0.00000000000E+00  0.74783295856E+03  0.96787760264E+03  0.61443707553E+03 0.  0.
        5    1    3    3  502    0  0.13196688620E+03 -0.26802333523E+03  0.48651347861E+03  0.57093714378E+03  0.46999998093E+01 0.  1.
       -5    1    3    3    0  502 -0.13196688620E+03  0.26802333523E+03  0.26131947994E+03  0.39694045886E+03  0.46999998093E+01 0. -1.
</event>
<event>
 5   0  0.5999117E-02  0.5959259E+03  0.7818609E-02  0.9913895E-01
       -2   -1    0    0    0  501  0.00000000000E+00  0.00000000000E+00  0.73886247978E+02  0.73886248022E+02  0.25500000920E-02 0. -1.
        2   -1    0    0  501    0  0.00000000000E+00  0.00000000000E+00 -0.12016025852E+04  0.12016025852E+04  0.25500000920E-02 0.  1.
    10030    2    1    2    0    0  0.00000000000E+00  0.00000000000E+00 -0.11277163372E+04  0.12754888332E+04  0.59592585650E+03 0.  0.
        5    1    3    3  502    0 -0.29714403975E+03  0.19693859139E+02 -0.58268692799E+03  0.65439175919E+03  0.46999998093E+01 0. -1.
       -5    1    3    3    0  502  0.29714403975E+03 -0.19693859139E+02 -0.54502940925E+03  0.62109707405E+03  0.46999998093E+01 0.  1.
</event>
<event>
 5   0  0.5935451E-02  0.5877419E+03  0.7818609E-02  0.9931169E-01
        2   -1    0    0  501    0  0.00000000000E+00  0.00000000000E+00  0.14701394917E+03  0.14701394920E+03  0.25500000920E-02 0.  1.
       -2   -1    0    0    0  501  0.00000000000E+00  0.00000000000E+00 -0.58742809003E+03  0.58742809004E+03  0.25500000920E-02 0. -1.
    10030    2    1    2    0    0  0.00000000000E+00  0.00000000000E+00 -0.44041414086E+03  0.73444203924E+03  0.58774185960E+03 0.  0.
        3    1    3    3  502    0 -0.15475790998E+03  0.19349945211E+03 -0.41765989193E+03  0.48562520959E+03  0.10100000352E+00 0. -1.
       -3    1    3    3    0  502  0.15475790998E+03 -0.19349945211E+03 -0.22754248930E+02  0.24881682964E+03  0.10100000352E+00 0.  1.
</event>
<event>
 5   0  0.3478183E-02  0.5967426E+03  0.7818609E-02  0.9912187E-01
        1   -1    0    0  501    0  0.00000000000E+00  0.00000000000E+00  0.72663410850E+03  0.72663410852E+03  0.50400001928E-02 0.  1.
       -1   -1    0    0    0  501  0.00000000000E+00  0.00000000000E+00 -0.12251756964E+03  0.12251756974E+03  0.50400001928E-02 0. -1.
    10030    2    1    2    0    0  0.00000000000E+00  0.00000000000E+00  0.60411653886E+03  0.84915167826E+03  0.59674264149E+03 0.  0.
        4    1    3    3  502    0 -0.74100038354E+02 -0.18571497215E+03 -0.13069417515E+02  0.20038285640E+03  0.12699999809E+01 0. -1.
       -4    1    3    3    0  502  0.74100038354E+02  0.18571497215E+03  0.61718595638E+03  0.64876882186E+03  0.12699999809E+01 0.  1.
</event>
<event>
 5   0  0.3651984E-02  0.6095058E+03  0.7818609E-02  0.9885878E-01
       -1   -1    0    0    0  501  0.00000000000E+00  0.00000000000E+00  0.19200190031E+03  0.19200190038E+03  0.50400001928E-02 0. -1.
        1   -1    0    0  501    0  0.00000000000E+00  0.00000000000E+00 -0.48371573044E+03  0.48371573047E+03  0.50400001928E-02 0.  1.
    10030    2    1    2    0    0  0.00000000000E+00  0.00000000000E+00 -0.29171383013E+03  0.67571763085E+03  0.60950583094E+03 0.  0.
        1    1    3    3  502    0 -0.15808779517E+02 -0.21443093985E+02  0.19070850594E+03  0.19256027123E+03  0.50400001928E-02 0. -1.
       -1    1    3    3    0  502  0.15808779517E+02  0.21443093985E+02 -0.48242233608E+03  0.48315735963E+03  0.50400001928E-02 0.  1.
</event>
<event>
 5   0  0.5755078E-02  0.6009073E+03  0.7818609E-02  0.9903525E-01
        2   -1    0    0  501    0  0.00000000000E+00  0.00000000000E+00  0.11885550084E+04  0.11885550084E+04  0.25500000920E-02 0. -1.
       -2   -1    0    0    0  501  0.00000000000E+00  0.00000000000E+00 -0.75951382833E+02  0.75951382876E+02  0.25500000920E-02 0.  1.
    10030    2    1    2    0    0  0.00000000000E+00  0.00000000000E+00  0.11126036255E+04  0.12645063912E+04  0.60090730229E+03 0.  0.
        2    1    3    3  502    0 -0.26393018063E+03  0.13498153767E+03  0.65924716380E+03  0.72283191597E+03  0.25500000920E-02 0. -1.
       -2    1    3    3    0  502  0.26393018063E+03 -0.13498153767E+03  0.45335646172E+03  0.54167447526E+03  0.25500000920E-02 0.  1.
</event>
<event>
 5   0  0.6007360E-02  0.6020568E+03  0.7818609E-02  0.9901148E-01
        2   -1    0    0  501    0  0.00000000000E+00  0.00000000000E+00  0.79203508448E+03  0.79203508449E+03  0.25500000920E-02 0. -1.
       -2   -1    0    0    0  501  0.00000000000E+00  0.00000000000E+00 -0.11441171240E+03  0.11441171243E+03  0.25500000920E-02 0.  1.
    10030    2    1    2    0    0  0.00000000000E+00  0.00000000000E+00  0.67762337208E+03  0.90644679692E+03  0.60205677577E+03 0.  0.
        4    1    3    3  502    0  0.39659316019E+01 -0.22836224500E+03  0.43581241926E+02  0.23252092617E+03  0.12699999809E+01 0.  1.
       -4    1    3    3    0  502 -0.39659316019E+01  0.22836224500E+03  0.63404213015E+03  0.67392587075E+03  0.12699999809E+01 0. -1.
</event>
<event>
 5   0  0.3703280E-02  0.6026217E+03  0.7818609E-02  0.9899982E-01
       -1   -1    0    0    0  501  0.00000000000E+00  0.00000000000E+00  0.99964271724E+02  0.99964271851E+02  0.50400001928E-02 0. -1.
        1   -1    0    0  501    0  0.00000000000E+00  0.00000000000E+00 -0.90820684742E+03  0.90820684744E+03  0.50400001928E-02 0.  1.
    10030    2    1    2    0    0  0.00000000000E+00  0.00000000000E+00 -0.80824257570E+03  0.10081711193E+04  0.60262172595E+03 0.  0.
        5    1    3    3  502    0  0.27015806978E+03  0.33251048783E+02 -0.62015627803E+03  0.67727905186E+03  0.46999998093E+01 0.  1.
       -5    1    3    3    0  502 -0.27015806978E+03 -0.33251048783E+02 -0.18808629767E+03  0.33089206742E+03  0.46999998093E+01 0. -1.
</event>
<event>
 5   0  0.2388000E-02  0.5970996E+03  0.7818609E-02  0.9911442E-01
        3   -1    0    0  501    0  0.00000000000E+00  0.00000000000E+00  0.19375109118E+03  0.19375111751E+03  0.10100000352E+00 0.  1.
       -3   -1    0    0    0  501  0.00000000000E+00  0.00000000000E+00 -0.46003336631E+03  0.46003337739E+03  0.10100000352E+00 0. -1.
    10030    2    1    2    0    0  0.00000000000E+00  0.00000000000E+00 -0.26628227512E+03  0.65378449490E+03  0.59709958611E+03 0.  0.
        2    1    3    3  502    0  0.91224565774E+01  0.26926420223E+03  0.76996480810E+01  0.26952868939E+03  0.25500000920E-02 0.  1.
       -2    1    3    3    0  502 -0.91224565774E+01 -0.26926420223E+03 -0.27398192320E+03  0.38425580551E+03  0.25500000920E-02 0. -1.
</event>
<event>
 5   0  0.5872632E-02  0.6084925E+03  0.7818609E-02  0.9887942E-01
       -2   -1    0    0    0  501  0.00000000000E+00  0.00000000000E+00  0.69777342674E+02  0.69777342721E+02  0.25500000920E-02 0. -1.
        2   -1    0    0  501    0  0.00000000000E+00  0.00000000000E+00 -0.13265880137E+04  0.13265880137E+04  0.25500000920E-02 0.  1.
    10030    2    1    2    0    0  0.00000000000E+00  0.00000000000E+00 -0.12568106710E+04  0.13963653564E+04  0.60849251910E+03 0.  0.
        1    1    3    3  502    0  0.17817570608E+03  0.18821760058E+03 -0.99408745681E+03  0.10273180224E+04  0.50400001928E-02 0.  1.
       -1    1    3    3    0  502 -0.17817570608E+03 -0.18821760058E+03 -0.26272321417E+03  0.36904733395E+03  0.50400001928E-02 0. -1.
</event>
<event>
 5   0  0.2388000E-02  0.5966272E+03  0.7818609E-02  0.9912428E-01
        3   -1    0    0  501    0  0.00000000000E+00  0.00000000000E+00  0.61603938537E+03  0.61603939365E+03  0.10100000352E+00 0.  1.
       -3   -1    0    0    0  501  0.00000000000E+00  0.00000000000E+00 -0.14445664623E+03  0.14445668154E+03  0.10100000352E+00 0. -1.
    10030    2    1    2    0    0  0.00000000000E+00  0.00000000000E+00  0.47158273914E+03  0.76049607519E+03  0.59662718722E+03 0.  0.
        5    1    3    3  502    0 -0.14865775759E+03 -0.51241971701E+02 -0.87288846629E+02  0.17990636814E+03  0.46999998093E+01 0. -1.
       -5    1    3    3    0  502  0.14865775759E+03  0.51241971701E+02  0.55887158577E+03  0.58058970705E+03  0.46999998093E+01 0.  1.
</event>
<event>
 5   0  0.3703280E-02  0.6001074E+03  0.7818609E-02  0.9905183E-01
       -1   -1    0    0    0  501  0.00000000000E+00  0.00000000000E+00  0.10985775382E+03  0.10985775394E+03  0.50400001928E-02 0. -1.
        1   -1    0    0  501    0  0.00000000000E+00  0.00000000000E+00 -0.81953454282E+03  0.81953454284E+03  0.50400001928E-02 0.  1.
    10030    2    1    2    0    0  0.00000000000E+00  0.00000000000E+00 -0.70967678900E+03  0.92939229678E+03  0.60010740411E+03 0.  0.
        5    1    3    3  502    0  0.60948307193E+02  0.24326361139E+03 -0.99802716328E+02  0.26995287174E+03  0.46999998093E+01 0. -1.
       -5    1    3    3    0  502 -0.60948307193E+02 -0.24326361139E+03 -0.60987407267E+03  0.65943942503E+03  0.46999998093E+01 0.  1.
</event>
<event>
 5   0  0.3478183E-02  0.6001023E+03  0.7818609E-02  0.9905194E-01
        1   -1    0    0  501    0  0.00000000000E+00  0.00000000000E+00  0.35312444781E+03  0.35312444785E+03  0.50400001928E-02 0. -1.
       -1   -1    0    0    0  501  0.00000000000E+00  0.00000000000E+00 -0.25495453127E+03  0.25495453132E+03  0.50400001928E-02 0.  1.
    10030    2    1    2    0    0  0.00000000000E+00  0.00000000000E+00  0.98169916545E+02  0.60807897917E+03  0.60010225162E+03 0.  0.
        4    1    3    3  502    0 -0.13128530698E+03  0.64658309776E+02  0.31450668556E+03  0.34688989177E+03  0.12699999809E+01 0. -1.
       -4    1    3    3    0  502  0.13128530698E+03 -0.64658309776E+02 -0.21633676901E+03  0.26118908740E+03  0.12699999809E+01 0.  1.
</event>
<event>
 5   0  0.3478183E-02  0.6020828E+03  0.7818609E-02  0.9901094E-01
       -1   -1    0    0    0  501  0.00000000000E+00  0.00000000000E+00  0.25822033289E+03  0.25822033294E+03  0.50400001928E-02 0. -1.
        1   -1    0    0  501    0  0.00000000000E+00  0.00000000000E+00 -0.35096355692E+03  0.35096355695E+03  0.50400001928E-02 0.  1.
    10030    2    1    2    0    0  0.00000000000E+00  0.00000000000E+00 -0.92743224030E+02  0.60918388989E+03  0.60208280668E+03 0.  0.
        4    1    3    3  502    0 -0.93034070399E+02  0.36335175945E+01 -0.33602723215E+03  0.34868962467E+03  0.12699999809E+01 0.  1.
       -4    1    3    3    0  502  0.93034070399E+02 -0.36335175945E+01  0.24328400812E+03  0.26049426522E+03  0.12699999809E+01 0. -1.
</event>
<event>
 5   0  0.3651984E-02  0.6008724E+03  0.7818609E-02  0.9903598E-01
       -1   -1    0    0    0  501  0.00000000000E+00  0.00000000000E+00  0.40234580244E+02  0.40234580560E+02  0.50400001928E-02 0. -1.
        1   -1    0    0  501    0  0.00000000000E+00  0.00000000000E+00 -0.22433910284E+04  0.22433910284E+04  0.50400001928E-02 0.  1.
    10030    2    1    2    0    0  0.00000000000E+00  0.00000000000E+00 -0.22031564481E+04  0.22836256089E+04  0.60087235489E+03 0.  0.
        1    1    3    3  502    0 -0.10047226663E+03 -0.22862916662E+02 -0.21741357546E+04  0.21765761344E+04  0.50400001928E-02 0.  1.
       -1    1    3    3    0  502  0.10047226663E+03  0.22862916662E+02 -0.29020693509E+02  0.10704947453E+03  0.50400001928E-02 0. -1.
</event>
<event>
 5   0  0.3651984E-02  0.6021492E+03  0.7818609E-02  0.9900957E-01
       -1   -1    0    0    0  501  0.00000000000E+00  0.00000000000E+00  0.93785273892E+02  0.93785274027E+02  0.50400001928E-02 0. -1.
        1   -1    0    0  501    0  0.00000000000E+00  0.00000000000E+00 -0.96652597621E+03  0.96652597623E+03  0.50400001928E-02 0.  1.
    10030    2    1    2    0    0  0.00000000000E+00  0.00000000000E+00 -0.87274070232E+03  0.10603112503E+04  0.60214916252E+03 0.  0.
        1    1    3    3  502    0 -0.27695239768E+03  0.11421061761E+03 -0.48917343549E+03  0.57361776975E+03  0.50400001928E-02 0. -1.
       -1    1    3    3    0  502  0.27695239768E+03 -0.11421061761E+03 -0.38356726683E+03  0.48669348050E+03  0.50400001928E-02 0.  1.
</event>
<event>
 5   0  0.2388000E-02  0.6010273E+03  0.7818609E-02  0.9903277E-01
       -4   -1    0    0    0  501  0.00000000000E+00  0.00000000000E+00  0.26643423257E+03  0.26643725937E+03  0.12699999809E+01 0.  1.
        4   -1    0    0  501    0  0.00000000000E+00  0.00000000000E+00 -0.33894597907E+03  0.33894835835E+03  0.12699999809E+01 0. -1.
    10030    2    1    2    0    0  0.00000000000E+00  0.00000000000E+00 -0.72511746504E+02  0.60538561772E+03  0.60102728121E+03 0.  0.
        4    1    3    3  502    0  0.33713721649E+01  0.28808087610E+03 -0.12234422564E+03  0.31300428076E+03  0.12699999809E+01 0. -1.
       -4    1    3    3    0  502 -0.33713721649E+01 -0.28808087610E+03  0.49832479132E+02  0.29238133696E+03  0.12699999809E+01 0.  1.
</event>
<event>
 5   0  0.3703280E-02  0.6007172E+03  0.7818609E-02  0.9903919E-01
        1   -1    0    0  501    0  0.00000000000E+00  0.00000000000E+00  0.61729234626E+03  0.61729234628E+03  0.50400001928E-02 0. -1.
       -1   -1    0    0    0  501  0.00000000000E+00  0.00000000000E+00 -0.14614678698E+03  0.14614678707E+03  0.50400001928E-02 0.  1.
    10030    2    1    2    0    0  0.00000000000E+00  0.00000000000E+00  0.47114555927E+03  0.76343913334E+03  0.60071721492E+03 0.  0.
        5    1    3    3  502    0  0.34436126669E+02 -0.29301556692E+03  0.30689203365E+03  0.42573322585E+03  0.46999998093E+01 0. -1.
       -5    1    3    3    0  502 -0.34436126669E+02  0.29301556692E+03  0.16425352563E+03  0.33770590750E+03  0.46999998093E+01 0.  1.
</event>
<event>
 5   0  0.5935451E-02  0.5922160E+03  0.7818609E-02  0.9921688E-01
       -2   -1    0    0    0  501  0.00000000000E+00  0.00000000000E+00  0.51378199041E+02  0.51378199104E+02  0.25500000920E-02 0.  1.
        2   -1    0    0  501    0  0.00000000000E+00  0.00000000000E+00 -0.17065592538E+04  0.17065592538E+04  0.25500000920E-02 0. -1.
    10030    2    1    2    0    0  0.00000000000E+00  0.00000000000E+00 -0.16551810547E+04  0.17579374529E+04  0.59221597774E+03 0.  0.
        3    1    3    3  502    0  0.14320533431E+03  0.15981036662E+02 -0.59715078645E+02  0.15597776164E+03  0.10100000352E+00 0.  1.
       -3    1    3    3    0  502 -0.14320533431E+03 -0.15981036662E+02 -0.15954659761E+04  0.16019596912E+04  0.10100000352E+00 0. -1.
</event>
<event>
 5   0  0.3640827E-02  0.5977956E+03  0.7818609E-02  0.9909990E-01
        1   -1    0    0  501    0  0.00000000000E+00  0.00000000000E+00  0.92411829809E+03  0.92411829810E+03  0.50400001928E-02 0. -1.
       -1   -1    0    0    0  501  0.00000000000E+00  0.00000000000E+00 -0.96675808451E+02  0.96675808583E+02  0.50400001928E-02 0.  1.
    10030    2    1    2    0    0  0.00000000000E+00  0.00000000000E+00  0.82744248964E+03  0.10207941067E+04  0.59779556253E+03 0.  0.
        3    1    3    3  502    0  0.23063125463E+03 -0.71835577724E+02  0.11312228076E+03  0.26673542405E+03  0.10100000352E+00 0.  1.
       -3    1    3    3    0  502 -0.23063125463E+03  0.71835577724E+02  0.71432020888E+03  0.75405868263E+03  0.10100000352E+00 0. -1.
</event>
<event>
 5   0  0.2388000E-02  0.5919221E+03  0.7818609E-02  0.9922308E-01
        3   -1    0    0  501    0  0.00000000000E+00  0.00000000000E+00  0.10601303739E+03  0.10601308550E+03  0.10100000352E+00 0.  1.
       -3   -1    0    0    0  501  0.00000000000E+00  0.00000000000E+00 -0.82624667858E+03  0.82624668475E+03  0.10100000352E+00 0. -1.
    10030    2    1    2    0    0  0.00000000000E+00  0.00000000000E+00 -0.72023364119E+03  0.93225977026E+03  0.59192210749E+03 0.  0.
        3    1    3    3  502    0  0.26833325619E+03 -0.84300288934E+02 -0.21505136328E+03  0.35405702103E+03  0.10100000352E+00 0.  1.
       -3    1    3    3    0  502 -0.26833325619E+03  0.84300288934E+02 -0.50518227791E+03  0.57820274922E+03  0.10100000352E+00 0. -1.
</event>
<event>
 5   0  0.2388000E-02  0.6083529E+03  0.7818609E-02  0.9888226E-01
        4   -1    0    0  501    0  0.00000000000E+00  0.00000000000E+00  0.62532170832E+03  0.62532299797E+03  0.12699999809E+01 0. -1.
       -4   -1    0    0    0  501  0.00000000000E+00  0.00000000000E+00 -0.14795695484E+03  0.14796240532E+03  0.12699999809E+01 0.  1.
    10030    2    1    2    0    0  0.00000000000E+00  0.00000000000E+00  0.47736475347E+03  0.77328540329E+03  0.60835286395E+03 0.  0.
        3    1    3    3  502    0  0.73576270176E+02 -0.16275514405E+03  0.55164633404E+03  0.57984169607E+03  0.10100000352E+00 0. -1.
       -3    1    3    3    0  502 -0.73576270176E+02  0.16275514405E+03 -0.74281580561E+02  0.19344370721E+03  0.10100000352E+00 0.  1.
</event>
<event>
 5   0  0.5999117E-02  0.5996244E+03  0.7818609E-02  0.9906186E-01
        2   -1    0    0  501    0  0.00000000000E+00  0.00000000000E+00  0.13089563516E+03  0.13089563519E+03  0.25500000920E-02 0. -1.
       -2   -1    0    0    0  501  0.00000000000E+00  0.00000000000E+00 -0.68671009875E+03  0.68671009876E+03  0.25500000920E-02 0.  1.
    10030    2    1    2    0    0  0.00000000000E+00  0.00000000000E+00 -0.55581446359E+03  0.81760573394E+03  0.59962439763E+03 0.  0.
        5    1    3    3  502    0 -0.19539315192E+03 -0.13671470973E+03 -0.52558921588E+03  0.57717892331E+03  0.46999998093E+01 0.  1.
       -5    1    3    3    0  502  0.19539315192E+03  0.13671470973E+03 -0.30225247717E+02  0.24042681063E+03  0.46999998093E+01 0. -1.
</event>
<event>
 5   0  0.5935451E-02  0.6004895E+03  0.7818609E-02  0.9904391E-01
        2   -1    0    0  501    0  0.00000000000E+00  0.00000000000E+00  0.33962173222E+03  0.33962173223E+03  0.25500000920E-02 0. -1.
       -2   -1    0    0    0  501  0.00000000000E+00  0.00000000000E+00 -0.26543329815E+03  0.26543329817E+03  0.25500000920E-02 0.  1.
    10030    2    1    2    0    0  0.00000000000E+00  0.00000000000E+00  0.74188434063E+02  0.60505503039E+03  0.60048952202E+03 0.  0.
        3    1    3    3  502    0  0.99025080681E+02  0.24169354315E+03 -0.11210307337E+03  0.28423378523E+03  0.10100000352E+00 0.  1.
       -3    1    3    3    0  502 -0.99025080681E+02 -0.24169354315E+03  0.18629150743E+03  0.32082124516E+03  0.10100000352E+00 0. -1.
</event>
<event>
 5   0  0.3651984E-02  0.6020147E+03  0.7818609E-02  0.9901235E-01
       -1   -1    0    0    0  501  0.00000000000E+00  0.00000000000E+00  0.55296807058E+03  0.55296807060E+03  0.50400001928E-02 0. -1.
        1   -1    0    0  501    0  0.00000000000E+00  0.00000000000E+00 -0.16385290595E+03  0.16385290602E+03  0.50400001928E-02 0.  1.
    10030    2    1    2    0    0  0.00000000000E+00  0.00000000000E+00  0.38911516463E+03  0.71682097662E+03  0.60201470180E+03 0.  0.
        1    1    3    3  502    0 -0.14702523511E+03  0.26134133136E+03  0.22582832101E+03  0.37538532447E+03  0.50400001928E-02 0.  1.
       -1    1    3    3    0  502  0.14702523511E+03 -0.26134133136E+03  0.16328684362E+03  0.34143565215E+03  0.50400001928E-02 0. -1.
</event>
<event>
 5   0  0.6007360E-02  0.6036068E+03  0.7818609E-02  0.9897951E-01
        2   -1    0    0  501    0  0.00000000000E+00  0.00000000000E+00  0.25862292123E+03  0.25862292124E+03  0.25500000920E-02 0.  1.
       -2   -1    0    0    0  501  0.00000000000E+00  0.00000000000E+00 -0.35219344108E+03  0.35219344109E+03  0.25500000920E-02 0. -1.
    10030    2    1    2    0    0  0.00000000000E+00  0.00000000000E+00 -0.93570519852E+02  0.61081636233E+03  0.60360681432E+03 0.  0.
        4    1    3    3  502    0 -0.87818082483E+00 -0.22029654938E+03  0.16196079006E+03  0.27343052369E+03  0.12699999809E+01 0.  1.
       -4    1    3    3    0  502  0.87818082483E+00  0.22029654938E+03 -0.25553130991E+03  0.33738583864E+03  0.12699999809E+01 0. -1.
</event>
<event>
 5   0  0.5872632E-02  0.5961633E+03  0.7818609E-02  0.9913398E-01
        2   -1    0    0  501    0  0.00000000000E+00  0.00000000000E+00  0.21681121492E+04  0.21681121492E+04  0.25500000920E-02 0.  1.
       -2   -1    0    0    0  501  0.00000000000E+00  0.00000000000E+00 -0.40981579401E+02  0.40981579480E+02  0.25500000920E-02 0. -1.
    10030    2    1    2    0    0  0.00000000000E+00  0.00000000000E+00  0.21271305698E+04  0.22090937287E+04  0.59616326717E+03 0.  0.
        1    1    3    3  502    0  0.40743656520E+01 -0.29301247500E+03  0.12658386931E+04  0.12993153998E+04  0.50400001928E-02 0. -1.
       -1    1    3    3    0  502 -0.40743656520E+01  0.29301247500E+03  0.86129187664E+03  0.90977832891E+03  0.50400001928E-02 0.  1.
</event>
<event>
 5   0  0.5935451E-02  0.6001809E+03  0.7818609E-02  0.9905031E-01
        2   -1    0    0  501    0  0.00000000000E+00  0.00000000000E+00  0.33587409408E+03  0.33587409409E+03  0.25500000920E-02 0. -1.
       -2   -1    0    0    0  501  0.00000000000E+00  0.00000000000E+00 -0.26811913476E+03  0.26811913477E+03  0.25500000920E-02 0.  1.
    10030    2    1    2    0    0  0.00000000000E+00  0.00000000000E+00  0.67754959323E+02  0.60399322886E+03  0.60018087773E+03 0.  0.
        3    1    3    3  502    0  0.18582269722E+03 -0.94973474236E+02  0.25089566337E+03  0.32634135458E+03  0.10100000352E+00 0. -1.
       -3    1    3    3    0  502 -0.18582269722E+03  0.94973474236E+02 -0.18314070405E+03  0.27765187428E+03  0.10100000352E+00 0.  1.
</event>
<event>
 5   0  0.3703280E-02  0.5983602E+03  0.7818609E-02  0.9908814E-01
       -1   -1    0    0    0  501  0.00000000000E+00  0.00000000000E+00  0.20738586102E+03  0.20738586108E+03  0.50400001928E-02 0. -1.
        1   -1    0    0  501    0  0.00000000000E+00  0.00000000000E+00 -0.43160473894E+03  0.43160473897E+03  0.50400001928E-02 0.  1.
    10030    2    1    2    0    0  0.00000000000E+00  0.00000000000E+00 -0.22421887793E+03  0.63899060005E+03  0.59836016055E+03 0.  0.
        5    1    3    3  502    0 -0.13157306123E+03  0.23998150365E+03 -0.24107409126E+03  0.36474840645E+03  0.46999998093E+01 0.  1.
       -5    1    3    3    0  502  0.13157306123E+03 -0.23998150365E+03  0.16855213330E+02  0.27424219360E+03  0.46999998093E+01 0. -1.
</event>
<event>
 5   0  0.3767635E-02  0.5977706E+03  0.7818609E-02  0.9910042E-01
        1   -1    0    0  501    0  0.00000000000E+00  0.00000000000E+00  0.11909532546E+03  0.11909532557E+03  0.50400001928E-02 0. -1.
       -1   -1    0    0    0  501  0.00000000000E+00  0.00000000000E+00 -0.75009172925E+03  0.75009172927E+03  0.50400001928E-02 0.  1.
    10030    2    1    2    0    0  0.00000000000E+00  0.00000000000E+00 -0.63099640379E+03  0.86918705483E+03  0.59777058701E+03 0.  0.
        2    1    3    3  502    0 -0.28779025014E+03 -0.64290919281E+02 -0.38637268235E+03  0.48604567692E+03  0.25500000920E-02 0.  1.
       -2    1    3    3    0  502  0.28779025014E+03  0.64290919281E+02 -0.24462372144E+03  0.38314137792E+03  0.25500000920E-02 0. -1.
</event>
<event>
 5   0  0.3651984E-02  0.5991094E+03  0.7818609E-02  0.9907255E-01
        1   -1    0    0  501    0  0.00000000000E+00  0.00000000000E+00  0.21623542160E+03  0.21623542166E+03  0.50400001928E-02 0. -1.
       -1   -1    0    0    0  501  0.00000000000E+00  0.00000000000E+00 -0.41497839024E+03  0.41497839027E+03  0.50400001928E-02 0.  1.
    10030    2    1    2    0    0  0.00000000000E+00  0.00000000000E+00 -0.19874296864E+03  0.63121381193E+03  0.59910942973E+03 0.  0.
        1    1    3    3  502    0  0.52543400108E+02 -0.13863088404E+03  0.17487232613E+03  0.22925893957E+03  0.50400001928E-02 0. -1.
       -1    1    3    3    0  502 -0.52543400108E+02  0.13863088404E+03 -0.37361529476E+03  0.40195487236E+03  0.50400001928E-02 0.  1.
</event>
<event>
 5   0  0.5755078E-02  0.5990074E+03  0.7818609E-02  0.9907467E-01
       -2   -1    0    0    0  501  0.00000000000E+00  0.00000000000E+00  0.34562013083E+03  0.34562013084E+03  0.25500000920E-02 0. -1.
        2   -1    0    0  501    0  0.00000000000E+00  0.00000000000E+00 -0.25954066774E+03  0.25954066775E+03  0.25500000920E-02 0.  1.
    10030    2    1    2    0    0  0.00000000000E+00  0.00000000000E+00  0.86079463089E+02  0.60516079859E+03  0.59900744419E+03 0.  0.
        2    1    3    3  502    0 -0.28647234577E+03  0.75137756936E+02 -0.20323785941E+01  0.29616923874E+03  0.25500000920E-02 0. -1.
       -2    1    3    3    0  502  0.28647234577E+03 -0.75137756936E+02  0.88111841683E+02  0.30899155985E+03  0.25500000920E-02 0.  1.
</event>
<event>
 5   0  0.6007360E-02  0.5994889E+03  0.7818609E-02  0.9906467E-01
       -2   -1    0    0    0  501  0.00000000000E+00  0.00000000000E+00  0.52078499786E+03  0.52078499787E+03  0.25500000920E-02 0. -1.
        2   -1    0    0  501    0  0.00000000000E+00  0.00000000000E+00 -0.17252172487E+03  0.17252172489E+03  0.25500000920E-02 0.  1.
    10030    2    1    2    0    0  0.00000000000E+00  0.00000000000E+00  0.34826327299E+03  0.69330672276E+03  0.59948886938E+03 0.  0.
        4    1    3    3  502    0 -0.28213943173E+03  0.62617297190E+02  0.82180874321E+02  0.30046446354E+03  0.12699999809E+01 0. -1.
       -4    1    3    3    0  502  0.28213943173E+03 -0.62617297190E+02  0.26608239867E+03  0.39284225922E+03  0.12699999809E+01 0.  1.
</event>
<event>
 5   0  0.3767635E-02  0.6020085E+03  0.7818609E-02  0.9901248E-01
       -1   -1    0    0    0  501  0.00000000000E+00  0.00000000000E+00  0.89265720343E+02  0.89265720486E+02  0.50400001928E-02 0. -1.
        1   -1    0    0  501    0  0.00000000000E+00  0.00000000000E+00 -0.10149872681E+04  0.10149872681E+04  0.50400001928E-02 0.  1.
    10030    2    1    2    0    0  0.00000000000E+00  0.00000000000E+00 -0.92572154778E+03  0.11042529886E+04  0.60200853720E+03 0.  0.
        2    1    3    3  502    0 -0.33933475537E+02  0.13126540557E+03 -0.95580652994E+03  0.96537464755E+03  0.25500000920E-02 0.  1.
       -2    1    3    3    0  502  0.33933475537E+02 -0.13126540557E+03  0.30084982156E+02  0.13887834107E+03  0.25500000920E-02 0. -1.
</event>
<event>
 5   0  0.2388000E-02  0.5906448E+03  0.7818609E-02  0.9925007E-01
        3   -1    0    0  501    0  0.00000000000E+00  0.00000000000E+00  0.81975844682E+03  0.81975845304E+03  0.10100000352E+00 0. -1.
       -3   -1    0    0    0  501  0.00000000000E+00  0.00000000000E+00 -0.10639146219E+03  0.10639151013E+03  0.10100000352E+00 0.  1.
    10030    2    1    2    0    0  0.00000000000E+00  0.00000000000E+00  0.71336698463E+03  0.92614996317E+03  0.59064481672E+03 0.  0.
        1    1    3    3  502    0  0.42948338585E+02  0.16425849444E+03 -0.22215828947E+02  0.17122778941E+03  0.50400001928E-02 0.  1.
       -1    1    3    3    0  502 -0.42948338585E+02 -0.16425849444E+03  0.73558281358E+03  0.75492217377E+03  0.50400001928E-02 0. -1.
</event>
<event>
 5   0  0.3640827E-02  0.5743541E+03  0.7818609E-02  0.9960090E-01
       -1   -1    0    0    0  501  0.00000000000E+00  0.00000000000E+00  0.68604995066E+02  0.68604995251E+02  0.50400001928E-02 0. -1.
        1   -1    0    0  501    0  0.00000000000E+00  0.00000000000E+00 -0.12021087591E+04  0.12021087591E+04  0.50400001928E-02 0.  1.
    10030    2    1    2    0    0  0.00000000000E+00  0.00000000000E+00 -0.11335037640E+04  0.12707137543E+04  0.57435412633E+03 0.  0.
        3    1    3    3  502    0 -0.96767202369E+02  0.90839353392E+02 -0.33223117132E+01  0.13276568659E+03  0.10100000352E+00 0. -1.
       -3    1    3    3    0  502  0.96767202369E+02 -0.90839353392E+02 -0.11301814523E+04  0.11379480677E+04  0.10100000352E+00 0.  1.
</event>
<event>
 5   0  0.2388000E-02  0.6001877E+03  0.7818609E-02  0.9905017E-01
       -4   -1    0    0    0  501  0.00000000000E+00  0.00000000000E+00  0.21407811917E+03  0.21408188622E+03  0.12699999809E+01 0.  1.
        4   -1    0    0  501    0  0.00000000000E+00  0.00000000000E+00 -0.42066199272E+03  0.42066390982E+03  0.12699999809E+01 0. -1.
    10030    2    1    2    0    0  0.00000000000E+00  0.00000000000E+00 -0.20658387355E+03  0.63474579604E+03  0.60018774461E+03 0.  0.
        5    1    3    3  502    0  0.79052911422E+02  0.44754134735E+02 -0.40573347090E+03  0.41580528470E+03  0.46999998093E+01 0. -1.
       -5    1    3    3    0  502 -0.79052911422E+02 -0.44754134735E+02  0.19914959735E+03  0.21894051133E+03  0.46999998093E+01 0.  1.
</event>
<event>
 5   0  0.3703280E-02  0.5936723E+03  0.7818609E-02  0.9918622E-01
        1   -1    0    0  501    0  0.00000000000E+00  0.00000000000E+00  0.72975100378E+03  0.72975100379E+03  0.50400001928E-02 0. -1.
       -1   -1    0    0    0  501  0.00000000000E+00  0.00000000000E+00 -0.12074215442E+03  0.12074215452E+03  0.50400001928E-02 0.  1.
    10030    2    1    2    0    0  0.00000000000E+00  0.00000000000E+00  0.60900884936E+03  0.85049315832E+03  0.59367232860E+03 0.  0.
        5    1    3    3  502    0 -0.27303161790E+03 -0.77808142664E+02  0.18052686182E+03  0.33647051769E+03  0.46999998093E+01 0. -1.
       -5    1    3    3    0  502  0.27303161790E+03  0.77808142664E+02  0.42848198754E+03  0.51402264063E+03  0.46999998093E+01 0.  1.
</event>
<event>
 5   0  0.5755078E-02  0.5850607E+03  0.7818609E-02  0.9936894E-01
        2   -1    0    0  501    0  0.00000000000E+00  0.00000000000E+00  0.13912124015E+04  0.13912124015E+04  0.25500000920E-02 0. -1.
       -2   -1    0    0    0  501  0.00000000000E+00  0.00000000000E+00 -0.61510380989E+02  0.61510381042E+02  0.25500000920E-02 0.  1.
    10030    2    1    2    0    0  0.00000000000E+00  0.00000000000E+00  0.13297020205E+04  0.14527227825E+04  0.58506069733E+03 0.  0.
        2    1    3    3  502    0  0.18472639645E+02 -0.26493947237E+03  0.96936234745E+03  0.10050858287E+04  0.25500000920E-02 0. -1.
       -2    1    3    3    0  502 -0.18472639645E+02  0.26493947237E+03  0.36033967303E+03  0.44763695379E+03  0.25500000920E-02 0.  1.
</event>
<event>
 5   0  0.5935451E-02  0.6006585E+03  0.7818609E-02  0.9904041E-01
       -2   -1    0    0    0  501  0.00000000000E+00  0.00000000000E+00  0.63741799624E+02  0.63741799675E+02  0.25500000920E-02 0.  1.
        2   -1    0    0  501    0  0.00000000000E+00  0.00000000000E+00 -0.14150474468E+04  0.14150474468E+04  0.25500000920E-02 0. -1.
    10030    2    1    2    0    0  0.00000000000E+00  0.00000000000E+00 -0.13513056472E+04  0.14787892465E+04  0.60065854144E+03 0.  0.
        3    1    3    3  502    0  0.15459341452E+03  0.20797747094E+03 -0.10493817359E+04  0.10809050791E+04  0.10100000352E+00 0. -1.
       -3    1    3    3    0  502 -0.15459341452E+03 -0.20797747094E+03 -0.30192391127E+03  0.39788416735E+03  0.10100000352E+00 0.  1.
</event>
<event>
 5   0  0.5755078E-02  0.5868286E+03  0.7818609E-02  0.9933116E-01
        2   -1    0    0  501    0  0.00000000000E+00  0.00000000000E+00  0.42356502595E+03  0.42356502596E+03  0.25500000920E-02 0.  1.
       -2   -1    0    0    0  501  0.00000000000E+00  0.00000000000E+00 -0.20325556124E+03  0.20325556126E+03  0.25500000920E-02 0. -1.
    10030    2    1    2    0    0  0.00000000000E+00  0.00000000000E+00  0.22030946471E+03  0.62682058722E+03  0.58682858513E+03 0.  0.
        2    1    3    3  502    0 -0.48059404558E+02 -0.24974652761E+03  0.26644405048E+03  0.36834150793E+03  0.25500000920E-02 0.  1.
       -2    1    3    3    0  502  0.48059404558E+02  0.24974652761E+03 -0.46134585763E+02  0.25847907929E+03  0.25500000920E-02 0. -1.
</event>
<event>
 5   0  0.3640827E-02  0.5654498E+03  0.7818609E-02  0.9979798E-01
       -1   -1    0    0    0  501  0.00000000000E+00  0.00000000000E+00  0.10149393648E+03  0.10149393660E+03  0.50400001928E-02 0.  1.
        1   -1    0    0  501    0  0.00000000000E+00  0.00000000000E+00 -0.78756805711E+03  0.78756805713E+03  0.50400001928E-02 0. -1.
    10030    2    1    2    0    0  0.00000000000E+00  0.00000000000E+00 -0.68607412064E+03  0.88906199373E+03  0.56544984719E+03 0.  0.
        3    1    3    3  502    0  0.12982223476E+03 -0.24031344664E+03 -0.45781570634E+03  0.53310373891E+03  0.10100000352E+00 0. -1.
       -3    1    3    3    0  502 -0.12982223476E+03  0.24031344664E+03 -0.22825841430E+03  0.35595825482E+03  0.10100000352E+00 0.  1.
</event>
<event>
 5   0  0.3640827E-02  0.5828409E+03  0.7818609E-02  0.9941659E-01
        1   -1    0    0  501    0  0.00000000000E+00  0.00000000000E+00  0.84981676951E+03  0.84981676953E+03  0.50400001928E-02 0. -1.
       -1   -1    0    0    0  501  0.00000000000E+00  0.00000000000E+00 -0.99934335936E+02  0.99934336063E+02  0.50400001928E-02 0.  1.
    10030    2    1    2    0    0  0.00000000000E+00  0.00000000000E+00  0.74988243358E+03  0.94975110559E+03  0.58284088599E+03 0.  0.
        3    1    3    3  502    0 -0.27172701834E+03  0.90910928147E+02  0.46155900165E+03  0.54326521291E+03  0.10100000352E+00 0. -1.
       -3    1    3    3    0  502  0.27172701834E+03 -0.90910928147E+02  0.28832343193E+03  0.40648589268E+03  0.10100000352E+00 0.  1.
</event>
<event>
 5   0  0.5999117E-02  0.6183221E+03  0.7818609E-02  0.9868106E-01
        2   -1    0    0  501    0  0.00000000000E+00  0.00000000000E+00  0.10188707695E+04  0.10188707695E+04  0.25500000920E-02 0. -1.
       -2   -1    0    0    0  501  0.00000000000E+00  0.00000000000E+00 -0.93810285229E+02  0.93810285263E+02  0.25500000920E-02 0.  1.
    10030    2    1    2    0    0  0.00000000000E+00  0.00000000000E+00  0.92506048432E+03  0.11126810548E+04  0.61832210869E+03 0.  0.
        5    1    3    3  502    0 -0.19606932510E+03 -0.13094758384E+02  0.89194720547E+03  0.91334909004E+03  0.46999998093E+01 0. -1.
       -5    1    3    3    0  502  0.19606932510E+03  0.13094758384E+02  0.33113278850E+02  0.19933196477E+03  0.46999998093E+01 0.  1.
</event>
<event>
 5   0  0.3640827E-02  0.5986433E+03  0.7818609E-02  0.9908225E-01
        1   -1    0    0  501    0  0.00000000000E+00  0.00000000000E+00  0.43076652791E+03  0.43076652794E+03  0.50400001928E-02 0.  1.
       -1   -1    0    0    0  501  0.00000000000E+00  0.00000000000E+00 -0.20798608563E+03  0.20798608569E+03  0.50400001928E-02 0. -1.
    10030    2    1    2    0    0  0.00000000000E+00  0.00000000000E+00  0.22278044227E+03  0.63875261363E+03  0.59864327939E+03 0.  0.
        3    1    3    3  502    0 -0.13084955949E+02 -0.16693729280E+03 -0.15333375442E+03  0.22704740969E+03  0.10100000352E+00 0. -1.
       -3    1    3    3    0  502  0.13084955949E+02  0.16693729280E+03  0.37611419669E+03  0.41170520394E+03  0.10100000352E+00 0.  1.
</event>
<event>
 5   0  0.3767635E-02  0.5956331E+03  0.7818609E-02  0.9914508E-01
       -1   -1    0    0    0  501  0.00000000000E+00  0.00000000000E+00  0.25193359502E+03  0.25193359507E+03  0.50400001928E-02 0. -1.
        1   -1    0    0  501    0  0.00000000000E+00  0.00000000000E+00 -0.35205584264E+03  0.35205584268E+03  0.50400001928E-02 0.  1.
    10030    2    1    2    0    0  0.00000000000E+00  0.00000000000E+00 -0.10012224762E+03  0.60398943775E+03  0.59563308877E+03 0.  0.
        2    1    3    3  502    0 -0.12533231438E+03 -0.94953891880E+02 -0.30653291090E+03  0.34450958780E+03  0.25500000920E-02 0.  1.
       -2    1    3    3    0  502  0.12533231438E+03  0.94953891880E+02  0.20641066327E+03  0.25947984995E+03  0.25500000920E-02 0. -1.
</event>
<event>
 5   0  0.5999117E-02  0.5928534E+03  0.7818609E-02  0.9920345E-01
        2   -1    0    0  501    0  0.00000000000E+00  0.00000000000E+00  0.40171554495E+03  0.40171554496E+03  0.25500000920E-02 0.  1.
       -2   -1    0    0    0  501  0.00000000000E+00  0.00000000000E+00 -0.21873385183E+03  0.21873385184E+03  0.25500000920E-02 0. -1.
    10030    2    1    2    0    0  0.00000000000E+00  0.00000000000E+00  0.18298169312E+03  0.62044939680E+03  0.59285340007E+03 0.  0.
        5    1    3    3  502    0 -0.27070096507E+03  0.10948924928E+03  0.38334973647E+02  0.29454807485E+03  0.46999998093E+01 0.  1.
       -5    1    3    3    0  502  0.27070096507E+03 -0.10948924928E+03  0.14464671948E+03  0.32590132195E+03  0.46999998093E+01 0. -1.
</event>
<event>
 5   0  0.3651984E-02  0.5820233E+03  0.7818609E-02  0.9943420E-01
        1   -1    0    0  501    0  0.00000000000E+00  0.00000000000E+00  0.91929954227E+03  0.91929954228E+03  0.50400001928E-02 0. -1.
       -1   -1    0    0    0  501  0.00000000000E+00  0.00000000000E+00 -0.92122084270E+02  0.92122084408E+02  0.50400001928E-02 0.  1.
    10030    2    1    2    0    0  0.00000000000E+00  0.00000000000E+00  0.82717745800E+03  0.10114216267E+04  0.58202333279E+03 0.  0.
        1    1    3    3  502    0 -0.11087570570E+03 -0.90147766369E+02 -0.26954348638E+02  0.14541863303E+03  0.50400001928E-02 0.  1.
       -1    1    3    3    0  502  0.11087570570E+03  0.90147766369E+02  0.85413180664E+03  0.86600299366E+03  0.50400001928E-02 0. -1.
</event>
<event>
 5   0  0.5935451E-02  0.5865385E+03  0.7818609E-02  0.9933735E-01
       -2   -1    0    0    0  501  0.00000000000E+00  0.00000000000E+00  0.78461659661E+02  0.78461659702E+02  0.25500000920E-02 0.  1.
        2   -1    0    0  501    0  0.00000000000E+00  0.00000000000E+00 -0.10961639372E+04  0.10961639372E+04  0.25500000920E-02 0. -1.
    10030    2    1    2    0    0  0.00000000000E+00  0.00000000000E+00 -0.10177022775E+04  0.11746255969E+04  0.58653846182E+03 0.  0.
        3    1    3    3  502    0 -0.55661549659E+02 -0.27656523436E+03 -0.34838609314E+03  0.44828497305E+03  0.10100000352E+00 0.  1.
       -3    1    3    3    0  502  0.55661549659E+02  0.27656523436E+03 -0.66931618439E+03  0.72634062385E+03  0.10100000352E+00 0. -1.
</event>
<event>
 5   0  0.5872632E-02  0.5174037E+03  0.7818609E-02  0.1009334E+00
       -2   -1    0    0    0  501  0.00000000000E+00  0.00000000000E+00  0.17798500418E+03  0.17798500419E+03  0.25500000920E-02 0. -1.
        2   -1    0    0  501    0  0.00000000000E+00  0.00000000000E+00 -0.37602412116E+03  0.37602412117E+03  0.25500000920E-02 0.  1.
    10030    2    1    2    0    0  0.00000000000E+00  0.00000000000E+00 -0.19803911698E+03  0.55400912536E+03  0.51740372933E+03 0.  0.
        1    1    3    3  502    0  0.74256046032E+02  0.13215557435E+03 -0.32348781739E+03  0.35724420811E+03  0.50400001928E-02 0.  1.
       -1    1    3    3    0  502 -0.74256046032E+02 -0.13215557435E+03  0.12544870041E+03  0.19676491725E+03  0.50400001928E-02 0. -1.
</event>
<event>
 5   0  0.5935451E-02  0.5773914E+03  0.7818609E-02  0.9953455E-01
        2   -1    0    0  501    0  0.00000000000E+00  0.00000000000E+00  0.14870150366E+04  0.14870150366E+04  0.25500000920E-02 0. -1.
       -2   -1    0    0    0  501  0.00000000000E+00  0.00000000000E+00 -0.56048671675E+02  0.56048671733E+02  0.25500000920E-02 0.  1.
    10030    2    1    2    0    0  0.00000000000E+00  0.00000000000E+00  0.14309663650E+04  0.15430637084E+04  0.57739143607E+03 0.  0.
        3    1    3    3  502    0 -0.11063308829E+03  0.17675035270E+03  0.18189213830E+03  0.27670404330E+03  0.10100000352E+00 0.  1.
       -3    1    3    3    0  502  0.11063308829E+03 -0.17675035270E+03  0.12490742267E+04  0.12663596651E+04  0.10100000352E+00 0. -1.
</event>
<event>
 5   0  0.2388000E-02  0.5926336E+03  0.7818609E-02  0.9920808E-01
        4   -1    0    0  501    0  0.00000000000E+00  0.00000000000E+00  0.12920010661E+04  0.12920016903E+04  0.12699999809E+01 0. -1.
       -4   -1    0    0    0  501  0.00000000000E+00  0.00000000000E+00 -0.67952842964E+02  0.67964709716E+02  0.12699999809E+01 0.  1.
    10030    2    1    2    0    0  0.00000000000E+00  0.00000000000E+00  0.12240482231E+04  0.13599664000E+04  0.59263357698E+03 0.  0.
        4    1    3    3  502    0  0.38021238358E+02 -0.77271512664E+02  0.12626492677E+04  0.12655833783E+04  0.12699999809E+01 0. -1.
       -4    1    3    3    0  502 -0.38021238358E+02  0.77271512664E+02 -0.38601044617E+02  0.94383021678E+02  0.12699999809E+01 0.  1.
</event>
<event>
 5   0  0.6007360E-02  0.5983339E+03  0.7818609E-02  0.9908869E-01
        2   -1    0    0  501    0  0.00000000000E+00  0.00000000000E+00  0.77024178608E+03  0.77024178608E+03  0.25500000920E-02 0. -1.
       -2   -1    0    0    0  501  0.00000000000E+00  0.00000000000E+00 -0.11619839459E+03  0.11619839461E+03  0.25500000920E-02 0.  1.
    10030    2    1    2    0    0  0.00000000000E+00  0.00000000000E+00  0.65404339149E+03  0.88644018070E+03  0.59833388338E+03 0.  0.
        4    1    3    3  502    0 -0.22060269328E+03  0.19053790553E+03  0.42672446161E+03  0.51678392076E+03  0.12699999809E+01 0. -1.
       -4    1    3    3    0  502  0.22060269328E+03 -0.19053790553E+03  0.22731892988E+03  0.36965625993E+03  0.12699999809E+01 0.  1.
</event>
<event>
 5   0  0.3640827E-02  0.5700173E+03  0.7818609E-02  0.9969640E-01
       -1   -1    0    0    0  501  0.00000000000E+00  0.00000000000E+00  0.10539107594E+04  0.10539107594E+04  0.50400001928E-02 0.  1.
        1   -1    0    0  501    0  0.00000000000E+00  0.00000000000E+00 -0.77074768363E+02  0.77074768528E+02  0.50400001928E-02 0. -1.
    10030    2    1    2    0    0  0.00000000000E+00  0.00000000000E+00  0.97683599104E+03  0.11309855279E+04  0.57001729011E+03 0.  0.
        3    1    3    3  502    0 -0.25816988784E+03  0.10508343039E+03  0.60639752923E+03  0.66739208265E+03  0.10100000352E+00 0.  1.
       -3    1    3    3    0  502  0.25816988784E+03 -0.10508343039E+03  0.37043846181E+03  0.46359344529E+03  0.10100000352E+00 0. -1.
</event>
<event>
 5   0  0.2388000E-02  0.5918704E+03  0.7818609E-02  0.9922417E-01
       -4   -1    0    0    0  501  0.00000000000E+00  0.00000000000E+00  0.43030565637E+03  0.43030753050E+03  0.12699999809E+01 0.  1.
        4   -1    0    0  501    0  0.00000000000E+00  0.00000000000E+00 -0.20351997213E+03  0.20352393460E+03  0.12699999809E+01 0. -1.
    10030    2    1    2    0    0  0.00000000000E+00  0.00000000000E+00  0.22678568425E+03  0.63383146510E+03  0.59187040775E+03 0.  0.
        2    1    3    3  502    0 -0.13499580960E+02  0.29441539470E+03  0.14202767089E+03  0.32716130979E+03  0.25500000920E-02 0.  1.
       -2    1    3    3    0  502  0.13499580960E+02 -0.29441539470E+03  0.84758013354E+02  0.30667015530E+03  0.25500000920E-02 0. -1.
</event>
<event>
 5   0  0.2388000E-02  0.5993626E+03  0.7818609E-02  0.9906729E-01
       -3   -1    0    0    0  501  0.00000000000E+00  0.00000000000E+00  0.11288621489E+04  0.11288621535E+04  0.10100000352E+00 0.  1.
        3   -1    0    0  501    0  0.00000000000E+00  0.00000000000E+00 -0.79556947065E+02  0.79557011176E+02  0.10100000352E+00 0. -1.
    10030    2    1    2    0    0  0.00000000000E+00  0.00000000000E+00  0.10493052019E+04  0.12084191646E+04  0.59936255370E+03 0.  0.
        4    1    3    3  502    0 -0.18602580073E+03 -0.20742758207E+03  0.30218304479E+03  0.41103285246E+03  0.12699999809E+01 0.  1.
       -4    1    3    3    0  502  0.18602580073E+03  0.20742758207E+03  0.74712215709E+03  0.79738631218E+03  0.12699999809E+01 0. -1.
</event>
<event>
 5   0  0.2388000E-02  0.5979085E+03  0.7818609E-02  0.9909755E-01
        3   -1    0    0  501    0  0.00000000000E+00  0.00000000000E+00  0.24861083765E+03  0.24861085816E+03  0.10100000352E+00 0.  1.
       -3   -1    0    0    0  501  0.00000000000E+00  0.00000000000E+00 -0.35949208420E+03  0.35949209839E+03  0.10100000352E+00 0. -1.
    10030    2    1    2    0    0  0.00000000000E+00  0.00000000000E+00 -0.11088124656E+03  0.60810295655E+03  0.59790848374E+03 0.  0.
        4    1    3    3  502    0  0.92516997747E+02  0.27593393458E+03 -0.12496621451E+03  0.31672874639E+03  0.12699999809E+01 0. -1.
       -4    1    3    3    0  502 -0.92516997747E+02 -0.27593393458E+03  0.14084967950E+02  0.29137421016E+03  0.12699999809E+01 0.  1.
</event>
<event>
 5   0  0.3703280E-02  0.6190605E+03  0.7818609E-02  0.9866632E-01
       -1   -1    0    0    0  501  0.00000000000E+00  0.00000000000E+00  0.23386195289E+03  0.23386195295E+03  0.50400001928E-02 0. -1.
        1   -1    0    0  501    0  0.00000000000E+00  0.00000000000E+00 -0.40968176461E+03  0.40968176464E+03  0.50400001928E-02 0.  1.
    10030    2    1    2    0    0  0.00000000000E+00  0.00000000000E+00 -0.17581981172E+03  0.64354371759E+03  0.61906050613E+03 0.  0.
        5    1    3    3  502    0  0.28848120496E+03 -0.92046360687E+02 -0.15441626084E+03  0.33994177405E+03  0.46999998093E+01 0. -1.
       -5    1    3    3    0  502 -0.28848120496E+03  0.92046360687E+02 -0.21403550876E+02  0.30360194354E+03  0.46999998093E+01 0.  1.
</event>
<event>
 5   0  0.2388000E-02  0.5590820E+03  0.7818609E-02  0.9994134E-01
        4   -1    0    0  501    0  0.00000000000E+00  0.00000000000E+00  0.39200702583E+03  0.39200908306E+03  0.12699999809E+01 0. -1.
       -4   -1    0    0    0  501  0.00000000000E+00  0.00000000000E+00 -0.19933666110E+03  0.19934070673E+03  0.12699999809E+01 0.  1.
    10030    2    1    2    0    0  0.00000000000E+00  0.00000000000E+00  0.19267036473E+03  0.59134978979E+03  0.55908201942E+03 0.  0.
        3    1    3    3  502    0  0.17958357132E+03  0.16068929467E+03 -0.53516872637E+02  0.24685091526E+03  0.10100000352E+00 0.  1.
       -3    1    3    3    0  502 -0.17958357132E+03 -0.16068929467E+03  0.24618723737E+03  0.34449887453E+03  0.10100000352E+00 0. -1.
</event>
<event>
 5   0  0.3640827E-02  0.6013078E+03  0.7818609E-02  0.9902696E-01
        1   -1    0    0  501    0  0.00000000000E+00  0.00000000000E+00  0.10614972508E+03  0.10614972520E+03  0.50400001928E-02 0.  1.
       -1   -1    0    0    0  501  0.00000000000E+00  0.00000000000E+00 -0.85155914802E+03  0.85155914804E+03  0.50400001928E-02 0. -1.
    10030    2    1    2    0    0  0.00000000000E+00  0.00000000000E+00 -0.74540942295E+03  0.95770887323E+03  0.60130780641E+03 0.  0.
        3    1    3    3  502    0  0.86807820736E+02  0.17275509726E+03 -0.73941846310E+03  0.76427717167E+03  0.10100000352E+00 0. -1.
       -3    1    3    3    0  502 -0.86807820736E+02 -0.17275509726E+03 -0.59909598521E+01  0.19343170156E+03  0.10100000352E+00 0.  1.
</event>
<event>
 5   0  0.3640827E-02  0.6053600E+03  0.7818609E-02  0.9894348E-01
       -1   -1    0    0    0  501  0.00000000000E+00  0.00000000000E+00  0.90152248813E+02  0.90152248953E+02  0.50400001928E-02 0. -1.
        1   -1    0    0  501    0  0.00000000000E+00  0.00000000000E+00 -0.10162274053E+04  0.10162274053E+04  0.50400001928E-02 0.  1.
    10030    2    1    2    0    0  0.00000000000E+00  0.00000000000E+00 -0.92607515650E+03  0.11063796543E+04  0.60536001182E+03 0.  0.
        3    1    3    3  502    0  0.26695154844E+03 -0.94844467757E+02 -0.65780401069E+03  0.71621556040E+03  0.10100000352E+00 0.  1.
       -3    1    3    3    0  502 -0.26695154844E+03  0.94844467757E+02 -0.26827114581E+03  0.39016409388E+03  0.10100000352E+00 0. -1.
</event>
<event>
 5   0  0.5999117E-02  0.5865416E+03  0.7818609E-02  0.9933728E-01
       -2   -1    0    0    0  501  0.00000000000E+00  0.00000000000E+00  0.11554046514E+03  0.11554046516E+03  0.25500000920E-02 0.  1.
        2   -1    0    0  501    0  0.00000000000E+00  0.00000000000E+00 -0.74439513521E+03  0.74439513521E+03  0.25500000920E-02 0. -1.
    10030    2    1    2    0    0  0.00000000000E+00  0.00000000000E+00 -0.62885467007E+03  0.85993560038E+03  0.58654159335E+03 0.  0.
        5    1    3    3  502    0  0.25597708031E+03 -0.14214261817E+03 -0.29092923225E+03  0.41278408124E+03  0.46999998093E+01 0.  1.
       -5    1    3    3    0  502 -0.25597708031E+03  0.14214261817E+03 -0.33792543782E+03  0.44715151914E+03  0.46999998093E+01 0. -1.
</event>
<event>
 5   0  0.3651984E-02  0.5893839E+03  0.7818609E-02  0.9927679E-01
       -1   -1    0    0    0  501  0.00000000000E+00  0.00000000000E+00  0.32385470322E+03  0.32385470325E+03  0.50400001928E-02 0.  1.
        1   -1    0    0  501    0  0.00000000000E+00  0.00000000000E+00 -0.26815530749E+03  0.26815530754E+03  0.50400001928E-02 0. -1.
    10030    2    1    2    0    0  0.00000000000E+00  0.00000000000E+00  0.55699395726E+02  0.59201001079E+03  0.58938394124E+03 0.  0.
        1    1    3    3  502    0  0.13199706202E+03 -0.25443683847E+03 -0.40880528218E+02  0.28953850653E+03  0.50400001928E-02 0.  1.
       -1    1    3    3    0  502 -0.13199706202E+03  0.25443683847E+03  0.96579923944E+02  0.30247150426E+03  0.50400001928E-02 0. -1.
</event>
<event>
 5   0  0.3703280E-02  0.5885969E+03  0.7818609E-02  0.9929350E-01
       -1   -1    0    0    0  501  0.00000000000E+00  0.00000000000E+00  0.64936145404E+02  0.64936145599E+02  0.50400001928E-02 0. -1.
        1   -1    0    0  501    0  0.00000000000E+00  0.00000000000E+00 -0.13337962528E+04  0.13337962528E+04  0.50400001928E-02 0.  1.
    10030    2    1    2    0    0  0.00000000000E+00  0.00000000000E+00 -0.12688601074E+04  0.13987323984E+04  0.58859693358E+03 0.  0.
        5    1    3    3  502    0  0.51214424830E+02  0.26328922651E+03 -0.34684473189E+03  0.43848317202E+03  0.46999998093E+01 0. -1.
       -5    1    3    3    0  502 -0.51214424830E+02 -0.26328922651E+03 -0.92201537550E+03  0.96024922638E+03  0.46999998093E+01 0.  1.
</event>
<event>
 5   0  0.3478183E-02  0.6007530E+03  0.7818609E-02  0.9903845E-01
       -1   -1    0    0    0  501  0.00000000000E+00  0.00000000000E+00  0.87990229515E+03  0.87990229516E+03  0.50400001928E-02 0. -1.
        1   -1    0    0  501    0  0.00000000000E+00  0.00000000000E+00 -0.10254097364E+03  0.10254097377E+03  0.50400001928E-02 0.  1.
    10030    2    1    2    0    0  0.00000000000E+00  0.00000000000E+00  0.77736132151E+03  0.98244326893E+03  0.60075298792E+03 0.  0.
        4    1    3    3  502    0 -0.23005079575E+03  0.18558256456E+03  0.30122109056E+03  0.42201897492E+03  0.12699999809E+01 0.  1.
       -4    1    3    3    0  502  0.23005079575E+03 -0.18558256456E+03  0.47614023094E+03  0.56042429401E+03  0.12699999809E+01 0. -1.
</event>
<event>
 5   0  0.3767635E-02  0.6097446E+03  0.7818609E-02  0.9885393E-01
        1   -1    0    0  501    0  0.00000000000E+00  0.00000000000E+00  0.29920264370E+03  0.29920264374E+03  0.50400001928E-02 0.  1.
       -1   -1    0    0    0  501  0.00000000000E+00  0.00000000000E+00 -0.31064936562E+03  0.31064936566E+03  0.50400001928E-02 0. -1.
    10030    2    1    2    0    0  0.00000000000E+00  0.00000000000E+00 -0.11446721918E+02  0.60985200940E+03  0.60974457434E+03 0.  0.
        2    1    3    3  502    0  0.35676561726E+02 -0.70462868652E+02  0.28879291543E+03  0.29939803092E+03  0.25500000920E-02 0.  1.
       -2    1    3    3    0  502 -0.35676561726E+02  0.70462868652E+02 -0.30023963734E+03  0.31045397848E+03  0.25500000920E-02 0. -1.
</event>
<event>
 5   0  0.5755078E-02  0.6038993E+03  0.7818609E-02  0.9897349E-01
       -2   -1    0    0    0  501  0.00000000000E+00  0.00000000000E+00  0.67688342468E+02  0.67688342516E+02  0.25500000920E-02 0. -1.
        2   -1    0    0  501    0  0.00000000000E+00  0.00000000000E+00 -0.13469616173E+04  0.13469616173E+04  0.25500000920E-02 0.  1.
    10030    2    1    2    0    0  0.00000000000E+00  0.00000000000E+00 -0.12792732748E+04  0.14146499598E+04  0.60389932696E+03 0.  0.
        2    1    3    3  502    0 -0.89683970036E+02 -0.99338166185E+02 -0.55848072233E+01  0.13394952714E+03  0.25500000920E-02 0. -1.
       -2    1    3    3    0  502  0.89683970036E+02  0.99338166185E+02 -0.12736884676E+04  0.12807004326E+04  0.25500000920E-02 0.  1.
</event>
<event>
 5   0  0.5935451E-02  0.6065693E+03  0.7818609E-02  0.9891870E-01
       -2   -1    0    0    0  501  0.00000000000E+00  0.00000000000E+00  0.39494092994E+02  0.39494093077E+02  0.25500000920E-02 0.  1.
        2   -1    0    0  501    0  0.00000000000E+00  0.00000000000E+00 -0.23289960717E+04  0.23289960717E+04  0.25500000920E-02 0. -1.
    10030    2    1    2    0    0  0.00000000000E+00  0.00000000000E+00 -0.22895019787E+04  0.23684901648E+04  0.60656932840E+03 0.  0.
        3    1    3    3  502    0 -0.16843561488E+03  0.18350590232E+03 -0.18203552994E+04  0.18373182628E+04  0.10100000352E+00 0. -1.
       -3    1    3    3    0  502  0.16843561488E+03 -0.18350590232E+03 -0.46914667928E+03  0.53117190196E+03  0.10100000352E+00 0.  1.
</event>
<event>
 5   0  0.6007360E-02  0.6028370E+03  0.7818609E-02  0.9899538E-01
        2   -1    0    0  501    0  0.00000000000E+00  0.00000000000E+00  0.15451714896E+04  0.15451714896E+04  0.25500000920E-02 0. -1.
       -2   -1    0    0    0  501  0.00000000000E+00  0.00000000000E+00 -0.58798070519E+02  0.58798070574E+02  0.25500000920E-02 0.  1.
    10030    2    1    2    0    0  0.00000000000E+00  0.00000000000E+00  0.14863734191E+04  0.16039695602E+04  0.60283696721E+03 0.  0.
        4    1    3    3  502    0 -0.19051493127E+02  0.13634513762E+03  0.14566247492E+04  0.14631166149E+04  0.12699999809E+01 0. -1.
       -4    1    3    3    0  502  0.19051493127E+02 -0.13634513762E+03  0.29748669932E+02  0.14085294532E+03  0.12699999809E+01 0.  1.
</event>
<event>
 5   0  0.3640827E-02  0.6003705E+03  0.7818609E-02  0.9904638E-01
       -1   -1    0    0    0  501  0.00000000000E+00  0.00000000000E+00  0.40254532140E+02  0.40254532456E+02  0.50400001928E-02 0.  1.
        1   -1    0    0  501    0  0.00000000000E+00  0.00000000000E+00 -0.22385348861E+04  0.22385348861E+04  0.50400001928E-02 0. -1.
    10030    2    1    2    0    0  0.00000000000E+00  0.00000000000E+00 -0.21982803540E+04  0.22787894186E+04  0.60037046858E+03 0.  0.
        3    1    3    3  502    0  0.96046851222E+02  0.28356811578E+03 -0.10163908324E+04  0.10595688785E+04  0.10100000352E+00 0. -1.
       -3    1    3    3    0  502 -0.96046851222E+02 -0.28356811578E+03 -0.11818895215E+04  0.12192205400E+04  0.10100000352E+00 0.  1.
</event>
<event>
 5   0  0.5872632E-02  0.6062257E+03  0.7818609E-02  0.9892573E-01
       -2   -1    0    0    0  501  0.00000000000E+00  0.00000000000E+00  0.10737854360E+03  0.10737854363E+03  0.25500000920E-02 0. -1.
        2   -1    0    0  501    0  0.00000000000E+00  0.00000000000E+00 -0.85564025766E+03  0.85564025766E+03  0.25500000920E-02 0.  1.
    10030    2    1    2    0    0  0.00000000000E+00  0.00000000000E+00 -0.74826171405E+03  0.96301880129E+03  0.60622571615E+03 0.  0.
        1    1    3    3  502    0  0.30798533499E+02 -0.26944229886E+03 -0.15906170616E+03  0.31440154019E+03  0.50400001928E-02 0. -1.
       -1    1    3    3    0  502 -0.30798533499E+02  0.26944229886E+03 -0.58920000789E+03  0.64861726110E+03  0.50400001928E-02 0.  1.
</event>
<event>
 5   0  0.5999117E-02  0.5973799E+03  0.7818609E-02  0.9910857E-01
       -2   -1    0    0    0  501  0.00000000000E+00  0.00000000000E+00  0.19302968249E+03  0.19302968251E+03  0.25500000920E-02 0. -1.
        2   -1    0    0  501    0  0.00000000000E+00  0.00000000000E+00 -0.46218632271E+03  0.46218632271E+03  0.25500000920E-02 0.  1.
    10030    2    1    2    0    0  0.00000000000E+00  0.00000000000E+00 -0.26915664022E+03  0.65521600522E+03  0.59737987623E+03 0.  0.
        5    1    3    3  502    0 -0.29720564400E+02  0.22868695789E+03 -0.34272086540E+03  0.41311102410E+03  0.46999998093E+01 0.  1.
       -5    1    3    3    0  502  0.29720564400E+02 -0.22868695789E+03  0.73564225178E+02  0.24210498112E+03  0.46999998093E+01 0. -1.
</event>
<event>
 5   0  0.3478183E-02  0.5968673E+03  0.7818609E-02  0.9911927E-01
        1   -1    0    0  501    0  0.00000000000E+00  0.00000000000E+00  0.26096788240E+03  0.26096788245E+03  0.50400001928E-02 0. -1.
       -1   -1    0    0    0  501  0.00000000000E+00  0.00000000000E+00 -0.34127818916E+03  0.34127818920E+03  0.50400001928E-02 0.  1.
    10030    2    1    2    0    0  0.00000000000E+00  0.00000000000E+00 -0.80310306759E+02  0.60224607165E+03  0.59686730975E+03 0.  0.
        4    1    3    3  502    0  0.90243737821E+02  0.11187660451E+03  0.22373703832E+03  0.26593266454E+03  0.12699999809E+01 0. -1.
       -4    1    3    3    0  502 -0.90243737821E+02 -0.11187660451E+03 -0.30404734508E+03  0.33631340711E+03  0.12699999809E+01 0.  1.
</event>
<event>
 5   0  0.3767635E-02  0.5849793E+03  0.7818609E-02  0.9937069E-01
        1   -1    0    0  501    0  0.00000000000E+00  0.00000000000E+00  0.40537148473E+03  0.40537148476E+03  0.50400001928E-02 0. -1.
       -1   -1    0    0    0  501  0.00000000000E+00  0.00000000000E+00 -0.21104150048E+03  0.21104150054E+03  0.50400001928E-02 0.  1.
    10030    2    1    2    0    0  0.00000000000E+00  0.00000000000E+00  0.19432998425E+03  0.61641298530E+03  0.58497933781E+03 0.  0.
        2    1    3    3  502    0  0.18239309223E+03  0.13101656267E+03  0.29463167507E+03  0.37045971947E+03  0.25500000920E-02 0. -1.
       -2    1    3    3    0  502 -0.18239309223E+03 -0.13101656267E+03 -0.10030169081E+03  0.24595326583E+03  0.25500000920E-02 0.  1.
</event>
<event>
 5   0  0.2388000E-02  0.5993659E+03  0.7818609E-02  0.9906722E-01
       -4   -1    0    0    0  501  0.00000000000E+00  0.00000000000E+00  0.78768919204E+03  0.78769021585E+03  0.12699999809E+01 0.  1.
        4   -1    0    0  501    0  0.00000000000E+00  0.00000000000E+00 -0.11401226870E+03  0.11401934185E+03  0.12699999809E+01 0. -1.
    10030    2    1    2    0    0  0.00000000000E+00  0.00000000000E+00  0.67367692333E+03  0.90170955770E+03  0.59936593948E+03 0.  0.
        5    1    3    3  502    0 -0.23646936596E+03 -0.17249759747E+03  0.24033587334E+03  0.37875665563E+03  0.46999998093E+01 0. -1.
       -5    1    3    3    0  502  0.23646936596E+03  0.17249759747E+03  0.43334104999E+03  0.52295290207E+03  0.46999998093E+01 0.  1.
</event>
<event>
 5   0  0.3640827E-02  0.6019007E+03  0.7818609E-02  0.9901471E-01
       -1   -1    0    0    0  501  0.00000000000E+00  0.00000000000E+00  0.28177364134E+03  0.28177364139E+03  0.50400001928E-02 0.  1.
        1   -1    0    0  501    0  0.00000000000E+00  0.00000000000E+00 -0.32143216843E+03  0.32143216846E+03  0.50400001928E-02 0. -1.
    10030    2    1    2    0    0  0.00000000000E+00  0.00000000000E+00 -0.39658527083E+02  0.60320580985E+03  0.60190069801E+03 0.  0.
        3    1    3    3  502    0 -0.29957527161E+03 -0.22668477308E+01  0.88793240065E+01  0.29971542261E+03  0.10100000352E+00 0.  1.
       -3    1    3    3    0  502  0.29957527161E+03  0.22668477308E+01 -0.48537851089E+02  0.30349038724E+03  0.10100000352E+00 0. -1.
</event>
<event>
 5   0  0.3767635E-02  0.5966731E+03  0.7818609E-02  0.9912332E-01
        1   -1    0    0  501    0  0.00000000000E+00  0.00000000000E+00  0.72952626608E+03  0.72952626609E+03  0.50400001928E-02 0. -1.
       -1   -1    0    0    0  501  0.00000000000E+00  0.00000000000E+00 -0.12200341985E+03  0.12200341995E+03  0.50400001928E-02 0.  1.
    10030    2    1    2    0    0  0.00000000000E+00  0.00000000000E+00  0.60752284623E+03  0.85152968604E+03  0.59667310776E+03 0.  0.
        2    1    3    3  502    0  0.68634826310E+02 -0.28818615679E+03  0.25345235099E+03  0.38987189509E+03  0.25500000920E-02 0.  1.
       -2    1    3    3    0  502 -0.68634826310E+02  0.28818615679E+03  0.35407049524E+03  0.46165779096E+03  0.25500000920E-02 0. -1.
</event>
<event>
 5   0  0.5755078E-02  0.6060754E+03  0.7818609E-02  0.9892881E-01
        2   -1    0    0  501    0  0.00000000000E+00  0.00000000000E+00  0.20584945211E+04  0.20584945211E+04  0.25500000920E-02 0.  1.
       -2   -1    0    0    0  501  0.00000000000E+00  0.00000000000E+00 -0.44611171810E+02  0.44611171883E+02  0.25500000920E-02 0. -1.
    10030    2    1    2    0    0  0.00000000000E+00  0.00000000000E+00  0.20138833493E+04  0.21031056930E+04  0.60607541719E+03 0.  0.
        2    1    3    3  502    0  0.19033319441E+03  0.13044185127E+03  0.32527492856E+03  0.39880519130E+03  0.25500000920E-02 0. -1.
       -2    1    3    3    0  502 -0.19033319441E+03 -0.13044185127E+03  0.16886084207E+04  0.17043005017E+04  0.25500000920E-02 0.  1.
</event>
<event>
 5   0  0.5755078E-02  0.5995578E+03  0.7818609E-02  0.9906324E-01
        2   -1    0    0  501    0  0.00000000000E+00  0.00000000000E+00  0.29310589151E+03  0.29310589152E+03  0.25500000920E-02 0.  1.
       -2   -1    0    0    0  501  0.00000000000E+00  0.00000000000E+00 -0.30660386321E+03  0.30660386322E+03  0.25500000920E-02 0. -1.
    10030    2    1    2    0    0  0.00000000000E+00  0.00000000000E+00 -0.13497971709E+02  0.59970975474E+03  0.59955783265E+03 0.  0.
        2    1    3    3  502    0 -0.86351854399E+02 -0.79144384254E+01 -0.29378531679E+03  0.30631534970E+03  0.25500000920E-02 0. -1.
       -2    1    3    3    0  502  0.86351854399E+02  0.79144384254E+01  0.28028734508E+03  0.29339440504E+03  0.25500000920E-02 0.  1.
</event>
<event>
 5   0  0.5935451E-02  0.5391096E+03  0.7818609E-02  0.1004047E+00
        2   -1    0    0  501    0  0.00000000000E+00  0.00000000000E+00  0.62995167044E+03  0.62995167044E+03  0.25500000920E-02 0. -1.
       -2   -1    0    0    0  501  0.00000000000E+00  0.00000000000E+00 -0.11534185725E+03  0.11534185727E+03  0.25500000920E-02 0.  1.
    10030    2    1    2    0    0  0.00000000000E+00  0.00000000000E+00  0.51460981319E+03  0.74529352772E+03  0.53910962023E+03 0.  0.
        3    1    3    3  502    0 -0.20779642505E+03  0.16321496919E+03  0.33099501537E+03  0.42352826450E+03  0.10100000352E+00 0.  1.
       -3    1    3    3    0  502  0.20779642505E+03 -0.16321496919E+03  0.18361479782E+03  0.32176526321E+03  0.10100000352E+00 0. -1.
</event>
<event>
 5   0  0.2388000E-02  0.5884551E+03  0.7818609E-02  0.9929652E-01
        3   -1    0    0  501    0  0.00000000000E+00  0.00000000000E+00  0.18064491461E+03  0.18064494285E+03  0.10100000352E+00 0. -1.
       -3   -1    0    0    0  501  0.00000000000E+00  0.00000000000E+00 -0.47922658326E+03  0.47922659390E+03  0.10100000352E+00 0.  1.
    10030    2    1    2    0    0  0.00000000000E+00  0.00000000000E+00 -0.29858166865E+03  0.65987153675E+03  0.58845512332E+03 0.  0.
        4    1    3    3  502    0  0.16256610605E+03  0.23707042666E+03 -0.78920361188E+02  0.29809421722E+03  0.12699999809E+01 0.  1.
       -4    1    3    3    0  502 -0.16256610605E+03 -0.23707042666E+03 -0.21966130746E+03  0.36177731953E+03  0.12699999809E+01 0. -1.
</event>
<event>
 5   0  0.3478183E-02  0.5840216E+03  0.7818609E-02  0.9939122E-01
       -1   -1    0    0    0  501  0.00000000000E+00  0.00000000000E+00  0.24361722686E+03  0.24361722691E+03  0.50400001928E-02 0.  1.
        1   -1    0    0  501    0  0.00000000000E+00  0.00000000000E+00 -0.35001755348E+03  0.35001755352E+03  0.50400001928E-02 0. -1.
    10030    2    1    2    0    0  0.00000000000E+00  0.00000000000E+00 -0.10640032662E+03  0.59363478043E+03  0.58402159466E+03 0.  0.
        4    1    3    3  502    0 -0.10045680216E+03  0.26692416791E+03  0.10510191013E+02  0.28539824374E+03  0.12699999809E+01 0.  1.
       -4    1    3    3    0  502  0.10045680216E+03 -0.26692416791E+03 -0.11691051763E+03  0.30823653669E+03  0.12699999809E+01 0. -1.
</event>
<event>
 5   0  0.3767635E-02  0.6008299E+03  0.7818609E-02  0.9903686E-01
        1   -1    0    0  501    0  0.00000000000E+00  0.00000000000E+00  0.52990957885E+03  0.52990957887E+03  0.50400001928E-02 0. -1.
       -1   -1    0    0    0  501  0.00000000000E+00  0.00000000000E+00 -0.17031044139E+03  0.17031044146E+03  0.50400001928E-02 0.  1.
    10030    2    1    2    0    0  0.00000000000E+00  0.00000000000E+00  0.35959913746E+03  0.70022002034E+03  0.60082987377E+03 0.  0.
        2    1    3    3  502    0 -0.71924728129E+02  0.12102560108E+03 -0.12948486513E+03  0.19127648297E+03  0.25500000920E-02 0.  1.
       -2    1    3    3    0  502  0.71924728129E+02 -0.12102560108E+03  0.48908400259E+03  0.50894353737E+03  0.25500000920E-02 0. -1.
</event>
<event>
 5   0  0.2388000E-02  0.6106870E+03  0.7818609E-02  0.9883479E-01
        3   -1    0    0  501    0  0.00000000000E+00  0.00000000000E+00  0.14903220801E+03  0.14903224224E+03  0.10100000352E+00 0.  1.
       -3   -1    0    0    0  501  0.00000000000E+00  0.00000000000E+00 -0.62560051527E+03  0.62560052343E+03  0.10100000352E+00 0. -1.
    10030    2    1    2    0    0  0.00000000000E+00  0.00000000000E+00 -0.47656830726E+03  0.77463276566E+03  0.61068696577E+03 0.  0.
        3    1    3    3  502    0  0.78385843909E+02 -0.65919049943E+02 -0.60316243650E+03  0.61179620518E+03  0.10100000352E+00 0. -1.
       -3    1    3    3    0  502 -0.78385843909E+02  0.65919049943E+02  0.12659412924E+03  0.16283656048E+03  0.10100000352E+00 0.  1.
</event>
<event>
 5   0  0.3767635E-02  0.6097273E+03  0.7818609E-02  0.9885428E-01
        1   -1    0    0  501    0  0.00000000000E+00  0.00000000000E+00  0.15498434110E+03  0.15498434118E+03  0.50400001928E-02 0. -1.
       -1   -1    0    0    0  501  0.00000000000E+00  0.00000000000E+00 -0.59968531194E+03  0.59968531196E+03  0.50400001928E-02 0.  1.
    10030    2    1    2    0    0  0.00000000000E+00  0.00000000000E+00 -0.44470097084E+03  0.75466965315E+03  0.60972726027E+03 0.  0.
        2    1    3    3  502    0 -0.29412405264E+03 -0.68611836184E+01 -0.12344306180E+03  0.31905207051E+03  0.25500000920E-02 0.  1.
       -2    1    3    3    0  502  0.29412405264E+03  0.68611836184E+01 -0.32125790904E+03  0.43561758264E+03  0.25500000920E-02 0. -1.
</event>
<event>
 5   0  0.5935451E-02  0.6025115E+03  0.7818609E-02  0.9900209E-01
        2   -1    0    0  501    0  0.00000000000E+00  0.00000000000E+00  0.88862675404E+03  0.88862675404E+03  0.25500000920E-02 0. -1.
       -2   -1    0    0    0  501  0.00000000000E+00  0.00000000000E+00 -0.10212952710E+03  0.10212952714E+03  0.25500000920E-02 0.  1.
    10030    2    1    2    0    0  0.00000000000E+00  0.00000000000E+00  0.78649722693E+03  0.99075628118E+03  0.60251151086E+03 0.  0.
        3    1    3    3  502    0  0.15936156461E+03  0.11407950200E+03  0.76946540115E+03  0.79403227568E+03  0.10100000352E+00 0. -1.
       -3    1    3    3    0  502 -0.15936156461E+03 -0.11407950200E+03  0.17031825788E+02  0.19672400551E+03  0.10100000352E+00 0.  1.
</event>
<event>
 5   0  0.5755078E-02  0.5717484E+03  0.7818609E-02  0.9965817E-01
       -2   -1    0    0    0  501  0.00000000000E+00  0.00000000000E+00  0.16390625039E+03  0.16390625041E+03  0.25500000920E-02 0.  1.
        2   -1    0    0  501    0  0.00000000000E+00  0.00000000000E+00 -0.49860251352E+03  0.49860251353E+03  0.25500000920E-02 0. -1.
    10030    2    1    2    0    0  0.00000000000E+00  0.00000000000E+00 -0.33469626312E+03  0.66250876394E+03  0.57174843572E+03 0.  0.
        2    1    3    3  502    0 -0.13290419372E+03 -0.13302545310E+03 -0.41685396819E+03  0.45730353889E+03  0.25500000920E-02 0. -1.
       -2    1    3    3    0  502  0.13290419372E+03  0.13302545310E+03  0.82157705066E+02  0.20520522505E+03  0.25500000920E-02 0.  1.
</event>
<event>
 5   0  0.5755078E-02  0.5989673E+03  0.7818609E-02  0.9907551E-01
        2   -1    0    0  501    0  0.00000000000E+00  0.00000000000E+00  0.30948012239E+03  0.30948012240E+03  0.25500000920E-02 0.  1.
       -2   -1    0    0    0  501  0.00000000000E+00  0.00000000000E+00 -0.28981004305E+03  0.28981004306E+03  0.25500000920E-02 0. -1.
    10030    2    1    2    0    0  0.00000000000E+00  0.00000000000E+00  0.19670079341E+02  0.59929016547E+03  0.59896726990E+03 0.  0.
        2    1    3    3  502    0 -0.19285050469E+03  0.19999777241E+03  0.12169880638E+03  0.30331670842E+03  0.25500000920E-02 0.  1.
       -2    1    3    3    0  502  0.19285050469E+03 -0.19999777241E+03 -0.10202872704E+03  0.29597345705E+03  0.25500000920E-02 0. -1.
</event>
<event>
 5   0  0.3767635E-02  0.6357571E+03  0.7818609E-02  0.9833878E-01
        1   -1    0    0  501    0  0.00000000000E+00  0.00000000000E+00  0.17406144476E+03  0.17406144484E+03  0.50400001928E-02 0. -1.
       -1   -1    0    0    0  501  0.00000000000E+00  0.00000000000E+00 -0.58052358568E+03  0.58052358570E+03  0.50400001928E-02 0.  1.
    10030    2    1    2    0    0  0.00000000000E+00  0.00000000000E+00 -0.40646214091E+03  0.75458503054E+03  0.63575710481E+03 0.  0.
        2    1    3    3  502    0 -0.21109239373E+03  0.10190277554E+03  0.51616014951E+02  0.24001747303E+03  0.25500000920E-02 0. -1.
       -2    1    3    3    0  502  0.21109239373E+03 -0.10190277554E+03 -0.45807815587E+03  0.51456755751E+03  0.25500000920E-02 0.  1.
</event>
<event>
 5   0  0.3703280E-02  0.6024469E+03  0.7818609E-02  0.9900343E-01
       -1   -1    0    0    0  501  0.00000000000E+00  0.00000000000E+00  0.69345017606E+03  0.69345017607E+03  0.50400001928E-02 0.  1.
        1   -1    0    0  501    0  0.00000000000E+00  0.00000000000E+00 -0.13084653553E+03  0.13084653562E+03  0.50400001928E-02 0. -1.
    10030    2    1    2    0    0  0.00000000000E+00  0.00000000000E+00  0.56260364053E+03  0.82429671170E+03  0.60244685457E+03 0.  0.
        5    1    3    3  502    0 -0.43950093765E+02  0.29785492079E+03  0.29227330680E+03  0.41963667671E+03  0.46999998093E+01 0. -1.
       -5    1    3    3    0  502  0.43950093765E+02 -0.29785492079E+03  0.27033033373E+03  0.40466003498E+03  0.46999998093E+01 0.  1.
</event>
<event>
 5   0  0.2388000E-02  0.5872607E+03  0.7818609E-02  0.9932194E-01
        3   -1    0    0  501    0  0.00000000000E+00  0.00000000000E+00  0.47660965443E+03  0.47660966513E+03  0.10100000352E+00 0.  1.
       -3   -1    0    0    0  501  0.00000000000E+00  0.00000000000E+00 -0.18090018136E+03  0.18090020956E+03  0.10100000352E+00 0. -1.
    10030    2    1    2    0    0  0.00000000000E+00  0.00000000000E+00  0.29570947307E+03  0.65750987469E+03  0.58726071115E+03 0.  0.
        5    1    3    3  502    0 -0.50956234932E+02 -0.26436113106E+03  0.27896694014E+03  0.38772153562E+03  0.46999998093E+01 0.  1.
       -5    1    3    3    0  502  0.50956234932E+02  0.26436113106E+03  0.16742532928E+02  0.26978833907E+03  0.46999998093E+01 0. -1.
</event>
<event>
 5   0  0.5872632E-02  0.6108370E+03  0.7818609E-02  0.9883174E-01
       -2   -1    0    0    0  501  0.00000000000E+00  0.00000000000E+00  0.53371807686E+03  0.53371807687E+03  0.25500000920E-02 0.  1.
        2   -1    0    0  501    0  0.00000000000E+00  0.00000000000E+00 -0.17477479009E+03  0.17477479011E+03  0.25500000920E-02 0. -1.
    10030    2    1    2    0    0  0.00000000000E+00  0.00000000000E+00  0.35894328677E+03  0.70849286697E+03  0.61083701544E+03 0.  0.
        1    1    3    3  502    0 -0.11331320632E+03 -0.11410062695E+03 -0.12169700266E+03  0.20166555551E+03  0.50400001928E-02 0. -1.
       -1    1    3    3    0  502  0.11331320632E+03  0.11410062695E+03  0.48064028943E+03  0.50682731146E+03  0.50400001928E-02 0.  1.
</event>
<event>
 5   0  0.5935451E-02  0.6012843E+03  0.7818609E-02  0.9902745E-01
        2   -1    0    0  501    0  0.00000000000E+00  0.00000000000E+00  0.36157712089E+03  0.36157712090E+03  0.25500000920E-02 0. -1.
       -2   -1    0    0    0  501  0.00000000000E+00  0.00000000000E+00 -0.24997631300E+03  0.24997631302E+03  0.25500000920E-02 0.  1.
    10030    2    1    2    0    0  0.00000000000E+00  0.00000000000E+00  0.11160080788E+03  0.61155343391E+03  0.60128434389E+03 0.  0.
        3    1    3    3  502    0 -0.26114252846E+03  0.12725421684E+03 -0.22960165048E+02  0.29140390398E+03  0.10100000352E+00 0. -1.
       -3    1    3    3    0  502  0.26114252846E+03 -0.12725421684E+03  0.13456097293E+03  0.32014952993E+03  0.10100000352E+00 0.  1.
</event>
<event>
 5   0  0.2388000E-02  0.6067225E+03  0.7818609E-02  0.9891556E-01
        4   -1    0    0  501    0  0.00000000000E+00  0.00000000000E+00  0.30072835542E+03  0.30073103707E+03  0.12699999809E+01 0. -1.
       -4   -1    0    0    0  501  0.00000000000E+00  0.00000000000E+00 -0.30601182029E+03  0.30601445563E+03  0.12699999809E+01 0.  1.
    10030    2    1    2    0    0  0.00000000000E+00  0.00000000000E+00 -0.52834648673E+01  0.60674549270E+03  0.60672248838E+03 0.  0.
        4    1    3    3  502    0 -0.55922936655E+02 -0.11534236970E+03 -0.27759796001E+03  0.30576703125E+03  0.12699999809E+01 0.  1.
       -4    1    3    3    0  502  0.55922936655E+02  0.11534236970E+03  0.27231449515E+03  0.30097846145E+03  0.12699999809E+01 0. -1.
</event>
<event>
 5   0  0.5935451E-02  0.5812566E+03  0.7818609E-02  0.9945074E-01
        2   -1    0    0  501    0  0.00000000000E+00  0.00000000000E+00  0.87831740871E+03  0.87831740871E+03  0.25500000920E-02 0.  1.
       -2   -1    0    0    0  501  0.00000000000E+00  0.00000000000E+00 -0.96166621544E+02  0.96166621578E+02  0.25500000920E-02 0. -1.
    10030    2    1    2    0    0  0.00000000000E+00  0.00000000000E+00  0.78215078716E+03  0.97448403029E+03  0.58125663130E+03 0.  0.
        3    1    3    3  502    0  0.19413989990E+03  0.19771828850E+03  0.53801658004E+03  0.60518152065E+03  0.10100000352E+00 0.  1.
       -3    1    3    3    0  502 -0.19413989990E+03 -0.19771828850E+03  0.24413420712E+03  0.36930250964E+03  0.10100000352E+00 0. -1.
</event>
<event>
 5   0  0.5755078E-02  0.5996790E+03  0.7818609E-02  0.9906072E-01
       -2   -1    0    0    0  501  0.00000000000E+00  0.00000000000E+00  0.10146046831E+03  0.10146046834E+03  0.25500000920E-02 0.  1.
        2   -1    0    0  501    0  0.00000000000E+00  0.00000000000E+00 -0.88609605606E+03  0.88609605607E+03  0.25500000920E-02 0. -1.
    10030    2    1    2    0    0  0.00000000000E+00  0.00000000000E+00 -0.78463558775E+03  0.98755652441E+03  0.59967898357E+03 0.  0.
        2    1    3    3  502    0  0.28724286637E+03  0.85167326758E+02 -0.37270880430E+03  0.47819848456E+03  0.25500000920E-02 0. -1.
       -2    1    3    3    0  502 -0.28724286637E+03 -0.85167326758E+02 -0.41192678345E+03  0.50935803985E+03  0.25500000920E-02 0.  1.
</event>
<event>
 5   0  0.5935451E-02  0.6015154E+03  0.7818609E-02  0.9902267E-01
       -2   -1    0    0    0  501  0.00000000000E+00  0.00000000000E+00  0.13424344068E+03  0.13424344070E+03  0.25500000920E-02 0.  1.
        2   -1    0    0  501    0  0.00000000000E+00  0.00000000000E+00 -0.67381465957E+03  0.67381465958E+03  0.25500000920E-02 0. -1.
    10030    2    1    2    0    0  0.00000000000E+00  0.00000000000E+00 -0.53957121889E+03  0.80805810028E+03  0.60151541391E+03 0.  0.
        3    1    3    3  502    0 -0.20247981565E+03 -0.18287770011E+03 -0.99792910460E+02  0.29051844024E+03  0.10100000352E+00 0. -1.
       -3    1    3    3    0  502  0.20247981565E+03  0.18287770011E+03 -0.43977830843E+03  0.51753966004E+03  0.10100000352E+00 0.  1.
</event>
<event>
 5   0  0.3640827E-02  0.6060271E+03  0.7818609E-02  0.9892980E-01
       -1   -1    0    0    0  501  0.00000000000E+00  0.00000000000E+00  0.73237341541E+02  0.73237341715E+02  0.50400001928E-02 0. -1.
        1   -1    0    0  501    0  0.00000000000E+00  0.00000000000E+00 -0.12536939785E+04  0.12536939785E+04  0.50400001928E-02 0.  1.
    10030    2    1    2    0    0  0.00000000000E+00  0.00000000000E+00 -0.11804566369E+04  0.13269313202E+04  0.60602710900E+03 0.  0.
        3    1    3    3  502    0  0.18478641305E+03 -0.96613999032E+02 -0.10883962701E+03  0.23521555618E+03  0.10100000352E+00 0. -1.
       -3    1    3    3    0  502 -0.18478641305E+03  0.96613999032E+02 -0.10716170099E+04  0.10917157640E+04  0.10100000352E+00 0.  1.
</event>
<event>
 5   0  0.3703280E-02  0.5798287E+03  0.7818609E-02  0.9948162E-01
       -1   -1    0    0    0  501  0.00000000000E+00  0.00000000000E+00  0.29539475838E+03  0.29539475842E+03  0.50400001928E-02 0. -1.
        1   -1    0    0  501    0  0.00000000000E+00  0.00000000000E+00 -0.28453562128E+03  0.28453562132E+03  0.50400001928E-02 0.  1.
    10030    2    1    2    0    0  0.00000000000E+00  0.00000000000E+00  0.10859137099E+02  0.57993037975E+03  0.57982870272E+03 0.  0.
        5    1    3    3  502    0 -0.24752632664E+03 -0.14864138306E+03  0.31215826991E+02  0.29044803493E+03  0.46999998093E+01 0.  1.
       -5    1    3    3    0  502  0.24752632664E+03  0.14864138306E+03 -0.20356689892E+02  0.28948234482E+03  0.46999998093E+01 0. -1.
</event>
<event>
 5   0  0.5872632E-02  0.5964212E+03  0.7818609E-02  0.9912859E-01
        2   -1    0    0  501    0  0.00000000000E+00  0.00000000000E+00  0.29499882938E+03  0.29499882939E+03  0.25500000920E-02 0. -1.
       -2   -1    0    0    0  501  0.00000000000E+00  0.00000000000E+00 -0.30145731083E+03  0.30145731084E+03  0.25500000920E-02 0.  1.
    10030    2    1    2    0    0  0.00000000000E+00  0.00000000000E+00 -0.64584814502E+01  0.59645614023E+03  0.59642117269E+03 0.  0.
        1    1    3    3  502    0 -0.22801648461E+03 -0.17593416531E+03 -0.80597889689E+02  0.29906582490E+03  0.50400001928E-02 0.  1.
       -1    1    3    3    0  502  0.22801648461E+03  0.17593416531E+03  0.74139408239E+02  0.29739031533E+03  0.50400001928E-02 0. -1.
</event>
<event>
 5   0  0.3767635E-02  0.5904694E+03  0.7818609E-02  0.9925379E-01
        1   -1    0    0  501    0  0.00000000000E+00  0.00000000000E+00  0.12776639489E+04  0.12776639489E+04  0.50400001928E-02 0. -1.
       -1   -1    0    0    0  501  0.00000000000E+00  0.00000000000E+00 -0.68221010023E+02  0.68221010209E+02  0.50400001928E-02 0.  1.
    10030    2    1    2    0    0  0.00000000000E+00  0.00000000000E+00  0.12094429388E+04  0.13458849591E+04  0.59046939021E+03 0.  0.
        2    1    3    3  502    0  0.15631610749E+03 -0.72698476373E+02  0.58420625052E+02  0.18202407359E+03  0.25500000920E-02 0.  1.
       -2    1    3    3    0  502 -0.15631610749E+03  0.72698476373E+02  0.11510223138E+04  0.11638608855E+04  0.25500000920E-02 0. -1.
</event>
<event>
 5   0  0.5755078E-02  0.5888570E+03  0.7818609E-02  0.9928798E-01
       -2   -1    0    0    0  501  0.00000000000E+00  0.00000000000E+00  0.23273325675E+03  0.23273325676E+03  0.25500000920E-02 0. -1.
        2   -1    0    0  501    0  0.00000000000E+00  0.00000000000E+00 -0.37247855513E+03  0.37247855514E+03  0.25500000920E-02 0.  1.
    10030    2    1    2    0    0  0.00000000000E+00  0.00000000000E+00 -0.13974529838E+03  0.60521181190E+03  0.58885701902E+03 0.  0.
        2    1    3    3  502    0 -0.28434556698E+03 -0.22035894776E+02  0.53036826496E+01  0.28524745604E+03  0.25500000920E-02 0. -1.
       -2    1    3    3    0  502  0.28434556698E+03  0.22035894776E+02 -0.14504898103E+03  0.31996435587E+03  0.25500000920E-02 0.  1.
</event>
<event>
 5   0  0.3651984E-02  0.5987951E+03  0.7818609E-02  0.9907909E-01
       -1   -1    0    0    0  501  0.00000000000E+00  0.00000000000E+00  0.23112855126E+03  0.23112855131E+03  0.50400001928E-02 0.  1.
        1   -1    0    0  501    0  0.00000000000E+00  0.00000000000E+00 -0.38783135056E+03  0.38783135059E+03  0.50400001928E-02 0. -1.
    10030    2    1    2    0    0  0.00000000000E+00  0.00000000000E+00 -0.15670279930E+03  0.61895990191E+03  0.59879511760E+03 0.  0.
        1    1    3    3  502    0  0.13552360000E+02 -0.21140585182E+03 -0.29704842447E+03  0.36484773146E+03  0.50400001928E-02 0. -1.
       -1    1    3    3    0  502 -0.13552360000E+02  0.21140585182E+03  0.14034562516E+03  0.25411217045E+03  0.50400001928E-02 0.  1.
</event>
<event>
 5   0  0.6007360E-02  0.6056116E+03  0.7818609E-02  0.9893832E-01
       -2   -1    0    0    0  501  0.00000000000E+00  0.00000000000E+00  0.38141610142E+03  0.38141610143E+03  0.25500000920E-02 0.  1.
        2   -1    0    0  501    0  0.00000000000E+00  0.00000000000E+00 -0.24039717152E+03  0.24039717153E+03  0.25500000920E-02 0. -1.
    10030    2    1    2    0    0  0.00000000000E+00  0.00000000000E+00  0.14101892991E+03  0.62181327296E+03  0.60561159817E+03 0.  0.
        4    1    3    3  502    0 -0.25895967028E+03  0.15617688039E+03  0.86363078839E+02  0.31450202398E+03  0.12699999809E+01 0. -1.
       -4    1    3    3    0  502  0.25895967028E+03 -0.15617688039E+03  0.54655851068E+02  0.30731124899E+03  0.12699999809E+01 0.  1.
</event>
<event>
 5   0  0.3478183E-02  0.5999026E+03  0.7818609E-02  0.9905608E-01
        1   -1    0    0  501    0  0.00000000000E+00  0.00000000000E+00  0.24807250209E+03  0.24807250214E+03  0.50400001928E-02 0.  1.
       -1   -1    0    0    0  501  0.00000000000E+00  0.00000000000E+00 -0.36267933362E+03  0.36267933366E+03  0.50400001928E-02 0. -1.
    10030    2    1    2    0    0  0.00000000000E+00  0.00000000000E+00 -0.11460683153E+03  0.61075183580E+03  0.59990255801E+03 0.  0.
        4    1    3    3  502    0  0.39611303046E+02 -0.57950275971E+02  0.23958992764E+03  0.24966424682E+03  0.12699999809E+01 0.  1.
       -4    1    3    3    0  502 -0.39611303046E+02  0.57950275971E+02 -0.35419675917E+03  0.36108758898E+03  0.12699999809E+01 0. -1.
</event>
<event>
 5   0  0.5999117E-02  0.6010159E+03  0.7818609E-02  0.9903301E-01
       -2   -1    0    0    0  501  0.00000000000E+00  0.00000000000E+00  0.51203152663E+02  0.51203152727E+02  0.25500000920E-02 0.  1.
        2   -1    0    0  501    0  0.00000000000E+00  0.00000000000E+00 -0.17636615560E+04  0.17636615560E+04  0.25500000920E-02 0. -1.
    10030    2    1    2    0    0  0.00000000000E+00  0.00000000000E+00 -0.17124584033E+04  0.18148647087E+04  0.60101591313E+03 0.  0.
        5    1    3    3  502    0 -0.25604693637E+03 -0.61479570256E+02 -0.12932272543E+04  0.13197721744E+04  0.46999998093E+01 0. -1.
       -5    1    3    3    0  502  0.25604693637E+03  0.61479570256E+02 -0.41923114905E+03  0.49509253430E+03  0.46999998093E+01 0.  1.
</event>
<event>
 5   0  0.3767635E-02  0.5973018E+03  0.7818609E-02  0.9911020E-01
       -1   -1    0    0    0  501  0.00000000000E+00  0.00000000000E+00  0.39909740017E+03  0.39909740020E+03  0.50400001928E-02 0.  1.
        1   -1    0    0  501    0  0.00000000000E+00  0.00000000000E+00 -0.22348522568E+03  0.22348522573E+03  0.50400001928E-02 0. -1.
    10030    2    1    2    0    0  0.00000000000E+00  0.00000000000E+00  0.17561217449E+03  0.62258262593E+03  0.59730184185E+03 0.  0.
        2    1    3    3  502    0  0.31325724180E+02 -0.28964597142E+03  0.15628519437E+03  0.33060724696E+03  0.25500000920E-02 0.  1.
       -2    1    3    3    0  502 -0.31325724180E+02  0.28964597142E+03  0.19326980123E+02  0.29197537897E+03  0.25500000920E-02 0. -1.
</event>
<event>
 5   0  0.3640827E-02  0.6092221E+03  0.7818609E-02  0.9886456E-01
       -1   -1    0    0    0  501  0.00000000000E+00  0.00000000000E+00  0.13093985468E+03  0.13093985478E+03  0.50400001928E-02 0.  1.
        1   -1    0    0  501    0  0.00000000000E+00  0.00000000000E+00 -0.70862997777E+03  0.70862997779E+03  0.50400001928E-02 0. -1.
    10030    2    1    2    0    0  0.00000000000E+00  0.00000000000E+00 -0.57769012309E+03  0.83956983256E+03  0.60922214785E+03 0.  0.
        3    1    3    3  502    0 -0.33034225816E+02  0.24516608250E+01  0.12845034990E+03  0.13265283000E+03  0.10100000352E+00 0.  1.
       -3    1    3    3    0  502  0.33034225816E+02 -0.24516608250E+01 -0.70614047299E+03  0.70691700256E+03  0.10100000352E+00 0. -1.
</event>
<event>
 5   0  0.5872632E-02  0.6011605E+03  0.7818609E-02  0.9903001E-01
        2   -1    0    0  501    0  0.00000000000E+00  0.00000000000E+00  0.85715183274E+03  0.85715183274E+03  0.25500000920E-02 0.  1.
       -2   -1    0    0    0  501  0.00000000000E+00  0.00000000000E+00 -0.10540545110E+03  0.10540545114E+03  0.25500000920E-02 0. -1.
    10030    2    1    2    0    0  0.00000000000E+00  0.00000000000E+00  0.75174638163E+03  0.96255728388E+03  0.60116046314E+03 0.  0.
        1    1    3    3  502    0 -0.24557856592E+03 -0.60165607666E+02  0.63612902287E+03  0.68453551124E+03  0.50400001928E-02 0.  1.
       -1    1    3    3    0  502  0.24557856592E+03  0.60165607666E+02  0.11561735876E+03  0.27802177264E+03  0.50400001928E-02 0. -1.
</event>
<event>
 5   0  0.3640827E-02  0.5997803E+03  0.7818609E-02  0.9905862E-01
       -1   -1    0    0    0  501  0.00000000000E+00  0.00000000000E+00  0.50244892854E+02  0.50244893107E+02  0.50400001928E-02 0.  1.
        1   -1    0    0  501    0  0.00000000000E+00  0.00000000000E+00 -0.17899155600E+04  0.17899155600E+04  0.50400001928E-02 0. -1.
    10030    2    1    2    0    0  0.00000000000E+00  0.00000000000E+00 -0.17396706672E+04  0.18401604531E+04  0.59978034569E+03 0.  0.
        3    1    3    3  502    0 -0.17986659327E+02  0.27718233369E+03 -0.12166824251E+04  0.12479862579E+04  0.10100000352E+00 0. -1.
       -3    1    3    3    0  502  0.17986659327E+02 -0.27718233369E+03 -0.52298824203E+03  0.59217419526E+03  0.10100000352E+00 0.  1.
</event>
<event>
 5   0  0.5872632E-02  0.5999119E+03  0.7818609E-02  0.9905589E-01
       -2   -1    0    0    0  501  0.00000000000E+00  0.00000000000E+00  0.25541238506E+03  0.25541238507E+03  0.25500000920E-02 0.  1.
        2   -1    0    0  501    0  0.00000000000E+00  0.00000000000E+00 -0.35226790848E+03  0.35226790849E+03  0.25500000920E-02 0. -1.
    10030    2    1    2    0    0  0.00000000000E+00  0.00000000000E+00 -0.96855523422E+02  0.60768029356E+03  0.59991194918E+03 0.  0.
        1    1    3    3  502    0  0.15845546860E+03  0.20280195904E+03 -0.20449037578E+03  0.32871428921E+03  0.50400001928E-02 0. -1.
       -1    1    3    3    0  502 -0.15845546860E+03 -0.20280195904E+03  0.10763485236E+03  0.27896600435E+03  0.50400001928E-02 0.  1.
</event>
<event>
 5   0  0.3640827E-02  0.5990969E+03  0.7818609E-02  0.9907282E-01
        1   -1    0    0  501    0  0.00000000000E+00  0.00000000000E+00  0.70456502100E+03  0.70456502101E+03  0.50400001928E-02 0.  1.
       -1   -1    0    0    0  501  0.00000000000E+00  0.00000000000E+00 -0.12735412537E+03  0.12735412547E+03  0.50400001928E-02 0. -1.
    10030    2    1    2    0    0  0.00000000000E+00  0.00000000000E+00  0.57721089562E+03  0.83191914649E+03  0.59909686050E+03 0.  0.
        3    1    3    3  502    0  0.69254209490E+02 -0.77724442979E+02 -0.10142688138E+03  0.14534323870E+03  0.10100000352E+00 0. -1.
       -3    1    3    3    0  502 -0.69254209490E+02  0.77724442979E+02  0.67863777701E+03  0.68657590778E+03  0.10100000352E+00 0.  1.
</event>
<event>
 5   0  0.3703280E-02  0.5993248E+03  0.7818609E-02  0.9906808E-01
       -1   -1    0    0    0  501  0.00000000000E+00  0.00000000000E+00  0.91446881162E+03  0.91446881164E+03  0.50400001928E-02 0. -1.
        1   -1    0    0  501    0  0.00000000000E+00  0.00000000000E+00 -0.98196394738E+02  0.98196394868E+02  0.50400001928E-02 0.  1.
    10030    2    1    2    0    0  0.00000000000E+00  0.00000000000E+00  0.81627241689E+03  0.10126652065E+04  0.59932475495E+03 0.  0.
        5    1    3    3  502    0 -0.17983517975E+03 -0.23652184296E+03  0.34286618693E+03  0.45372082409E+03  0.46999998093E+01 0. -1.
       -5    1    3    3    0  502  0.17983517975E+03  0.23652184296E+03  0.47340622995E+03  0.55894438241E+03  0.46999998093E+01 0.  1.
</event>
<event>
 5   0  0.6007360E-02  0.6033587E+03  0.7818609E-02  0.9898462E-01
       -2   -1    0    0    0  501  0.00000000000E+00  0.00000000000E+00  0.53260243105E+03  0.53260243106E+03  0.25500000920E-02 0. -1.
        2   -1    0    0  501    0  0.00000000000E+00  0.00000000000E+00 -0.17087874682E+03  0.17087874684E+03  0.25500000920E-02 0.  1.
    10030    2    1    2    0    0  0.00000000000E+00  0.00000000000E+00  0.36172368423E+03  0.70348117790E+03  0.60335871910E+03 0.  0.
        4    1    3    3  502    0 -0.98000245781E+02  0.22877337586E+03  0.37964558315E+03  0.45395339781E+03  0.12699999809E+01 0. -1.
       -4    1    3    3    0  502  0.98000245781E+02 -0.22877337586E+03 -0.17921898914E+02  0.24952778009E+03  0.12699999809E+01 0.  1.
</event>
<event>
 5   0  0.5755078E-02  0.6013850E+03  0.7818609E-02  0.9902537E-01
       -2   -1    0    0    0  501  0.00000000000E+00  0.00000000000E+00  0.71024833979E+02  0.71024834025E+02  0.25500000920E-02 0. -1.
        2   -1    0    0  501    0  0.00000000000E+00  0.00000000000E+00 -0.12730192046E+04  0.12730192046E+04  0.25500000920E-02 0.  1.
    10030    2    1    2    0    0  0.00000000000E+00  0.00000000000E+00 -0.12019943707E+04  0.13440440387E+04  0.60138499381E+03 0.  0.
        2    1    3    3  502    0  0.77103214944E+02 -0.21770142096E+03 -0.17065476170E+03  0.28716173516E+03  0.25500000920E-02 0. -1.
       -2    1    3    3    0  502 -0.77103214944E+02  0.21770142096E+03 -0.10313396090E+04  0.10568823035E+04  0.25500000920E-02 0.  1.
</event>
<event>
 5   0  0.3478183E-02  0.5983509E+03  0.7818609E-02  0.9908833E-01
       -1   -1    0    0    0  501  0.00000000000E+00  0.00000000000E+00  0.21147834912E+03  0.21147834918E+03  0.50400001928E-02 0.  1.
        1   -1    0    0  501    0  0.00000000000E+00  0.00000000000E+00 -0.42323926109E+03  0.42323926112E+03  0.50400001928E-02 0. -1.
    10030    2    1    2    0    0  0.00000000000E+00  0.00000000000E+00 -0.21176091197E+03  0.63471761030E+03  0.59835086779E+03 0.  0.
        4    1    3    3  502    0  0.13814268387E+03 -0.64359658264E+02 -0.37897423816E+03  0.40847111624E+03  0.12699999809E+01 0. -1.
       -4    1    3    3    0  502 -0.13814268387E+03  0.64359658264E+02  0.16721332619E+03  0.22624649406E+03  0.12699999809E+01 0.  1.
</event>
<event>
 5   0  0.2388000E-02  0.6022474E+03  0.7818609E-02  0.9900754E-01
       -3   -1    0    0    0  501  0.00000000000E+00  0.00000000000E+00  0.16930360449E+03  0.16930363462E+03  0.10100000352E+00 0. -1.
        3   -1    0    0  501    0  0.00000000000E+00  0.00000000000E+00 -0.53557905536E+03  0.53557906489E+03  0.10100000352E+00 0.  1.
    10030    2    1    2    0    0  0.00000000000E+00  0.00000000000E+00 -0.36627545087E+03  0.70488269950E+03  0.60224738617E+03 0.  0.
        4    1    3    3  502    0  0.27242264114E+03  0.12717393008E+03 -0.16332468927E+03  0.34214597896E+03  0.12699999809E+01 0.  1.
       -4    1    3    3    0  502 -0.27242264114E+03 -0.12717393008E+03 -0.20295076160E+03  0.36273672054E+03  0.12699999809E+01 0. -1.
</event>
<event>
 5   0  0.5999117E-02  0.6002297E+03  0.7818609E-02  0.9904930E-01
        2   -1    0    0  501    0  0.00000000000E+00  0.00000000000E+00  0.16062157180E+04  0.16062157180E+04  0.25500000920E-02 0.  1.
       -2   -1    0    0    0  501  0.00000000000E+00  0.00000000000E+00 -0.56075231473E+02  0.56075231531E+02  0.25500000920E-02 0. -1.
    10030    2    1    2    0    0  0.00000000000E+00  0.00000000000E+00  0.15501404865E+04  0.16622909495E+04  0.60022968347E+03 0.  0.
        5    1    3    3  502    0 -0.17601568071E+02  0.29906051426E+03  0.82302384212E+03  0.87586376857E+03  0.46999998093E+01 0. -1.
       -5    1    3    3    0  502  0.17601568071E+02 -0.29906051426E+03  0.72711664438E+03  0.78642718094E+03  0.46999998093E+01 0.  1.
</event>
<event>
 5   0  0.3478183E-02  0.6028431E+03  0.7818609E-02  0.9899525E-01
       -1   -1    0    0    0  501  0.00000000000E+00  0.00000000000E+00  0.69979244630E+03  0.69979244631E+03  0.50400001928E-02 0.  1.
        1   -1    0    0  501    0  0.00000000000E+00  0.00000000000E+00 -0.12983126208E+03  0.12983126218E+03  0.50400001928E-02 0. -1.
    10030    2    1    2    0    0  0.00000000000E+00  0.00000000000E+00  0.56996118421E+03  0.82962370849E+03  0.60284305270E+03 0.  0.
        4    1    3    3  502    0 -0.15802251893E+03  0.11886800876E+03 -0.28090520106E+02  0.19972834104E+03  0.12699999809E+01 0. -1.
       -4    1    3    3    0  502  0.15802251893E+03 -0.11886800876E+03  0.59805170432E+03  0.62989536745E+03  0.12699999809E+01 0.  1.
</event>
<event>
 5   0  0.6007360E-02  0.5985961E+03  0.7818609E-02  0.9908323E-01
        2   -1    0    0  501    0  0.00000000000E+00  0.00000000000E+00  0.73925043759E+03  0.73925043759E+03  0.25500000920E-02 0.  1.
       -2   -1    0    0    0  501  0.00000000000E+00  0.00000000000E+00 -0.12117586951E+03  0.12117586953E+03  0.25500000920E-02 0. -1.
    10030    2    1    2    0    0  0.00000000000E+00  0.00000000000E+00  0.61807456808E+03  0.86042630712E+03  0.59859607273E+03 0.  0.
        4    1    3    3  502    0 -0.17167380956E+03 -0.12115752189E+03  0.61539951168E+03  0.65028394865E+03  0.12699999809E+01 0. -1.
       -4    1    3    3    0  502  0.17167380956E+03  0.12115752189E+03  0.26750564022E+01  0.21014235847E+03  0.12699999809E+01 0.  1.
</event>
<event>
 5   0  0.3767635E-02  0.5980653E+03  0.7818609E-02  0.9909428E-01
       -1   -1    0    0    0  501  0.00000000000E+00  0.00000000000E+00  0.17570162540E+03  0.17570162547E+03  0.50400001928E-02 0.  1.
        1   -1    0    0  501    0  0.00000000000E+00  0.00000000000E+00 -0.50893398970E+03  0.50893398972E+03  0.50400001928E-02 0. -1.
    10030    2    1    2    0    0  0.00000000000E+00  0.00000000000E+00 -0.33323236430E+03  0.68463561520E+03  0.59806531163E+03 0.  0.
        2    1    3    3  502    0  0.49239375979E+02  0.29325031276E+03 -0.13041115493E+03  0.32469575208E+03  0.25500000920E-02 0. -1.
       -2    1    3    3    0  502 -0.49239375979E+02 -0.29325031276E+03 -0.20282120937E+03  0.35993986312E+03  0.25500000920E-02 0.  1.
</event>
<event>
 5   0  0.3767635E-02  0.5989493E+03  0.7818609E-02  0.9907588E-01
        1   -1    0    0  501    0  0.00000000000E+00  0.00000000000E+00  0.22117846107E+03  0.22117846113E+03  0.50400001928E-02 0.  1.
       -1   -1    0    0    0  501  0.00000000000E+00  0.00000000000E+00 -0.40548733705E+03  0.40548733708E+03  0.50400001928E-02 0. -1.
    10030    2    1    2    0    0  0.00000000000E+00  0.00000000000E+00 -0.18430887598E+03  0.62666579822E+03  0.59894929743E+03 0.  0.
        2    1    3    3  502    0  0.10853574029E+02  0.13789054102E+03 -0.37006503238E+03  0.39506927186E+03  0.25500000920E-02 0. -1.
       -2    1    3    3    0  502 -0.10853574029E+02 -0.13789054102E+03  0.18575615640E+03  0.23159652635E+03  0.25500000920E-02 0.  1.
</event>
<event>
 5   0  0.5755078E-02  0.6018311E+03  0.7818609E-02  0.9901614E-01
        2   -1    0    0  501    0  0.00000000000E+00  0.00000000000E+00  0.23721736109E+03  0.23721736110E+03  0.25500000920E-02 0. -1.
       -2   -1    0    0    0  501  0.00000000000E+00  0.00000000000E+00 -0.38171807284E+03  0.38171807284E+03  0.25500000920E-02 0.  1.
    10030    2    1    2    0    0  0.00000000000E+00  0.00000000000E+00 -0.14450071175E+03  0.61893543394E+03  0.60183105245E+03 0.  0.
        2    1    3    3  502    0 -0.55842011113E+02 -0.19583839311E+03  0.15558402437E+03  0.25627601344E+03  0.25500000920E-02 0. -1.
       -2    1    3    3    0  502  0.55842011113E+02  0.19583839311E+03 -0.30008473612E+03  0.36265942050E+03  0.25500000920E-02 0.  1.
</event>
<event>
 5   0  0.3703280E-02  0.6018933E+03  0.7818609E-02  0.9901486E-01
       -1   -1    0    0    0  501  0.00000000000E+00  0.00000000000E+00  0.50343712309E+03  0.50343712311E+03  0.50400001928E-02 0. -1.
        1   -1    0    0  501    0  0.00000000000E+00  0.00000000000E+00 -0.17990111574E+03  0.17990111581E+03  0.50400001928E-02 0.  1.
    10030    2    1    2    0    0  0.00000000000E+00  0.00000000000E+00  0.32353600735E+03  0.68333823892E+03  0.60189334663E+03 0.  0.
        5    1    3    3  502    0  0.62353566614E+02 -0.21843220635E+03 -0.62283986099E+02  0.23558858411E+03  0.46999998093E+01 0.  1.
       -5    1    3    3    0  502 -0.62353566614E+02  0.21843220635E+03  0.38581999345E+03  0.44774965481E+03  0.46999998093E+01 0. -1.
</event>
<event>
 5   0  0.3478183E-02  0.6043046E+03  0.7818609E-02  0.9896515E-01
        1   -1    0    0  501    0  0.00000000000E+00  0.00000000000E+00  0.28153729891E+03  0.28153729896E+03  0.50400001928E-02 0.  1.
       -1   -1    0    0    0  501  0.00000000000E+00  0.00000000000E+00 -0.32427674980E+03  0.32427674984E+03  0.50400001928E-02 0. -1.
    10030    2    1    2    0    0  0.00000000000E+00  0.00000000000E+00 -0.42739450884E+02  0.60581404880E+03  0.60430455985E+03 0.  0.
        4    1    3    3  502    0 -0.28509905943E+03 -0.88302928955E+02  0.25817014619E+02  0.29957805677E+03  0.12699999809E+01 0.  1.
       -4    1    3    3    0  502  0.28509905943E+03  0.88302928955E+02 -0.68556465503E+02  0.30623599203E+03  0.12699999809E+01 0. -1.
</event>
<event>
 5   0  0.3703280E-02  0.6049217E+03  0.7818609E-02  0.9895247E-01
        1   -1    0    0  501    0  0.00000000000E+00  0.00000000000E+00  0.60151519816E+03  0.60151519818E+03  0.50400001928E-02 0.  1.
       -1   -1    0    0    0  501  0.00000000000E+00  0.00000000000E+00 -0.15208689536E+03  0.15208689545E+03  0.50400001928E-02 0. -1.
    10030    2    1    2    0    0  0.00000000000E+00  0.00000000000E+00  0.44942830279E+03  0.75360209362E+03  0.60492174383E+03 0.  0.
        5    1    3    3  502    0  0.17280252667E+03  0.10397699038E+03  0.50546808910E+03  0.54423524954E+03  0.46999998093E+01 0.  1.
       -5    1    3    3    0  502 -0.17280252667E+03 -0.10397699038E+03 -0.56039786304E+02  0.20936684408E+03  0.46999998093E+01 0. -1.
</event>
<event>
 5   0  0.5755078E-02  0.6084212E+03  0.7818609E-02  0.9888087E-01
       -2   -1    0    0    0  501  0.00000000000E+00  0.00000000000E+00  0.70422458833E+02  0.70422458879E+02  0.25500000920E-02 0. -1.
        2   -1    0    0  501    0  0.00000000000E+00  0.00000000000E+00 -0.13141276339E+04  0.13141276339E+04  0.25500000920E-02 0.  1.
    10030    2    1    2    0    0  0.00000000000E+00  0.00000000000E+00 -0.12437051750E+04  0.13845500927E+04  0.60842123313E+03 0.  0.
        2    1    3    3  502    0  0.61124951628E+02 -0.99598079706E+02 -0.12610131271E+04  0.12664162601E+04  0.25500000920E-02 0.  1.
       -2    1    3    3    0  502 -0.61124951628E+02  0.99598079706E+02  0.17307952086E+02  0.11813383260E+03  0.25500000920E-02 0. -1.
</event>
<event>
 5   0  0.5755078E-02  0.6016581E+03  0.7818609E-02  0.9901972E-01
        2   -1    0    0  501    0  0.00000000000E+00  0.00000000000E+00  0.79922395206E+03  0.79922395206E+03  0.25500000920E-02 0.  1.
       -2   -1    0    0    0  501  0.00000000000E+00  0.00000000000E+00 -0.11323250395E+03  0.11323250398E+03  0.25500000920E-02 0. -1.
    10030    2    1    2    0    0  0.00000000000E+00  0.00000000000E+00  0.68599144810E+03  0.91245645604E+03  0.60165813989E+03 0.  0.
        2    1    3    3  502    0 -0.13879237929E+03 -0.59790530354E+01 -0.61672840171E+02  0.15199543693E+03  0.25500000920E-02 0. -1.
       -2    1    3    3    0  502  0.13879237929E+03  0.59790530354E+01  0.74766428828E+03  0.76046101912E+03  0.25500000920E-02 0.  1.
</event>
<event>
 5   0  0.3478183E-02  0.5950423E+03  0.7818609E-02  0.9915745E-01
       -1   -1    0    0    0  501  0.00000000000E+00  0.00000000000E+00  0.27578233334E+03  0.27578233338E+03  0.50400001928E-02 0.  1.
        1   -1    0    0  501    0  0.00000000000E+00  0.00000000000E+00 -0.32097351962E+03  0.32097351966E+03  0.50400001928E-02 0. -1.
    10030    2    1    2    0    0  0.00000000000E+00  0.00000000000E+00 -0.45191186287E+02  0.59675585304E+03  0.59504227146E+03 0.  0.
        4    1    3    3  502    0  0.23420183430E+03 -0.17273848171E+03 -0.84645661887E+02  0.30307686027E+03  0.12699999809E+01 0.  1.
       -4    1    3    3    0  502 -0.23420183430E+03  0.17273848171E+03  0.39454475599E+02  0.29367899278E+03  0.12699999809E+01 0. -1.
</event>
<event>
 5   0  0.5935451E-02  0.5889864E+03  0.7818609E-02  0.9928523E-01
       -2   -1    0    0    0  501  0.00000000000E+00  0.00000000000E+00  0.79150700293E+02  0.79150700335E+02  0.25500000920E-02 0.  1.
        2   -1    0    0  501    0  0.00000000000E+00  0.00000000000E+00 -0.10957104866E+04  0.10957104866E+04  0.25500000920E-02 0. -1.
    10030    2    1    2    0    0  0.00000000000E+00  0.00000000000E+00 -0.10165597863E+04  0.11748611869E+04  0.58898642550E+03 0.  0.
        3    1    3    3  502    0 -0.12004042150E+03  0.19030971260E+02  0.26789159301E+02  0.12445702036E+03  0.10100000352E+00 0.  1.
       -3    1    3    3    0  502  0.12004042150E+03 -0.19030971260E+02 -0.10433489456E+04  0.10504041665E+04  0.10100000352E+00 0. -1.
</event>
<event>
 5   0  0.5935451E-02  0.6001806E+03  0.7818609E-02  0.9905032E-01
       -2   -1    0    0    0  501  0.00000000000E+00  0.00000000000E+00  0.10181711780E+03  0.10181711784E+03  0.25500000920E-02 0. -1.
        2   -1    0    0  501    0  0.00000000000E+00  0.00000000000E+00 -0.88446992805E+03  0.88446992805E+03  0.25500000920E-02 0.  1.
    10030    2    1    2    0    0  0.00000000000E+00  0.00000000000E+00 -0.78265281024E+03  0.98628704589E+03  0.60018056908E+03 0.  0.
        3    1    3    3  502    0  0.11486681293E+02  0.15987584269E+03 -0.80823030749E+03  0.82397115791E+03  0.10100000352E+00 0.  1.
       -3    1    3    3    0  502 -0.11486681293E+02 -0.15987584269E+03  0.25577497242E+02  0.16231588798E+03  0.10100000352E+00 0. -1.
</event>
<event>
 5   0  0.6007360E-02  0.6000565E+03  0.7818609E-02  0.9905289E-01
        2   -1    0    0  501    0  0.00000000000E+00  0.00000000000E+00  0.51054400981E+03  0.51054400982E+03  0.25500000920E-02 0.  1.
       -2   -1    0    0    0  501  0.00000000000E+00  0.00000000000E+00 -0.17631578037E+03  0.17631578039E+03  0.25500000920E-02 0. -1.
    10030    2    1    2    0    0  0.00000000000E+00  0.00000000000E+00  0.33422822944E+03  0.68685979021E+03  0.60005654904E+03 0.  0.
        4    1    3    3  502    0  0.18652336098E+03 -0.93063938930E+02 -0.79886868860E+02  0.22323840538E+03  0.12699999809E+01 0. -1.
       -4    1    3    3    0  502 -0.18652336098E+03  0.93063938930E+02  0.41411509830E+03  0.46362138482E+03  0.12699999809E+01 0.  1.
</event>
<event>
 5   0  0.3478183E-02  0.6014305E+03  0.7818609E-02  0.9902443E-01
        1   -1    0    0  501    0  0.00000000000E+00  0.00000000000E+00  0.90982684522E+03  0.90982684523E+03  0.50400001928E-02 0.  1.
       -1   -1    0    0    0  501  0.00000000000E+00  0.00000000000E+00 -0.99392154649E+02  0.99392154776E+02  0.50400001928E-02 0. -1.
    10030    2    1    2    0    0  0.00000000000E+00  0.00000000000E+00  0.81043469057E+03  0.10092190000E+04  0.60143046339E+03 0.  0.
        4    1    3    3  502    0 -0.10841639400E+03  0.65676834204E+02  0.86280160674E+03  0.87206409543E+03  0.12699999809E+01 0.  1.
       -4    1    3    3    0  502  0.10841639400E+03 -0.65676834204E+02 -0.52366916175E+02  0.13715490458E+03  0.12699999809E+01 0. -1.
</event>
<event>
 5   0  0.3478183E-02  0.6013858E+03  0.7818609E-02  0.9902535E-01
       -1   -1    0    0    0  501  0.00000000000E+00  0.00000000000E+00  0.73052013898E+02  0.73052014072E+02  0.50400001928E-02 0. -1.
        1   -1    0    0  501    0  0.00000000000E+00  0.00000000000E+00 -0.12376964183E+04  0.12376964183E+04  0.50400001928E-02 0.  1.
    10030    2    1    2    0    0  0.00000000000E+00  0.00000000000E+00 -0.11646444044E+04  0.13107484324E+04  0.60138578658E+03 0.  0.
        4    1    3    3  502    0  0.23348372058E+03  0.17624033661E+03 -0.73394252687E+03  0.79009401319E+03  0.12699999809E+01 0.  1.
       -4    1    3    3    0  502 -0.23348372058E+03 -0.17624033661E+03 -0.43070187756E+03  0.52065441923E+03  0.12699999809E+01 0. -1.
</event>
<event>
 5   0  0.5999117E-02  0.6055183E+03  0.7818609E-02  0.9894023E-01
       -2   -1    0    0    0  501  0.00000000000E+00  0.00000000000E+00  0.21994565565E+03  0.21994565567E+03  0.25500000920E-02 0.  1.
        2   -1    0    0  501    0  0.00000000000E+00  0.00000000000E+00 -0.41675337265E+03  0.41675337266E+03  0.25500000920E-02 0. -1.
    10030    2    1    2    0    0  0.00000000000E+00  0.00000000000E+00 -0.19680771700E+03  0.63669902833E+03  0.60551826992E+03 0.  0.
        5    1    3    3  502    0 -0.22537659272E+03  0.83983401091E+01 -0.31073246875E+03  0.38398163732E+03  0.46999998093E+01 0. -1.
       -5    1    3    3    0  502  0.22537659272E+03 -0.83983401091E+01  0.11392475175E+03  0.25271739101E+03  0.46999998093E+01 0.  1.
</event>
<event>
 5   0  0.3478183E-02  0.5860120E+03  0.7818609E-02  0.9934859E-01
       -1   -1    0    0    0  501  0.00000000000E+00  0.00000000000E+00  0.88080062587E+02  0.88080062732E+02  0.50400001928E-02 0.  1.
        1   -1    0    0  501    0  0.00000000000E+00  0.00000000000E+00 -0.97471009511E+03  0.97471009512E+03  0.50400001928E-02 0. -1.
    10030    2    1    2    0    0  0.00000000000E+00  0.00000000000E+00 -0.88663003252E+03  0.10627901579E+04  0.58601203491E+03 0.  0.
        4    1    3    3  502    0  0.27004676216E+03 -0.11035724676E+03 -0.39374909548E+03  0.49004483341E+03  0.12699999809E+01 0.  1.
       -4    1    3    3    0  502 -0.27004676216E+03  0.11035724676E+03 -0.49288093705E+03  0.57274532444E+03  0.12699999809E+01 0. -1.
</event>
<event>
 5   0  0.5935451E-02  0.5857617E+03  0.7818609E-02  0.9935394E-01
        2   -1    0    0  501    0  0.00000000000E+00  0.00000000000E+00  0.10392454015E+04  0.10392454015E+04  0.25500000920E-02 0. -1.
       -2   -1    0    0    0  501  0.00000000000E+00  0.00000000000E+00 -0.82539872617E+02  0.82539872656E+02  0.25500000920E-02 0.  1.
    10030    2    1    2    0    0  0.00000000000E+00  0.00000000000E+00  0.95670552887E+03  0.11217852741E+04  0.58576166853E+03 0.  0.
        3    1    3    3  502    0  0.17786784700E+03 -0.20362137220E+03  0.69400682374E+03  0.74481146327E+03  0.10100000352E+00 0. -1.
       -3    1    3    3    0  502 -0.17786784700E+03  0.20362137220E+03  0.26269870513E+03  0.37697381088E+03  0.10100000352E+00 0.  1.
</event>
<event>
 5   0  0.5935451E-02  0.5970506E+03  0.7818609E-02  0.9911544E-01
       -2   -1    0    0    0  501  0.00000000000E+00  0.00000000000E+00  0.71017777393E+02  0.71017777439E+02  0.25500000920E-02 0.  1.
        2   -1    0    0  501    0  0.00000000000E+00  0.00000000000E+00 -0.12548598467E+04  0.12548598468E+04  0.25500000920E-02 0. -1.
    10030    2    1    2    0    0  0.00000000000E+00  0.00000000000E+00 -0.11838420694E+04  0.13258776242E+04  0.59705060854E+03 0.  0.
        3    1    3    3  502    0  0.88572444658E+02  0.28360050207E+03 -0.65639915357E+03  0.72050966804E+03  0.10100000352E+00 0.  1.
       -3    1    3    3    0  502 -0.88572444658E+02 -0.28360050207E+03 -0.52744291578E+03  0.60536795615E+03  0.10100000352E+00 0. -1.
</event>
<event>
 5   0  0.3478183E-02  0.5936652E+03  0.7818609E-02  0.9918637E-01
        1   -1    0    0  501    0  0.00000000000E+00  0.00000000000E+00  0.74975526177E+03  0.74975526179E+03  0.50400001928E-02 0. -1.
       -1   -1    0    0    0  501  0.00000000000E+00  0.00000000000E+00 -0.11751779715E+03  0.11751779726E+03  0.50400001928E-02 0.  1.
    10030    2    1    2    0    0  0.00000000000E+00  0.00000000000E+00  0.63223746463E+03  0.86727305905E+03  0.59366518112E+03 0.  0.
        4    1    3    3  502    0  0.26701716005E+03 -0.12946834071E+03  0.32621454980E+03  0.44099632698E+03  0.12699999809E+01 0. -1.
       -4    1    3    3    0  502 -0.26701716005E+03  0.12946834071E+03  0.30602291482E+03  0.42627673207E+03  0.12699999809E+01 0.  1.
</event>
<event>
 5   0  0.3640827E-02  0.6047733E+03  0.7818609E-02  0.9895552E-01
       -1   -1    0    0    0  501  0.00000000000E+00  0.00000000000E+00  0.26569270842E+03  0.26569270846E+03  0.50400001928E-02 0.  1.
        1   -1    0    0  501    0  0.00000000000E+00  0.00000000000E+00 -0.34414832090E+03  0.34414832094E+03  0.50400001928E-02 0. -1.
    10030    2    1    2    0    0  0.00000000000E+00  0.00000000000E+00 -0.78455612486E+02  0.60984102940E+03  0.60477334433E+03 0.  0.
        3    1    3    3  502    0 -0.57393253425E+02  0.21906398075E+03  0.16283764369E+03  0.27892493902E+03  0.10100000352E+00 0.  1.
       -3    1    3    3    0  502  0.57393253425E+02 -0.21906398075E+03 -0.24129325617E+03  0.33091609039E+03  0.10100000352E+00 0. -1.
</event>
<event>
 5   0  0.3478183E-02  0.5996181E+03  0.7818609E-02  0.9906199E-01
       -1   -1    0    0    0  501  0.00000000000E+00  0.00000000000E+00  0.17278023576E+03  0.17278023584E+03  0.50400001928E-02 0. -1.
        1   -1    0    0  501    0  0.00000000000E+00  0.00000000000E+00 -0.52023009803E+03  0.52023009806E+03  0.50400001928E-02 0.  1.
    10030    2    1    2    0    0  0.00000000000E+00  0.00000000000E+00 -0.34744986227E+03  0.69301033390E+03  0.59961814190E+03 0.  0.
        4    1    3    3  502    0  0.24449938397E+03  0.10181070321E+03 -0.33610099077E+03  0.42791454398E+03  0.12699999809E+01 0.  1.
       -4    1    3    3    0  502 -0.24449938397E+03 -0.10181070321E+03 -0.11348871496E+02  0.26509578992E+03  0.12699999809E+01 0. -1.
</event>
<event>
 5   0  0.5999117E-02  0.5937080E+03  0.7818609E-02  0.9918547E-01
       -2   -1    0    0    0  501  0.00000000000E+00  0.00000000000E+00  0.15878198241E+03  0.15878198243E+03  0.25500000920E-02 0. -1.
        2   -1    0    0  501    0  0.00000000000E+00  0.00000000000E+00 -0.55498932766E+03  0.55498932767E+03  0.25500000920E-02 0.  1.
    10030    2    1    2    0    0  0.00000000000E+00  0.00000000000E+00 -0.39620734526E+03  0.71377131010E+03  0.59370802814E+03 0.  0.
        5    1    3    3  502    0 -0.94677985415E+02  0.14270660182E+02  0.13966120579E+03  0.16939573509E+03  0.46999998093E+01 0. -1.
       -5    1    3    3    0  502  0.94677985415E+02 -0.14270660182E+02 -0.53586855105E+03  0.54437557501E+03  0.46999998093E+01 0.  1.
</event>
<event>
 5   0  0.3478183E-02  0.5883003E+03  0.7818609E-02  0.9929981E-01
       -1   -1    0    0    0  501  0.00000000000E+00  0.00000000000E+00  0.14442497370E+03  0.14442497379E+03  0.50400001928E-02 0. -1.
        1   -1    0    0  501    0  0.00000000000E+00  0.00000000000E+00 -0.59909522615E+03  0.59909522617E+03  0.50400001928E-02 0.  1.
    10030    2    1    2    0    0  0.00000000000E+00  0.00000000000E+00 -0.45467025245E+03  0.74352019996E+03  0.58830030537E+03 0.  0.
        4    1    3    3  502    0 -0.10960140154E+03  0.48119096552E+02 -0.56691865037E+03  0.57941891902E+03  0.12699999809E+01 0.  1.
       -4    1    3    3    0  502  0.10960140154E+03 -0.48119096552E+02  0.11224839793E+03  0.16410128095E+03  0.12699999809E+01 0. -1.
</event>
<event>
 5   0  0.2388000E-02  0.5971687E+03  0.7818609E-02  0.9911298E-01
        3   -1    0    0  501    0  0.00000000000E+00  0.00000000000E+00  0.11220570926E+03  0.11220575472E+03  0.10100000352E+00 0.  1.
       -3   -1    0    0    0  501  0.00000000000E+00  0.00000000000E+00 -0.79454590036E+03  0.79454590678E+03  0.10100000352E+00 0. -1.
    10030    2    1    2    0    0  0.00000000000E+00  0.00000000000E+00 -0.68234019110E+03  0.90675166149E+03  0.59716868574E+03 0.  0.
        2    1    3    3  502    0  0.58083123052E+02  0.28039277882E+02  0.10150215531E+03  0.12026029198E+03  0.25500000920E-02 0.  1.
       -2    1    3    3    0  502 -0.58083123052E+02 -0.28039277882E+02 -0.78384234641E+03  0.78649136951E+03  0.25500000920E-02 0. -1.
</event>
<event>
 5   0  0.3767635E-02  0.5983170E+03  0.7818609E-02  0.9908904E-01
       -1   -1    0    0    0  501  0.00000000000E+00  0.00000000000E+00  0.59361032381E+03  0.59361032383E+03  0.50400001928E-02 0.  1.
        1   -1    0    0  501    0  0.00000000000E+00  0.00000000000E+00 -0.15076524347E+03  0.15076524356E+03  0.50400001928E-02 0. -1.
    10030    2    1    2    0    0  0.00000000000E+00  0.00000000000E+00  0.44284508033E+03  0.74437556739E+03  0.59831698969E+03 0.  0.
        2    1    3    3  502    0  0.10172829805E+03 -0.26334745751E+03  0.98291062322E+02  0.29893421173E+03  0.25500000920E-02 0. -1.
       -2    1    3    3    0  502 -0.10172829805E+03  0.26334745751E+03  0.34455401801E+03  0.44544135566E+03  0.25500000920E-02 0.  1.
</event>
<event>
 5   0  0.3703280E-02  0.5973526E+03  0.7818609E-02  0.9910914E-01
        1   -1    0    0  501    0  0.00000000000E+00  0.00000000000E+00  0.49812913723E+03  0.49812913726E+03  0.50400001928E-02 0.  1.
       -1   -1    0    0    0  501  0.00000000000E+00  0.00000000000E+00 -0.17908518026E+03  0.17908518033E+03  0.50400001928E-02 0. -1.
    10030    2    1    2    0    0  0.00000000000E+00  0.00000000000E+00  0.31904395697E+03  0.67721431759E+03  0.59735264750E+03 0.  0.
        5    1    3    3  502    0  0.10139473639E+03 -0.12629161678E+03  0.44397491579E+03  0.47261642046E+03  0.46999998093E+01 0.  1.
       -5    1    3    3    0  502 -0.10139473639E+03  0.12629161678E+03 -0.12493095883E+03  0.20459789713E+03  0.46999998093E+01 0. -1.
</event>
<event>
 5   0  0.5755078E-02  0.5982174E+03  0.7818609E-02  0.9909111E-01
        2   -1    0    0  501    0  0.00000000000E+00  0.00000000000E+00  0.52629870768E+03  0.52629870768E+03  0.25500000920E-02 0.  1.
       -2   -1    0    0    0  501  0.00000000000E+00  0.00000000000E+00 -0.16999095118E+03  0.16999095120E+03  0.25500000920E-02 0. -1.
    10030    2    1    2    0    0  0.00000000000E+00  0.00000000000E+00  0.35630775650E+03  0.69628965888E+03  0.59821741176E+03 0.  0.
        2    1    3    3  502    0 -0.13005247103E+03 -0.12473739013E+03 -0.99716010928E+02  0.20595228709E+03  0.25500000920E-02 0. -1.
       -2    1    3    3    0  502  0.13005247103E+03  0.12473739013E+03  0.45602376742E+03  0.49033737179E+03  0.25500000920E-02 0.  1.
</event>
<event>
 5   0  0.6007360E-02  0.5990886E+03  0.7818609E-02  0.9907299E-01
        2   -1    0    0  501    0  0.00000000000E+00  0.00000000000E+00  0.81824627385E+03  0.81824627385E+03  0.25500000920E-02 0. -1.
       -2   -1    0    0    0  501  0.00000000000E+00  0.00000000000E+00 -0.10965744039E+03  0.10965744042E+03  0.25500000920E-02 0.  1.
    10030    2    1    2    0    0  0.00000000000E+00  0.00000000000E+00  0.70858883346E+03  0.92790371427E+03  0.59908861452E+03 0.  0.
        4    1    3    3  502    0 -0.29942472806E+02 -0.19839716571E+03  0.98092893872E+01  0.20088758573E+03  0.12699999809E+01 0.  1.
       -4    1    3    3    0  502  0.29942472806E+02  0.19839716571E+03  0.69877954407E+03  0.72701612854E+03  0.12699999809E+01 0. -1.
</event>
<event>
 5   0  0.5935451E-02  0.6019750E+03  0.7818609E-02  0.9901317E-01
       -2   -1    0    0    0  501  0.00000000000E+00  0.00000000000E+00  0.77403208262E+02  0.77403208304E+02  0.25500000920E-02 0.  1.
        2   -1    0    0  501    0  0.00000000000E+00  0.00000000000E+00 -0.11704099222E+04  0.11704099222E+04  0.25500000920E-02 0. -1.
    10030    2    1    2    0    0  0.00000000000E+00  0.00000000000E+00 -0.10930067139E+04  0.12478131305E+04  0.60197502601E+03 0.  0.
        3    1    3    3  502    0  0.52616742843E+02  0.28882750588E+03 -0.68405828156E+03  0.74439612610E+03  0.10100000352E+00 0. -1.
       -3    1    3    3    0  502 -0.52616742843E+02 -0.28882750588E+03 -0.40894843235E+03  0.50341700438E+03  0.10100000352E+00 0.  1.
</event>
<event>
 5   0  0.3478183E-02  0.5643778E+03  0.7818609E-02  0.9982198E-01
        1   -1    0    0  501    0  0.00000000000E+00  0.00000000000E+00  0.64775335404E+03  0.64775335406E+03  0.50400001928E-02 0.  1.
       -1   -1    0    0    0  501  0.00000000000E+00  0.00000000000E+00 -0.12293347612E+03  0.12293347622E+03  0.50400001928E-02 0. -1.
    10030    2    1    2    0    0  0.00000000000E+00  0.00000000000E+00  0.52481987793E+03  0.77068683029E+03  0.56437778669E+03 0.  0.
        4    1    3    3  502    0 -0.83153482308E+02  0.11180991844E+02  0.63032261896E+03  0.63588342727E+03  0.12699999809E+01 0.  1.
       -4    1    3    3    0  502  0.83153482308E+02 -0.11180991844E+02 -0.10550274104E+03  0.13480340302E+03  0.12699999809E+01 0. -1.
</event>
<event>
 5   0  0.3640827E-02  0.6009797E+03  0.7818609E-02  0.9903376E-01
       -1   -1    0    0    0  501  0.00000000000E+00  0.00000000000E+00  0.14039452106E+03  0.14039452115E+03  0.50400001928E-02 0.  1.
        1   -1    0    0  501    0  0.00000000000E+00  0.00000000000E+00 -0.64314572624E+03  0.64314572626E+03  0.50400001928E-02 0. -1.
    10030    2    1    2    0    0  0.00000000000E+00  0.00000000000E+00 -0.50275120518E+03  0.78354024742E+03  0.60097965440E+03 0.  0.
        3    1    3    3  502    0  0.28975397115E+03  0.77148693983E+02 -0.27695217603E+03  0.40818109068E+03  0.10100000352E+00 0. -1.
       -3    1    3    3    0  502 -0.28975397115E+03 -0.77148693983E+02 -0.22579902915E+03  0.37535915674E+03  0.10100000352E+00 0.  1.
</event>
<event>
 5   0  0.3703280E-02  0.5976397E+03  0.7818609E-02  0.9910315E-01
        1   -1    0    0  501    0  0.00000000000E+00  0.00000000000E+00  0.59740194886E+03  0.59740194888E+03  0.50400001928E-02 0.  1.
       -1   -1    0    0    0  501  0.00000000000E+00  0.00000000000E+00 -0.14946938829E+03  0.14946938837E+03  0.50400001928E-02 0. -1.
    10030    2    1    2    0    0  0.00000000000E+00  0.00000000000E+00  0.44793256057E+03  0.74687133725E+03  0.59763970382E+03 0.  0.
        5    1    3    3  502    0  0.18331655785E+00  0.91495550888E+02  0.57941743209E+03  0.58661581980E+03  0.46999998093E+01 0.  1.
       -5    1    3    3    0  502 -0.18331655785E+00 -0.91495550888E+02 -0.13148487152E+03  0.16025551745E+03  0.46999998093E+01 0. -1.
</event>
<event>
 5   0  0.3703280E-02  0.5983863E+03  0.7818609E-02  0.9908760E-01
       -1   -1    0    0    0  501  0.00000000000E+00  0.00000000000E+00  0.84676495769E+03  0.84676495770E+03  0.50400001928E-02 0. -1.
        1   -1    0    0  501    0  0.00000000000E+00  0.00000000000E+00 -0.10571591349E+03  0.10571591361E+03  0.50400001928E-02 0.  1.
    10030    2    1    2    0    0  0.00000000000E+00  0.00000000000E+00  0.74104904420E+03  0.95248087131E+03  0.59838626680E+03 0.  0.
        5    1    3    3  502    0 -0.29037339569E+03  0.63266143990E+02  0.42508988905E+03  0.51869337538E+03  0.46999998093E+01 0.  1.
       -5    1    3    3    0  502  0.29037339569E+03 -0.63266143990E+02  0.31595915515E+03  0.43378749593E+03  0.46999998093E+01 0. -1.
</event>
<event>
 5   0  0.5755078E-02  0.5930551E+03  0.7818609E-02  0.9919920E-01
       -2   -1    0    0    0  501  0.00000000000E+00  0.00000000000E+00  0.18475061345E+03  0.18475061347E+03  0.25500000920E-02 0.  1.
        2   -1    0    0  501    0  0.00000000000E+00  0.00000000000E+00 -0.47593122761E+03  0.47593122762E+03  0.25500000920E-02 0. -1.
    10030    2    1    2    0    0  0.00000000000E+00  0.00000000000E+00 -0.29118061416E+03  0.66068184109E+03  0.59305509447E+03 0.  0.
        2    1    3    3  502    0  0.65560827739E+02 -0.28908351357E+03 -0.15429732165E+03  0.33417834075E+03  0.25500000920E-02 0.  1.
       -2    1    3    3    0  502 -0.65560827739E+02  0.28908351357E+03 -0.13688329251E+03  0.32650350033E+03  0.25500000920E-02 0. -1.
</event>
<event>
 5   0  0.5755078E-02  0.5960177E+03  0.7818609E-02  0.9913703E-01
        2   -1    0    0  501    0  0.00000000000E+00  0.00000000000E+00  0.10189264641E+04  0.10189264641E+04  0.25500000920E-02 0. -1.
       -2   -1    0    0    0  501  0.00000000000E+00  0.00000000000E+00 -0.87159658733E+02  0.87159658770E+02  0.25500000920E-02 0.  1.
    10030    2    1    2    0    0  0.00000000000E+00  0.00000000000E+00  0.93176680532E+03  0.11060861228E+04  0.59601772760E+03 0.  0.
        2    1    3    3  502    0 -0.25915727270E+03  0.75508684987E+02  0.70022271548E+03  0.75045046791E+03  0.25500000920E-02 0. -1.
       -2    1    3    3    0  502  0.25915727270E+03 -0.75508684987E+02  0.23154408984E+03  0.35563565492E+03  0.25500000920E-02 0.  1.
</event>
<event>
 5   0  0.3651984E-02  0.6066358E+03  0.7818609E-02  0.9891734E-01
       -1   -1    0    0    0  501  0.00000000000E+00  0.00000000000E+00  0.19529844189E+03  0.19529844195E+03  0.50400001928E-02 0. -1.
        1   -1    0    0  501    0  0.00000000000E+00  0.00000000000E+00 -0.47108282117E+03  0.47108282120E+03  0.50400001928E-02 0.  1.
    10030    2    1    2    0    0  0.00000000000E+00  0.00000000000E+00 -0.27578437929E+03  0.66638126316E+03  0.60663577543E+03 0.  0.
        1    1    3    3  502    0 -0.28316166818E+03  0.20429327044E+02 -0.20586097066E+02  0.28464306622E+03  0.50400001928E-02 0. -1.
       -1    1    3    3    0  502  0.28316166818E+03 -0.20429327044E+02 -0.25519828222E+03  0.38173819694E+03  0.50400001928E-02 0.  1.
</event>
<event>
 5   0  0.3478183E-02  0.6198266E+03  0.7818609E-02  0.9865105E-01
       -1   -1    0    0    0  501  0.00000000000E+00  0.00000000000E+00  0.11663809665E+03  0.11663809676E+03  0.50400001928E-02 0.  1.
        1   -1    0    0  501    0  0.00000000000E+00  0.00000000000E+00 -0.82345518411E+03  0.82345518413E+03  0.50400001928E-02 0. -1.
    10030    2    1    2    0    0  0.00000000000E+00  0.00000000000E+00 -0.70681708746E+03  0.94009328088E+03  0.61982657384E+03 0.  0.
        4    1    3    3  502    0 -0.56163285439E+02 -0.27655581039E+03 -0.54768403431E+03  0.61611431182E+03  0.12699999809E+01 0. -1.
       -4    1    3    3    0  502  0.56163285439E+02  0.27655581039E+03 -0.15913305315E+03  0.32397896906E+03  0.12699999809E+01 0.  1.
</event>
<event>
 5   0  0.5872632E-02  0.6282979E+03  0.7818609E-02  0.9848376E-01
        2   -1    0    0  501    0  0.00000000000E+00  0.00000000000E+00  0.41169387602E+03  0.41169387603E+03  0.25500000920E-02 0.  1.
       -2   -1    0    0    0  501  0.00000000000E+00  0.00000000000E+00 -0.23971590240E+03  0.23971590241E+03  0.25500000920E-02 0. -1.
    10030    2    1    2    0    0  0.00000000000E+00  0.00000000000E+00  0.17197797362E+03  0.65140977844E+03  0.62829791981E+03 0.  0.
        1    1    3    3  502    0 -0.92739407442E+02  0.30014686144E+03  0.85042804316E+02  0.32545508863E+03  0.50400001928E-02 0.  1.
       -1    1    3    3    0  502  0.92739407442E+02 -0.30014686144E+03  0.86935169308E+02  0.32595468981E+03  0.50400001928E-02 0. -1.
</event>
<event>
 5   0  0.5999117E-02  0.5898568E+03  0.7818609E-02  0.9926676E-01
        2   -1    0    0  501    0  0.00000000000E+00  0.00000000000E+00  0.12884095423E+04  0.12884095423E+04  0.25500000920E-02 0.  1.
       -2   -1    0    0    0  501  0.00000000000E+00  0.00000000000E+00 -0.67511733474E+02  0.67511733522E+02  0.25500000920E-02 0. -1.
    10030    2    1    2    0    0  0.00000000000E+00  0.00000000000E+00  0.12208978088E+04  0.13559212758E+04  0.58985680180E+03 0.  0.
        5    1    3    3  502    0  0.25152473219E+03 -0.15026823232E+03  0.68722231214E+03  0.74708890291E+03  0.46999998093E+01 0.  1.
       -5    1    3    3    0  502 -0.25152473219E+03  0.15026823232E+03  0.53367549667E+03  0.60883237290E+03  0.46999998093E+01 0. -1.
</event>
<event>
 5   0  0.3767635E-02  0.5963886E+03  0.7818609E-02  0.9912927E-01
       -1   -1    0    0    0  501  0.00000000000E+00  0.00000000000E+00  0.15804492270E+03  0.15804492278E+03  0.50400001928E-02 0. -1.
        1   -1    0    0  501    0  0.00000000000E+00  0.00000000000E+00 -0.56262376754E+03  0.56262376757E+03  0.50400001928E-02 0.  1.
    10030    2    1    2    0    0  0.00000000000E+00  0.00000000000E+00 -0.40457884485E+03  0.72066869034E+03  0.59638856423E+03 0.  0.
        2    1    3    3  502    0  0.26369855809E+02 -0.69028898499E+02 -0.55138485198E+03  0.55631431145E+03  0.25500000920E-02 0.  1.
       -2    1    3    3    0  502 -0.26369855809E+02  0.69028898499E+02  0.14680600713E+03  0.16435437889E+03  0.25500000920E-02 0. -1.
</event>
<event>
 5   0  0.3767635E-02  0.5936180E+03  0.7818609E-02  0.9918736E-01
        1   -1    0    0  501    0  0.00000000000E+00  0.00000000000E+00  0.39754317131E+03  0.39754317134E+03  0.50400001928E-02 0.  1.
       -1   -1    0    0    0  501  0.00000000000E+00  0.00000000000E+00 -0.22160004290E+03  0.22160004296E+03  0.50400001928E-02 0. -1.
    10030    2    1    2    0    0  0.00000000000E+00  0.00000000000E+00  0.17594312841E+03  0.61914321430E+03  0.59361800459E+03 0.  0.
        2    1    3    3  502    0  0.21911554693E+03  0.19840679124E+03  0.11593301648E+03  0.31751746729E+03  0.25500000920E-02 0.  1.
       -2    1    3    3    0  502 -0.21911554693E+03 -0.19840679124E+03  0.60010111930E+02  0.30162574701E+03  0.25500000920E-02 0. -1.
</event>
<event>
 5   0  0.3640827E-02  0.6000763E+03  0.7818609E-02  0.9905248E-01
       -1   -1    0    0    0  501  0.00000000000E+00  0.00000000000E+00  0.10654743966E+03  0.10654743978E+03  0.50400001928E-02 0.  1.
        1   -1    0    0  501    0  0.00000000000E+00  0.00000000000E+00 -0.84490890313E+03  0.84490890315E+03  0.50400001928E-02 0. -1.
    10030    2    1    2    0    0  0.00000000000E+00  0.00000000000E+00 -0.73836146347E+03  0.95145634293E+03  0.60007626328E+03 0.  0.
        3    1    3    3  502    0  0.29907647260E+03  0.23204735707E+02 -0.35944870343E+03  0.46817579692E+03  0.10100000352E+00 0. -1.
       -3    1    3    3    0  502 -0.29907647260E+03 -0.23204735707E+02 -0.37891276004E+03  0.48328054601E+03  0.10100000352E+00 0.  1.
</event>
<event>
 5   0  0.5935451E-02  0.6180398E+03  0.7818609E-02  0.9868670E-01
        2   -1    0    0  501    0  0.00000000000E+00  0.00000000000E+00  0.93240749728E+03  0.93240749728E+03  0.25500000920E-02 0.  1.
       -2   -1    0    0    0  501  0.00000000000E+00  0.00000000000E+00 -0.10241582769E+03  0.10241582772E+03  0.25500000920E-02 0. -1.
    10030    2    1    2    0    0  0.00000000000E+00  0.00000000000E+00  0.82999166959E+03  0.10348233250E+04  0.61803975794E+03 0.  0.
        3    1    3    3  502    0 -0.22209461878E+03 -0.91162323334E+02  0.89218328376E+02  0.25611815478E+03  0.10100000352E+00 0. -1.
       -3    1    3    3    0  502  0.22209461878E+03  0.91162323334E+02  0.74077334121E+03  0.77870517023E+03  0.10100000352E+00 0.  1.
</event>
<event>
 5   0  0.3640827E-02  0.5962549E+03  0.7818609E-02  0.9913207E-01
        1   -1    0    0  501    0  0.00000000000E+00  0.00000000000E+00  0.83679943103E+03  0.83679943104E+03  0.50400001928E-02 0. -1.
       -1   -1    0    0    0  501  0.00000000000E+00  0.00000000000E+00 -0.10621418627E+03  0.10621418639E+03  0.50400001928E-02 0.  1.
    10030    2    1    2    0    0  0.00000000000E+00  0.00000000000E+00  0.73058524476E+03  0.94301361744E+03  0.59625488075E+03 0.  0.
        3    1    3    3  502    0 -0.10212098554E+03  0.24132969847E+03  0.14044799623E+03  0.29731190507E+03  0.10100000352E+00 0.  1.
       -3    1    3    3    0  502  0.10212098554E+03 -0.24132969847E+03  0.59013724852E+03  0.64570171236E+03  0.10100000352E+00 0. -1.
</event>
<event>
 5   0  0.3767635E-02  0.5844975E+03  0.7818609E-02  0.9938101E-01
        1   -1    0    0  501    0  0.00000000000E+00  0.00000000000E+00  0.75640455731E+03  0.75640455733E+03  0.50400001928E-02 0. -1.
       -1   -1    0    0    0  501  0.00000000000E+00  0.00000000000E+00 -0.11291489684E+03  0.11291489695E+03  0.50400001928E-02 0.  1.
    10030    2    1    2    0    0  0.00000000000E+00  0.00000000000E+00  0.64348966047E+03  0.86931945428E+03  0.58449753674E+03 0.  0.
        2    1    3    3  502    0 -0.19051967866E+03  0.88647824101E+02  0.62382715382E+03  0.65826780456E+03  0.25500000920E-02 0. -1.
       -2    1    3    3    0  502  0.19051967866E+03 -0.88647824101E+02  0.19662506651E+02  0.21105164972E+03  0.25500000920E-02 0.  1.
</event>
<event>
 5   0  0.5935451E-02  0.6528706E+03  0.7818609E-02  0.9801407E-01
        2   -1    0    0  501    0  0.00000000000E+00  0.00000000000E+00  0.56386903180E+03  0.56386903181E+03  0.25500000920E-02 0. -1.
       -2   -1    0    0    0  501  0.00000000000E+00  0.00000000000E+00 -0.18898008422E+03  0.18898008423E+03  0.25500000920E-02 0.  1.
    10030    2    1    2    0    0  0.00000000000E+00  0.00000000000E+00  0.37488894759E+03  0.75284911604E+03  0.65287063688E+03 0.  0.
        3    1    3    3  502    0 -0.12205316284E+03 -0.30258544205E+03  0.17562369046E+03  0.37053827759E+03  0.10100000352E+00 0. -1.
       -3    1    3    3    0  502  0.12205316284E+03  0.30258544205E+03  0.19926525712E+03  0.38231083845E+03  0.10100000352E+00 0.  1.
</event>
<event>
 5   0  0.5999117E-02  0.5999202E+03  0.7818609E-02  0.9905572E-01
       -2   -1    0    0    0  501  0.00000000000E+00  0.00000000000E+00  0.99013977257E+03  0.99013977258E+03  0.25500000920E-02 0.  1.
        2   -1    0    0  501    0  0.00000000000E+00  0.00000000000E+00 -0.90872066392E+02  0.90872066427E+02  0.25500000920E-02 0. -1.
    10030    2    1    2    0    0  0.00000000000E+00  0.00000000000E+00  0.89926770618E+03  0.10810118390E+04  0.59992015192E+03 0.  0.
        5    1    3    3  502    0  0.11009232714E+03  0.70095602777E+02  0.93622147148E+03  0.94528643684E+03  0.46999998093E+01 0.  1.
       -5    1    3    3    0  502 -0.11009232714E+03 -0.70095602777E+02 -0.36953765296E+02  0.13572540216E+03  0.46999998093E+01 0. -1.
</event>
<event>
 5   0  0.5999117E-02  0.6393318E+03  0.7818609E-02  0.9827006E-01
        2   -1    0    0  501    0  0.00000000000E+00  0.00000000000E+00  0.13943496173E+04  0.13943496173E+04  0.25500000920E-02 0.  1.
       -2   -1    0    0    0  501  0.00000000000E+00  0.00000000000E+00 -0.73285975854E+02  0.73285975898E+02  0.25500000920E-02 0. -1.
    10030    2    1    2    0    0  0.00000000000E+00  0.00000000000E+00  0.13210636414E+04  0.14676355932E+04  0.63933175244E+03 0.  0.
        5    1    3    3  502    0  0.16381821649E+03  0.27275142781E+03  0.73070417456E+03  0.79698207642E+03  0.46999998093E+01 0. -1.
       -5    1    3    3    0  502 -0.16381821649E+03 -0.27275142781E+03  0.59035946688E+03  0.67065351677E+03  0.46999998093E+01 0.  1.
</event>
<event>
 5   0  0.5999117E-02  0.6175493E+03  0.7818609E-02  0.9869651E-01
       -2   -1    0    0    0  501  0.00000000000E+00  0.00000000000E+00  0.20663252117E+03  0.20663252118E+03  0.25500000920E-02 0. -1.
        2   -1    0    0  501    0  0.00000000000E+00  0.00000000000E+00 -0.46140739390E+03  0.46140739391E+03  0.25500000920E-02 0.  1.
    10030    2    1    2    0    0  0.00000000000E+00  0.00000000000E+00 -0.25477487274E+03  0.66803991509E+03  0.61754926312E+03 0.  0.
        5    1    3    3  502    0 -0.23544623056E+02  0.15825744456E+03 -0.41302099390E+03  0.44295394730E+03  0.46999998093E+01 0.  1.
       -5    1    3    3    0  502  0.23544623056E+02 -0.15825744456E+03  0.15824612116E+03  0.22508596779E+03  0.46999998093E+01 0. -1.
</event>
<event>
 5   0  0.5755078E-02  0.5966676E+03  0.7818609E-02  0.9912344E-01
       -2   -1    0    0    0  501  0.00000000000E+00  0.00000000000E+00  0.57450029324E+02  0.57450029381E+02  0.25500000920E-02 0. -1.
        2   -1    0    0  501    0  0.00000000000E+00  0.00000000000E+00 -0.15492256087E+04  0.15492256087E+04  0.25500000920E-02 0.  1.
    10030    2    1    2    0    0  0.00000000000E+00  0.00000000000E+00 -0.14917755793E+04  0.16066756381E+04  0.59666760159E+03 0.  0.
        2    1    3    3  502    0  0.91845902421E+02 -0.34962070892E+02  0.12612314655E+02  0.99081212548E+02  0.25500000920E-02 0. -1.
       -2    1    3    3    0  502 -0.91845902421E+02  0.34962070892E+02 -0.15043878940E+04  0.15075944255E+04  0.25500000920E-02 0.  1.
</event>
<event>
 5   0  0.6007360E-02  0.6084113E+03  0.7818609E-02  0.9888107E-01
       -2   -1    0    0    0  501  0.00000000000E+00  0.00000000000E+00  0.12337847023E+03  0.12337847026E+03  0.25500000920E-02 0. -1.
        2   -1    0    0  501    0  0.00000000000E+00  0.00000000000E+00 -0.75005856818E+03  0.75005856819E+03  0.25500000920E-02 0.  1.
    10030    2    1    2    0    0  0.00000000000E+00  0.00000000000E+00 -0.62668009795E+03  0.87343703844E+03  0.60841130410E+03 0.  0.
        4    1    3    3  502    0 -0.25270821027E+02  0.14615896737E+03 -0.69462279764E+03  0.71028409952E+03  0.12699999809E+01 0.  1.
       -4    1    3    3    0  502  0.25270821027E+02 -0.14615896737E+03  0.67942699681E+02  0.16315293892E+03  0.12699999809E+01 0. -1.
</event>
<event>
 5   0  0.5935451E-02  0.5901755E+03  0.7818609E-02  0.9926001E-01
       -2   -1    0    0    0  501  0.00000000000E+00  0.00000000000E+00  0.87862193832E+02  0.87862193869E+02  0.25500000920E-02 0.  1.
        2   -1    0    0  501    0  0.00000000000E+00  0.00000000000E+00 -0.99106078779E+03  0.99106078779E+03  0.25500000920E-02 0. -1.
    10030    2    1    2    0    0  0.00000000000E+00  0.00000000000E+00 -0.90319859396E+03  0.10789229817E+04  0.59017548258E+03 0.  0.
        3    1    3    3  502    0  0.21387557555E+02  0.29420086945E+03 -0.43683933281E+03  0.52710548478E+03  0.10100000352E+00 0.  1.
       -3    1    3    3    0  502 -0.21387557555E+02 -0.29420086945E+03 -0.46635926115E+03  0.55181749688E+03  0.10100000352E+00 0. -1.
</event>
<event>
 5   0  0.5999117E-02  0.5886980E+03  0.7818609E-02  0.9929136E-01
       -2   -1    0    0    0  501  0.00000000000E+00  0.00000000000E+00  0.10158943707E+03  0.10158943710E+03  0.25500000920E-02 0.  1.
        2   -1    0    0  501    0  0.00000000000E+00  0.00000000000E+00 -0.85285760357E+03  0.85285760357E+03  0.25500000920E-02 0. -1.
    10030    2    1    2    0    0  0.00000000000E+00  0.00000000000E+00 -0.75126816650E+03  0.95444704067E+03  0.58869796624E+03 0.  0.
        5    1    3    3  502    0 -0.18138623969E+02 -0.25963788026E+03 -0.59839645763E+03  0.65256513012E+03  0.46999998093E+01 0. -1.
       -5    1    3    3    0  502  0.18138623969E+02  0.25963788026E+03 -0.15287170887E+03  0.30188191055E+03  0.46999998093E+01 0.  1.
</event>
<event>
 5   0  0.6007360E-02  0.6044455E+03  0.7818609E-02  0.9896226E-01
        2   -1    0    0  501    0  0.00000000000E+00  0.00000000000E+00  0.37160053969E+03  0.37160053970E+03  0.25500000920E-02 0. -1.
       -2   -1    0    0    0  501  0.00000000000E+00  0.00000000000E+00 -0.24579782476E+03  0.24579782478E+03  0.25500000920E-02 0.  1.
    10030    2    1    2    0    0  0.00000000000E+00  0.00000000000E+00  0.12580271493E+03  0.61739836448E+03  0.60444554542E+03 0.  0.
        4    1    3    3  502    0  0.10235488915E+03 -0.26689631376E+03 -0.37317592984E+02  0.28827830525E+03  0.12699999809E+01 0.  1.
       -4    1    3    3    0  502 -0.10235488915E+03  0.26689631376E+03  0.16312030792E+03  0.32912005923E+03  0.12699999809E+01 0. -1.
</event>
<event>
 5   0  0.3703280E-02  0.5995008E+03  0.7818609E-02  0.9906442E-01
       -1   -1    0    0    0  501  0.00000000000E+00  0.00000000000E+00  0.30904796966E+03  0.30904796970E+03  0.50400001928E-02 0.  1.
        1   -1    0    0  501    0  0.00000000000E+00  0.00000000000E+00 -0.29073257942E+03  0.29073257946E+03  0.50400001928E-02 0. -1.
    10030    2    1    2    0    0  0.00000000000E+00  0.00000000000E+00  0.18315390236E+02  0.59978054916E+03  0.59950083706E+03 0.  0.
        5    1    3    3  502    0  0.42816146981E+02  0.28630815991E+03  0.86799564457E+02  0.30226121031E+03  0.46999998093E+01 0.  1.
       -5    1    3    3    0  502 -0.42816146981E+02 -0.28630815991E+03 -0.68484174221E+02  0.29751933885E+03  0.46999998093E+01 0. -1.
</event>
<event>
 5   0  0.5872632E-02  0.5939041E+03  0.7818609E-02  0.9918134E-01
        2   -1    0    0  501    0  0.00000000000E+00  0.00000000000E+00  0.37186672231E+03  0.37186672232E+03  0.25500000920E-02 0.  1.
       -2   -1    0    0    0  501  0.00000000000E+00  0.00000000000E+00 -0.23712939337E+03  0.23712939338E+03  0.25500000920E-02 0. -1.
    10030    2    1    2    0    0  0.00000000000E+00  0.00000000000E+00  0.13473732894E+03  0.60899611570E+03  0.59390413463E+03 0.  0.
        1    1    3    3  502    0 -0.14663635456E+03  0.25325447657E+03  0.11905265679E+03  0.31593288132E+03  0.50400001928E-02 0. -1.
       -1    1    3    3    0  502  0.14663635456E+03 -0.25325447657E+03  0.15684672147E+02  0.29306323439E+03  0.50400001928E-02 0.  1.
</event>
<event>
 5   0  0.3767635E-02  0.5899308E+03  0.7818609E-02  0.9926519E-01
       -1   -1    0    0    0  501  0.00000000000E+00  0.00000000000E+00  0.17537056282E+03  0.17537056289E+03  0.50400001928E-02 0. -1.
        1   -1    0    0  501    0  0.00000000000E+00  0.00000000000E+00 -0.49611861999E+03  0.49611862001E+03  0.50400001928E-02 0.  1.
    10030    2    1    2    0    0  0.00000000000E+00  0.00000000000E+00 -0.32074805717E+03  0.67148918290E+03  0.58993084898E+03 0.  0.
        2    1    3    3  502    0  0.92682435388E+02 -0.86357601715E+02 -0.46357831027E+03  0.48057519595E+03  0.25500000920E-02 0.  1.
       -2    1    3    3    0  502 -0.92682435388E+02  0.86357601715E+02  0.14283025310E+03  0.19091398695E+03  0.25500000920E-02 0. -1.
</event>
<event>
 5   0  0.5935451E-02  0.6076016E+03  0.7818609E-02  0.9889759E-01
        2   -1    0    0  501    0  0.00000000000E+00  0.00000000000E+00  0.27355224722E+03  0.27355224723E+03  0.25500000920E-02 0.  1.
       -2   -1    0    0    0  501  0.00000000000E+00  0.00000000000E+00 -0.33739418744E+03  0.33739418745E+03  0.25500000920E-02 0. -1.
    10030    2    1    2    0    0  0.00000000000E+00  0.00000000000E+00 -0.63841940228E+02  0.61094643468E+03  0.60760163983E+03 0.  0.
        3    1    3    3  502    0 -0.21281732081E+03  0.14626039752E+03 -0.19283823969E+03  0.32228855519E+03  0.10100000352E+00 0. -1.
       -3    1    3    3    0  502  0.21281732081E+03 -0.14626039752E+03  0.12899629946E+03  0.28865787949E+03  0.10100000352E+00 0.  1.
</event>
<event>
 5   0  0.3478183E-02  0.5990701E+03  0.7818609E-02  0.9907337E-01
       -1   -1    0    0    0  501  0.00000000000E+00  0.00000000000E+00  0.67219483532E+03  0.67219483534E+03  0.50400001928E-02 0.  1.
        1   -1    0    0  501    0  0.00000000000E+00  0.00000000000E+00 -0.13347506549E+03  0.13347506559E+03  0.50400001928E-02 0. -1.
    10030    2    1    2    0    0  0.00000000000E+00  0.00000000000E+00  0.53871976983E+03  0.80566990093E+03  0.59907011181E+03 0.  0.
        4    1    3    3  502    0 -0.49523890538E+02  0.59425660558E+02 -0.11980584185E+03  0.14261513773E+03  0.12699999809E+01 0. -1.
       -4    1    3    3    0  502  0.49523890538E+02 -0.59425660558E+02  0.65852561168E+03  0.66305476320E+03  0.12699999809E+01 0.  1.
</event>
<event>
 5   0  0.3651984E-02  0.6029008E+03  0.7818609E-02  0.9899406E-01
       -1   -1    0    0    0  501  0.00000000000E+00  0.00000000000E+00  0.68268112284E+02  0.68268112470E+02  0.50400001928E-02 0. -1.
        1   -1    0    0  501    0  0.00000000000E+00  0.00000000000E+00 -0.13311097160E+04  0.13311097160E+04  0.50400001928E-02 0.  1.
    10030    2    1    2    0    0  0.00000000000E+00  0.00000000000E+00 -0.12628416037E+04  0.13993778285E+04  0.60290081337E+03 0.  0.
        1    1    3    3  502    0 -0.24525893621E+03 -0.13663878215E+03 -0.37662805610E+03  0.46975610188E+03  0.50400001928E-02 0. -1.
       -1    1    3    3    0  502  0.24525893621E+03  0.13663878215E+03 -0.88621354762E+03  0.92962172661E+03  0.50400001928E-02 0.  1.
</event>
<event>
 5   0  0.3703280E-02  0.6007335E+03  0.7818609E-02  0.9903886E-01
       -1   -1    0    0    0  501  0.00000000000E+00  0.00000000000E+00  0.31519807206E+03  0.31519807210E+03  0.50400001928E-02 0. -1.
        1   -1    0    0  501    0  0.00000000000E+00  0.00000000000E+00 -0.28623327171E+03  0.28623327175E+03  0.50400001928E-02 0.  1.
    10030    2    1    2    0    0  0.00000000000E+00  0.00000000000E+00  0.28964800359E+02  0.60143134385E+03  0.60073346978E+03 0.  0.
        5    1    3    3  502    0 -0.29992077084E+03 -0.54535677477E+01 -0.22736200167E+00  0.30000725304E+03  0.46999998093E+01 0.  1.
       -5    1    3    3    0  502  0.29992077084E+03  0.54535677477E+01  0.29192162361E+02  0.30142409082E+03  0.46999998093E+01 0. -1.
</event>
<event>
 5   0  0.6007360E-02  0.5979473E+03  0.7818609E-02  0.9909674E-01
        2   -1    0    0  501    0  0.00000000000E+00  0.00000000000E+00  0.72955995163E+03  0.72955995163E+03  0.25500000920E-02 0.  1.
       -2   -1    0    0    0  501  0.00000000000E+00  0.00000000000E+00 -0.12251937981E+03  0.12251937983E+03  0.25500000920E-02 0. -1.
    10030    2    1    2    0    0  0.00000000000E+00  0.00000000000E+00  0.60704057182E+03  0.85207933147E+03  0.59794726463E+03 0.  0.
        4    1    3    3  502    0  0.74108218922E+02 -0.57375407583E+02  0.70808102802E+03  0.71425788105E+03  0.12699999809E+01 0.  1.
       -4    1    3    3    0  502 -0.74108218922E+02  0.57375407583E+02 -0.10104045620E+03  0.13782145042E+03  0.12699999809E+01 0. -1.
</event>
<event>
 5   0  0.3767635E-02  0.6049476E+03  0.7818609E-02  0.9895194E-01
       -1   -1    0    0    0  501  0.00000000000E+00  0.00000000000E+00  0.29576784553E+03  0.29576784558E+03  0.50400001928E-02 0.  1.
        1   -1    0    0  501    0  0.00000000000E+00  0.00000000000E+00 -0.30933181507E+03  0.30933181511E+03  0.50400001928E-02 0. -1.
    10030    2    1    2    0    0  0.00000000000E+00  0.00000000000E+00 -0.13563969538E+02  0.60509966069E+03  0.60494761599E+03 0.  0.
        2    1    3    3  502    0  0.85505222377E+02 -0.23598885184E+03 -0.17560984210E+03  0.30633429109E+03  0.25500000920E-02 0. -1.
       -2    1    3    3    0  502 -0.85505222377E+02  0.23598885184E+03  0.16204587257E+03  0.29876536960E+03  0.25500000920E-02 0.  1.
</event>
<event>
 5   0  0.5755078E-02  0.5988328E+03  0.7818609E-02  0.9907831E-01
        2   -1    0    0  501    0  0.00000000000E+00  0.00000000000E+00  0.43776254259E+03  0.43776254260E+03  0.25500000920E-02 0.  1.
       -2   -1    0    0    0  501  0.00000000000E+00  0.00000000000E+00 -0.20479179137E+03  0.20479179138E+03  0.25500000920E-02 0. -1.
    10030    2    1    2    0    0  0.00000000000E+00  0.00000000000E+00  0.23297075122E+03  0.64255433398E+03  0.59883278233E+03 0.  0.
        2    1    3    3  502    0 -0.17566204113E+03 -0.23801804646E+03  0.16612803327E+03  0.33927609196E+03  0.25500000920E-02 0.  1.
       -2    1    3    3    0  502  0.17566204113E+03  0.23801804646E+03  0.66842717956E+02  0.30327824202E+03  0.25500000920E-02 0. -1.
</event>
<event>
 5   0  0.2388000E-02  0.6035154E+03  0.7818609E-02  0.9898139E-01
        3   -1    0    0  501    0  0.00000000000E+00  0.00000000000E+00  0.39367178040E+02  0.39367307602E+02  0.10100000352E+00 0.  1.
       -3   -1    0    0    0  501  0.00000000000E+00  0.00000000000E+00 -0.23130323602E+04  0.23130323624E+04  0.10100000352E+00 0. -1.
    10030    2    1    2    0    0  0.00000000000E+00  0.00000000000E+00 -0.22736651822E+04  0.23523996700E+04  0.60351540733E+03 0.  0.
        1    1    3    3  502    0 -0.91328345226E+02  0.24888965475E+03 -0.16985905074E+04  0.17191557925E+04  0.50400001928E-02 0. -1.
       -1    1    3    3    0  502  0.91328345226E+02 -0.24888965475E+03 -0.57507467481E+03  0.63324387760E+03  0.50400001928E-02 0.  1.
</event>
<event>
 5   0  0.5872632E-02  0.6165653E+03  0.7818609E-02  0.9871622E-01
       -2   -1    0    0    0  501  0.00000000000E+00  0.00000000000E+00  0.89451749332E+02  0.89451749369E+02  0.25500000920E-02 0. -1.
        2   -1    0    0  501    0  0.00000000000E+00  0.00000000000E+00 -0.10624519872E+04  0.10624519872E+04  0.25500000920E-02 0.  1.
    10030    2    1    2    0    0  0.00000000000E+00  0.00000000000E+00 -0.97300023784E+03  0.11519037365E+04  0.61656528886E+03 0.  0.
        1    1    3    3  502    0  0.38847535112E+02  0.11434440646E+03  0.43422009588E+02  0.12833255711E+03  0.50400001928E-02 0. -1.
       -1    1    3    3    0  502 -0.38847535112E+02 -0.11434440646E+03 -0.10164222474E+04  0.10235711794E+04  0.50400001928E-02 0.  1.
</event>
<event>
 5   0  0.5999117E-02  0.5920823E+03  0.7818609E-02  0.9921970E-01
        2   -1    0    0  501    0  0.00000000000E+00  0.00000000000E+00  0.59982196781E+03  0.59982196781E+03  0.25500000920E-02 0. -1.
       -2   -1    0    0    0  501  0.00000000000E+00  0.00000000000E+00 -0.14611062129E+03  0.14611062131E+03  0.25500000920E-02 0.  1.
    10030    2    1    2    0    0  0.00000000000E+00  0.00000000000E+00  0.45371134652E+03  0.74593258913E+03  0.59208229290E+03 0.  0.
        5    1    3    3  502    0 -0.47118397790E+02 -0.65741823189E+02 -0.13187130522E+03  0.15477164426E+03  0.46999998093E+01 0.  1.
       -5    1    3    3    0  502  0.47118397790E+02  0.65741823189E+02  0.58558265174E+03  0.59116094487E+03  0.46999998093E+01 0. -1.
</event>
<event>
 5   0  0.3767635E-02  0.5948726E+03  0.7818609E-02  0.9916101E-01
       -1   -1    0    0    0  501  0.00000000000E+00  0.00000000000E+00  0.13478017110E+03  0.13478017119E+03  0.50400001928E-02 0. -1.
        1   -1    0    0  501    0  0.00000000000E+00  0.00000000000E+00 -0.65638986701E+03  0.65638986703E+03  0.50400001928E-02 0.  1.
    10030    2    1    2    0    0  0.00000000000E+00  0.00000000000E+00 -0.52160969591E+03  0.79117003822E+03  0.59487255317E+03 0.  0.
        2    1    3    3  502    0  0.21455208489E+03  0.18685303088E+03 -0.37615110601E+03  0.47163153716E+03  0.25500000920E-02 0.  1.
       -2    1    3    3    0  502 -0.21455208489E+03 -0.18685303088E+03 -0.14545858990E+03  0.31953850106E+03  0.25500000920E-02 0. -1.
</event>
<event>
 5   0  0.3478183E-02  0.6003461E+03  0.7818609E-02  0.9904688E-01
        1   -1    0    0  501    0  0.00000000000E+00  0.00000000000E+00  0.44900548989E+03  0.44900548991E+03  0.50400001928E-02 0. -1.
       -1   -1    0    0    0  501  0.00000000000E+00  0.00000000000E+00 -0.20067428000E+03  0.20067428006E+03  0.50400001928E-02 0.  1.
    10030    2    1    2    0    0  0.00000000000E+00  0.00000000000E+00  0.24833120989E+03  0.64967976998E+03  0.60034607828E+03 0.  0.
        4    1    3    3  502    0  0.16083803698E+02 -0.63012304862E+02  0.44128732362E+03  0.44605532638E+03  0.12699999809E+01 0. -1.
       -4    1    3    3    0  502 -0.16083803698E+02  0.63012304862E+02 -0.19295611373E+03  0.20362444360E+03  0.12699999809E+01 0.  1.
</event>
<event>
 5   0  0.6007360E-02  0.6491085E+03  0.7818609E-02  0.9808453E-01
       -2   -1    0    0    0  501  0.00000000000E+00  0.00000000000E+00  0.15508518561E+03  0.15508518563E+03  0.25500000920E-02 0. -1.
        2   -1    0    0  501    0  0.00000000000E+00  0.00000000000E+00 -0.67921039617E+03  0.67921039618E+03  0.25500000920E-02 0.  1.
    10030    2    1    2    0    0  0.00000000000E+00  0.00000000000E+00 -0.52412521057E+03  0.83429558181E+03  0.64910852827E+03 0.  0.
        4    1    3    3  502    0 -0.10249130016E+03 -0.30441213395E+03 -0.20229097492E+03  0.37959776783E+03  0.12699999809E+01 0.  1.
       -4    1    3    3    0  502  0.10249130016E+03  0.30441213395E+03 -0.32183423565E+03  0.45469781398E+03  0.12699999809E+01 0. -1.
</event>
<event>
 5   0  0.5935451E-02  0.5897077E+03  0.7818609E-02  0.9926992E-01
       -2   -1    0    0    0  501  0.00000000000E+00  0.00000000000E+00  0.61939202782E+02  0.61939202834E+02  0.25500000920E-02 0.  1.
        2   -1    0    0  501    0  0.00000000000E+00  0.00000000000E+00 -0.14036151736E+04  0.14036151736E+04  0.25500000920E-02 0. -1.
    10030    2    1    2    0    0  0.00000000000E+00  0.00000000000E+00 -0.13416759708E+04  0.14655543764E+04  0.58970774086E+03 0.  0.
        3    1    3    3  502    0 -0.26331922021E+03  0.57888649149E+02 -0.37416157687E+03  0.46117784339E+03  0.10100000352E+00 0.  1.
       -3    1    3    3    0  502  0.26331922021E+03 -0.57888649149E+02 -0.96751439396E+03  0.10043765331E+04  0.10100000352E+00 0. -1.
</event>
<event>
 5   0  0.3651984E-02  0.5985998E+03  0.7818609E-02  0.9908315E-01
       -1   -1    0    0    0  501  0.00000000000E+00  0.00000000000E+00  0.29592067027E+03  0.29592067032E+03  0.50400001928E-02 0. -1.
        1   -1    0    0  501    0  0.00000000000E+00  0.00000000000E+00 -0.30271773871E+03  0.30271773875E+03  0.50400001928E-02 0.  1.
    10030    2    1    2    0    0  0.00000000000E+00  0.00000000000E+00 -0.67970684358E+01  0.59863840907E+03  0.59859982014E+03 0.  0.
        1    1    3    3  502    0 -0.13890322277E+03 -0.24398132531E+03 -0.10713295962E+03  0.30049702737E+03  0.50400001928E-02 0. -1.
       -1    1    3    3    0  502  0.13890322277E+03  0.24398132531E+03  0.10033589118E+03  0.29814138170E+03  0.50400001928E-02 0.  1.
</event>
<event>
 5   0  0.3651984E-02  0.6398352E+03  0.7818609E-02  0.9826042E-01
       -1   -1    0    0    0  501  0.00000000000E+00  0.00000000000E+00  0.10235017208E+03  0.10235017220E+03  0.50400001928E-02 0.  1.
        1   -1    0    0  501    0  0.00000000000E+00  0.00000000000E+00 -0.99997167326E+03  0.99997167328E+03  0.50400001928E-02 0. -1.
    10030    2    1    2    0    0  0.00000000000E+00  0.00000000000E+00 -0.89762150119E+03  0.11023218455E+04  0.63983520661E+03 0.  0.
        1    1    3    3  502    0 -0.26085855446E+03  0.12246858201E+03 -0.20945922909E+03  0.35625680020E+03  0.50400001928E-02 0. -1.
       -1    1    3    3    0  502  0.26085855446E+03 -0.12246858201E+03 -0.68816227210E+03  0.74606504528E+03  0.50400001928E-02 0.  1.
</event>
<event>
 5   0  0.3767635E-02  0.5943713E+03  0.7818609E-02  0.9917153E-01
        1   -1    0    0  501    0  0.00000000000E+00  0.00000000000E+00  0.25921677776E+03  0.25921677781E+03  0.50400001928E-02 0. -1.
       -1   -1    0    0    0  501  0.00000000000E+00  0.00000000000E+00 -0.34071608045E+03  0.34071608049E+03  0.50400001928E-02 0.  1.
    10030    2    1    2    0    0  0.00000000000E+00  0.00000000000E+00 -0.81499302687E+02  0.59993285830E+03  0.59437134700E+03 0.  0.
        2    1    3    3  502    0 -0.11180657873E+02  0.10443920314E+03 -0.32135591640E+03  0.33808605306E+03  0.25500000920E-02 0.  1.
       -2    1    3    3    0  502  0.11180657873E+02 -0.10443920314E+03  0.23985661371E+03  0.26184680524E+03  0.25500000920E-02 0. -1.
</event>
<event>
 5   0  0.3767635E-02  0.6127532E+03  0.7818609E-02  0.9879295E-01
        1   -1    0    0  501    0  0.00000000000E+00  0.00000000000E+00  0.39038768785E+03  0.39038768789E+03  0.50400001928E-02 0.  1.
       -1   -1    0    0    0  501  0.00000000000E+00  0.00000000000E+00 -0.24044462982E+03  0.24044462987E+03  0.50400001928E-02 0. -1.
    10030    2    1    2    0    0  0.00000000000E+00  0.00000000000E+00  0.14994305804E+03  0.63083231776E+03  0.61275320682E+03 0.  0.
        2    1    3    3  502    0  0.17534469142E+03  0.10421243772E+03  0.31032232010E+03  0.37135688406E+03  0.25500000920E-02 0.  1.
       -2    1    3    3    0  502 -0.17534469142E+03 -0.10421243772E+03 -0.16037926206E+03  0.25947543369E+03  0.25500000920E-02 0. -1.
</event>
<event>
 5   0  0.5999117E-02  0.5978644E+03  0.7818609E-02  0.9909847E-01
        2   -1    0    0  501    0  0.00000000000E+00  0.00000000000E+00  0.17760054588E+04  0.17760054588E+04  0.25500000920E-02 0. -1.
       -2   -1    0    0    0  501  0.00000000000E+00  0.00000000000E+00 -0.50315419265E+02  0.50315419330E+02  0.25500000920E-02 0.  1.
    10030    2    1    2    0    0  0.00000000000E+00  0.00000000000E+00  0.17256900396E+04  0.18263208782E+04  0.59786439713E+03 0.  0.
        5    1    3    3  502    0 -0.19331634297E+02 -0.11192239578E+03  0.18287665904E+02  0.11513845354E+03  0.46999998093E+01 0.  1.
       -5    1    3    3    0  502  0.19331634297E+02  0.11192239578E+03  0.17074023737E+04  0.17111824246E+04  0.46999998093E+01 0. -1.
</event>
<event>
 5   0  0.3703280E-02  0.6000650E+03  0.7818609E-02  0.9905271E-01
        1   -1    0    0  501    0  0.00000000000E+00  0.00000000000E+00  0.21766801497E+04  0.21766801497E+04  0.50400001928E-02 0.  1.
       -1   -1    0    0    0  501  0.00000000000E+00  0.00000000000E+00 -0.41356325206E+02  0.41356325513E+02  0.50400001928E-02 0. -1.
    10030    2    1    2    0    0  0.00000000000E+00  0.00000000000E+00  0.21353238245E+04  0.22180364752E+04  0.60006497144E+03 0.  0.
        5    1    3    3  502    0  0.17042907870E+03 -0.18382951620E+03  0.16768054267E+04  0.16954462217E+04  0.46999998093E+01 0.  1.
       -5    1    3    3    0  502 -0.17042907870E+03  0.18382951620E+03  0.45851839779E+03  0.52259025345E+03  0.46999998093E+01 0. -1.
</event>
<event>
 5   0  0.3640827E-02  0.5997991E+03  0.7818609E-02  0.9905823E-01
       -1   -1    0    0    0  501  0.00000000000E+00  0.00000000000E+00  0.57252011922E+03  0.57252011925E+03  0.50400001928E-02 0. -1.
        1   -1    0    0  501    0  0.00000000000E+00  0.00000000000E+00 -0.15709448802E+03  0.15709448810E+03  0.50400001928E-02 0.  1.
    10030    2    1    2    0    0  0.00000000000E+00  0.00000000000E+00  0.41542563120E+03  0.72961460735E+03  0.59979914988E+03 0.  0.
        3    1    3    3  502    0  0.21196583726E+02  0.10574873048E+03 -0.13268736802E+03  0.17099133602E+03  0.10100000352E+00 0.  1.
       -3    1    3    3    0  502 -0.21196583726E+02 -0.10574873048E+03  0.54811299922E+03  0.55862327133E+03  0.10100000352E+00 0. -1.
</event>
<event>
 5   0  0.3640827E-02  0.5905500E+03  0.7818609E-02  0.9925208E-01
        1   -1    0    0  501    0  0.00000000000E+00  0.00000000000E+00  0.10405871689E+04  0.10405871689E+04  0.50400001928E-02 0. -1.
       -1   -1    0    0    0  501  0.00000000000E+00  0.00000000000E+00 -0.83786651433E+02  0.83786651584E+02  0.50400001928E-02 0.  1.
    10030    2    1    2    0    0  0.00000000000E+00  0.00000000000E+00  0.95680051743E+03  0.11243738205E+04  0.59054996231E+03 0.  0.
        3    1    3    3  502    0 -0.17296749004E+03 -0.23038180176E+03  0.60169846281E+03  0.66710911967E+03  0.10100000352E+00 0. -1.
       -3    1    3    3    0  502  0.17296749004E+03  0.23038180176E+03  0.35510205463E+03  0.45726470080E+03  0.10100000352E+00 0.  1.
</event>
<event>
 5   0  0.3478183E-02  0.5996375E+03  0.7818609E-02  0.9906158E-01
        1   -1    0    0  501    0  0.00000000000E+00  0.00000000000E+00  0.79886232088E+03  0.79886232090E+03  0.50400001928E-02 0. -1.
       -1   -1    0    0    0  501  0.00000000000E+00  0.00000000000E+00 -0.11252412504E+03  0.11252412515E+03  0.50400001928E-02 0.  1.
    10030    2    1    2    0    0  0.00000000000E+00  0.00000000000E+00  0.68633819585E+03  0.91138644605E+03  0.59963750296E+03 0.  0.
        4    1    3    3  502    0 -0.21230521548E+03 -0.24540786647E+02  0.23579032966E+02  0.21501939081E+03  0.12699999809E+01 0.  1.
       -4    1    3    3    0  502  0.21230521548E+03  0.24540786647E+02  0.66275916288E+03  0.69636705523E+03  0.12699999809E+01 0. -1.
</event>
<event>
 5   0  0.5755078E-02  0.6020683E+03  0.7818609E-02  0.9901124E-01
        2   -1    0    0  501    0  0.00000000000E+00  0.00000000000E+00  0.25433286061E+03  0.25433286062E+03  0.25500000920E-02 0.  1.
       -2   -1    0    0    0  501  0.00000000000E+00  0.00000000000E+00 -0.35631085846E+03  0.35631085847E+03  0.25500000920E-02 0. -1.
    10030    2    1    2    0    0  0.00000000000E+00  0.00000000000E+00 -0.10197799786E+03  0.61064371909E+03  0.60206830146E+03 0.  0.
        2    1    3    3  502    0 -0.27489834111E+03  0.31923140402E+02 -0.17113883931E+03  0.32538698063E+03  0.25500000920E-02 0. -1.
       -2    1    3    3    0  502  0.27489834111E+03 -0.31923140402E+02  0.69160841458E+02  0.28525673846E+03  0.25500000920E-02 0.  1.
</event>
<event>
 5   0  0.5872632E-02  0.5932273E+03  0.7818609E-02  0.9919558E-01
        2   -1    0    0  501    0  0.00000000000E+00  0.00000000000E+00  0.31595524315E+04  0.31595524315E+04  0.25500000920E-02 0.  1.
       -2   -1    0    0    0  501  0.00000000000E+00  0.00000000000E+00 -0.27845612271E+02  0.27845612388E+02  0.25500000920E-02 0. -1.
    10030    2    1    2    0    0  0.00000000000E+00  0.00000000000E+00  0.31317068193E+04  0.31873980439E+04  0.59322734983E+03 0.  0.
        1    1    3    3  502    0  0.19502002280E+03 -0.20479261949E+03  0.10850739890E+04  0.11213199311E+04  0.50400001928E-02 0.  1.
       -1    1    3    3    0  502 -0.19502002280E+03  0.20479261949E+03  0.20466328303E+04  0.20660781128E+04  0.50400001928E-02 0. -1.
</event>
<event>
 5   0  0.3703280E-02  0.6014678E+03  0.7818609E-02  0.9902365E-01
        1   -1    0    0  501    0  0.00000000000E+00  0.00000000000E+00  0.98027661726E+03  0.98027661728E+03  0.50400001928E-02 0. -1.
       -1   -1    0    0    0  501  0.00000000000E+00  0.00000000000E+00 -0.92260572058E+02  0.92260572196E+02  0.50400001928E-02 0.  1.
    10030    2    1    2    0    0  0.00000000000E+00  0.00000000000E+00  0.88801604520E+03  0.10725371895E+04  0.60146780983E+03 0.  0.
        5    1    3    3  502    0 -0.28525638680E+02  0.41965200871E+02 -0.84505405437E+02  0.98681526602E+02  0.46999998093E+01 0.  1.
       -5    1    3    3    0  502  0.28525638680E+02 -0.41965200871E+02  0.97252145064E+03  0.97385566287E+03  0.46999998093E+01 0. -1.
</event>
<event>
 5   0  0.3767635E-02  0.5961175E+03  0.7818609E-02  0.9913494E-01
        1   -1    0    0  501    0  0.00000000000E+00  0.00000000000E+00  0.64081659079E+03  0.64081659081E+03  0.50400001928E-02 0.  1.
       -1   -1    0    0    0  501  0.00000000000E+00  0.00000000000E+00 -0.13863407332E+03  0.13863407341E+03  0.50400001928E-02 0. -1.
    10030    2    1    2    0    0  0.00000000000E+00  0.00000000000E+00  0.50218251747E+03  0.77945066422E+03  0.59611748599E+03 0.  0.
        2    1    3    3  502    0 -0.20756504362E+03  0.90590384684E+02  0.50446220911E+03  0.55296653204E+03  0.25500000920E-02 0.  1.
       -2    1    3    3    0  502  0.20756504362E+03 -0.90590384684E+02 -0.22796916393E+01  0.22648413218E+03  0.25500000920E-02 0. -1.
</event>
<event>
 5   0  0.3640827E-02  0.6061481E+03  0.7818609E-02  0.9892732E-01
       -1   -1    0    0    0  501  0.00000000000E+00  0.00000000000E+00  0.82242499258E+02  0.82242499412E+02  0.50400001928E-02 0. -1.
        1   -1    0    0  501    0  0.00000000000E+00  0.00000000000E+00 -0.11168662464E+04  0.11168662464E+04  0.50400001928E-02 0.  1.
    10030    2    1    2    0    0  0.00000000000E+00  0.00000000000E+00 -0.10346237471E+04  0.11991087458E+04  0.60614807280E+03 0.  0.
        3    1    3    3  502    0  0.28218998756E+03 -0.42085479224E+02 -0.31507104477E+03  0.42505546708E+03  0.10100000352E+00 0. -1.
       -3    1    3    3    0  502 -0.28218998756E+03  0.42085479224E+02 -0.71955270236E+03  0.77405327873E+03  0.10100000352E+00 0.  1.
</event>
<event>
 5   0  0.5755078E-02  0.5913774E+03  0.7818609E-02  0.9923458E-01
        2   -1    0    0  501    0  0.00000000000E+00  0.00000000000E+00  0.58156418626E+03  0.58156418626E+03  0.25500000920E-02 0.  1.
       -2   -1    0    0    0  501  0.00000000000E+00  0.00000000000E+00 -0.15033904046E+03  0.15033904049E+03  0.25500000920E-02 0. -1.
    10030    2    1    2    0    0  0.00000000000E+00  0.00000000000E+00  0.43122514580E+03  0.73190322675E+03  0.59137738117E+03 0.  0.
        2    1    3    3  502    0 -0.21883678298E+03  0.18058925291E+03  0.31863905245E+03  0.42665309281E+03  0.25500000920E-02 0.  1.
       -2    1    3    3    0  502  0.21883678298E+03 -0.18058925291E+03  0.11258609335E+03  0.30525013394E+03  0.25500000920E-02 0. -1.
</event>
<event>
 5   0  0.5872632E-02  0.5990130E+03  0.7818609E-02  0.9907456E-01
        2   -1    0    0  501    0  0.00000000000E+00  0.00000000000E+00  0.52444859746E+03  0.52444859746E+03  0.25500000920E-02 0. -1.
       -2   -1    0    0    0  501  0.00000000000E+00  0.00000000000E+00 -0.17104467078E+03  0.17104467080E+03  0.25500000920E-02 0.  1.
    10030    2    1    2    0    0  0.00000000000E+00  0.00000000000E+00  0.35340392668E+03  0.69549326826E+03  0.59901298050E+03 0.  0.
        1    1    3    3  502    0 -0.45628276831E+02  0.14351918627E+03 -0.12388718513E+03  0.19500700280E+03  0.50400001928E-02 0.  1.
       -1    1    3    3    0  502  0.45628276831E+02 -0.14351918627E+03  0.47729111181E+03  0.50048626546E+03  0.50400001928E-02 0. -1.
</event>
<event>
 5   0  0.3651984E-02  0.5710130E+03  0.7818609E-02  0.9967439E-01
       -1   -1    0    0    0  501  0.00000000000E+00  0.00000000000E+00  0.82991600086E+02  0.82991600239E+02  0.50400001928E-02 0. -1.
        1   -1    0    0  501    0  0.00000000000E+00  0.00000000000E+00 -0.98219545423E+03  0.98219545424E+03  0.50400001928E-02 0.  1.
    10030    2    1    2    0    0  0.00000000000E+00  0.00000000000E+00 -0.89920385414E+03  0.10651870545E+04  0.57101303814E+03 0.  0.
        1    1    3    3  502    0  0.11153415744E+03  0.23587273456E+03 -0.23335511493E+03  0.35004346141E+03  0.50400001928E-02 0.  1.
       -1    1    3    3    0  502 -0.11153415744E+03 -0.23587273456E+03 -0.66584873921E+03  0.71514359307E+03  0.50400001928E-02 0. -1.
</event>
<event>
 5   0  0.5755078E-02  0.5996358E+03  0.7818609E-02  0.9906162E-01
        2   -1    0    0  501    0  0.00000000000E+00  0.00000000000E+00  0.26888615214E+03  0.26888615215E+03  0.25500000920E-02 0. -1.
       -2   -1    0    0    0  501  0.00000000000E+00  0.00000000000E+00 -0.33430795414E+03  0.33430795415E+03  0.25500000920E-02 0.  1.
    10030    2    1    2    0    0  0.00000000000E+00  0.00000000000E+00 -0.65421801999E+02  0.60319410631E+03  0.59963582090E+03 0.  0.
        2    1    3    3  502    0  0.21632475047E+03 -0.13575204755E+02 -0.24108765171E+03  0.32419737763E+03  0.25500000920E-02 0.  1.
       -2    1    3    3    0  502 -0.21632475047E+03  0.13575204755E+02  0.17566584971E+03  0.27899672867E+03  0.25500000920E-02 0. -1.
</event>
<event>
 5   0  0.3767635E-02  0.5961048E+03  0.7818609E-02  0.9913520E-01
       -1   -1    0    0    0  501  0.00000000000E+00  0.00000000000E+00  0.14533279240E+03  0.14533279248E+03  0.50400001928E-02 0. -1.
        1   -1    0    0  501    0  0.00000000000E+00  0.00000000000E+00 -0.61125391304E+03  0.61125391307E+03  0.50400001928E-02 0.  1.
    10030    2    1    2    0    0  0.00000000000E+00  0.00000000000E+00 -0.46592112065E+03  0.75658670555E+03  0.59610481658E+03 0.  0.
        2    1    3    3  502    0 -0.24201608351E+03  0.13801886848E+03 -0.98553803627E+02  0.29552300241E+03  0.25500000920E-02 0. -1.
       -2    1    3    3    0  502  0.24201608351E+03 -0.13801886848E+03 -0.36736731702E+03  0.46106370314E+03  0.25500000920E-02 0.  1.
</event>
<event>
 5   0  0.2388000E-02  0.6030002E+03  0.7818609E-02  0.9899201E-01
       -3   -1    0    0    0  501  0.00000000000E+00  0.00000000000E+00  0.22679821067E+03  0.22679823316E+03  0.10100000352E+00 0.  1.
        3   -1    0    0  501    0  0.00000000000E+00  0.00000000000E+00 -0.40080697131E+03  0.40080698404E+03  0.10100000352E+00 0. -1.
    10030    2    1    2    0    0  0.00000000000E+00  0.00000000000E+00 -0.17400876064E+03  0.62760521720E+03  0.60300021549E+03 0.  0.
        2    1    3    3  502    0 -0.26177871894E+03 -0.11010378870E+03 -0.19238484163E+03  0.34302021700E+03  0.25500000920E-02 0. -1.
       -2    1    3    3    0  502  0.26177871894E+03  0.11010378870E+03  0.18376080986E+02  0.28458500020E+03  0.25500000920E-02 0.  1.
</event>
<event>
 5   0  0.3640827E-02  0.6716907E+03  0.7818609E-02  0.9766908E-01
       -1   -1    0    0    0  501  0.00000000000E+00  0.00000000000E+00  0.72078288555E+02  0.72078288732E+02  0.50400001928E-02 0. -1.
        1   -1    0    0  501    0  0.00000000000E+00  0.00000000000E+00 -0.15648551747E+04  0.15648551747E+04  0.50400001928E-02 0.  1.
    10030    2    1    2    0    0  0.00000000000E+00  0.00000000000E+00 -0.14927768861E+04  0.16369334634E+04  0.67169065194E+03 0.  0.
        3    1    3    3  502    0  0.35805678603E+02  0.87928015595E+02  0.38694994516E+02  0.10252168233E+03  0.10100000352E+00 0. -1.
       -3    1    3    3    0  502 -0.35805678603E+02 -0.87928015595E+02 -0.15314718806E+04  0.15344117811E+04  0.10100000352E+00 0.  1.
</event>
<event>
 5   0  0.5999117E-02  0.5945051E+03  0.7818609E-02  0.9916872E-01
       -2   -1    0    0    0  501  0.00000000000E+00  0.00000000000E+00  0.19906170130E+03  0.19906170132E+03  0.25500000920E-02 0.  1.
        2   -1    0    0  501    0  0.00000000000E+00  0.00000000000E+00 -0.44387784136E+03  0.44387784137E+03  0.25500000920E-02 0. -1.
    10030    2    1    2    0    0  0.00000000000E+00  0.00000000000E+00 -0.24481614006E+03  0.64293954268E+03  0.59450509931E+03 0.  0.
        5    1    3    3  502    0 -0.36095977731E+02  0.16885569618E+03  0.13921345585E+03  0.22185049477E+03  0.46999998093E+01 0.  1.
       -5    1    3    3    0  502  0.36095977731E+02 -0.16885569618E+03 -0.38402959591E+03  0.42108904792E+03  0.46999998093E+01 0. -1.
</event>
<event>
 5   0  0.5755078E-02  0.6023312E+03  0.7818609E-02  0.9900581E-01
       -2   -1    0    0    0  501  0.00000000000E+00  0.00000000000E+00  0.61365404792E+02  0.61365404845E+02  0.25500000920E-02 0. -1.
        2   -1    0    0  501    0  0.00000000000E+00  0.00000000000E+00 -0.14780432975E+04  0.14780432975E+04  0.25500000920E-02 0.  1.
    10030    2    1    2    0    0  0.00000000000E+00  0.00000000000E+00 -0.14166778927E+04  0.15394087023E+04  0.60233122214E+03 0.  0.
        2    1    3    3  502    0 -0.16362671708E+03  0.43728985687E+02 -0.13447917887E+04  0.13554153908E+04  0.25500000920E-02 0.  1.
       -2    1    3    3    0  502  0.16362671708E+03 -0.43728985687E+02 -0.71886104021E+02  0.18399331153E+03  0.25500000920E-02 0. -1.
</event>
<event>
 5   0  0.3703280E-02  0.5966433E+03  0.7818609E-02  0.9912395E-01
       -1   -1    0    0    0  501  0.00000000000E+00  0.00000000000E+00  0.95138973451E+02  0.95138973585E+02  0.50400001928E-02 0. -1.
        1   -1    0    0  501    0  0.00000000000E+00  0.00000000000E+00 -0.93542951944E+03  0.93542951945E+03  0.50400001928E-02 0.  1.
    10030    2    1    2    0    0  0.00000000000E+00  0.00000000000E+00 -0.84029054599E+03  0.10305684930E+04  0.59664329139E+03 0.  0.
        5    1    3    3  502    0 -0.18738909954E+03 -0.12129214355E+03 -0.78391939271E+02  0.23663018585E+03  0.46999998093E+01 0. -1.
       -5    1    3    3    0  502  0.18738909954E+03  0.12129214355E+03 -0.76189860672E+03  0.79393830719E+03  0.46999998093E+01 0.  1.
</event>
<event>
 5   0  0.2388000E-02  0.6008840E+03  0.7818609E-02  0.9903574E-01
        3   -1    0    0  501    0  0.00000000000E+00  0.00000000000E+00  0.35788781801E+03  0.35788783227E+03  0.10100000352E+00 0. -1.
       -3   -1    0    0    0  501  0.00000000000E+00  0.00000000000E+00 -0.25221702103E+03  0.25221704126E+03  0.10100000352E+00 0.  1.
    10030    2    1    2    0    0  0.00000000000E+00  0.00000000000E+00  0.10567079698E+03  0.61010487352E+03  0.60088404818E+03 0.  0.
        5    1    3    3  502    0 -0.14709506280E+03  0.15290371670E+03 -0.16309402501E+03  0.26765323662E+03  0.46999998093E+01 0.  1.
       -5    1    3    3    0  502  0.14709506280E+03 -0.15290371670E+03  0.26876482199E+03  0.34245163690E+03  0.46999998093E+01 0. -1.
</event>
<event>
 5   0  0.3703280E-02  0.6010102E+03  0.7818609E-02  0.9903312E-01
        1   -1    0    0  501    0  0.00000000000E+00  0.00000000000E+00  0.47735925288E+03  0.47735925290E+03  0.50400001928E-02 0. -1.
       -1   -1    0    0    0  501  0.00000000000E+00  0.00000000000E+00 -0.18917267622E+03  0.18917267629E+03  0.50400001928E-02 0.  1.
    10030    2    1    2    0    0  0.00000000000E+00  0.00000000000E+00  0.28818657666E+03  0.66653192919E+03  0.60101024090E+03 0.  0.
        5    1    3    3  502    0 -0.79263477723E+01  0.79875273199E+02  0.46520818303E+03  0.47210552826E+03  0.46999998093E+01 0. -1.
       -5    1    3    3    0  502  0.79263477723E+01 -0.79875273199E+02 -0.17702160637E+03  0.19442640093E+03  0.46999998093E+01 0.  1.
</event>
<event>
 5   0  0.3767635E-02  0.5940685E+03  0.7818609E-02  0.9917789E-01
        1   -1    0    0  501    0  0.00000000000E+00  0.00000000000E+00  0.55243716543E+03  0.55243716545E+03  0.50400001928E-02 0. -1.
       -1   -1    0    0    0  501  0.00000000000E+00  0.00000000000E+00 -0.15970929016E+03  0.15970929024E+03  0.50400001928E-02 0.  1.
    10030    2    1    2    0    0  0.00000000000E+00  0.00000000000E+00  0.39272787527E+03  0.71214645569E+03  0.59406850644E+03 0.  0.
        2    1    3    3  502    0 -0.27812182961E+03 -0.34098902457E+02  0.31451865566E+03  0.42123208806E+03  0.25500000920E-02 0. -1.
       -2    1    3    3    0  502  0.27812182961E+03  0.34098902457E+02  0.78209219618E+02  0.29091436763E+03  0.25500000920E-02 0.  1.
</event>
<event>
 5   0  0.3651984E-02  0.5996554E+03  0.7818609E-02  0.9906121E-01
        1   -1    0    0  501    0  0.00000000000E+00  0.00000000000E+00  0.35597929299E+03  0.35597929302E+03  0.50400001928E-02 0. -1.
       -1   -1    0    0    0  501  0.00000000000E+00  0.00000000000E+00 -0.25253333537E+03  0.25253333542E+03  0.50400001928E-02 0.  1.
    10030    2    1    2    0    0  0.00000000000E+00  0.00000000000E+00  0.10344595762E+03  0.60851262844E+03  0.59965536171E+03 0.  0.
        1    1    3    3  502    0 -0.28619632247E+03 -0.46770111257E+02 -0.25565375833E+02  0.29111744498E+03  0.50400001928E-02 0.  1.
       -1    1    3    3    0  502  0.28619632247E+03  0.46770111257E+02  0.12901133345E+03  0.31739518347E+03  0.50400001928E-02 0. -1.
</event>
<event>
 5   0  0.5755078E-02  0.6579293E+03  0.7818609E-02  0.9792013E-01
       -2   -1    0    0    0  501  0.00000000000E+00  0.00000000000E+00  0.21478118908E+03  0.21478118910E+03  0.25500000920E-02 0.  1.
        2   -1    0    0  501    0  0.00000000000E+00  0.00000000000E+00 -0.50385105404E+03  0.50385105405E+03  0.25500000920E-02 0. -1.
    10030    2    1    2    0    0  0.00000000000E+00  0.00000000000E+00 -0.28906986496E+03  0.71863224315E+03  0.65792926220E+03 0.  0.
        2    1    3    3  502    0 -0.28402854937E+03  0.25522232384E+02  0.34590076221E+02  0.28726307557E+03  0.25500000920E-02 0.  1.
       -2    1    3    3    0  502  0.28402854937E+03 -0.25522232384E+02 -0.32365994119E+03  0.43136916758E+03  0.25500000920E-02 0. -1.
</event>
<event>
 5   0  0.3651984E-02  0.6005576E+03  0.7818609E-02  0.9904250E-01
        1   -1    0    0  501    0  0.00000000000E+00  0.00000000000E+00  0.23118951096E+03  0.23118951102E+03  0.50400001928E-02 0. -1.
       -1   -1    0    0    0  501  0.00000000000E+00  0.00000000000E+00 -0.39001488989E+03  0.39001488992E+03  0.50400001928E-02 0.  1.
    10030    2    1    2    0    0  0.00000000000E+00  0.00000000000E+00 -0.15882537893E+03  0.62120440094E+03  0.60055757989E+03 0.  0.
        1    1    3    3  502    0 -0.14796496066E+03  0.55090961515E+01  0.19080271880E+03  0.24151533543E+03  0.50400001928E-02 0. -1.
       -1    1    3    3    0  502  0.14796496066E+03 -0.55090961515E+01 -0.34962809772E+03  0.37968906551E+03  0.50400001928E-02 0.  1.
</event>
<event>
 5   0  0.2388000E-02  0.6007168E+03  0.7818609E-02  0.9903920E-01
        3   -1    0    0  501    0  0.00000000000E+00  0.00000000000E+00  0.29994292494E+03  0.29994294194E+03  0.10100000352E+00 0.  1.
       -3   -1    0    0    0  501  0.00000000000E+00  0.00000000000E+00 -0.30077441539E+03  0.30077443235E+03  0.10100000352E+00 0. -1.
    10030    2    1    2    0    0  0.00000000000E+00  0.00000000000E+00 -0.83149045179E+00  0.60071737429E+03  0.60071679883E+03 0.  0.
        1    1    3    3  502    0 -0.13209323669E+03 -0.17482372697E+02 -0.26960164821E+03  0.30073128417E+03  0.50400001928E-02 0. -1.
       -1    1    3    3    0  502  0.13209323669E+03  0.17482372697E+02  0.26877015776E+03  0.29998609012E+03  0.50400001928E-02 0.  1.
</event>
<event>
 5   0  0.2388000E-02  0.5977532E+03  0.7818609E-02  0.9910078E-01
       -3   -1    0    0    0  501  0.00000000000E+00  0.00000000000E+00  0.12887318010E+03  0.12887321968E+03  0.10100000352E+00 0.  1.
        3   -1    0    0  501    0  0.00000000000E+00  0.00000000000E+00 -0.69314033717E+03  0.69314034452E+03  0.10100000352E+00 0. -1.
    10030    2    1    2    0    0  0.00000000000E+00  0.00000000000E+00 -0.56426715706E+03  0.82201356420E+03  0.59775318920E+03 0.  0.
        5    1    3    3  502    0  0.13367726138E+03  0.18834842203E+03 -0.54291057665E+03  0.59001586634E+03  0.46999998093E+01 0.  1.
       -5    1    3    3    0  502 -0.13367726138E+03 -0.18834842203E+03 -0.21356580410E+02  0.23199769787E+03  0.46999998093E+01 0. -1.
</event>
<event>
 5   0  0.5999117E-02  0.5990929E+03  0.7818609E-02  0.9907290E-01
        2   -1    0    0  501    0  0.00000000000E+00  0.00000000000E+00  0.17836100713E+04  0.17836100713E+04  0.25500000920E-02 0. -1.
       -2   -1    0    0    0  501  0.00000000000E+00  0.00000000000E+00 -0.50306996835E+02  0.50306996900E+02  0.25500000920E-02 0.  1.
    10030    2    1    2    0    0  0.00000000000E+00  0.00000000000E+00  0.17333030745E+04  0.18339170682E+04  0.59909286851E+03 0.  0.
        5    1    3    3  502    0  0.20592108101E+03  0.41201452902E+02  0.15203710003E+04  0.15348130570E+04  0.46999998093E+01 0. -1.
       -5    1    3    3    0  502 -0.20592108101E+03 -0.41201452902E+02  0.21293207419E+03  0.29910401124E+03  0.46999998093E+01 0.  1.
</event>
<event>
 5   0  0.3640827E-02  0.5982341E+03  0.7818609E-02  0.9909077E-01
       -1   -1    0    0    0  501  0.00000000000E+00  0.00000000000E+00  0.89323773158E+02  0.89323773300E+02  0.50400001928E-02 0. -1.
        1   -1    0    0  501    0  0.00000000000E+00  0.00000000000E+00 -0.10016483198E+04  0.10016483198E+04  0.50400001928E-02 0.  1.
    10030    2    1    2    0    0  0.00000000000E+00  0.00000000000E+00 -0.91232454667E+03  0.10909720931E+04  0.59823409260E+03 0.  0.
        3    1    3    3  502    0 -0.18648790558E+03 -0.16523705773E+03 -0.15434903552E+03  0.29309496608E+03  0.10100000352E+00 0. -1.
       -3    1    3    3    0  502  0.18648790558E+03  0.16523705773E+03 -0.75797551115E+03  0.79787712705E+03  0.10100000352E+00 0.  1.
</event>
<event>
 5   0  0.3703280E-02  0.6050181E+03  0.7818609E-02  0.9895049E-01
        1   -1    0    0  501    0  0.00000000000E+00  0.00000000000E+00  0.20458239822E+03  0.20458239828E+03  0.50400001928E-02 0. -1.
       -1   -1    0    0    0  501  0.00000000000E+00  0.00000000000E+00 -0.44730983048E+03  0.44730983051E+03  0.50400001928E-02 0.  1.
    10030    2    1    2    0    0  0.00000000000E+00  0.00000000000E+00 -0.24272743226E+03  0.65189222879E+03  0.60501807542E+03 0.  0.
        5    1    3    3  502    0 -0.18235101963E+03  0.19087976455E+03 -0.28046075108E+03  0.38518476316E+03  0.46999998093E+01 0.  1.
       -5    1    3    3    0  502  0.18235101963E+03 -0.19087976455E+03  0.37733318820E+02  0.26670746563E+03  0.46999998093E+01 0. -1.
</event>
<event>
 5   0  0.3703280E-02  0.6017446E+03  0.7818609E-02  0.9901793E-01
        1   -1    0    0  501    0  0.00000000000E+00  0.00000000000E+00  0.28370928715E+03  0.28370928719E+03  0.50400001928E-02 0. -1.
       -1   -1    0    0    0  501  0.00000000000E+00  0.00000000000E+00 -0.31907360980E+03  0.31907360984E+03  0.50400001928E-02 0.  1.
    10030    2    1    2    0    0  0.00000000000E+00  0.00000000000E+00 -0.35364322649E+02  0.60278289703E+03  0.60174461829E+03 0.  0.
        5    1    3    3  502    0  0.16724189930E+03  0.86086932612E+02  0.21750207559E+03  0.28759355996E+03  0.46999998093E+01 0. -1.
       -5    1    3    3    0  502 -0.16724189930E+03 -0.86086932612E+02 -0.25286639824E+03  0.31518933707E+03  0.46999998093E+01 0.  1.
</event>
<event>
 5   0  0.5755078E-02  0.6029363E+03  0.7818609E-02  0.9899333E-01
        2   -1    0    0  501    0  0.00000000000E+00  0.00000000000E+00  0.10561352800E+04  0.10561352800E+04  0.25500000920E-02 0.  1.
       -2   -1    0    0    0  501  0.00000000000E+00  0.00000000000E+00 -0.86052455016E+02  0.86052455054E+02  0.25500000920E-02 0. -1.
    10030    2    1    2    0    0  0.00000000000E+00  0.00000000000E+00  0.97008282500E+03  0.11421877351E+04  0.60293626097E+03 0.  0.
        2    1    3    3  502    0 -0.11738786728E+03 -0.27434926492E+03  0.40387889952E+03  0.50216092643E+03  0.25500000920E-02 0. -1.
       -2    1    3    3    0  502  0.11738786728E+03  0.27434926492E+03  0.56620392548E+03  0.64002680865E+03  0.25500000920E-02 0.  1.
</event>
<event>
 5   0  0.3703280E-02  0.6126928E+03  0.7818609E-02  0.9879417E-01
       -1   -1    0    0    0  501  0.00000000000E+00  0.00000000000E+00  0.30102975790E+03  0.30102975794E+03  0.50400001928E-02 0. -1.
        1   -1    0    0  501    0  0.00000000000E+00  0.00000000000E+00 -0.31175694256E+03  0.31175694260E+03  0.50400001928E-02 0.  1.
    10030    2    1    2    0    0  0.00000000000E+00  0.00000000000E+00 -0.10727184660E+02  0.61278670054E+03  0.61269280057E+03 0.  0.
        5    1    3    3  502    0  0.26046139500E+03  0.69249916633E+02  0.14022773089E+03  0.30384469018E+03  0.46999998093E+01 0. -1.
       -5    1    3    3    0  502 -0.26046139500E+03 -0.69249916633E+02 -0.15095491555E+03  0.30894201036E+03  0.46999998093E+01 0.  1.
</event>
<event>
 5   0  0.3651984E-02  0.5799019E+03  0.7818609E-02  0.9948003E-01
       -1   -1    0    0    0  501  0.00000000000E+00  0.00000000000E+00  0.27660775969E+03  0.27660775973E+03  0.50400001928E-02 0.  1.
        1   -1    0    0  501    0  0.00000000000E+00  0.00000000000E+00 -0.30393779616E+03  0.30393779620E+03  0.50400001928E-02 0. -1.
    10030    2    1    2    0    0  0.00000000000E+00  0.00000000000E+00 -0.27330036474E+02  0.58054555594E+03  0.57990189827E+03 0.  0.
        1    1    3    3  502    0  0.60522043415E+01 -0.65754641193E+02 -0.29631020013E+03  0.30357871589E+03  0.50400001928E-02 0. -1.
       -1    1    3    3    0  502 -0.60522043415E+01  0.65754641193E+02  0.26898016366E+03  0.27696684004E+03  0.50400001928E-02 0.  1.
</event>
<event>
 5   0  0.5755078E-02  0.6005462E+03  0.7818609E-02  0.9904274E-01
       -2   -1    0    0    0  501  0.00000000000E+00  0.00000000000E+00  0.34337349085E+03  0.34337349086E+03  0.25500000920E-02 0. -1.
        2   -1    0    0  501    0  0.00000000000E+00  0.00000000000E+00 -0.26258265532E+03  0.26258265533E+03  0.25500000920E-02 0.  1.
    10030    2    1    2    0    0  0.00000000000E+00  0.00000000000E+00  0.80790835532E+02  0.60595614619E+03  0.60054616143E+03 0.  0.
        2    1    3    3  502    0  0.10091952434E+03  0.28232470905E+03  0.57034308369E+02  0.30519650076E+03  0.25500000920E-02 0. -1.
       -2    1    3    3    0  502 -0.10091952434E+03 -0.28232470905E+03  0.23756527163E+02  0.30075964544E+03  0.25500000920E-02 0.  1.
</event>
<event>
 5   0  0.2388000E-02  0.4865706E+03  0.7818609E-02  0.1017345E+00
        4   -1    0    0  501    0  0.00000000000E+00  0.00000000000E+00  0.10852096269E+03  0.10852839372E+03  0.12699999809E+01 0. -1.
       -4   -1    0    0    0  501  0.00000000000E+00  0.00000000000E+00 -0.54537690974E+03  0.54537838844E+03  0.12699999809E+01 0.  1.
    10030    2    1    2    0    0  0.00000000000E+00  0.00000000000E+00 -0.43685594706E+03  0.65390678216E+03  0.48657061284E+03 0.  0.
        1    1    3    3  502    0 -0.92205070257E+02  0.48234779997E+02 -0.51396390440E+03  0.52439228068E+03  0.50400001928E-02 0.  1.
       -1    1    3    3    0  502  0.92205070257E+02 -0.48234779997E+02  0.77107957347E+02  0.12951450148E+03  0.50400001928E-02 0. -1.
</event>
<event>
 5   0  0.3767635E-02  0.6448182E+03  0.7818609E-02  0.9816551E-01
       -1   -1    0    0    0  501  0.00000000000E+00  0.00000000000E+00  0.14087612386E+03  0.14087612395E+03  0.50400001928E-02 0. -1.
        1   -1    0    0  501    0  0.00000000000E+00  0.00000000000E+00 -0.73786535988E+03  0.73786535989E+03  0.50400001928E-02 0.  1.
    10030    2    1    2    0    0  0.00000000000E+00  0.00000000000E+00 -0.59698923602E+03  0.87874148384E+03  0.64481815072E+03 0.  0.
        2    1    3    3  502    0  0.15297034441E+03 -0.27367300268E+03 -0.40093656263E+03  0.50896656661E+03  0.25500000920E-02 0. -1.
       -2    1    3    3    0  502 -0.15297034441E+03  0.27367300268E+03 -0.19605267339E+03  0.36977491723E+03  0.25500000920E-02 0.  1.
</event>
<event>
 5   0  0.3767635E-02  0.6058461E+03  0.7818609E-02  0.9893351E-01
        1   -1    0    0  501    0  0.00000000000E+00  0.00000000000E+00  0.79990423662E+03  0.79990423664E+03  0.50400001928E-02 0. -1.
       -1   -1    0    0    0  501  0.00000000000E+00  0.00000000000E+00 -0.11471670788E+03  0.11471670799E+03  0.50400001928E-02 0.  1.
    10030    2    1    2    0    0  0.00000000000E+00  0.00000000000E+00  0.68518752874E+03  0.91462094463E+03  0.60584612140E+03 0.  0.
        2    1    3    3  502    0 -0.22262126955E+03 -0.12942458146E+03  0.58343724452E+03  0.63773816747E+03  0.25500000920E-02 0. -1.
       -2    1    3    3    0  502  0.22262126955E+03  0.12942458146E+03  0.10175028422E+03  0.27688277716E+03  0.25500000920E-02 0.  1.
</event>
<event>
 5   0  0.3478183E-02  0.6016468E+03  0.7818609E-02  0.9901995E-01
       -1   -1    0    0    0  501  0.00000000000E+00  0.00000000000E+00  0.50539513503E+02  0.50539513755E+02  0.50400001928E-02 0.  1.
        1   -1    0    0  501    0  0.00000000000E+00  0.00000000000E+00 -0.17905738350E+04  0.17905738350E+04  0.50400001928E-02 0. -1.
    10030    2    1    2    0    0  0.00000000000E+00  0.00000000000E+00 -0.17400343215E+04  0.18411133488E+04  0.60164684243E+03 0.  0.
        4    1    3    3  502    0 -0.10617041465E+03 -0.27978565058E+03 -0.77614813631E+03  0.83184115649E+03  0.12699999809E+01 0. -1.
       -4    1    3    3    0  502  0.10617041465E+03  0.27978565058E+03 -0.96388618520E+03  0.10092721923E+04  0.12699999809E+01 0.  1.
</event>
<event>
 5   0  0.3703280E-02  0.5949102E+03  0.7818609E-02  0.9916022E-01
       -1   -1    0    0    0  501  0.00000000000E+00  0.00000000000E+00  0.45469950315E+03  0.45469950318E+03  0.50400001928E-02 0.  1.
        1   -1    0    0  501    0  0.00000000000E+00  0.00000000000E+00 -0.19458902558E+03  0.19458902564E+03  0.50400001928E-02 0. -1.
    10030    2    1    2    0    0  0.00000000000E+00  0.00000000000E+00  0.26011047757E+03  0.64928852883E+03  0.59491018912E+03 0.  0.
        5    1    3    3  502    0  0.20870522266E+03 -0.15004440315E+03 -0.33241308260E+02  0.25922628619E+03  0.46999998093E+01 0. -1.
       -5    1    3    3    0  502 -0.20870522266E+03  0.15004440315E+03  0.29335178584E+03  0.39006224264E+03  0.46999998093E+01 0.  1.
</event>
<event>
 5   0  0.3640827E-02  0.5951213E+03  0.7818609E-02  0.9915580E-01
       -1   -1    0    0    0  501  0.00000000000E+00  0.00000000000E+00  0.54862282320E+03  0.54862282322E+03  0.50400001928E-02 0. -1.
        1   -1    0    0  501    0  0.00000000000E+00  0.00000000000E+00 -0.16139020540E+03  0.16139020548E+03  0.50400001928E-02 0.  1.
    10030    2    1    2    0    0  0.00000000000E+00  0.00000000000E+00  0.38723261780E+03  0.71001302870E+03  0.59512133270E+03 0.  0.
        3    1    3    3  502    0  0.10999521618E+03 -0.25253839246E+03  0.32789607875E+03  0.42824109554E+03  0.10100000352E+00 0. -1.
       -3    1    3    3    0  502 -0.10999521618E+03  0.25253839246E+03  0.59336539055E+02  0.28177193316E+03  0.10100000352E+00 0.  1.
</event>
<event>
 5   0  0.5999117E-02  0.6264066E+03  0.7818609E-02  0.9852086E-01
       -2   -1    0    0    0  501  0.00000000000E+00  0.00000000000E+00  0.16782028991E+03  0.16782028993E+03  0.25500000920E-02 0.  1.
        2   -1    0    0  501    0  0.00000000000E+00  0.00000000000E+00 -0.58453195033E+03  0.58453195034E+03  0.25500000920E-02 0. -1.
    10030    2    1    2    0    0  0.00000000000E+00  0.00000000000E+00 -0.41671166042E+03  0.75235224027E+03  0.62640664548E+03 0.  0.
        5    1    3    3  502    0  0.15808844199E+03 -0.34511625504E+02  0.11367896564E+03  0.19780800038E+03  0.46999998093E+01 0.  1.
       -5    1    3    3    0  502 -0.15808844199E+03  0.34511625504E+02 -0.53039062606E+03  0.55454423989E+03  0.46999998093E+01 0. -1.
</event>
<event>
 5   0  0.3703280E-02  0.6000043E+03  0.7818609E-02  0.9905397E-01
        1   -1    0    0  501    0  0.00000000000E+00  0.00000000000E+00  0.11543426388E+04  0.11543426388E+04  0.50400001928E-02 0. -1.
       -1   -1    0    0    0  501  0.00000000000E+00  0.00000000000E+00 -0.77967569369E+02  0.77967569532E+02  0.50400001928E-02 0.  1.
    10030    2    1    2    0    0  0.00000000000E+00  0.00000000000E+00  0.10763750694E+04  0.12323102083E+04  0.60000429955E+03 0.  0.
        5    1    3    3  502    0 -0.19847718952E+03  0.66152326714E+02  0.96685123767E+02  0.23051990857E+03  0.46999998093E+01 0.  1.
       -5    1    3    3    0  502  0.19847718952E+03 -0.66152326714E+02  0.97968994563E+03  0.10017902997E+04  0.46999998093E+01 0. -1.
</event>
<event>
 5   0  0.5872632E-02  0.6020604E+03  0.7818609E-02  0.9901141E-01
       -2   -1    0    0    0  501  0.00000000000E+00  0.00000000000E+00  0.53443077316E+02  0.53443077377E+02  0.25500000920E-02 0. -1.
        2   -1    0    0  501    0  0.00000000000E+00  0.00000000000E+00 -0.16956207085E+04  0.16956207085E+04  0.25500000920E-02 0.  1.
    10030    2    1    2    0    0  0.00000000000E+00  0.00000000000E+00 -0.16421776312E+04  0.17490637859E+04  0.60206042448E+03 0.  0.
        1    1    3    3  502    0  0.21337644391E+03  0.16526691369E+03 -0.43375175613E+03  0.51086519312E+03  0.50400001928E-02 0. -1.
       -1    1    3    3    0  502 -0.21337644391E+03 -0.16526691369E+03 -0.12084258751E+04  0.12381985928E+04  0.50400001928E-02 0.  1.
</event>
<event>
 5   0  0.3640827E-02  0.5940300E+03  0.7818609E-02  0.9917870E-01
       -1   -1    0    0    0  501  0.00000000000E+00  0.00000000000E+00  0.88710436461E+02  0.88710436604E+02  0.50400001928E-02 0.  1.
        1   -1    0    0  501    0  0.00000000000E+00  0.00000000000E+00 -0.99444805982E+03  0.99444805983E+03  0.50400001928E-02 0. -1.
    10030    2    1    2    0    0  0.00000000000E+00  0.00000000000E+00 -0.90573762335E+03  0.10831584964E+04  0.59403003799E+03 0.  0.
        3    1    3    3  502    0  0.14908312110E+03 -0.24832050108E+03 -0.57284099436E+03  0.64190004150E+03  0.10100000352E+00 0.  1.
       -3    1    3    3    0  502 -0.14908312110E+03  0.24832050108E+03 -0.33289662899E+03  0.44125845493E+03  0.10100000352E+00 0. -1.
</event>
<event>
 5   0  0.3767635E-02  0.5977574E+03  0.7818609E-02  0.9910070E-01
       -1   -1    0    0    0  501  0.00000000000E+00  0.00000000000E+00  0.24852361328E+03  0.24852361333E+03  0.50400001928E-02 0.  1.
        1   -1    0    0  501    0  0.00000000000E+00  0.00000000000E+00 -0.35943654884E+03  0.35943654888E+03  0.50400001928E-02 0. -1.
    10030    2    1    2    0    0  0.00000000000E+00  0.00000000000E+00 -0.11091293556E+03  0.60796016221E+03  0.59775737516E+03 0.  0.
        2    1    3    3  502    0  0.52712171983E+02  0.16639416357E+03 -0.30221429041E+03  0.34899723220E+03  0.25500000920E-02 0. -1.
       -2    1    3    3    0  502 -0.52712171983E+02 -0.16639416357E+03  0.19130135485E+03  0.25896293001E+03  0.25500000920E-02 0.  1.
</event>
<event>
 5   0  0.2388000E-02  0.5933833E+03  0.7818609E-02  0.9919230E-01
       -3   -1    0    0    0  501  0.00000000000E+00  0.00000000000E+00  0.26407406168E+03  0.26407408100E+03  0.10100000352E+00 0.  1.
        3   -1    0    0  501    0  0.00000000000E+00  0.00000000000E+00 -0.33333799337E+03  0.33333800867E+03  0.10100000352E+00 0. -1.
    10030    2    1    2    0    0  0.00000000000E+00  0.00000000000E+00 -0.69263931685E+02  0.59741208966E+03  0.59338327634E+03 0.  0.
        2    1    3    3  502    0  0.94981259242E+02  0.24599592743E+03 -0.17153495831E+03  0.31457857182E+03  0.25500000920E-02 0. -1.
       -2    1    3    3    0  502 -0.94981259242E+02 -0.24599592743E+03  0.10227102663E+03  0.28283351784E+03  0.25500000920E-02 0.  1.
</event>
<event>
 5   0  0.5872632E-02  0.6041807E+03  0.7818609E-02  0.9896770E-01
       -2   -1    0    0    0  501  0.00000000000E+00  0.00000000000E+00  0.43541150560E+02  0.43541150635E+02  0.25500000920E-02 0.  1.
        2   -1    0    0  501    0  0.00000000000E+00  0.00000000000E+00 -0.20959159142E+04  0.20959159142E+04  0.25500000920E-02 0. -1.
    10030    2    1    2    0    0  0.00000000000E+00  0.00000000000E+00 -0.20523747637E+04  0.21394570649E+04  0.60418073609E+03 0.  0.
        1    1    3    3  502    0  0.27884506544E+03 -0.97267893452E+02 -0.12513453532E+04  0.12857219010E+04  0.50400001928E-02 0. -1.
       -1    1    3    3    0  502 -0.27884506544E+03  0.97267893452E+02 -0.80102941046E+03  0.85373516389E+03  0.50400001928E-02 0.  1.
</event>
<event>
 5   0  0.5935451E-02  0.5976362E+03  0.7818609E-02  0.9910322E-01
       -2   -1    0    0    0  501  0.00000000000E+00  0.00000000000E+00  0.13482652182E+03  0.13482652184E+03  0.25500000920E-02 0. -1.
        2   -1    0    0  501    0  0.00000000000E+00  0.00000000000E+00 -0.66227514070E+03  0.66227514071E+03  0.25500000920E-02 0.  1.
    10030    2    1    2    0    0  0.00000000000E+00  0.00000000000E+00 -0.52744861889E+03  0.79710166255E+03  0.59763618939E+03 0.  0.
        3    1    3    3  502    0 -0.17610009046E+02 -0.67122163399E+02 -0.65137933280E+03  0.65506529647E+03  0.10100000352E+00 0.  1.
       -3    1    3    3    0  502  0.17610009046E+02  0.67122163399E+02  0.12393071391E+03  0.14203636608E+03  0.10100000352E+00 0. -1.
</event>
<event>
 5   0  0.5872632E-02  0.5642622E+03  0.7818609E-02  0.9982456E-01
        2   -1    0    0  501    0  0.00000000000E+00  0.00000000000E+00  0.33085995227E+03  0.33085995228E+03  0.25500000920E-02 0.  1.
       -2   -1    0    0    0  501  0.00000000000E+00  0.00000000000E+00 -0.24057904377E+03  0.24057904379E+03  0.25500000920E-02 0. -1.
    10030    2    1    2    0    0  0.00000000000E+00  0.00000000000E+00  0.90280908497E+02  0.57143899607E+03  0.56426224735E+03 0.  0.
        1    1    3    3  502    0  0.21234017852E+03 -0.10363682351E+03 -0.11099250601E+03  0.26105225342E+03  0.50400001928E-02 0.  1.
       -1    1    3    3    0  502 -0.21234017852E+03  0.10363682351E+03  0.20127341451E+03  0.31038674265E+03  0.50400001928E-02 0. -1.
</event>
<event>
 5   0  0.5935451E-02  0.6095024E+03  0.7818609E-02  0.9885885E-01
       -2   -1    0    0    0  501  0.00000000000E+00  0.00000000000E+00  0.23636035510E+03  0.23636035512E+03  0.25500000920E-02 0.  1.
        2   -1    0    0  501    0  0.00000000000E+00  0.00000000000E+00 -0.39293093135E+03  0.39293093136E+03  0.25500000920E-02 0. -1.
    10030    2    1    2    0    0  0.00000000000E+00  0.00000000000E+00 -0.15657057625E+03  0.62929128648E+03  0.60950240187E+03 0.  0.
        3    1    3    3  502    0 -0.14863599710E+03 -0.52976407099E+02  0.19089800978E+03  0.24767159644E+03  0.10100000352E+00 0.  1.
       -3    1    3    3    0  502  0.14863599710E+03  0.52976407099E+02 -0.34746858604E+03  0.38161969004E+03  0.10100000352E+00 0. -1.
</event>
<event>
 5   0  0.5755078E-02  0.6016179E+03  0.7818609E-02  0.9902055E-01
        2   -1    0    0  501    0  0.00000000000E+00  0.00000000000E+00  0.84511962141E+03  0.84511962141E+03  0.25500000920E-02 0.  1.
       -2   -1    0    0    0  501  0.00000000000E+00  0.00000000000E+00 -0.10706888011E+03  0.10706888015E+03  0.25500000920E-02 0. -1.
    10030    2    1    2    0    0  0.00000000000E+00  0.00000000000E+00  0.73805074129E+03  0.95218850156E+03  0.60161785693E+03 0.  0.
        2    1    3    3  502    0  0.14303481490E+03 -0.11934002341E+03  0.74284403355E+03  0.76584479998E+03  0.25500000920E-02 0.  1.
       -2    1    3    3    0  502 -0.14303481490E+03  0.11934002341E+03 -0.47932922596E+01  0.18634370158E+03  0.25500000920E-02 0. -1.
</event>
<event>
 5   0  0.5872632E-02  0.5850475E+03  0.7818609E-02  0.9936923E-01
        2   -1    0    0  501    0  0.00000000000E+00  0.00000000000E+00  0.59112555156E+03  0.59112555157E+03  0.25500000920E-02 0. -1.
       -2   -1    0    0    0  501  0.00000000000E+00  0.00000000000E+00 -0.14475799301E+03  0.14475799303E+03  0.25500000920E-02 0.  1.
    10030    2    1    2    0    0  0.00000000000E+00  0.00000000000E+00  0.44636755855E+03  0.73588354460E+03  0.58504751421E+03 0.  0.
        1    1    3    3  502    0 -0.28354907717E+03 -0.44423674385E+02  0.15206856255E+03  0.32480515659E+03  0.50400001928E-02 0.  1.
       -1    1    3    3    0  502  0.28354907717E+03  0.44423674385E+02  0.29429899601E+03  0.41107838801E+03  0.50400001928E-02 0. -1.
</event>
<event>
 5   0  0.3703280E-02  0.5984702E+03  0.7818609E-02  0.9908585E-01
       -1   -1    0    0    0  501  0.00000000000E+00  0.00000000000E+00  0.44318462466E+03  0.44318462468E+03  0.50400001928E-02 0.  1.
        1   -1    0    0  501    0  0.00000000000E+00  0.00000000000E+00 -0.20204137650E+03  0.20204137656E+03  0.50400001928E-02 0. -1.
    10030    2    1    2    0    0  0.00000000000E+00  0.00000000000E+00  0.24114324816E+03  0.64522600125E+03  0.59847015511E+03 0.  0.
        5    1    3    3  502    0  0.19375570720E+03 -0.19263586805E+03  0.25203970352E+03  0.37174716392E+03  0.46999998093E+01 0. -1.
       -5    1    3    3    0  502 -0.19375570720E+03  0.19263586805E+03 -0.10896455363E+02  0.27347883733E+03  0.46999998093E+01 0.  1.
</event>
<event>
 5   0  0.3640827E-02  0.6016570E+03  0.7818609E-02  0.9901974E-01
       -1   -1    0    0    0  501  0.00000000000E+00  0.00000000000E+00  0.50640556014E+03  0.50640556017E+03  0.50400001928E-02 0. -1.
        1   -1    0    0  501    0  0.00000000000E+00  0.00000000000E+00 -0.17870614627E+03  0.17870614634E+03  0.50400001928E-02 0.  1.
    10030    2    1    2    0    0  0.00000000000E+00  0.00000000000E+00  0.32769941388E+03  0.68511170651E+03  0.60165699908E+03 0.  0.
        3    1    3    3  502    0 -0.16107628691E+03  0.11043631829E+03 -0.96703096131E+02  0.21792946016E+03  0.10100000352E+00 0.  1.
       -3    1    3    3    0  502  0.16107628691E+03 -0.11043631829E+03  0.42440251001E+03  0.46718224635E+03  0.10100000352E+00 0. -1.
</event>
<event>
 5   0  0.5755078E-02  0.5838633E+03  0.7818609E-02  0.9939462E-01
       -2   -1    0    0    0  501  0.00000000000E+00  0.00000000000E+00  0.91996522583E+02  0.91996522619E+02  0.25500000920E-02 0.  1.
        2   -1    0    0  501    0  0.00000000000E+00  0.00000000000E+00 -0.92638381946E+03  0.92638381946E+03  0.25500000920E-02 0. -1.
    10030    2    1    2    0    0  0.00000000000E+00  0.00000000000E+00 -0.83438729687E+03  0.10183803421E+04  0.58386330588E+03 0.  0.
        2    1    3    3  502    0  0.15469454769E+03 -0.12988462448E+02  0.14035604935E+02  0.15587206759E+03  0.25500000920E-02 0.  1.
       -2    1    3    3    0  502 -0.15469454769E+03  0.12988462448E+02 -0.84842290181E+03  0.86250827449E+03  0.25500000920E-02 0. -1.
</event>
<event>
 5   0  0.3640827E-02  0.5943838E+03  0.7818609E-02  0.9917127E-01
       -1   -1    0    0    0  501  0.00000000000E+00  0.00000000000E+00  0.24081686324E+03  0.24081686329E+03  0.50400001928E-02 0.  1.
        1   -1    0    0  501    0  0.00000000000E+00  0.00000000000E+00 -0.36676422971E+03  0.36676422974E+03  0.50400001928E-02 0. -1.
    10030    2    1    2    0    0  0.00000000000E+00  0.00000000000E+00 -0.12594736647E+03  0.60758109304E+03  0.59438375272E+03 0.  0.
        3    1    3    3  502    0  0.26687499946E+03 -0.50000488769E+02 -0.18648989577E+03  0.32939460475E+03  0.10100000352E+00 0. -1.
       -3    1    3    3    0  502 -0.26687499946E+03  0.50000488769E+02  0.60542529304E+02  0.27818648829E+03  0.10100000352E+00 0.  1.
</event>
<event>
 5   0  0.3640827E-02  0.5919789E+03  0.7818609E-02  0.9922188E-01
       -1   -1    0    0    0  501  0.00000000000E+00  0.00000000000E+00  0.53863389225E+03  0.53863389227E+03  0.50400001928E-02 0. -1.
        1   -1    0    0  501    0  0.00000000000E+00  0.00000000000E+00 -0.16265176336E+03  0.16265176344E+03  0.50400001928E-02 0.  1.
    10030    2    1    2    0    0  0.00000000000E+00  0.00000000000E+00  0.37598212889E+03  0.70128565571E+03  0.59197889291E+03 0.  0.
        3    1    3    3  502    0  0.31165680091E+02  0.29324730251E+03  0.21806480491E+03  0.36676634168E+03  0.10100000352E+00 0. -1.
       -3    1    3    3    0  502 -0.31165680091E+02 -0.29324730251E+03  0.15791732398E+03  0.33451931403E+03  0.10100000352E+00 0.  1.
</event>
<event>
 5   0  0.5999117E-02  0.5922865E+03  0.7818609E-02  0.9921539E-01
        2   -1    0    0  501    0  0.00000000000E+00  0.00000000000E+00  0.96556916688E+03  0.96556916688E+03  0.25500000920E-02 0. -1.
       -2   -1    0    0    0  501  0.00000000000E+00  0.00000000000E+00 -0.90828126214E+02  0.90828126250E+02  0.25500000920E-02 0.  1.
    10030    2    1    2    0    0  0.00000000000E+00  0.00000000000E+00  0.87474104067E+03  0.10563972931E+04  0.59228654612E+03 0.  0.
        5    1    3    3  502    0 -0.16997653484E+03 -0.43273057395E+02  0.86287644243E+03  0.88053530582E+03  0.46999998093E+01 0. -1.
       -5    1    3    3    0  502  0.16997653484E+03  0.43273057395E+02  0.11864598235E+02  0.17586198732E+03  0.46999998093E+01 0.  1.
</event>
<event>
 5   0  0.5935451E-02  0.5894239E+03  0.7818609E-02  0.9927594E-01
       -2   -1    0    0    0  501  0.00000000000E+00  0.00000000000E+00  0.20580890115E+03  0.20580890116E+03  0.25500000920E-02 0.  1.
        2   -1    0    0  501    0  0.00000000000E+00  0.00000000000E+00 -0.42201829547E+03  0.42201829548E+03  0.25500000920E-02 0. -1.
    10030    2    1    2    0    0  0.00000000000E+00  0.00000000000E+00 -0.21620939433E+03  0.62782719664E+03  0.58942385993E+03 0.  0.
        3    1    3    3  502    0 -0.72017902715E+02  0.27616513271E+03 -0.29822378933E+02  0.28695494998E+03  0.10100000352E+00 0. -1.
       -3    1    3    3    0  502  0.72017902715E+02 -0.27616513271E+03 -0.18638701539E+03  0.34087224666E+03  0.10100000352E+00 0.  1.
</event>
<event>
 5   0  0.3703280E-02  0.5982702E+03  0.7818609E-02  0.9909001E-01
        1   -1    0    0  501    0  0.00000000000E+00  0.00000000000E+00  0.14997408977E+04  0.14997408977E+04  0.50400001928E-02 0. -1.
       -1   -1    0    0    0  501  0.00000000000E+00  0.00000000000E+00 -0.59664845854E+02  0.59664846067E+02  0.50400001928E-02 0.  1.
    10030    2    1    2    0    0  0.00000000000E+00  0.00000000000E+00  0.14400760518E+04  0.15594057437E+04  0.59827020535E+03 0.  0.
        5    1    3    3  502    0 -0.98009024500E+02  0.26329367229E+03  0.98751354706E+03  0.10267104861E+04  0.46999998093E+01 0. -1.
       -5    1    3    3    0  502  0.98009024500E+02 -0.26329367229E+03  0.45256250475E+03  0.53269525758E+03  0.46999998093E+01 0.  1.
</event>
<event>
 5   0  0.5755078E-02  0.6400678E+03  0.7818609E-02  0.9825597E-01
       -2   -1    0    0    0  501  0.00000000000E+00  0.00000000000E+00  0.79152551396E+02  0.79152551437E+02  0.25500000920E-02 0. -1.
        2   -1    0    0  501    0  0.00000000000E+00  0.00000000000E+00 -0.12939786427E+04  0.12939786427E+04  0.25500000920E-02 0.  1.
    10030    2    1    2    0    0  0.00000000000E+00  0.00000000000E+00 -0.12148260913E+04  0.13731311941E+04  0.64006784343E+03 0.  0.
        2    1    3    3  502    0  0.92088878849E+02 -0.14951380775E+03 -0.11814013151E+04  0.11943800935E+04  0.25500000920E-02 0.  1.
       -2    1    3    3    0  502 -0.92088878849E+02  0.14951380775E+03 -0.33424776167E+02  0.17875110065E+03  0.25500000920E-02 0. -1.
</event>
<event>
 5   0  0.3651984E-02  0.5925914E+03  0.7818609E-02  0.9920897E-01
        1   -1    0    0  501    0  0.00000000000E+00  0.00000000000E+00  0.53178493560E+03  0.53178493562E+03  0.50400001928E-02 0.  1.
       -1   -1    0    0    0  501  0.00000000000E+00  0.00000000000E+00 -0.16508766076E+03  0.16508766083E+03  0.50400001928E-02 0. -1.
    10030    2    1    2    0    0  0.00000000000E+00  0.00000000000E+00  0.36669727484E+03  0.69687259645E+03  0.59259136368E+03 0.  0.
        1    1    3    3  502    0 -0.19046751063E+03  0.18813516285E+02 -0.82638360854E+02  0.20847282728E+03  0.50400001928E-02 0. -1.
       -1    1    3    3    0  502  0.19046751063E+03 -0.18813516285E+02  0.44933563569E+03  0.48839976918E+03  0.50400001928E-02 0.  1.
</event>
<event>
 5   0  0.3703280E-02  0.6232908E+03  0.7818609E-02  0.9858229E-01
       -1   -1    0    0    0  501  0.00000000000E+00  0.00000000000E+00  0.21201072089E+03  0.21201072095E+03  0.50400001928E-02 0.  1.
        1   -1    0    0  501    0  0.00000000000E+00  0.00000000000E+00 -0.45810357787E+03  0.45810357789E+03  0.50400001928E-02 0. -1.
    10030    2    1    2    0    0  0.00000000000E+00  0.00000000000E+00 -0.24609285697E+03  0.67011429885E+03  0.62329084645E+03 0.  0.
        5    1    3    3  502    0 -0.25185457211E+03  0.16340193019E+03 -0.33289026482E+02  0.30209463015E+03  0.46999998093E+01 0.  1.
       -5    1    3    3    0  502  0.25185457211E+03 -0.16340193019E+03 -0.21280383049E+03  0.36801966870E+03  0.46999998093E+01 0. -1.
</event>
<event>
 5   0  0.5872632E-02  0.6086142E+03  0.7818609E-02  0.9887694E-01
        2   -1    0    0  501    0  0.00000000000E+00  0.00000000000E+00  0.74294377065E+03  0.74294377066E+03  0.25500000920E-02 0. -1.
       -2   -1    0    0    0  501  0.00000000000E+00  0.00000000000E+00 -0.12464309032E+03  0.12464309034E+03  0.25500000920E-02 0.  1.
    10030    2    1    2    0    0  0.00000000000E+00  0.00000000000E+00  0.61830068034E+03  0.86758686100E+03  0.60861418819E+03 0.  0.
        1    1    3    3  502    0  0.26909022421E+03 -0.14182970813E+03  0.32170720145E+03  0.44274229340E+03  0.50400001928E-02 0. -1.
       -1    1    3    3    0  502 -0.26909022421E+03  0.14182970813E+03  0.29659347889E+03  0.42484456760E+03  0.50400001928E-02 0.  1.
</event>
<event>
 5   0  0.3767635E-02  0.5968988E+03  0.7818609E-02  0.9911861E-01
        1   -1    0    0  501    0  0.00000000000E+00  0.00000000000E+00  0.15458066922E+03  0.15458066931E+03  0.50400001928E-02 0.  1.
       -1   -1    0    0    0  501  0.00000000000E+00  0.00000000000E+00 -0.57621714959E+03  0.57621714962E+03  0.50400001928E-02 0. -1.
    10030    2    1    2    0    0  0.00000000000E+00  0.00000000000E+00 -0.42163648037E+03  0.73079781892E+03  0.59689876073E+03 0.  0.
        2    1    3    3  502    0 -0.23168284931E+03  0.16018758520E+03 -0.90018734548E+02  0.29570319189E+03  0.25500000920E-02 0.  1.
       -2    1    3    3    0  502  0.23168284931E+03 -0.16018758520E+03 -0.33161774582E+03  0.43509462703E+03  0.25500000920E-02 0. -1.
</event>
<event>
 5   0  0.3640827E-02  0.6059263E+03  0.7818609E-02  0.9893187E-01
        1   -1    0    0  501    0  0.00000000000E+00  0.00000000000E+00  0.10962226591E+03  0.10962226602E+03  0.50400001928E-02 0.  1.
       -1   -1    0    0    0  501  0.00000000000E+00  0.00000000000E+00 -0.83729960098E+03  0.83729960099E+03  0.50400001928E-02 0. -1.
    10030    2    1    2    0    0  0.00000000000E+00  0.00000000000E+00 -0.72767733507E+03  0.94692186702E+03  0.60592633071E+03 0.  0.
        3    1    3    3  502    0 -0.12057877156E+03  0.16941435724E+03 -0.19510967134E+02  0.20885677539E+03  0.10100000352E+00 0.  1.
       -3    1    3    3    0  502  0.12057877156E+03 -0.16941435724E+03 -0.70816636794E+03  0.73806509162E+03  0.10100000352E+00 0. -1.
</event>
<event>
 5   0  0.3703280E-02  0.5983463E+03  0.7818609E-02  0.9908843E-01
       -1   -1    0    0    0  501  0.00000000000E+00  0.00000000000E+00  0.17171687889E+03  0.17171687896E+03  0.50400001928E-02 0.  1.
        1   -1    0    0  501    0  0.00000000000E+00  0.00000000000E+00 -0.52123340802E+03  0.52123340805E+03  0.50400001928E-02 0. -1.
    10030    2    1    2    0    0  0.00000000000E+00  0.00000000000E+00 -0.34951652913E+03  0.69295028701E+03  0.59834630118E+03 0.  0.
        5    1    3    3  502    0  0.23196274693E+03  0.11829260248E+02  0.43556315499E+02  0.23635966233E+03  0.46999998093E+01 0.  1.
       -5    1    3    3    0  502 -0.23196274693E+03 -0.11829260248E+02 -0.39307284463E+03  0.45659062468E+03  0.46999998093E+01 0. -1.
</event>
<event>
 5   0  0.3767635E-02  0.6021098E+03  0.7818609E-02  0.9901039E-01
        1   -1    0    0  501    0  0.00000000000E+00  0.00000000000E+00  0.39713796761E+03  0.39713796764E+03  0.50400001928E-02 0. -1.
       -1   -1    0    0    0  501  0.00000000000E+00  0.00000000000E+00 -0.22821804888E+03  0.22821804894E+03  0.50400001928E-02 0.  1.
    10030    2    1    2    0    0  0.00000000000E+00  0.00000000000E+00  0.16891991873E+03  0.62535601657E+03  0.60210979773E+03 0.  0.
        2    1    3    3  502    0 -0.25297667478E+03  0.16074349311E+03  0.55113383767E+02  0.30475096987E+03  0.25500000920E-02 0. -1.
       -2    1    3    3    0  502  0.25297667478E+03 -0.16074349311E+03  0.11380653496E+03  0.32060504670E+03  0.25500000920E-02 0.  1.
</event>
<event>
 5   0  0.2388000E-02  0.6034454E+03  0.7818609E-02  0.9898284E-01
        3   -1    0    0  501    0  0.00000000000E+00  0.00000000000E+00  0.96392679341E+02  0.96392732254E+02  0.10100000352E+00 0.  1.
       -3   -1    0    0    0  501  0.00000000000E+00  0.00000000000E+00 -0.94443428736E+03  0.94443429276E+03  0.10100000352E+00 0. -1.
    10030    2    1    2    0    0  0.00000000000E+00  0.00000000000E+00 -0.84804160802E+03  0.10408270250E+04  0.60344538035E+03 0.  0.
        3    1    3    3  502    0  0.10749884145E+03  0.11409949307E+03  0.20637996595E+02  0.15811588262E+03  0.10100000352E+00 0.  1.
       -3    1    3    3    0  502 -0.10749884145E+03 -0.11409949307E+03 -0.86867960461E+03  0.88271114239E+03  0.10100000352E+00 0. -1.
</event>
<event>
 5   0  0.6007360E-02  0.6003753E+03  0.7818609E-02  0.9904628E-01
       -2   -1    0    0    0  501  0.00000000000E+00  0.00000000000E+00  0.95592286602E+02  0.95592286637E+02  0.25500000920E-02 0.  1.
        2   -1    0    0  501    0  0.00000000000E+00  0.00000000000E+00 -0.94267660806E+03  0.94267660807E+03  0.25500000920E-02 0. -1.
    10030    2    1    2    0    0  0.00000000000E+00  0.00000000000E+00 -0.84708432146E+03  0.10382688947E+04  0.60037525769E+03 0.  0.
        4    1    3    3  502    0 -0.16198924126E+03 -0.25822172607E+02  0.11226579852E+02  0.16442307587E+03  0.12699999809E+01 0.  1.
       -4    1    3    3    0  502  0.16198924126E+03  0.25822172607E+02 -0.85831090131E+03  0.87384581883E+03  0.12699999809E+01 0. -1.
</event>
<event>
 5   0  0.3478183E-02  0.6024601E+03  0.7818609E-02  0.9900315E-01
       -1   -1    0    0    0  501  0.00000000000E+00  0.00000000000E+00  0.51664777940E+03  0.51664777943E+03  0.50400001928E-02 0. -1.
        1   -1    0    0  501    0  0.00000000000E+00  0.00000000000E+00 -0.17563135031E+03  0.17563135038E+03  0.50400001928E-02 0.  1.
    10030    2    1    2    0    0  0.00000000000E+00  0.00000000000E+00  0.34101642909E+03  0.69227912981E+03  0.60246011375E+03 0.  0.
        4    1    3    3  502    0  0.18722276301E+03 -0.22985223075E+03  0.10912584483E+03  0.31590263354E+03  0.12699999809E+01 0.  1.
       -4    1    3    3    0  502 -0.18722276301E+03  0.22985223075E+03  0.23189058427E+03  0.37637649627E+03  0.12699999809E+01 0. -1.
</event>
<event>
 5   0  0.3640827E-02  0.6109957E+03  0.7818609E-02  0.9882853E-01
        1   -1    0    0  501    0  0.00000000000E+00  0.00000000000E+00  0.44041933674E+03  0.44041933677E+03  0.50400001928E-02 0.  1.
       -1   -1    0    0    0  501  0.00000000000E+00  0.00000000000E+00 -0.21190922946E+03  0.21190922952E+03  0.50400001928E-02 0. -1.
    10030    2    1    2    0    0  0.00000000000E+00  0.00000000000E+00  0.22851010729E+03  0.65232856629E+03  0.61099565405E+03 0.  0.
        3    1    3    3  502    0 -0.55579531918E+02  0.48129872202E+02  0.43083279235E+03  0.43706117893E+03  0.10100000352E+00 0.  1.
       -3    1    3    3    0  502  0.55579531918E+02 -0.48129872202E+02 -0.20232268506E+03  0.21526738735E+03  0.10100000352E+00 0. -1.
</event>
<event>
 5   0  0.2388000E-02  0.5704462E+03  0.7818609E-02  0.9968692E-01
        4   -1    0    0  501    0  0.00000000000E+00  0.00000000000E+00  0.52420644102E+03  0.52420797944E+03  0.12699999809E+01 0. -1.
       -4   -1    0    0    0  501  0.00000000000E+00  0.00000000000E+00 -0.15518679247E+03  0.15519198902E+03  0.12699999809E+01 0.  1.
    10030    2    1    2    0    0  0.00000000000E+00  0.00000000000E+00  0.36901964855E+03  0.67939996846E+03  0.57044615532E+03 0.  0.
        2    1    3    3  502    0 -0.21784973042E+03 -0.14637349768E+03  0.31749950324E+03  0.41193402437E+03  0.25500000920E-02 0.  1.
       -2    1    3    3    0  502  0.21784973042E+03  0.14637349768E+03  0.51520145310E+02  0.26746594409E+03  0.25500000920E-02 0. -1.
</event>
<event>
 5   0  0.5872632E-02  0.6062435E+03  0.7818609E-02  0.9892537E-01
        2   -1    0    0  501    0  0.00000000000E+00  0.00000000000E+00  0.52826892203E+03  0.52826892204E+03  0.25500000920E-02 0. -1.
       -2   -1    0    0    0  501  0.00000000000E+00  0.00000000000E+00 -0.17393186929E+03  0.17393186931E+03  0.25500000920E-02 0.  1.
    10030    2    1    2    0    0  0.00000000000E+00  0.00000000000E+00  0.35433705274E+03  0.70220079135E+03  0.60624351907E+03 0.  0.
        1    1    3    3  502    0  0.11720117017E+03  0.14743723261E+03 -0.97929966180E+02  0.21228313675E+03  0.50400001928E-02 0.  1.
       -1    1    3    3    0  502 -0.11720117017E+03 -0.14743723261E+03  0.45226701892E+03  0.48991765459E+03  0.50400001928E-02 0. -1.
</event>
<event>
 5   0  0.5935451E-02  0.6024237E+03  0.7818609E-02  0.9900390E-01
       -2   -1    0    0    0  501  0.00000000000E+00  0.00000000000E+00  0.64267183312E+02  0.64267183362E+02  0.25500000920E-02 0. -1.
        2   -1    0    0  501    0  0.00000000000E+00  0.00000000000E+00 -0.14117401975E+04  0.14117401975E+04  0.25500000920E-02 0.  1.
    10030    2    1    2    0    0  0.00000000000E+00  0.00000000000E+00 -0.13474730141E+04  0.14760073808E+04  0.60242365856E+03 0.  0.
        3    1    3    3  502    0  0.16627445469E+03 -0.19563817047E+03 -0.28783699688E+03  0.38570926227E+03  0.10100000352E+00 0. -1.
       -3    1    3    3    0  502 -0.16627445469E+03  0.19563817047E+03 -0.10596360173E+04  0.10902981185E+04  0.10100000352E+00 0.  1.
</event>
<event>
 5   0  0.5935451E-02  0.6030199E+03  0.7818609E-02  0.9899160E-01
       -2   -1    0    0    0  501  0.00000000000E+00  0.00000000000E+00  0.20492251139E+03  0.20492251141E+03  0.25500000920E-02 0. -1.
        2   -1    0    0  501    0  0.00000000000E+00  0.00000000000E+00 -0.44362257044E+03  0.44362257044E+03  0.25500000920E-02 0.  1.
    10030    2    1    2    0    0  0.00000000000E+00  0.00000000000E+00 -0.23870005904E+03  0.64854508185E+03  0.60301990432E+03 0.  0.
        3    1    3    3  502    0  0.11709311191E+02 -0.21522500555E+03 -0.34609681176E+03  0.40772775757E+03  0.10100000352E+00 0.  1.
       -3    1    3    3    0  502 -0.11709311191E+02  0.21522500555E+03  0.10739675271E+03  0.24081732428E+03  0.10100000352E+00 0. -1.
</event>
<event>
 5   0  0.3478183E-02  0.6034842E+03  0.7818609E-02  0.9898204E-01
       -1   -1    0    0    0  501  0.00000000000E+00  0.00000000000E+00  0.16993624230E+03  0.16993624237E+03  0.50400001928E-02 0.  1.
        1   -1    0    0  501    0  0.00000000000E+00  0.00000000000E+00 -0.53577916274E+03  0.53577916276E+03  0.50400001928E-02 0. -1.
    10030    2    1    2    0    0  0.00000000000E+00  0.00000000000E+00 -0.36584292044E+03  0.70571540513E+03  0.60348420908E+03 0.  0.
        4    1    3    3  502    0  0.20851708676E+03  0.49349071159E+02 -0.43135250921E+03  0.48164437752E+03  0.12699999809E+01 0. -1.
       -4    1    3    3    0  502 -0.20851708676E+03 -0.49349071159E+02  0.65509588763E+02  0.22407102762E+03  0.12699999809E+01 0.  1.
</event>
<event>
 5   0  0.5872632E-02  0.6003394E+03  0.7818609E-02  0.9904702E-01
       -2   -1    0    0    0  501  0.00000000000E+00  0.00000000000E+00  0.45912877389E+03  0.45912877390E+03  0.25500000920E-02 0.  1.
        2   -1    0    0  501    0  0.00000000000E+00  0.00000000000E+00 -0.19624525946E+03  0.19624525948E+03  0.25500000920E-02 0. -1.
    10030    2    1    2    0    0  0.00000000000E+00  0.00000000000E+00  0.26288351443E+03  0.65537403337E+03  0.60033938856E+03 0.  0.
        1    1    3    3  502    0 -0.20911506977E+03 -0.10709090412E+03  0.33539549962E+03  0.40949690517E+03  0.50400001928E-02 0. -1.
       -1    1    3    3    0  502  0.20911506977E+03  0.10709090412E+03 -0.72511985191E+02  0.24587712820E+03  0.50400001928E-02 0.  1.
</event>
<event>
 5   0  0.3767635E-02  0.6006493E+03  0.7818609E-02  0.9904060E-01
       -1   -1    0    0    0  501  0.00000000000E+00  0.00000000000E+00  0.18247867885E+03  0.18247867892E+03  0.50400001928E-02 0. -1.
        1   -1    0    0  501    0  0.00000000000E+00  0.00000000000E+00 -0.49427638351E+03  0.49427638354E+03  0.50400001928E-02 0.  1.
    10030    2    1    2    0    0  0.00000000000E+00  0.00000000000E+00 -0.31179770467E+03  0.67675506246E+03  0.60064932026E+03 0.  0.
        2    1    3    3  502    0 -0.12477999067E+03 -0.16522763522E+03 -0.40100510173E+03  0.45130400966E+03  0.25500000920E-02 0.  1.
       -2    1    3    3    0  502  0.12477999067E+03  0.16522763522E+03  0.89207397062E+02  0.22545105280E+03  0.25500000920E-02 0. -1.
</event>
<event>
 5   0  0.3651984E-02  0.6007500E+03  0.7818609E-02  0.9903851E-01
        1   -1    0    0  501    0  0.00000000000E+00  0.00000000000E+00  0.18426274646E+03  0.18426274653E+03  0.50400001928E-02 0. -1.
       -1   -1    0    0    0  501  0.00000000000E+00  0.00000000000E+00 -0.48965488091E+03  0.48965488094E+03  0.50400001928E-02 0.  1.
    10030    2    1    2    0    0  0.00000000000E+00  0.00000000000E+00 -0.30539213445E+03  0.67391762747E+03  0.60075004189E+03 0.  0.
        1    1    3    3  502    0  0.45028174366E+02  0.25122087308E+02 -0.48465319315E+03  0.48738831892E+03  0.50400001928E-02 0.  1.
       -1    1    3    3    0  502 -0.45028174366E+02 -0.25122087308E+02  0.17926105870E+03  0.18652930856E+03  0.50400001928E-02 0. -1.
</event>
<event>
 5   0  0.3703280E-02  0.6026728E+03  0.7818609E-02  0.9899876E-01
       -1   -1    0    0    0  501  0.00000000000E+00  0.00000000000E+00  0.58769132487E+03  0.58769132489E+03  0.50400001928E-02 0. -1.
        1   -1    0    0  501    0  0.00000000000E+00  0.00000000000E+00 -0.15450906267E+03  0.15450906275E+03  0.50400001928E-02 0.  1.
    10030    2    1    2    0    0  0.00000000000E+00  0.00000000000E+00  0.43318226220E+03  0.74220038764E+03  0.60267283258E+03 0.  0.
        5    1    3    3  502    0  0.18651380587E+03 -0.18661237452E+03  0.39577530947E+03  0.47568031670E+03  0.46999998093E+01 0. -1.
       -5    1    3    3    0  502 -0.18651380587E+03  0.18661237452E+03  0.37406952725E+02  0.26652007094E+03  0.46999998093E+01 0.  1.
</event>
<event>
 5   0  0.5755078E-02  0.6121194E+03  0.7818609E-02  0.9880576E-01
       -2   -1    0    0    0  501  0.00000000000E+00  0.00000000000E+00  0.85882622924E+03  0.85882622925E+03  0.25500000920E-02 0. -1.
        2   -1    0    0  501    0  0.00000000000E+00  0.00000000000E+00 -0.10907042707E+03  0.10907042710E+03  0.25500000920E-02 0.  1.
    10030    2    1    2    0    0  0.00000000000E+00  0.00000000000E+00  0.74975580217E+03  0.96789665635E+03  0.61211941194E+03 0.  0.
        2    1    3    3  502    0  0.95156902359E+02  0.26309711429E+03  0.57108719708E+03  0.63593672192E+03  0.25500000920E-02 0. -1.
       -2    1    3    3    0  502 -0.95156902359E+02 -0.26309711429E+03  0.17866860510E+03  0.33195993443E+03  0.25500000920E-02 0.  1.
</event>
<event>
 5   0  0.5872632E-02  0.5894160E+03  0.7818609E-02  0.9927611E-01
       -2   -1    0    0    0  501  0.00000000000E+00  0.00000000000E+00  0.11345835329E+03  0.11345835332E+03  0.25500000920E-02 0. -1.
        2   -1    0    0  501    0  0.00000000000E+00  0.00000000000E+00 -0.76550384613E+03  0.76550384614E+03  0.25500000920E-02 0.  1.
    10030    2    1    2    0    0  0.00000000000E+00  0.00000000000E+00 -0.65204549284E+03  0.87896219945E+03  0.58941600193E+03 0.  0.
        1    1    3    3  502    0 -0.60382538241E+02 -0.90156766800E+02 -0.73463003125E+03  0.74260054966E+03  0.50400001928E-02 0.  1.
       -1    1    3    3    0  502  0.60382538241E+02  0.90156766800E+02  0.82584538406E+02  0.13636164979E+03  0.50400001928E-02 0. -1.
</event>
<event>
 5   0  0.5935451E-02  0.6041331E+03  0.7818609E-02  0.9896868E-01
        2   -1    0    0  501    0  0.00000000000E+00  0.00000000000E+00  0.15027438748E+04  0.15027438748E+04  0.25500000920E-02 0.  1.
       -2   -1    0    0    0  501  0.00000000000E+00  0.00000000000E+00 -0.60718392137E+02  0.60718392190E+02  0.25500000920E-02 0. -1.
    10030    2    1    2    0    0  0.00000000000E+00  0.00000000000E+00  0.14420254827E+04  0.15634622670E+04  0.60413307115E+03 0.  0.
        3    1    3    3  502    0 -0.10310259460E+03  0.24033445584E+03  0.32978461306E+03  0.42089036208E+03  0.10100000352E+00 0. -1.
       -3    1    3    3    0  502  0.10310259460E+03 -0.24033445584E+03  0.11122408696E+04  0.11425719049E+04  0.10100000352E+00 0.  1.
</event>
<event>
 5   0  0.3703280E-02  0.6038431E+03  0.7818609E-02  0.9897465E-01
       -1   -1    0    0    0  501  0.00000000000E+00  0.00000000000E+00  0.91750110289E+02  0.91750110428E+02  0.50400001928E-02 0. -1.
        1   -1    0    0  501    0  0.00000000000E+00  0.00000000000E+00 -0.99353142088E+03  0.99353142089E+03  0.50400001928E-02 0.  1.
    10030    2    1    2    0    0  0.00000000000E+00  0.00000000000E+00 -0.90178131059E+03  0.10852815313E+04  0.60384308400E+03 0.  0.
        5    1    3    3  502    0 -0.21948247875E+03 -0.15891948747E+03 -0.69004896851E+03  0.74136201070E+03  0.46999998093E+01 0.  1.
       -5    1    3    3    0  502  0.21948247875E+03  0.15891948747E+03 -0.21173234208E+03  0.34391952061E+03  0.46999998093E+01 0. -1.
</event>
<event>
 5   0  0.2388000E-02  0.5990923E+03  0.7818609E-02  0.9907291E-01
        4   -1    0    0  501    0  0.00000000000E+00  0.00000000000E+00  0.10609415109E+03  0.10610175209E+03  0.12699999809E+01 0.  1.
       -4   -1    0    0    0  501  0.00000000000E+00  0.00000000000E+00 -0.84570013009E+03  0.84570108368E+03  0.12699999809E+01 0. -1.
    10030    2    1    2    0    0  0.00000000000E+00  0.00000000000E+00 -0.73960597900E+03  0.95180283577E+03  0.59909234181E+03 0.  0.
        2    1    3    3  502    0  0.15525654704E+03 -0.18413808040E+03 -0.86862096207E+02  0.25603994183E+03  0.25500000920E-02 0.  1.
       -2    1    3    3    0  502 -0.15525654704E+03  0.18413808040E+03 -0.65274388279E+03  0.69576289394E+03  0.25500000920E-02 0. -1.
</event>
<event>
 5   0  0.6007360E-02  0.5997360E+03  0.7818609E-02  0.9905954E-01
       -2   -1    0    0    0  501  0.00000000000E+00  0.00000000000E+00  0.12749433048E+03  0.12749433050E+03  0.25500000920E-02 0.  1.
        2   -1    0    0  501    0  0.00000000000E+00  0.00000000000E+00 -0.70529274147E+03  0.70529274147E+03  0.25500000920E-02 0. -1.
    10030    2    1    2    0    0  0.00000000000E+00  0.00000000000E+00 -0.57779841099E+03  0.83278707198E+03  0.59973602819E+03 0.  0.
        4    1    3    3  502    0  0.20395163754E+03  0.21021432104E+03 -0.19963027630E+03  0.35445760161E+03  0.12699999809E+01 0.  1.
       -4    1    3    3    0  502 -0.20395163754E+03 -0.21021432104E+03 -0.37816813469E+03  0.47832947036E+03  0.12699999809E+01 0. -1.
</event>
<event>
 5   0  0.5872632E-02  0.5970227E+03  0.7818609E-02  0.9911602E-01
        2   -1    0    0  501    0  0.00000000000E+00  0.00000000000E+00  0.65086189435E+03  0.65086189436E+03  0.25500000920E-02 0.  1.
       -2   -1    0    0    0  501  0.00000000000E+00  0.00000000000E+00 -0.13690927791E+03  0.13690927793E+03  0.25500000920E-02 0. -1.
    10030    2    1    2    0    0  0.00000000000E+00  0.00000000000E+00  0.51395261644E+03  0.78777117229E+03  0.59702271979E+03 0.  0.
        1    1    3    3  502    0 -0.25239375540E+03  0.12852233638E+03  0.38137672437E+03  0.47504610790E+03  0.50400001928E-02 0. -1.
       -1    1    3    3    0  502  0.25239375540E+03 -0.12852233638E+03  0.13257589207E+03  0.31272506439E+03  0.50400001928E-02 0.  1.
</event>
<event>
 5   0  0.3478183E-02  0.6025377E+03  0.7818609E-02  0.9900155E-01
       -1   -1    0    0    0  501  0.00000000000E+00  0.00000000000E+00  0.32490286129E+03  0.32490286133E+03  0.50400001928E-02 0. -1.
        1   -1    0    0  501    0  0.00000000000E+00  0.00000000000E+00 -0.27935401642E+03  0.27935401647E+03  0.50400001928E-02 0.  1.
    10030    2    1    2    0    0  0.00000000000E+00  0.00000000000E+00  0.45548844865E+02  0.60425687779E+03  0.60253769765E+03 0.  0.
        4    1    3    3  502    0 -0.78740937980E+02 -0.90480667976E+02  0.29992216190E+03  0.32301981780E+03  0.12699999809E+01 0. -1.
       -4    1    3    3    0  502  0.78740937980E+02  0.90480667976E+02 -0.25437331704E+03  0.28123705999E+03  0.12699999809E+01 0.  1.
</event>
<event>
 5   0  0.3703280E-02  0.6024731E+03  0.7818609E-02  0.9900288E-01
        1   -1    0    0  501    0  0.00000000000E+00  0.00000000000E+00  0.25871583839E+03  0.25871583843E+03  0.50400001928E-02 0. -1.
       -1   -1    0    0    0  501  0.00000000000E+00  0.00000000000E+00 -0.35074566391E+03  0.35074566395E+03  0.50400001928E-02 0.  1.
    10030    2    1    2    0    0  0.00000000000E+00  0.00000000000E+00 -0.92029825523E+02  0.60946150238E+03  0.60247309824E+03 0.  0.
        5    1    3    3  502    0  0.19568725147E+03 -0.99677455194E+01  0.18539279049E+03  0.26978775566E+03  0.46999998093E+01 0. -1.
       -5    1    3    3    0  502 -0.19568725147E+03  0.99677455194E+01 -0.27742261601E+03  0.33967374672E+03  0.46999998093E+01 0.  1.
</event>
<event>
 5   0  0.5999117E-02  0.6064395E+03  0.7818609E-02  0.9892135E-01
       -2   -1    0    0    0  501  0.00000000000E+00  0.00000000000E+00  0.15152247378E+03  0.15152247380E+03  0.25500000920E-02 0. -1.
        2   -1    0    0  501    0  0.00000000000E+00  0.00000000000E+00 -0.60678931995E+03  0.60678931995E+03  0.25500000920E-02 0.  1.
    10030    2    1    2    0    0  0.00000000000E+00  0.00000000000E+00 -0.45526684617E+03  0.75831179375E+03  0.60643950673E+03 0.  0.
        5    1    3    3  502    0 -0.26092611456E+03  0.39778815769E+02 -0.41417576122E+03  0.49115012228E+03  0.46999998093E+01 0.  1.
       -5    1    3    3    0  502  0.26092611456E+03 -0.39778815769E+02 -0.41091084955E+02  0.26716167147E+03  0.46999998093E+01 0. -1.
</event>
<event>
 5   0  0.5999117E-02  0.5950330E+03  0.7818609E-02  0.9915765E-01
       -2   -1    0    0    0  501  0.00000000000E+00  0.00000000000E+00  0.90309251032E+02  0.90309251068E+02  0.25500000920E-02 0.  1.
        2   -1    0    0  501    0  0.00000000000E+00  0.00000000000E+00 -0.98014402659E+03  0.98014402660E+03  0.25500000920E-02 0. -1.
    10030    2    1    2    0    0  0.00000000000E+00  0.00000000000E+00 -0.88983477556E+03  0.10704532777E+04  0.59503301746E+03 0.  0.
        5    1    3    3  502    0 -0.34563432407E+02  0.41614247903E+02  0.81319567684E+02  0.97782097414E+02  0.46999998093E+01 0.  1.
       -5    1    3    3    0  502  0.34563432407E+02 -0.41614247903E+02 -0.97115434325E+03  0.97267118025E+03  0.46999998093E+01 0. -1.
</event>
<event>
 5   0  0.5999117E-02  0.6068628E+03  0.7818609E-02  0.9891269E-01
       -2   -1    0    0    0  501  0.00000000000E+00  0.00000000000E+00  0.17649986171E+03  0.17649986173E+03  0.25500000920E-02 0.  1.
        2   -1    0    0  501    0  0.00000000000E+00  0.00000000000E+00 -0.52164692508E+03  0.52164692508E+03  0.25500000920E-02 0. -1.
    10030    2    1    2    0    0  0.00000000000E+00  0.00000000000E+00 -0.34514706337E+03  0.69814678681E+03  0.60686278563E+03 0.  0.
        5    1    3    3  502    0 -0.78574445866E+02  0.15884606942E+03  0.11072530806E+03  0.20901722694E+03  0.46999998093E+01 0.  1.
       -5    1    3    3    0  502  0.78574445866E+02 -0.15884606942E+03 -0.45587237142E+03  0.48912955987E+03  0.46999998093E+01 0. -1.
</event>
<event>
 5   0  0.6007360E-02  0.6016529E+03  0.7818609E-02  0.9901983E-01
       -2   -1    0    0    0  501  0.00000000000E+00  0.00000000000E+00  0.98209275506E+02  0.98209275539E+02  0.25500000920E-02 0. -1.
        2   -1    0    0  501    0  0.00000000000E+00  0.00000000000E+00 -0.92146646797E+03  0.92146646797E+03  0.25500000920E-02 0.  1.
    10030    2    1    2    0    0  0.00000000000E+00  0.00000000000E+00 -0.82325719246E+03  0.10196757435E+04  0.60165290406E+03 0.  0.
        4    1    3    3  502    0 -0.17616271206E+03  0.96557328198E+01  0.13178843076E+01  0.17643662889E+03  0.12699999809E+01 0. -1.
       -4    1    3    3    0  502  0.17616271206E+03 -0.96557328198E+01 -0.82457507677E+03  0.84323911462E+03  0.12699999809E+01 0.  1.
</event>
<event>
 5   0  0.6007360E-02  0.5903838E+03  0.7818609E-02  0.9925560E-01
       -2   -1    0    0    0  501  0.00000000000E+00  0.00000000000E+00  0.10103948335E+03  0.10103948338E+03  0.25500000920E-02 0.  1.
        2   -1    0    0  501    0  0.00000000000E+00  0.00000000000E+00 -0.86241782408E+03  0.86241782408E+03  0.25500000920E-02 0. -1.
    10030    2    1    2    0    0  0.00000000000E+00  0.00000000000E+00 -0.76137834073E+03  0.96345730746E+03  0.59038377821E+03 0.  0.
        4    1    3    3  502    0 -0.13327315809E+03  0.18406450983E+03 -0.73233414112E+02  0.23875976271E+03  0.12699999809E+01 0.  1.
       -4    1    3    3    0  502  0.13327315809E+03 -0.18406450983E+03 -0.68814492662E+03  0.72469754475E+03  0.12699999809E+01 0. -1.
</event>
<event>
 5   0  0.3703280E-02  0.5629159E+03  0.7818609E-02  0.9985478E-01
        1   -1    0    0  501    0  0.00000000000E+00  0.00000000000E+00  0.97617958848E+03  0.97617958849E+03  0.50400001928E-02 0. -1.
       -1   -1    0    0    0  501  0.00000000000E+00  0.00000000000E+00 -0.81151642323E+02  0.81151642479E+02  0.50400001928E-02 0.  1.
    10030    2    1    2    0    0  0.00000000000E+00  0.00000000000E+00  0.89502794615E+03  0.10573312310E+04  0.56291589744E+03 0.  0.
        5    1    3    3  502    0 -0.71160792452E+02 -0.25833237499E+03  0.60905979275E+03  0.66541370252E+03  0.46999998093E+01 0. -1.
       -5    1    3    3    0  502  0.71160792452E+02  0.25833237499E+03  0.28596815340E+03  0.39191752845E+03  0.46999998093E+01 0.  1.
</event>
<event>
 5   0  0.5935451E-02  0.6443269E+03  0.7818609E-02  0.9817483E-01
        2   -1    0    0  501    0  0.00000000000E+00  0.00000000000E+00  0.58988704899E+03  0.58988704899E+03  0.25500000920E-02 0.  1.
       -2   -1    0    0    0  501  0.00000000000E+00  0.00000000000E+00 -0.17594775120E+03  0.17594775122E+03  0.25500000920E-02 0. -1.
    10030    2    1    2    0    0  0.00000000000E+00  0.00000000000E+00  0.41393929779E+03  0.76583480021E+03  0.64432693484E+03 0.  0.
        3    1    3    3  502    0 -0.20544968755E+03  0.11048545734E+03 -0.57132635514E+02  0.24016818823E+03  0.10100000352E+00 0. -1.
       -3    1    3    3    0  502  0.20544968755E+03 -0.11048545734E+03  0.47107193330E+03  0.52566661198E+03  0.10100000352E+00 0.  1.
</event>
<event>
 5   0  0.5755078E-02  0.5881042E+03  0.7818609E-02  0.9930398E-01
       -2   -1    0    0    0  501  0.00000000000E+00  0.00000000000E+00  0.12662093820E+03  0.12662093823E+03  0.25500000920E-02 0.  1.
        2   -1    0    0  501    0  0.00000000000E+00  0.00000000000E+00 -0.68287778689E+03  0.68287778689E+03  0.25500000920E-02 0. -1.
    10030    2    1    2    0    0  0.00000000000E+00  0.00000000000E+00 -0.55625684869E+03  0.80949872512E+03  0.58810416106E+03 0.  0.
        2    1    3    3  502    0 -0.24949646748E+03  0.12384296719E+03 -0.14841220685E+03  0.31561329337E+03  0.25500000920E-02 0.  1.
       -2    1    3    3    0  502  0.24949646748E+03 -0.12384296719E+03 -0.40784464184E+03  0.49388543175E+03  0.25500000920E-02 0. -1.
</event>
<event>
 5   0  0.3651984E-02  0.5944605E+03  0.7818609E-02  0.9916966E-01
       -1   -1    0    0    0  501  0.00000000000E+00  0.00000000000E+00  0.14390929834E+03  0.14390929843E+03  0.50400001928E-02 0. -1.
        1   -1    0    0  501    0  0.00000000000E+00  0.00000000000E+00 -0.61389940593E+03  0.61389940595E+03  0.50400001928E-02 0.  1.
    10030    2    1    2    0    0  0.00000000000E+00  0.00000000000E+00 -0.46999010758E+03  0.75780870438E+03  0.59446053797E+03 0.  0.
        1    1    3    3  502    0 -0.33220760455E+02  0.14321607694E+03 -0.56430251973E+03  0.58313960371E+03  0.50400001928E-02 0.  1.
       -1    1    3    3    0  502  0.33220760455E+02 -0.14321607694E+03  0.94312412142E+02  0.17466910067E+03  0.50400001928E-02 0. -1.
</event>
<event>
 5   0  0.5999117E-02  0.5930165E+03  0.7818609E-02  0.9920001E-01
       -2   -1    0    0    0  501  0.00000000000E+00  0.00000000000E+00  0.69188911520E+02  0.69188911567E+02  0.25500000920E-02 0.  1.
        2   -1    0    0  501    0  0.00000000000E+00  0.00000000000E+00 -0.12706825430E+04  0.12706825430E+04  0.25500000920E-02 0. -1.
    10030    2    1    2    0    0  0.00000000000E+00  0.00000000000E+00 -0.12014936315E+04  0.13398714546E+04  0.59301649917E+03 0.  0.
        5    1    3    3  502    0  0.15536698962E+03  0.10679878103E+03 -0.83788637399E+02  0.20636740743E+03  0.46999998093E+01 0.  1.
       -5    1    3    3    0  502 -0.15536698962E+03 -0.10679878103E+03 -0.11177049941E+04  0.11335040471E+04  0.46999998093E+01 0. -1.
</event>
<event>
 5   0  0.5755078E-02  0.5970942E+03  0.7818609E-02  0.9911453E-01
       -2   -1    0    0    0  501  0.00000000000E+00  0.00000000000E+00  0.12218574451E+03  0.12218574453E+03  0.25500000920E-02 0. -1.
        2   -1    0    0  501    0  0.00000000000E+00  0.00000000000E+00 -0.72946611036E+03  0.72946611036E+03  0.25500000920E-02 0.  1.
    10030    2    1    2    0    0  0.00000000000E+00  0.00000000000E+00 -0.60728036585E+03  0.85165185489E+03  0.59709416275E+03 0.  0.
        2    1    3    3  502    0 -0.24937919550E+03  0.60452131010E+02 -0.85986540691E+02  0.27062543945E+03  0.25500000920E-02 0. -1.
       -2    1    3    3    0  502  0.24937919550E+03 -0.60452131010E+02 -0.52129382516E+03  0.58102641545E+03  0.25500000920E-02 0.  1.
</event>
<event>
 5   0  0.3651984E-02  0.5745633E+03  0.7818609E-02  0.9959631E-01
        1   -1    0    0  501    0  0.00000000000E+00  0.00000000000E+00  0.81408372164E+03  0.81408372166E+03  0.50400001928E-02 0. -1.
       -1   -1    0    0    0  501  0.00000000000E+00  0.00000000000E+00 -0.10137871208E+03  0.10137871221E+03  0.50400001928E-02 0.  1.
    10030    2    1    2    0    0  0.00000000000E+00  0.00000000000E+00  0.71270500956E+03  0.91546243386E+03  0.57456334478E+03 0.  0.
        1    1    3    3  502    0 -0.12745162359E+03  0.23376507872E+03  0.52825917814E+03  0.59156384922E+03  0.50400001928E-02 0. -1.
       -1    1    3    3    0  502  0.12745162359E+03 -0.23376507872E+03  0.18444583142E+03  0.32389858465E+03  0.50400001928E-02 0.  1.
</event>
<event>
 5   0  0.5999117E-02  0.5784170E+03  0.7818609E-02  0.9951224E-01
       -2   -1    0    0    0  501  0.00000000000E+00  0.00000000000E+00  0.61276270143E+02  0.61276270196E+02  0.25500000920E-02 0.  1.
        2   -1    0    0  501    0  0.00000000000E+00  0.00000000000E+00 -0.13649908568E+04  0.13649908568E+04  0.25500000920E-02 0. -1.
    10030    2    1    2    0    0  0.00000000000E+00  0.00000000000E+00 -0.13037145866E+04  0.14262671270E+04  0.57841697251E+03 0.  0.
        5    1    3    3  502    0 -0.20595945461E+03  0.93196926780E+02 -0.20722771792E+03  0.30670895190E+03  0.46999998093E+01 0.  1.
       -5    1    3    3    0  502  0.20595945461E+03 -0.93196926780E+02 -0.10964868687E+04  0.11195581751E+04  0.46999998093E+01 0. -1.
</event>
<event>
 5   0  0.5999117E-02  0.6047720E+03  0.7818609E-02  0.9895555E-01
       -2   -1    0    0    0  501  0.00000000000E+00  0.00000000000E+00  0.18048986615E+03  0.18048986617E+03  0.25500000920E-02 0.  1.
        2   -1    0    0  501    0  0.00000000000E+00  0.00000000000E+00 -0.50660630603E+03  0.50660630604E+03  0.25500000920E-02 0. -1.
    10030    2    1    2    0    0  0.00000000000E+00  0.00000000000E+00 -0.32611643988E+03  0.68709617221E+03  0.60477203763E+03 0.  0.
        5    1    3    3  502    0  0.28662003329E+03 -0.59334122871E+01 -0.27220284112E+03  0.39535139506E+03  0.46999998093E+01 0. -1.
       -5    1    3    3    0  502 -0.28662003329E+03  0.59334122871E+01 -0.53913598763E+02  0.29174477715E+03  0.46999998093E+01 0.  1.
</event>
<event>
 5   0  0.5935451E-02  0.5992827E+03  0.7818609E-02  0.9906895E-01
        2   -1    0    0  501    0  0.00000000000E+00  0.00000000000E+00  0.30155307667E+03  0.30155307668E+03  0.25500000920E-02 0. -1.
       -2   -1    0    0    0  501  0.00000000000E+00  0.00000000000E+00 -0.29774172549E+03  0.29774172550E+03  0.25500000920E-02 0.  1.
    10030    2    1    2    0    0  0.00000000000E+00  0.00000000000E+00  0.38113511738E+01  0.59929480218E+03  0.59928268248E+03 0.  0.
        3    1    3    3  502    0  0.99563613121E+02 -0.27475744833E+02  0.28318897349E+03  0.30143628600E+03  0.10100000352E+00 0. -1.
       -3    1    3    3    0  502 -0.99563613121E+02  0.27475744833E+02 -0.27937762231E+03  0.29785851618E+03  0.10100000352E+00 0.  1.
</event>
<event>
 5   0  0.2388000E-02  0.6059900E+03  0.7818609E-02  0.9893056E-01
        4   -1    0    0  501    0  0.00000000000E+00  0.00000000000E+00  0.79122446852E+02  0.79132638625E+02  0.12699999809E+01 0.  1.
       -4   -1    0    0    0  501  0.00000000000E+00  0.00000000000E+00 -0.11602172106E+04  0.11602179057E+04  0.12699999809E+01 0. -1.
    10030    2    1    2    0    0  0.00000000000E+00  0.00000000000E+00 -0.10810947638E+04  0.12393505443E+04  0.60599000280E+03 0.  0.
        1    1    3    3  502    0  0.24615890304E+03  0.24533004537E+02 -0.89836328293E+03  0.93180076304E+03  0.50400001928E-02 0. -1.
       -1    1    3    3    0  502 -0.24615890304E+03 -0.24533004537E+02 -0.18273148085E+03  0.30754978130E+03  0.50400001928E-02 0.  1.
</event>
<event>
 5   0  0.3703280E-02  0.6069638E+03  0.7818609E-02  0.9891063E-01
        1   -1    0    0  501    0  0.00000000000E+00  0.00000000000E+00  0.50571535537E+03  0.50571535540E+03  0.50400001928E-02 0.  1.
       -1   -1    0    0    0  501  0.00000000000E+00  0.00000000000E+00 -0.18212074151E+03  0.18212074158E+03  0.50400001928E-02 0. -1.
    10030    2    1    2    0    0  0.00000000000E+00  0.00000000000E+00  0.32359461386E+03  0.68783609698E+03  0.60696377337E+03 0.  0.
        5    1    3    3  502    0 -0.13673003117E+03 -0.64386615403E+02 -0.13639455831E+03  0.20363276554E+03  0.46999998093E+01 0. -1.
       -5    1    3    3    0  502  0.13673003117E+03  0.64386615403E+02  0.45998917217E+03  0.48420333144E+03  0.46999998093E+01 0.  1.
</event>
<event>
 5   0  0.5755078E-02  0.6004978E+03  0.7818609E-02  0.9904374E-01
       -2   -1    0    0    0  501  0.00000000000E+00  0.00000000000E+00  0.38342972814E+02  0.38342972898E+02  0.25500000920E-02 0. -1.
        2   -1    0    0  501    0  0.00000000000E+00  0.00000000000E+00 -0.23511322164E+04  0.23511322164E+04  0.25500000920E-02 0.  1.
    10030    2    1    2    0    0  0.00000000000E+00  0.00000000000E+00 -0.23127892436E+04  0.23894751893E+04  0.60049778936E+03 0.  0.
        2    1    3    3  502    0 -0.23701451064E+03 -0.16596467026E+03 -0.14754537881E+04  0.15035571259E+04  0.25500000920E-02 0.  1.
       -2    1    3    3    0  502  0.23701451064E+03  0.16596467026E+03 -0.83733545542E+03  0.88591806333E+03  0.25500000920E-02 0. -1.
</event>
<event>
 5   0  0.5872632E-02  0.6039303E+03  0.7818609E-02  0.9897285E-01
       -2   -1    0    0    0  501  0.00000000000E+00  0.00000000000E+00  0.55701247841E+02  0.55701247900E+02  0.25500000920E-02 0.  1.
        2   -1    0    0  501    0  0.00000000000E+00  0.00000000000E+00 -0.16370002690E+04  0.16370002690E+04  0.25500000920E-02 0. -1.
    10030    2    1    2    0    0  0.00000000000E+00  0.00000000000E+00 -0.15812990211E+04  0.16927015169E+04  0.60393031965E+03 0.  0.
        1    1    3    3  502    0 -0.16686243134E+03 -0.98103020173E+02 -0.14402466530E+04  0.14531956836E+04  0.50400001928E-02 0. -1.
       -1    1    3    3    0  502  0.16686243134E+03  0.98103020173E+02 -0.14105236816E+03  0.23950583322E+03  0.50400001928E-02 0.  1.
</event>
<event>
 5   0  0.3767635E-02  0.6035430E+03  0.7818609E-02  0.9898083E-01
       -1   -1    0    0    0  501  0.00000000000E+00  0.00000000000E+00  0.85812529896E+02  0.85812530044E+02  0.50400001928E-02 0.  1.
        1   -1    0    0  501    0  0.00000000000E+00  0.00000000000E+00 -0.10612206924E+04  0.10612206924E+04  0.50400001928E-02 0. -1.
    10030    2    1    2    0    0  0.00000000000E+00  0.00000000000E+00 -0.97540816248E+03  0.11470332224E+04  0.60354298101E+03 0.  0.
        2    1    3    3  502    0  0.68212637361E+02  0.29395791405E+03 -0.49026330712E+03  0.57569291245E+03  0.25500000920E-02 0.  1.
       -2    1    3    3    0  502 -0.68212637361E+02 -0.29395791405E+03 -0.48514485536E+03  0.57134030999E+03  0.25500000920E-02 0. -1.
</event>
<event>
 5   0  0.3651984E-02  0.5981305E+03  0.7818609E-02  0.9909292E-01
       -1   -1    0    0    0  501  0.00000000000E+00  0.00000000000E+00  0.31284676559E+03  0.31284676563E+03  0.50400001928E-02 0.  1.
        1   -1    0    0  501    0  0.00000000000E+00  0.00000000000E+00 -0.28589087179E+03  0.28589087184E+03  0.50400001928E-02 0. -1.
    10030    2    1    2    0    0  0.00000000000E+00  0.00000000000E+00  0.26955893801E+02  0.59873763747E+03  0.59813053618E+03 0.  0.
        1    1    3    3  502    0 -0.22117737122E+03  0.20061365377E+03 -0.31149730441E+01  0.29862178538E+03  0.50400001928E-02 0.  1.
       -1    1    3    3    0  502  0.22117737122E+03 -0.20061365377E+03  0.30070866846E+02  0.30011585209E+03  0.50400001928E-02 0. -1.
</event>
<event>
 5   0  0.5755078E-02  0.5867129E+03  0.7818609E-02  0.9933363E-01
       -2   -1    0    0    0  501  0.00000000000E+00  0.00000000000E+00  0.18093434191E+03  0.18093434193E+03  0.25500000920E-02 0.  1.
        2   -1    0    0  501    0  0.00000000000E+00  0.00000000000E+00 -0.47563112183E+03  0.47563112184E+03  0.25500000920E-02 0. -1.
    10030    2    1    2    0    0  0.00000000000E+00  0.00000000000E+00 -0.29469677992E+03  0.65656546377E+03  0.58671289070E+03 0.  0.
        2    1    3    3  502    0  0.99680039005E+02 -0.13396008509E+03 -0.41726308714E+03  0.44943286314E+03  0.25500000920E-02 0. -1.
       -2    1    3    3    0  502 -0.99680039005E+02  0.13396008509E+03  0.12256630721E+03  0.20713260063E+03  0.25500000920E-02 0.  1.
</event>
<event>
 5   0  0.3651984E-02  0.5981285E+03  0.7818609E-02  0.9909296E-01
       -1   -1    0    0    0  501  0.00000000000E+00  0.00000000000E+00  0.24681189701E+03  0.24681189706E+03  0.50400001928E-02 0.  1.
        1   -1    0    0  501    0  0.00000000000E+00  0.00000000000E+00 -0.36237890765E+03  0.36237890768E+03  0.50400001928E-02 0. -1.
    10030    2    1    2    0    0  0.00000000000E+00  0.00000000000E+00 -0.11556701064E+03  0.60919080475E+03  0.59812850011E+03 0.  0.
        1    1    3    3  502    0  0.10326215849E+03  0.25821515485E+03  0.54256883315E+02  0.28334069419E+03  0.50400001928E-02 0.  1.
       -1    1    3    3    0  502 -0.10326215849E+03 -0.25821515485E+03 -0.16982389395E+03  0.32585011056E+03  0.50400001928E-02 0. -1.
</event>
<event>
 5   0  0.3478183E-02  0.6007476E+03  0.7818609E-02  0.9903856E-01
        1   -1    0    0  501    0  0.00000000000E+00  0.00000000000E+00  0.43142596165E+03  0.43142596168E+03  0.50400001928E-02 0. -1.
       -1   -1    0    0    0  501  0.00000000000E+00  0.00000000000E+00 -0.20913073040E+03  0.20913073046E+03  0.50400001928E-02 0.  1.
    10030    2    1    2    0    0  0.00000000000E+00  0.00000000000E+00  0.22229523125E+03  0.64055669213E+03  0.60074762255E+03 0.  0.
        4    1    3    3  502    0  0.50133449484E+02 -0.60966623881E+02 -0.19787183914E+03  0.21303795345E+03  0.12699999809E+01 0.  1.
       -4    1    3    3    0  502 -0.50133449484E+02  0.60966623881E+02  0.42016707039E+03  0.42751873868E+03  0.12699999809E+01 0. -1.
</event>
<event>
 5   0  0.3767635E-02  0.5994187E+03  0.7818609E-02  0.9906613E-01
        1   -1    0    0  501    0  0.00000000000E+00  0.00000000000E+00  0.42396730815E+03  0.42396730818E+03  0.50400001928E-02 0. -1.
       -1   -1    0    0    0  501  0.00000000000E+00  0.00000000000E+00 -0.21186937344E+03  0.21186937350E+03  0.50400001928E-02 0.  1.
    10030    2    1    2    0    0  0.00000000000E+00  0.00000000000E+00  0.21209793471E+03  0.63583668168E+03  0.59941867827E+03 0.  0.
        2    1    3    3  502    0 -0.68834641402E+02  0.27395295649E+03 -0.22400930068E+00  0.28246854766E+03  0.25500000920E-02 0.  1.
       -2    1    3    3    0  502  0.68834641402E+02 -0.27395295649E+03  0.21232194401E+03  0.35336813402E+03  0.25500000920E-02 0. -1.
</event>
<event>
 5   0  0.6007360E-02  0.6058048E+03  0.7818609E-02  0.9893436E-01
        2   -1    0    0  501    0  0.00000000000E+00  0.00000000000E+00  0.74115256998E+03  0.74115256999E+03  0.25500000920E-02 0.  1.
       -2   -1    0    0    0  501  0.00000000000E+00  0.00000000000E+00 -0.12379347284E+03  0.12379347286E+03  0.25500000920E-02 0. -1.
    10030    2    1    2    0    0  0.00000000000E+00  0.00000000000E+00  0.61735909714E+03  0.86494604285E+03  0.60580475585E+03 0.  0.
        4    1    3    3  502    0  0.64979441829E+02 -0.23439830164E+03  0.50955955385E+02  0.24852165692E+03  0.12699999809E+01 0. -1.
       -4    1    3    3    0  502 -0.64979441829E+02  0.23439830164E+03  0.56640314176E+03  0.61642438593E+03  0.12699999809E+01 0.  1.
</event>
<event>
 5   0  0.5999117E-02  0.6042461E+03  0.7818609E-02  0.9896636E-01
       -2   -1    0    0    0  501  0.00000000000E+00  0.00000000000E+00  0.87127535144E+02  0.87127535181E+02  0.25500000920E-02 0. -1.
        2   -1    0    0  501    0  0.00000000000E+00  0.00000000000E+00 -0.10476404732E+04  0.10476404732E+04  0.25500000920E-02 0.  1.
    10030    2    1    2    0    0  0.00000000000E+00  0.00000000000E+00 -0.96051293810E+03  0.11347680084E+04  0.60424608289E+03 0.  0.
        5    1    3    3  502    0  0.72011948638E+02  0.53384744599E+02 -0.10220185896E+04  0.10259530882E+04  0.46999998093E+01 0.  1.
       -5    1    3    3    0  502 -0.72011948638E+02 -0.53384744599E+02  0.61505651490E+02  0.10881492024E+03  0.46999998093E+01 0. -1.
</event>
<event>
 5   0  0.6007360E-02  0.5995089E+03  0.7818609E-02  0.9906425E-01
       -2   -1    0    0    0  501  0.00000000000E+00  0.00000000000E+00  0.84229525233E+03  0.84229525234E+03  0.25500000920E-02 0. -1.
        2   -1    0    0  501    0  0.00000000000E+00  0.00000000000E+00 -0.10667606009E+03  0.10667606012E+03  0.25500000920E-02 0.  1.
    10030    2    1    2    0    0  0.00000000000E+00  0.00000000000E+00  0.73561919225E+03  0.94897131245E+03  0.59950892892E+03 0.  0.
        4    1    3    3  502    0 -0.25346156834E+02 -0.26471606568E+03  0.14885126137E+03  0.30475454715E+03  0.12699999809E+01 0.  1.
       -4    1    3    3    0  502  0.25346156834E+02  0.26471606568E+03  0.58676793088E+03  0.64421676531E+03  0.12699999809E+01 0. -1.
</event>
<event>
 5   0  0.5872632E-02  0.6160189E+03  0.7818609E-02  0.9872718E-01
        2   -1    0    0  501    0  0.00000000000E+00  0.00000000000E+00  0.46878659882E+03  0.46878659883E+03  0.25500000920E-02 0. -1.
       -2   -1    0    0    0  501  0.00000000000E+00  0.00000000000E+00 -0.20237313837E+03  0.20237313839E+03  0.25500000920E-02 0.  1.
    10030    2    1    2    0    0  0.00000000000E+00  0.00000000000E+00  0.26641346045E+03  0.67115973722E+03  0.61601888035E+03 0.  0.
        1    1    3    3  502    0  0.90111267070E+02  0.23722724217E+03  0.32339755060E+03  0.41107515206E+03  0.50400001928E-02 0. -1.
       -1    1    3    3    0  502 -0.90111267070E+02 -0.23722724217E+03 -0.56984090147E+02  0.26008458516E+03  0.50400001928E-02 0.  1.
</event>
<event>
 5   0  0.5999117E-02  0.5975710E+03  0.7818609E-02  0.9910458E-01
       -2   -1    0    0    0  501  0.00000000000E+00  0.00000000000E+00  0.39514339811E+03  0.39514339811E+03  0.25500000920E-02 0. -1.
        2   -1    0    0  501    0  0.00000000000E+00  0.00000000000E+00 -0.22592503938E+03  0.22592503939E+03  0.25500000920E-02 0.  1.
    10030    2    1    2    0    0  0.00000000000E+00  0.00000000000E+00  0.16921835873E+03  0.62106843751E+03  0.59757104275E+03 0.  0.
        5    1    3    3  502    0  0.18013176005E+02 -0.20690006640E+03 -0.13858759077E+03  0.24972128924E+03  0.46999998093E+01 0.  1.
       -5    1    3    3    0  502 -0.18013176005E+02  0.20690006640E+03  0.30780594950E+03  0.37134714827E+03  0.46999998093E+01 0. -1.
</event>
<event>
 5   0  0.5935451E-02  0.5970863E+03  0.7818609E-02  0.9911470E-01
        2   -1    0    0  501    0  0.00000000000E+00  0.00000000000E+00  0.13249833324E+04  0.13249833324E+04  0.25500000920E-02 0. -1.
       -2   -1    0    0    0  501  0.00000000000E+00  0.00000000000E+00 -0.67267261979E+02  0.67267262028E+02  0.25500000920E-02 0.  1.
    10030    2    1    2    0    0  0.00000000000E+00  0.00000000000E+00  0.12577160704E+04  0.13922505944E+04  0.59708626169E+03 0.  0.
        3    1    3    3  502    0  0.10076187792E+03 -0.11849401595E+03  0.12230367503E+04  0.12328879473E+04  0.10100000352E+00 0. -1.
       -3    1    3    3    0  502 -0.10076187792E+03  0.11849401595E+03  0.34679320151E+02  0.15936264714E+03  0.10100000352E+00 0.  1.
</event>
<event>
 5   0  0.6007360E-02  0.5816612E+03  0.7818609E-02  0.9944201E-01
       -2   -1    0    0    0  501  0.00000000000E+00  0.00000000000E+00  0.35625594809E+02  0.35625594900E+02  0.25500000920E-02 0. -1.
        2   -1    0    0  501    0  0.00000000000E+00  0.00000000000E+00 -0.23742045330E+04  0.23742045330E+04  0.25500000920E-02 0.  1.
    10030    2    1    2    0    0  0.00000000000E+00  0.00000000000E+00 -0.23385789382E+04  0.24098301279E+04  0.58166123748E+03 0.  0.
        4    1    3    3  502    0 -0.21704144025E+03  0.86215280795E+02 -0.45121105927E+03  0.50806800169E+03  0.12699999809E+01 0. -1.
       -4    1    3    3    0  502  0.21704144025E+03 -0.86215280795E+02 -0.18873678789E+04  0.19017621262E+04  0.12699999809E+01 0.  1.
</event>
<event>
 5   0  0.3640827E-02  0.5697131E+03  0.7818609E-02  0.9970314E-01
        1   -1    0    0  501    0  0.00000000000E+00  0.00000000000E+00  0.95128569103E+02  0.95128569237E+02  0.50400001928E-02 0.  1.
       -1   -1    0    0    0  501  0.00000000000E+00  0.00000000000E+00 -0.85298509376E+03  0.85298509378E+03  0.50400001928E-02 0. -1.
    10030    2    1    2    0    0  0.00000000000E+00  0.00000000000E+00 -0.75785652466E+03  0.94811366302E+03  0.56971309097E+03 0.  0.
        3    1    3    3  502    0 -0.23422359657E+03 -0.16207045036E+03 -0.38552595775E+03  0.47933057317E+03  0.10100000352E+00 0. -1.
       -3    1    3    3    0  502  0.23422359657E+03  0.16207045036E+03 -0.37233056691E+03  0.46878308985E+03  0.10100000352E+00 0.  1.
</event>
<event>
 5   0  0.3767635E-02  0.5993302E+03  0.7818609E-02  0.9906797E-01
       -1   -1    0    0    0  501  0.00000000000E+00  0.00000000000E+00  0.18615137691E+03  0.18615137698E+03  0.50400001928E-02 0.  1.
        1   -1    0    0  501    0  0.00000000000E+00  0.00000000000E+00 -0.48239859331E+03  0.48239859334E+03  0.50400001928E-02 0. -1.
    10030    2    1    2    0    0  0.00000000000E+00  0.00000000000E+00 -0.29624721641E+03  0.66854997032E+03  0.59933016742E+03 0.  0.
        2    1    3    3  502    0  0.13109524460E+03  0.72932924433E+02 -0.43749518297E+03  0.46250103757E+03  0.25500000920E-02 0. -1.
       -2    1    3    3    0  502 -0.13109524460E+03 -0.72932924433E+02  0.14124796656E+03  0.20604893275E+03  0.25500000920E-02 0.  1.
</event>
<event>
 5   0  0.3640827E-02  0.6031304E+03  0.7818609E-02  0.9898933E-01
        1   -1    0    0  501    0  0.00000000000E+00  0.00000000000E+00  0.22723090378E+03  0.22723090384E+03  0.50400001928E-02 0. -1.
       -1   -1    0    0    0  501  0.00000000000E+00  0.00000000000E+00 -0.40021649337E+03  0.40021649340E+03  0.50400001928E-02 0.  1.
    10030    2    1    2    0    0  0.00000000000E+00  0.00000000000E+00 -0.17298558959E+03  0.62744739723E+03  0.60313035249E+03 0.  0.
        3    1    3    3  502    0  0.21524748641E+03 -0.10598322511E+03 -0.27655415199E+03  0.36612311262E+03  0.10100000352E+00 0.  1.
       -3    1    3    3    0  502 -0.21524748641E+03  0.10598322511E+03  0.10356856241E+03  0.26132428461E+03  0.10100000352E+00 0. -1.
</event>
<event>
 5   0  0.6007360E-02  0.5990837E+03  0.7818609E-02  0.9907309E-01
       -2   -1    0    0    0  501  0.00000000000E+00  0.00000000000E+00  0.24810539017E+03  0.24810539019E+03  0.25500000920E-02 0.  1.
        2   -1    0    0  501    0  0.00000000000E+00  0.00000000000E+00 -0.36164194674E+03  0.36164194675E+03  0.25500000920E-02 0. -1.
    10030    2    1    2    0    0  0.00000000000E+00  0.00000000000E+00 -0.11353655656E+03  0.60974733693E+03  0.59908368799E+03 0.  0.
        4    1    3    3  502    0 -0.18519363153E+03 -0.12494937241E+03 -0.25985616182E+03  0.34268916610E+03  0.12699999809E+01 0. -1.
       -4    1    3    3    0  502  0.18519363153E+03  0.12494937241E+03  0.14631960526E+03  0.26705817083E+03  0.12699999809E+01 0.  1.
</event>
<event>
 5   0  0.3478183E-02  0.5791547E+03  0.7818609E-02  0.9949623E-01
        1   -1    0    0  501    0  0.00000000000E+00  0.00000000000E+00  0.26260603622E+03  0.26260603626E+03  0.50400001928E-02 0. -1.
       -1   -1    0    0    0  501  0.00000000000E+00  0.00000000000E+00 -0.31931879388E+03  0.31931879392E+03  0.50400001928E-02 0.  1.
    10030    2    1    2    0    0  0.00000000000E+00  0.00000000000E+00 -0.56712757666E+02  0.58192483019E+03  0.57915470395E+03 0.  0.
        4    1    3    3  502    0  0.15526768151E+03  0.18651463931E+02  0.21652535019E+03  0.26709693035E+03  0.12699999809E+01 0. -1.
       -4    1    3    3    0  502 -0.15526768151E+03 -0.18651463931E+02 -0.27323810786E+03  0.31482789983E+03  0.12699999809E+01 0.  1.
</event>
<event>
 5   0  0.3703280E-02  0.6216148E+03  0.7818609E-02  0.9861550E-01
        1   -1    0    0  501    0  0.00000000000E+00  0.00000000000E+00  0.47620266904E+03  0.47620266907E+03  0.50400001928E-02 0.  1.
       -1   -1    0    0    0  501  0.00000000000E+00  0.00000000000E+00 -0.20285739120E+03  0.20285739126E+03  0.50400001928E-02 0. -1.
    10030    2    1    2    0    0  0.00000000000E+00  0.00000000000E+00  0.27334527785E+03  0.67906006033E+03  0.62161477188E+03 0.  0.
        5    1    3    3  502    0  0.11293175654E+03  0.23896766304E+03 -0.41896010763E+02  0.26764994177E+03  0.46999998093E+01 0. -1.
       -5    1    3    3    0  502 -0.11293175654E+03 -0.23896766304E+03  0.31524128861E+03  0.41141011856E+03  0.46999998093E+01 0.  1.
</event>
<event>
 5   0  0.3651984E-02  0.5940385E+03  0.7818609E-02  0.9917852E-01
        1   -1    0    0  501    0  0.00000000000E+00  0.00000000000E+00  0.14634782773E+03  0.14634782781E+03  0.50400001928E-02 0. -1.
       -1   -1    0    0    0  501  0.00000000000E+00  0.00000000000E+00 -0.60281351115E+03  0.60281351117E+03  0.50400001928E-02 0.  1.
    10030    2    1    2    0    0  0.00000000000E+00  0.00000000000E+00 -0.45646568342E+03  0.74916133898E+03  0.59403854394E+03 0.  0.
        1    1    3    3  502    0 -0.20508023623E+03  0.17542625442E+03 -0.71790512068E+02  0.27926000730E+03  0.50400001928E-02 0. -1.
       -1    1    3    3    0  502  0.20508023623E+03 -0.17542625442E+03 -0.38467517136E+03  0.46990133168E+03  0.50400001928E-02 0.  1.
</event>
<event>
 5   0  0.3767635E-02  0.5994984E+03  0.7818609E-02  0.9906447E-01
       -1   -1    0    0    0  501  0.00000000000E+00  0.00000000000E+00  0.37995378374E+03  0.37995378377E+03  0.50400001928E-02 0. -1.
        1   -1    0    0  501    0  0.00000000000E+00  0.00000000000E+00 -0.23647500485E+03  0.23647500490E+03  0.50400001928E-02 0.  1.
    10030    2    1    2    0    0  0.00000000000E+00  0.00000000000E+00  0.14347877889E+03  0.61642878868E+03  0.59949836657E+03 0.  0.
        2    1    3    3  502    0  0.21060243611E+03 -0.65771138430E+00  0.29106045306E+03  0.35926314315E+03  0.25500000920E-02 0. -1.
       -2    1    3    3    0  502 -0.21060243611E+03  0.65771138430E+00 -0.14758167418E+03  0.25716564553E+03  0.25500000920E-02 0.  1.
</event>
<event>
 5   0  0.5999117E-02  0.6030938E+03  0.7818609E-02  0.9899008E-01
       -2   -1    0    0    0  501  0.00000000000E+00  0.00000000000E+00  0.51995066267E+02  0.51995066330E+02  0.25500000920E-02 0. -1.
        2   -1    0    0  501    0  0.00000000000E+00  0.00000000000E+00 -0.17488300260E+04  0.17488300260E+04  0.25500000920E-02 0.  1.
    10030    2    1    2    0    0  0.00000000000E+00  0.00000000000E+00 -0.16968349597E+04  0.18008250923E+04  0.60309380082E+03 0.  0.
        5    1    3    3  502    0 -0.20756139304E+02 -0.86484719490E+02 -0.17086592624E+04  0.17109789563E+04  0.46999998093E+01 0.  1.
       -5    1    3    3    0  502  0.20756139304E+02  0.86484719490E+02  0.11824302659E+02  0.89846136009E+02  0.46999998093E+01 0. -1.
</event>
<event>
 5   0  0.6007360E-02  0.5937310E+03  0.7818609E-02  0.9918498E-01
        2   -1    0    0  501    0  0.00000000000E+00  0.00000000000E+00  0.79427393794E+03  0.79427393795E+03  0.25500000920E-02 0.  1.
       -2   -1    0    0    0  501  0.00000000000E+00  0.00000000000E+00 -0.11095557555E+03  0.11095557558E+03  0.25500000920E-02 0. -1.
    10030    2    1    2    0    0  0.00000000000E+00  0.00000000000E+00  0.68331836239E+03  0.90522951353E+03  0.59373098940E+03 0.  0.
        4    1    3    3  502    0 -0.14482517888E+03 -0.15413389903E+03  0.24049723284E+02  0.21286519997E+03  0.12699999809E+01 0. -1.
       -4    1    3    3    0  502  0.14482517888E+03  0.15413389903E+03  0.65926863911E+03  0.69236431355E+03  0.12699999809E+01 0.  1.
</event>
<event>
 5   0  0.3640827E-02  0.6002763E+03  0.7818609E-02  0.9904833E-01
        1   -1    0    0  501    0  0.00000000000E+00  0.00000000000E+00  0.83283343381E+03  0.83283343383E+03  0.50400001928E-02 0. -1.
       -1   -1    0    0    0  501  0.00000000000E+00  0.00000000000E+00 -0.10816436706E+03  0.10816436718E+03  0.50400001928E-02 0.  1.
    10030    2    1    2    0    0  0.00000000000E+00  0.00000000000E+00  0.72466906675E+03  0.94099780101E+03  0.60027627406E+03 0.  0.
        3    1    3    3  502    0  0.31717759907E+02  0.22277297217E+03  0.67368954261E+03  0.71027559683E+03  0.10100000352E+00 0. -1.
       -3    1    3    3    0  502 -0.31717759907E+02 -0.22277297217E+03  0.50979524138E+02  0.23072220419E+03  0.10100000352E+00 0.  1.
</event>
<event>
 5   0  0.2388000E-02  0.6023332E+03  0.7818609E-02  0.9900577E-01
        4   -1    0    0  501    0  0.00000000000E+00  0.00000000000E+00  0.27445965095E+03  0.27446258925E+03  0.12699999809E+01 0.  1.
       -4   -1    0    0    0  501  0.00000000000E+00  0.00000000000E+00 -0.33046643307E+03  0.33046887340E+03  0.12699999809E+01 0. -1.
    10030    2    1    2    0    0  0.00000000000E+00  0.00000000000E+00 -0.56006782118E+02  0.60493146265E+03  0.60233322576E+03 0.  0.
        3    1    3    3  502    0 -0.32534905388E+02 -0.87405196254E+02 -0.31560053416E+03  0.32909253374E+03  0.10100000352E+00 0. -1.
       -3    1    3    3    0  502  0.32534905388E+02  0.87405196254E+02  0.25959375204E+03  0.27583892891E+03  0.10100000352E+00 0.  1.
</event>
<event>
 5   0  0.6007360E-02  0.5797005E+03  0.7818609E-02  0.9948440E-01
       -2   -1    0    0    0  501  0.00000000000E+00  0.00000000000E+00  0.16943807718E+03  0.16943807720E+03  0.25500000920E-02 0.  1.
        2   -1    0    0  501    0  0.00000000000E+00  0.00000000000E+00 -0.49583397388E+03  0.49583397389E+03  0.25500000920E-02 0. -1.
    10030    2    1    2    0    0  0.00000000000E+00  0.00000000000E+00 -0.32639589670E+03  0.66527205109E+03  0.57970045763E+03 0.  0.
        4    1    3    3  502    0 -0.27788653543E+01 -0.28601948973E+03 -0.21698505800E+03  0.35902506722E+03  0.12699999809E+01 0. -1.
       -4    1    3    3    0  502  0.27788653543E+01  0.28601948973E+03 -0.10941083870E+03  0.30624698386E+03  0.12699999809E+01 0.  1.
</event>
<event>
 5   0  0.3478183E-02  0.5997477E+03  0.7818609E-02  0.9905930E-01
        1   -1    0    0  501    0  0.00000000000E+00  0.00000000000E+00  0.36617434923E+03  0.36617434927E+03  0.50400001928E-02 0. -1.
       -1   -1    0    0    0  501  0.00000000000E+00  0.00000000000E+00 -0.24557786351E+03  0.24557786357E+03  0.50400001928E-02 0.  1.
    10030    2    1    2    0    0  0.00000000000E+00  0.00000000000E+00  0.12059648572E+03  0.61175221283E+03  0.59974766155E+03 0.  0.
        4    1    3    3  502    0  0.22692719956E+03  0.15586459966E+03  0.18155997514E+03  0.32978078295E+03  0.12699999809E+01 0. -1.
       -4    1    3    3    0  502 -0.22692719956E+03 -0.15586459966E+03 -0.60963489427E+02  0.28197142988E+03  0.12699999809E+01 0.  1.
</event>
<event>
 5   0  0.5872632E-02  0.5986002E+03  0.7818609E-02  0.9908314E-01
       -2   -1    0    0    0  501  0.00000000000E+00  0.00000000000E+00  0.22282457356E+03  0.22282457358E+03  0.25500000920E-02 0. -1.
        2   -1    0    0  501    0  0.00000000000E+00  0.00000000000E+00 -0.40202275555E+03  0.40202275556E+03  0.25500000920E-02 0.  1.
    10030    2    1    2    0    0  0.00000000000E+00  0.00000000000E+00 -0.17919818199E+03  0.62484732914E+03  0.59860019738E+03 0.  0.
        1    1    3    3  502    0 -0.23936947370E+03 -0.17819546030E+03 -0.65586467562E+02  0.30553715283E+03  0.50400001928E-02 0.  1.
       -1    1    3    3    0  502  0.23936947370E+03  0.17819546030E+03 -0.11361171443E+03  0.31931017630E+03  0.50400001928E-02 0. -1.
</event>
<event>
 5   0  0.3478183E-02  0.6012516E+03  0.7818609E-02  0.9902813E-01
       -1   -1    0    0    0  501  0.00000000000E+00  0.00000000000E+00  0.83927939396E+02  0.83927939547E+02  0.50400001928E-02 0. -1.
        1   -1    0    0  501    0  0.00000000000E+00  0.00000000000E+00 -0.10768269924E+04  0.10768269925E+04  0.50400001928E-02 0.  1.
    10030    2    1    2    0    0  0.00000000000E+00  0.00000000000E+00 -0.99289905304E+03  0.11607549320E+04  0.60125159678E+03 0.  0.
        4    1    3    3  502    0  0.21650988544E+03  0.88820047490E+00 -0.93812565527E+02  0.23596552660E+03  0.12699999809E+01 0. -1.
       -4    1    3    3    0  502 -0.21650988544E+03 -0.88820047490E+00 -0.89908648752E+03  0.92478940540E+03  0.12699999809E+01 0.  1.
</event>
<event>
 5   0  0.3651984E-02  0.6004922E+03  0.7818609E-02  0.9904385E-01
        1   -1    0    0  501    0  0.00000000000E+00  0.00000000000E+00  0.10380819328E+04  0.10380819328E+04  0.50400001928E-02 0.  1.
       -1   -1    0    0    0  501  0.00000000000E+00  0.00000000000E+00 -0.86840651187E+02  0.86840651333E+02  0.50400001928E-02 0. -1.
    10030    2    1    2    0    0  0.00000000000E+00  0.00000000000E+00  0.95124128157E+03  0.11249225841E+04  0.60049216853E+03 0.  0.
        1    1    3    3  502    0 -0.10266277273E+03 -0.24864577594E+03  0.72543765094E+03  0.77370805361E+03  0.50400001928E-02 0.  1.
       -1    1    3    3    0  502  0.10266277273E+03  0.24864577594E+03  0.22580363063E+03  0.35121453049E+03  0.50400001928E-02 0. -1.
</event>
<event>
 5   0  0.5935451E-02  0.5972350E+03  0.7818609E-02  0.9911159E-01
        2   -1    0    0  501    0  0.00000000000E+00  0.00000000000E+00  0.21390792935E+04  0.21390792935E+04  0.25500000920E-02 0.  1.
       -2   -1    0    0    0  501  0.00000000000E+00  0.00000000000E+00 -0.41687289928E+02  0.41687290006E+02  0.25500000920E-02 0. -1.
    10030    2    1    2    0    0  0.00000000000E+00  0.00000000000E+00  0.20973920036E+04  0.21807665835E+04  0.59723502501E+03 0.  0.
        3    1    3    3  502    0 -0.62360022864E+02 -0.59416947781E+02  0.46576294699E+01  0.86260360818E+02  0.10100000352E+00 0. -1.
       -3    1    3    3    0  502  0.62360022864E+02  0.59416947781E+02  0.20927343741E+04  0.20945062227E+04  0.10100000352E+00 0.  1.
</event>
<event>
 5   0  0.3703280E-02  0.5666298E+03  0.7818609E-02  0.9977164E-01
        1   -1    0    0  501    0  0.00000000000E+00  0.00000000000E+00  0.48831998455E+03  0.48831998457E+03  0.50400001928E-02 0.  1.
       -1   -1    0    0    0  501  0.00000000000E+00  0.00000000000E+00 -0.16437445548E+03  0.16437445556E+03  0.50400001928E-02 0. -1.
    10030    2    1    2    0    0  0.00000000000E+00  0.00000000000E+00  0.32394552907E+03  0.65269444013E+03  0.56662979659E+03 0.  0.
        5    1    3    3  502    0  0.80819131692E+02  0.27095461035E+03  0.14211784296E+03  0.31649281856E+03  0.46999998093E+01 0.  1.
       -5    1    3    3    0  502 -0.80819131692E+02 -0.27095461035E+03  0.18182768610E+03  0.33620162157E+03  0.46999998093E+01 0. -1.
</event>
<event>
 5   0  0.5935451E-02  0.5991827E+03  0.7818609E-02  0.9907103E-01
       -2   -1    0    0    0  501  0.00000000000E+00  0.00000000000E+00  0.25199695568E+03  0.25199695569E+03  0.25500000920E-02 0.  1.
        2   -1    0    0  501    0  0.00000000000E+00  0.00000000000E+00 -0.35617488602E+03  0.35617488603E+03  0.25500000920E-02 0. -1.
    10030    2    1    2    0    0  0.00000000000E+00  0.00000000000E+00 -0.10417793034E+03  0.60817184172E+03  0.59918273330E+03 0.  0.
        3    1    3    3  502    0  0.37098269996E+02 -0.22029404252E+03  0.15052855023E+03  0.26937817552E+03  0.10100000352E+00 0.  1.
       -3    1    3    3    0  502 -0.37098269996E+02  0.22029404252E+03 -0.25470648058E+03  0.33879366620E+03  0.10100000352E+00 0. -1.
</event>
<event>
 5   0  0.6007360E-02  0.5992697E+03  0.7818609E-02  0.9906922E-01
        2   -1    0    0  501    0  0.00000000000E+00  0.00000000000E+00  0.17064641251E+04  0.17064641251E+04  0.25500000920E-02 0. -1.
       -2   -1    0    0    0  501  0.00000000000E+00  0.00000000000E+00 -0.52612332220E+02  0.52612332282E+02  0.25500000920E-02 0.  1.
    10030    2    1    2    0    0  0.00000000000E+00  0.00000000000E+00  0.16538517928E+04  0.17590764573E+04  0.59926974736E+03 0.  0.
        4    1    3    3  502    0  0.24375067627E+03  0.14992945103E+03  0.56625257208E+03  0.63445789518E+03  0.12699999809E+01 0.  1.
       -4    1    3    3    0  502 -0.24375067627E+03 -0.14992945103E+03  0.10875992208E+04  0.11246185622E+04  0.12699999809E+01 0. -1.
</event>
<event>
 5   0  0.5935451E-02  0.5997688E+03  0.7818609E-02  0.9905886E-01
       -2   -1    0    0    0  501  0.00000000000E+00  0.00000000000E+00  0.75879376221E+02  0.75879376264E+02  0.25500000920E-02 0. -1.
        2   -1    0    0  501    0  0.00000000000E+00  0.00000000000E+00 -0.11851790946E+04  0.11851790946E+04  0.25500000920E-02 0.  1.
    10030    2    1    2    0    0  0.00000000000E+00  0.00000000000E+00 -0.11092997184E+04  0.12610584709E+04  0.59976879025E+03 0.  0.
        3    1    3    3  502    0  0.38843241309E+02 -0.72924728657E+02 -0.11607744058E+04  0.11637113236E+04  0.10100000352E+00 0.  1.
       -3    1    3    3    0  502 -0.38843241309E+02  0.72924728657E+02  0.51474687349E+02  0.97347147281E+02  0.10100000352E+00 0. -1.
</event>
<event>
 5   0  0.5872632E-02  0.5992280E+03  0.7818609E-02  0.9907009E-01
        2   -1    0    0  501    0  0.00000000000E+00  0.00000000000E+00  0.33593529751E+03  0.33593529752E+03  0.25500000920E-02 0.  1.
       -2   -1    0    0    0  501  0.00000000000E+00  0.00000000000E+00 -0.26721979032E+03  0.26721979033E+03  0.25500000920E-02 0. -1.
    10030    2    1    2    0    0  0.00000000000E+00  0.00000000000E+00  0.68715507186E+02  0.60315508785E+03  0.59922803595E+03 0.  0.
        1    1    3    3  502    0 -0.16067973258E+03 -0.38518892347E+02  0.28592944663E+03  0.33023829276E+03  0.50400001928E-02 0.  1.
       -1    1    3    3    0  502  0.16067973258E+03  0.38518892347E+02 -0.21721393945E+03  0.27291679509E+03  0.50400001928E-02 0. -1.
</event>
<event>
 5   0  0.2388000E-02  0.6006768E+03  0.7818609E-02  0.9904003E-01
        4   -1    0    0  501    0  0.00000000000E+00  0.00000000000E+00  0.15709959119E+04  0.15709964252E+04  0.12699999809E+01 0. -1.
       -4   -1    0    0    0  501  0.00000000000E+00  0.00000000000E+00 -0.57410267811E+02  0.57424313231E+02  0.12699999809E+01 0.  1.
    10030    2    1    2    0    0  0.00000000000E+00  0.00000000000E+00  0.15135856441E+04  0.16284207385E+04  0.60067678453E+03 0.  0.
        3    1    3    3  502    0 -0.20144261895E+03 -0.22144100162E+02  0.15587471538E+03  0.25566858821E+03  0.10100000352E+00 0.  1.
       -3    1    3    3    0  502  0.20144261895E+03  0.22144100162E+02  0.13577109287E+04  0.13727521503E+04  0.10100000352E+00 0. -1.
</event>
<event>
 5   0  0.3478183E-02  0.5958367E+03  0.7818609E-02  0.9914081E-01
       -1   -1    0    0    0  501  0.00000000000E+00  0.00000000000E+00  0.84719523102E+02  0.84719523252E+02  0.50400001928E-02 0. -1.
        1   -1    0    0  501    0  0.00000000000E+00  0.00000000000E+00 -0.10476374373E+04  0.10476374373E+04  0.50400001928E-02 0.  1.
    10030    2    1    2    0    0  0.00000000000E+00  0.00000000000E+00 -0.96291791423E+03  0.11323569606E+04  0.59583670302E+03 0.  0.
        4    1    3    3  502    0 -0.46022755969E+02 -0.21066180687E+03 -0.90792010782E+02  0.23396857281E+03  0.12699999809E+01 0. -1.
       -4    1    3    3    0  502  0.46022755969E+02  0.21066180687E+03 -0.87212590344E+03  0.89838838778E+03  0.12699999809E+01 0.  1.
</event>
<event>
 5   0  0.5999117E-02  0.5824943E+03  0.7818609E-02  0.9942405E-01
       -2   -1    0    0    0  501  0.00000000000E+00  0.00000000000E+00  0.12823403193E+03  0.12823403196E+03  0.25500000920E-02 0. -1.
        2   -1    0    0  501    0  0.00000000000E+00  0.00000000000E+00 -0.66148506606E+03  0.66148506607E+03  0.25500000920E-02 0.  1.
    10030    2    1    2    0    0  0.00000000000E+00  0.00000000000E+00 -0.53325103413E+03  0.78971909802E+03  0.58249428185E+03 0.  0.
        5    1    3    3  502    0  0.25982778765E+03 -0.76270841223E+01 -0.88643560203E+02  0.27467876221E+03  0.46999998093E+01 0. -1.
       -5    1    3    3    0  502 -0.25982778765E+03  0.76270841223E+01 -0.44460747393E+03  0.51504033581E+03  0.46999998093E+01 0.  1.
</event>
<event>
 5   0  0.3651984E-02  0.5957822E+03  0.7818609E-02  0.9914196E-01
        1   -1    0    0  501    0  0.00000000000E+00  0.00000000000E+00  0.14383466810E+04  0.14383466810E+04  0.50400001928E-02 0.  1.
       -1   -1    0    0    0  501  0.00000000000E+00  0.00000000000E+00 -0.61695208369E+02  0.61695208575E+02  0.50400001928E-02 0. -1.
    10030    2    1    2    0    0  0.00000000000E+00  0.00000000000E+00  0.13766514726E+04  0.15000418896E+04  0.59578216943E+03 0.  0.
        1    1    3    3  502    0 -0.29611948938E+03 -0.32329131224E+02  0.68158224401E+03  0.74383215855E+03  0.50400001928E-02 0. -1.
       -1    1    3    3    0  502  0.29611948938E+03  0.32329131224E+02  0.69506922863E+03  0.75620973105E+03  0.50400001928E-02 0.  1.
</event>
<event>
 5   0  0.2388000E-02  0.5998930E+03  0.7818609E-02  0.9905628E-01
        3   -1    0    0  501    0  0.00000000000E+00  0.00000000000E+00  0.65254139391E+03  0.65254140172E+03  0.10100000352E+00 0.  1.
       -3   -1    0    0    0  501  0.00000000000E+00  0.00000000000E+00 -0.13787307883E+03  0.13787311583E+03  0.10100000352E+00 0. -1.
    10030    2    1    2    0    0  0.00000000000E+00  0.00000000000E+00  0.51466831507E+03  0.79041451755E+03  0.59989301964E+03 0.  0.
        3    1    3    3  502    0  0.25814144728E+03 -0.10959714402E+03  0.11715224100E+03  0.30392959474E+03  0.10100000352E+00 0. -1.
       -3    1    3    3    0  502 -0.25814144728E+03  0.10959714402E+03  0.39751607407E+03  0.48648492281E+03  0.10100000352E+00 0.  1.
</event>
<event>
 5   0  0.3478183E-02  0.5985644E+03  0.7818609E-02  0.9908389E-01
       -1   -1    0    0    0  501  0.00000000000E+00  0.00000000000E+00  0.11260035973E+03  0.11260035984E+03  0.50400001928E-02 0. -1.
        1   -1    0    0  501    0  0.00000000000E+00  0.00000000000E+00 -0.79546672987E+03  0.79546672988E+03  0.50400001928E-02 0.  1.
    10030    2    1    2    0    0  0.00000000000E+00  0.00000000000E+00 -0.68286637014E+03  0.90806708972E+03  0.59856441589E+03 0.  0.
        4    1    3    3  502    0  0.33639683896E+02 -0.35299924866E+02  0.10652931571E+03  0.11716578440E+03  0.12699999809E+01 0. -1.
       -4    1    3    3    0  502 -0.33639683896E+02  0.35299924866E+02 -0.78939568585E+03  0.79090130533E+03  0.12699999809E+01 0.  1.
</event>
<event>
 5   0  0.3703280E-02  0.6100985E+03  0.7818609E-02  0.9884674E-01
       -1   -1    0    0    0  501  0.00000000000E+00  0.00000000000E+00  0.93258973385E+03  0.93258973386E+03  0.50400001928E-02 0. -1.
        1   -1    0    0  501    0  0.00000000000E+00  0.00000000000E+00 -0.99781337382E+02  0.99781337509E+02  0.50400001928E-02 0.  1.
    10030    2    1    2    0    0  0.00000000000E+00  0.00000000000E+00  0.83280839647E+03  0.10323710714E+04  0.61009851973E+03 0.  0.
        5    1    3    3  502    0 -0.13376312466E+03 -0.27131527469E+03  0.48255813123E+03  0.56955157082E+03  0.46999998093E+01 0.  1.
       -5    1    3    3    0  502  0.13376312466E+03  0.27131527469E+03  0.35025026523E+03  0.46281950055E+03  0.46999998093E+01 0. -1.
</event>
<event>
 5   0  0.6007360E-02  0.6091506E+03  0.7818609E-02  0.9886601E-01
        2   -1    0    0  501    0  0.00000000000E+00  0.00000000000E+00  0.13477931959E+04  0.13477931959E+04  0.25500000920E-02 0. -1.
       -2   -1    0    0    0  501  0.00000000000E+00  0.00000000000E+00 -0.68828160915E+02  0.68828160962E+02  0.25500000920E-02 0.  1.
    10030    2    1    2    0    0  0.00000000000E+00  0.00000000000E+00  0.12789650350E+04  0.14166213568E+04  0.60915064475E+03 0.  0.
        4    1    3    3  502    0  0.15599417691E+03  0.14687080775E+03  0.13606658103E+03  0.25381281444E+03  0.12699999809E+01 0.  1.
       -4    1    3    3    0  502 -0.15599417691E+03 -0.14687080775E+03  0.11428984539E+04  0.11628085424E+04  0.12699999809E+01 0. -1.
</event>
<event>
 5   0  0.3651984E-02  0.6023955E+03  0.7818609E-02  0.9900449E-01
       -1   -1    0    0    0  501  0.00000000000E+00  0.00000000000E+00  0.95652462152E+02  0.95652462285E+02  0.50400001928E-02 0.  1.
        1   -1    0    0  501    0  0.00000000000E+00  0.00000000000E+00 -0.94843424807E+03  0.94843424808E+03  0.50400001928E-02 0. -1.
    10030    2    1    2    0    0  0.00000000000E+00  0.00000000000E+00 -0.85278178591E+03  0.10440867104E+04  0.60239545514E+03 0.  0.
        1    1    3    3  502    0  0.30559595315E+02  0.56565812896E+01 -0.94564774465E+03  0.94615830746E+03  0.50400001928E-02 0. -1.
       -1    1    3    3    0  502 -0.30559595315E+02 -0.56565812896E+01  0.92865958740E+02  0.97928402906E+02  0.50400001928E-02 0.  1.
</event>
<event>
 5   0  0.5755078E-02  0.6051568E+03  0.7818609E-02  0.9894765E-01
       -2   -1    0    0    0  501  0.00000000000E+00  0.00000000000E+00  0.24122272640E+03  0.24122272641E+03  0.25500000920E-02 0.  1.
        2   -1    0    0  501    0  0.00000000000E+00  0.00000000000E+00 -0.37954005667E+03  0.37954005668E+03  0.25500000920E-02 0. -1.
    10030    2    1    2    0    0  0.00000000000E+00  0.00000000000E+00 -0.13831733027E+03  0.62076278309E+03  0.60515679705E+03 0.  0.
        2    1    3    3  502    0 -0.21386002077E+03  0.11108579606E+03  0.11852843547E+03  0.26856126413E+03  0.25500000920E-02 0.  1.
       -2    1    3    3    0  502  0.21386002077E+03 -0.11108579606E+03 -0.25684576574E+03  0.35220151896E+03  0.25500000920E-02 0. -1.
</event>
<event>
 5   0  0.5999117E-02  0.5880138E+03  0.7818609E-02  0.9930590E-01
       -2   -1    0    0    0  501  0.00000000000E+00  0.00000000000E+00  0.14696125092E+03  0.14696125094E+03  0.25500000920E-02 0. -1.
        2   -1    0    0  501    0  0.00000000000E+00  0.00000000000E+00 -0.58818268791E+03  0.58818268792E+03  0.25500000920E-02 0.  1.
    10030    2    1    2    0    0  0.00000000000E+00  0.00000000000E+00 -0.44122143699E+03  0.73514393886E+03  0.58801382159E+03 0.  0.
        5    1    3    3  502    0  0.43318526408E+02 -0.10263085060E+03  0.11950391421E+03  0.16344069792E+03  0.46999998093E+01 0. -1.
       -5    1    3    3    0  502 -0.43318526408E+02  0.10263085060E+03 -0.56072535120E+03  0.57170324094E+03  0.46999998093E+01 0.  1.
</event>
<event>
 5   0  0.3640827E-02  0.5955267E+03  0.7818609E-02  0.9914730E-01
       -1   -1    0    0    0  501  0.00000000000E+00  0.00000000000E+00  0.16112447702E+03  0.16112447710E+03  0.50400001928E-02 0. -1.
        1   -1    0    0  501    0  0.00000000000E+00  0.00000000000E+00 -0.55027649214E+03  0.55027649216E+03  0.50400001928E-02 0.  1.
    10030    2    1    2    0    0  0.00000000000E+00  0.00000000000E+00 -0.38915201512E+03  0.71140096926E+03  0.59552669814E+03 0.  0.
        3    1    3    3  502    0  0.26746579563E+03 -0.12779615026E+03 -0.16093237158E+03  0.33729667398E+03  0.10100000352E+00 0. -1.
       -3    1    3    3    0  502 -0.26746579563E+03  0.12779615026E+03 -0.22821964354E+03  0.37410429528E+03  0.10100000352E+00 0.  1.
</event>
<event>
 5   0  0.2388000E-02  0.6014032E+03  0.7818609E-02  0.9902499E-01
       -3   -1    0    0    0  501  0.00000000000E+00  0.00000000000E+00  0.10030782463E+03  0.10030787548E+03  0.10100000352E+00 0. -1.
        3   -1    0    0  501    0  0.00000000000E+00  0.00000000000E+00 -0.90143945043E+03  0.90143945609E+03  0.10100000352E+00 0.  1.
    10030    2    1    2    0    0  0.00000000000E+00  0.00000000000E+00 -0.80113162580E+03  0.10017473316E+04  0.60140322118E+03 0.  0.
        2    1    3    3  502    0 -0.11343640888E+03 -0.24710875329E+03 -0.61446772822E+03  0.67193834824E+03  0.25500000920E-02 0.  1.
       -2    1    3    3    0  502  0.11343640888E+03  0.24710875329E+03 -0.18666389759E+03  0.32980898333E+03  0.25500000920E-02 0. -1.
</event>
<event>
 5   0  0.3703280E-02  0.5977498E+03  0.7818609E-02  0.9910086E-01
       -1   -1    0    0    0  501  0.00000000000E+00  0.00000000000E+00  0.11373981471E+03  0.11373981482E+03  0.50400001928E-02 0.  1.
        1   -1    0    0  501    0  0.00000000000E+00  0.00000000000E+00 -0.78535563824E+03  0.78535563826E+03  0.50400001928E-02 0. -1.
    10030    2    1    2    0    0  0.00000000000E+00  0.00000000000E+00 -0.67161582353E+03  0.89909545308E+03  0.59774979659E+03 0.  0.
        5    1    3    3  502    0  0.92800691116E+02 -0.20195856646E+03 -0.63627671739E+03  0.67399509044E+03  0.46999998093E+01 0. -1.
       -5    1    3    3    0  502 -0.92800691116E+02  0.20195856646E+03 -0.35339106139E+02  0.22510036264E+03  0.46999998093E+01 0.  1.
</event>
<event>
 5   0  0.5755078E-02  0.5943990E+03  0.7818609E-02  0.9917095E-01
        2   -1    0    0  501    0  0.00000000000E+00  0.00000000000E+00  0.36638210743E+03  0.36638210744E+03  0.25500000920E-02 0. -1.
       -2   -1    0    0    0  501  0.00000000000E+00  0.00000000000E+00 -0.24108042878E+03  0.24108042879E+03  0.25500000920E-02 0.  1.
    10030    2    1    2    0    0  0.00000000000E+00  0.00000000000E+00  0.12530167865E+03  0.60746253623E+03  0.59439904294E+03 0.  0.
        2    1    3    3  502    0 -0.16111235973E+03 -0.48638232008E+02  0.31299299030E+03  0.35536950074E+03  0.25500000920E-02 0. -1.
       -2    1    3    3    0  502  0.16111235973E+03  0.48638232008E+02 -0.18769131165E+03  0.25209303549E+03  0.25500000920E-02 0.  1.
</event>
<event>
 5   0  0.3478183E-02  0.6035618E+03  0.7818609E-02  0.9898044E-01
       -1   -1    0    0    0  501  0.00000000000E+00  0.00000000000E+00  0.45674827552E+03  0.45674827554E+03  0.50400001928E-02 0.  1.
        1   -1    0    0  501    0  0.00000000000E+00  0.00000000000E+00 -0.19939145902E+03  0.19939145908E+03  0.50400001928E-02 0. -1.
    10030    2    1    2    0    0  0.00000000000E+00  0.00000000000E+00  0.25735681650E+03  0.65613973462E+03  0.60356177841E+03 0.  0.
        4    1    3    3  502    0  0.43359370387E+02 -0.25063070132E+03  0.30522736355E+03  0.39731742952E+03  0.12699999809E+01 0.  1.
       -4    1    3    3    0  502 -0.43359370387E+02  0.25063070132E+03 -0.47870547051E+02  0.25882230510E+03  0.12699999809E+01 0. -1.
</event>
<event>
 5   0  0.5935451E-02  0.5744035E+03  0.7818609E-02  0.9959981E-01
        2   -1    0    0  501    0  0.00000000000E+00  0.00000000000E+00  0.66461079141E+03  0.66461079142E+03  0.25500000920E-02 0. -1.
       -2   -1    0    0    0  501  0.00000000000E+00  0.00000000000E+00 -0.12411001613E+03  0.12411001615E+03  0.25500000920E-02 0.  1.
    10030    2    1    2    0    0  0.00000000000E+00  0.00000000000E+00  0.54050077529E+03  0.78872080757E+03  0.57440353778E+03 0.  0.
        3    1    3    3  502    0  0.94061210664E+02  0.57434864327E+02  0.63441937813E+03  0.64392098315E+03  0.10100000352E+00 0. -1.
       -3    1    3    3    0  502 -0.94061210664E+02 -0.57434864327E+02 -0.93918602843E+02  0.14479982442E+03  0.10100000352E+00 0.  1.
</event>
<event>
 5   0  0.5999117E-02  0.6030399E+03  0.7818609E-02  0.9899119E-01
       -2   -1    0    0    0  501  0.00000000000E+00  0.00000000000E+00  0.35723657336E+03  0.35723657337E+03  0.25500000920E-02 0. -1.
        2   -1    0    0  501    0  0.00000000000E+00  0.00000000000E+00 -0.25449321883E+03  0.25449321884E+03  0.25500000920E-02 0.  1.
    10030    2    1    2    0    0  0.00000000000E+00  0.00000000000E+00  0.10274335453E+03  0.61172979222E+03  0.60303991724E+03 0.  0.
        5    1    3    3  502    0 -0.31091240108E+02  0.19236489937E+03 -0.18198956270E+03  0.26667060327E+03  0.46999998093E+01 0.  1.
       -5    1    3    3    0  502  0.31091240108E+02 -0.19236489937E+03  0.28473291723E+03  0.34505918894E+03  0.46999998093E+01 0. -1.
</event>
<event>
 5   0  0.6007360E-02  0.5981977E+03  0.7818609E-02  0.9909152E-01
        2   -1    0    0  501    0  0.00000000000E+00  0.00000000000E+00  0.57277323550E+03  0.57277323551E+03  0.25500000920E-02 0. -1.
       -2   -1    0    0    0  501  0.00000000000E+00  0.00000000000E+00 -0.15618766741E+03  0.15618766743E+03  0.25500000920E-02 0.  1.
    10030    2    1    2    0    0  0.00000000000E+00  0.00000000000E+00  0.41658556810E+03  0.72896090294E+03  0.59819767842E+03 0.  0.
        4    1    3    3  502    0 -0.34117307752E+02  0.72944349194E+02  0.55931093027E+03  0.56507981594E+03  0.12699999809E+01 0. -1.
       -4    1    3    3    0  502  0.34117307752E+02 -0.72944349194E+02 -0.14272536217E+03  0.16388108699E+03  0.12699999809E+01 0.  1.
</event>
<event>
 5   0  0.3478183E-02  0.6018206E+03  0.7818609E-02  0.9901636E-01
        1   -1    0    0  501    0  0.00000000000E+00  0.00000000000E+00  0.15697386215E+04  0.15697386215E+04  0.50400001928E-02 0.  1.
       -1   -1    0    0    0  501  0.00000000000E+00  0.00000000000E+00 -0.57682849232E+02  0.57682849452E+02  0.50400001928E-02 0. -1.
    10030    2    1    2    0    0  0.00000000000E+00  0.00000000000E+00  0.15120557722E+04  0.16274214709E+04  0.60182055937E+03 0.  0.
        4    1    3    3  502    0  0.21806880747E+03 -0.18468618461E+03  0.50117005207E+03  0.57691942728E+03  0.12699999809E+01 0. -1.
       -4    1    3    3    0  502 -0.21806880747E+03  0.18468618461E+03  0.10108857202E+04  0.10505020436E+04  0.12699999809E+01 0.  1.
</event>
<event>
 5   0  0.5872632E-02  0.5998424E+03  0.7818609E-02  0.9905733E-01
        2   -1    0    0  501    0  0.00000000000E+00  0.00000000000E+00  0.14170008743E+04  0.14170008743E+04  0.25500000920E-02 0.  1.
       -2   -1    0    0    0  501  0.00000000000E+00  0.00000000000E+00 -0.63481064337E+02  0.63481064388E+02  0.25500000920E-02 0. -1.
    10030    2    1    2    0    0  0.00000000000E+00  0.00000000000E+00  0.13535198100E+04  0.14804819387E+04  0.59984239166E+03 0.  0.
        1    1    3    3  502    0  0.11825190339E+02 -0.11207571178E+03  0.13627543666E+04  0.13674064004E+04  0.50400001928E-02 0.  1.
       -1    1    3    3    0  502 -0.11825190339E+02  0.11207571178E+03 -0.92345565828E+01  0.11307553829E+03  0.50400001928E-02 0. -1.
</event>
<event>
 5   0  0.3478183E-02  0.6073456E+03  0.7818609E-02  0.9890282E-01
       -1   -1    0    0    0  501  0.00000000000E+00  0.00000000000E+00  0.70658718498E+03  0.70658718499E+03  0.50400001928E-02 0.  1.
        1   -1    0    0  501    0  0.00000000000E+00  0.00000000000E+00 -0.13051068692E+03  0.13051068702E+03  0.50400001928E-02 0. -1.
    10030    2    1    2    0    0  0.00000000000E+00  0.00000000000E+00  0.57607649805E+03  0.83709787201E+03  0.60734563119E+03 0.  0.
        4    1    3    3  502    0 -0.25552225291E+03  0.10777020553E+03  0.45857626808E+03  0.53591029612E+03  0.12699999809E+01 0.  1.
       -4    1    3    3    0  502  0.25552225291E+03 -0.10777020553E+03  0.11750022997E+03  0.30118757590E+03  0.12699999809E+01 0. -1.
</event>
<event>
 5   0  0.6007360E-02  0.5979729E+03  0.7818609E-02  0.9909621E-01
        2   -1    0    0  501    0  0.00000000000E+00  0.00000000000E+00  0.20615496339E+04  0.20615496339E+04  0.25500000920E-02 0.  1.
       -2   -1    0    0    0  501  0.00000000000E+00  0.00000000000E+00 -0.43361989182E+02  0.43361989257E+02  0.25500000920E-02 0. -1.
    10030    2    1    2    0    0  0.00000000000E+00  0.00000000000E+00  0.20181876448E+04  0.21049116232E+04  0.59797288569E+03 0.  0.
        4    1    3    3  502    0  0.12715421717E+03 -0.26821011931E+03  0.88284036780E+03  0.93140409649E+03  0.12699999809E+01 0. -1.
       -4    1    3    3    0  502 -0.12715421717E+03  0.26821011931E+03  0.11353472770E+04  0.11735075267E+04  0.12699999809E+01 0.  1.
</event>
<event>
 5   0  0.3651984E-02  0.5984816E+03  0.7818609E-02  0.9908561E-01
       -1   -1    0    0    0  501  0.00000000000E+00  0.00000000000E+00  0.47661014502E+03  0.47661014505E+03  0.50400001928E-02 0.  1.
        1   -1    0    0  501    0  0.00000000000E+00  0.00000000000E+00 -0.18787905966E+03  0.18787905973E+03  0.50400001928E-02 0. -1.
    10030    2    1    2    0    0  0.00000000000E+00  0.00000000000E+00  0.28873108536E+03  0.66448920478E+03  0.59848163181E+03 0.  0.
        1    1    3    3  502    0 -0.14409485538E+03  0.26224723529E+03  0.14120050787E+03  0.33086934463E+03  0.50400001928E-02 0.  1.
       -1    1    3    3    0  502  0.14409485538E+03 -0.26224723529E+03  0.14753057749E+03  0.33361986015E+03  0.50400001928E-02 0. -1.
</event>
<event>
 5   0  0.5999117E-02  0.5979506E+03  0.7818609E-02  0.9909667E-01
        2   -1    0    0  501    0  0.00000000000E+00  0.00000000000E+00  0.13625583273E+03  0.13625583275E+03  0.25500000920E-02 0.  1.
       -2   -1    0    0    0  501  0.00000000000E+00  0.00000000000E+00 -0.65601756777E+03  0.65601756777E+03  0.25500000920E-02 0. -1.
    10030    2    1    2    0    0  0.00000000000E+00  0.00000000000E+00 -0.51976173504E+03  0.79227340053E+03  0.59795056649E+03 0.  0.
        5    1    3    3  502    0  0.10786006493E+03 -0.11638063054E+03 -0.59556403250E+03  0.61635773020E+03  0.46999998093E+01 0. -1.
       -5    1    3    3    0  502 -0.10786006493E+03  0.11638063054E+03  0.75802297458E+02  0.17591567033E+03  0.46999998093E+01 0.  1.
</event>
<event>
 5   0  0.5999117E-02  0.6170534E+03  0.7818609E-02  0.9870644E-01
        2   -1    0    0  501    0  0.00000000000E+00  0.00000000000E+00  0.87047365402E+03  0.87047365402E+03  0.25500000920E-02 0.  1.
       -2   -1    0    0    0  501  0.00000000000E+00  0.00000000000E+00 -0.10935279578E+03  0.10935279581E+03  0.25500000920E-02 0. -1.
    10030    2    1    2    0    0  0.00000000000E+00  0.00000000000E+00  0.76112085824E+03  0.97982644983E+03  0.61705341012E+03 0.  0.
        5    1    3    3  502    0 -0.27357359764E+03 -0.89124747520E+02  0.55724660715E+03  0.62716154627E+03  0.46999998093E+01 0.  1.
       -5    1    3    3    0  502  0.27357359764E+03  0.89124747520E+02  0.20387425109E+03  0.35266490356E+03  0.46999998093E+01 0. -1.
</event>
<event>
 5   0  0.5755078E-02  0.6037400E+03  0.7818609E-02  0.9897677E-01
        2   -1    0    0  501    0  0.00000000000E+00  0.00000000000E+00  0.62314052133E+03  0.62314052133E+03  0.25500000920E-02 0. -1.
       -2   -1    0    0    0  501  0.00000000000E+00  0.00000000000E+00 -0.14623588452E+03  0.14623588455E+03  0.25500000920E-02 0.  1.
    10030    2    1    2    0    0  0.00000000000E+00  0.00000000000E+00  0.47690463680E+03  0.76937640588E+03  0.60374002792E+03 0.  0.
        2    1    3    3  502    0  0.17866636612E+03 -0.59818435698E+02 -0.62104238802E+02  0.19838561469E+03  0.25500000920E-02 0.  1.
       -2    1    3    3    0  502 -0.17866636612E+03  0.59818435698E+02  0.53900887561E+03  0.57099079119E+03  0.25500000920E-02 0. -1.
</event>
<event>
 5   0  0.5755078E-02  0.6024025E+03  0.7818609E-02  0.9900434E-01
        2   -1    0    0  501    0  0.00000000000E+00  0.00000000000E+00  0.28302550407E+03  0.28302550408E+03  0.25500000920E-02 0. -1.
       -2   -1    0    0    0  501  0.00000000000E+00  0.00000000000E+00 -0.32054420614E+03  0.32054420615E+03  0.25500000920E-02 0.  1.
    10030    2    1    2    0    0  0.00000000000E+00  0.00000000000E+00 -0.37518702078E+02  0.60356971023E+03  0.60240247518E+03 0.  0.
        2    1    3    3  502    0 -0.21933316700E+03 -0.76741160333E+02  0.17325211314E+03  0.28984916517E+03  0.25500000920E-02 0. -1.
       -2    1    3    3    0  502  0.21933316700E+03  0.76741160333E+02 -0.21077081522E+03  0.31372054506E+03  0.25500000920E-02 0.  1.
</event>
<event>
 5   0  0.5872632E-02  0.5998723E+03  0.7818609E-02  0.9905671E-01
        2   -1    0    0  501    0  0.00000000000E+00  0.00000000000E+00  0.90813279009E+03  0.90813279009E+03  0.25500000920E-02 0. -1.
       -2   -1    0    0    0  501  0.00000000000E+00  0.00000000000E+00 -0.99062262010E+02  0.99062262043E+02  0.25500000920E-02 0.  1.
    10030    2    1    2    0    0  0.00000000000E+00  0.00000000000E+00  0.80907052808E+03  0.10071950521E+04  0.59987228111E+03 0.  0.
        1    1    3    3  502    0 -0.37156969217E+02  0.76446308299E+02  0.88748807709E+03  0.89154908189E+03  0.50400001928E-02 0. -1.
       -1    1    3    3    0  502  0.37156969217E+02 -0.76446308299E+02 -0.78417549017E+02  0.11564597024E+03  0.50400001928E-02 0.  1.
</event>
<event>
 5   0  0.3640827E-02  0.5964311E+03  0.7818609E-02  0.9912838E-01
        1   -1    0    0  501    0  0.00000000000E+00  0.00000000000E+00  0.79540165642E+02  0.79540165801E+02  0.50400001928E-02 0. -1.
       -1   -1    0    0    0  501  0.00000000000E+00  0.00000000000E+00 -0.11180829129E+04  0.11180829129E+04  0.50400001928E-02 0.  1.
    10030    2    1    2    0    0  0.00000000000E+00  0.00000000000E+00 -0.10385427472E+04  0.11976230787E+04  0.59643105283E+03 0.  0.
        3    1    3    3  502    0 -0.22618996888E+03 -0.12277866238E+03 -0.21676505063E+03  0.33648714587E+03  0.10100000352E+00 0. -1.
       -3    1    3    3    0  502  0.22618996888E+03  0.12277866238E+03 -0.82177769661E+03  0.86113593283E+03  0.10100000352E+00 0.  1.
</event>
<event>
 5   0  0.3640827E-02  0.6021967E+03  0.7818609E-02  0.9900859E-01
        1   -1    0    0  501    0  0.00000000000E+00  0.00000000000E+00  0.66588559733E+03  0.66588559735E+03  0.50400001928E-02 0. -1.
       -1   -1    0    0    0  501  0.00000000000E+00  0.00000000000E+00 -0.13614981954E+03  0.13614981964E+03  0.50400001928E-02 0.  1.
    10030    2    1    2    0    0  0.00000000000E+00  0.00000000000E+00  0.52973577779E+03  0.80203541699E+03  0.60219665877E+03 0.  0.
        3    1    3    3  502    0 -0.19853454982E+03  0.24818495579E+02 -0.34807958952E+02  0.20308502998E+03  0.10100000352E+00 0.  1.
       -3    1    3    3    0  502  0.19853454982E+03 -0.24818495579E+02  0.56454373674E+03  0.59895038700E+03  0.10100000352E+00 0. -1.
</event>
<event>
 5   0  0.3703280E-02  0.5985417E+03  0.7818609E-02  0.9908436E-01
       -1   -1    0    0    0  501  0.00000000000E+00  0.00000000000E+00  0.57105006959E+02  0.57105007182E+02  0.50400001928E-02 0. -1.
        1   -1    0    0  501    0  0.00000000000E+00  0.00000000000E+00 -0.15683919466E+04  0.15683919466E+04  0.50400001928E-02 0.  1.
    10030    2    1    2    0    0  0.00000000000E+00  0.00000000000E+00 -0.15112869396E+04  0.16254969538E+04  0.59854167177E+03 0.  0.
        5    1    3    3  502    0 -0.90774790655E+02  0.28389440104E+03 -0.82774425793E+03  0.87978334838E+03  0.46999998093E+01 0. -1.
       -5    1    3    3    0  502  0.90774790655E+02 -0.28389440104E+03 -0.68354268169E+03  0.74571360538E+03  0.46999998093E+01 0.  1.
</event>
<event>
 5   0  0.5935451E-02  0.5981748E+03  0.7818609E-02  0.9909200E-01
       -2   -1    0    0    0  501  0.00000000000E+00  0.00000000000E+00  0.29698497334E+03  0.29698497335E+03  0.25500000920E-02 0.  1.
        2   -1    0    0  501    0  0.00000000000E+00  0.00000000000E+00 -0.30120469757E+03  0.30120469758E+03  0.25500000920E-02 0. -1.
    10030    2    1    2    0    0  0.00000000000E+00  0.00000000000E+00 -0.42197242284E+01  0.59818967093E+03  0.59817478745E+03 0.  0.
        3    1    3    3  502    0  0.16219040543E+03  0.23767392506E+03 -0.83712361924E+02  0.29967047236E+03  0.10100000352E+00 0. -1.
       -3    1    3    3    0  502 -0.16219040543E+03 -0.23767392506E+03  0.79492637695E+02  0.29851919857E+03  0.10100000352E+00 0.  1.
</event>
<event>
 5   0  0.3478183E-02  0.5963344E+03  0.7818609E-02  0.9913040E-01
       -1   -1    0    0    0  501  0.00000000000E+00  0.00000000000E+00  0.54126648157E+03  0.54126648159E+03  0.50400001928E-02 0. -1.
        1   -1    0    0  501    0  0.00000000000E+00  0.00000000000E+00 -0.16425121882E+03  0.16425121890E+03  0.50400001928E-02 0.  1.
    10030    2    1    2    0    0  0.00000000000E+00  0.00000000000E+00  0.37701526275E+03  0.70551770049E+03  0.59633440061E+03 0.  0.
        4    1    3    3  502    0 -0.22383041508E+03 -0.19065048060E+03  0.24712026699E+03  0.38408032978E+03  0.12699999809E+01 0. -1.
       -4    1    3    3    0  502  0.22383041508E+03  0.19065048060E+03  0.12989499576E+03  0.32143737071E+03  0.12699999809E+01 0.  1.
</event>
<event>
 5   0  0.5755078E-02  0.6050729E+03  0.7818609E-02  0.9894937E-01
        2   -1    0    0  501    0  0.00000000000E+00  0.00000000000E+00  0.10467082744E+04  0.10467082744E+04  0.25500000920E-02 0.  1.
       -2   -1    0    0    0  501  0.00000000000E+00  0.00000000000E+00 -0.87443948406E+02  0.87443948443E+02  0.25500000920E-02 0. -1.
    10030    2    1    2    0    0  0.00000000000E+00  0.00000000000E+00  0.95926432599E+03  0.11341522228E+04  0.60507290260E+03 0.  0.
        2    1    3    3  502    0  0.21791428960E+03 -0.85994097206E+02  0.83845574228E+03  0.87056858095E+03  0.25500000920E-02 0.  1.
       -2    1    3    3    0  502 -0.21791428960E+03  0.85994097206E+02  0.12080858370E+03  0.26358364189E+03  0.25500000920E-02 0. -1.
</event>
<event>
 5   0  0.3478183E-02  0.6007103E+03  0.7818609E-02  0.9903933E-01
       -1   -1    0    0    0  501  0.00000000000E+00  0.00000000000E+00  0.87247785965E+02  0.87247786111E+02  0.50400001928E-02 0.  1.
        1   -1    0    0  501    0  0.00000000000E+00  0.00000000000E+00 -0.10339887461E+04  0.10339887461E+04  0.50400001928E-02 0. -1.
    10030    2    1    2    0    0  0.00000000000E+00  0.00000000000E+00 -0.94674096013E+03  0.11212365322E+04  0.60071034250E+03 0.  0.
        4    1    3    3  502    0 -0.20279277646E+03 -0.21988761346E+03 -0.52401276585E+03  0.60337920449E+03  0.12699999809E+01 0.  1.
       -4    1    3    3    0  502  0.20279277646E+03  0.21988761346E+03 -0.42272819428E+03  0.51785732772E+03  0.12699999809E+01 0. -1.
</event>
<event>
 5   0  0.3651984E-02  0.5876534E+03  0.7818609E-02  0.9931358E-01
        1   -1    0    0  501    0  0.00000000000E+00  0.00000000000E+00  0.38160658973E+03  0.38160658976E+03  0.50400001928E-02 0.  1.
       -1   -1    0    0    0  501  0.00000000000E+00  0.00000000000E+00 -0.22623857499E+03  0.22623857504E+03  0.50400001928E-02 0. -1.
    10030    2    1    2    0    0  0.00000000000E+00  0.00000000000E+00  0.15536801474E+03  0.60784516481E+03  0.58765340497E+03 0.  0.
        1    1    3    3  502    0 -0.68771939843E+02 -0.90067930650E+02 -0.20272546867E+03  0.23224863297E+03  0.50400001928E-02 0. -1.
       -1    1    3    3    0  502  0.68771939843E+02  0.90067930650E+02  0.35809348341E+03  0.37559653184E+03  0.50400001928E-02 0.  1.
</event>
<event>
 5   0  0.3767635E-02  0.6029702E+03  0.7818609E-02  0.9899263E-01
        1   -1    0    0  501    0  0.00000000000E+00  0.00000000000E+00  0.13845094048E+03  0.13845094057E+03  0.50400001928E-02 0.  1.
       -1   -1    0    0    0  501  0.00000000000E+00  0.00000000000E+00 -0.65650153714E+03  0.65650153716E+03  0.50400001928E-02 0. -1.
    10030    2    1    2    0    0  0.00000000000E+00  0.00000000000E+00 -0.51805059666E+03  0.79495247773E+03  0.60297016605E+03 0.  0.
        2    1    3    3  502    0 -0.35013803260E+02  0.28552712942E+03 -0.14006588435E+03  0.31995337163E+03  0.25500000920E-02 0.  1.
       -2    1    3    3    0  502  0.35013803260E+02 -0.28552712942E+03 -0.37798471231E+03  0.47499910610E+03  0.25500000920E-02 0. -1.
</event>
<event>
 5   0  0.3640827E-02  0.5959266E+03  0.7818609E-02  0.9913893E-01
       -1   -1    0    0    0  501  0.00000000000E+00  0.00000000000E+00  0.96677766318E+03  0.96677766320E+03  0.50400001928E-02 0. -1.
        1   -1    0    0  501    0  0.00000000000E+00  0.00000000000E+00 -0.91833040090E+02  0.91833040228E+02  0.50400001928E-02 0.  1.
    10030    2    1    2    0    0  0.00000000000E+00  0.00000000000E+00  0.87494462309E+03  0.10586107034E+04  0.59592661287E+03 0.  0.
        3    1    3    3  502    0 -0.14240538427E+03  0.26091558267E+03  0.47413216363E+03  0.55960481908E+03  0.10100000352E+00 0. -1.
       -3    1    3    3    0  502  0.14240538427E+03 -0.26091558267E+03  0.40081245947E+03  0.49900588435E+03  0.10100000352E+00 0.  1.
</event>
<event>
 5   0  0.6007360E-02  0.5968359E+03  0.7818609E-02  0.9911992E-01
        2   -1    0    0  501    0  0.00000000000E+00  0.00000000000E+00  0.48331062204E+03  0.48331062205E+03  0.25500000920E-02 0. -1.
       -2   -1    0    0    0  501  0.00000000000E+00  0.00000000000E+00 -0.18425680772E+03  0.18425680774E+03  0.25500000920E-02 0.  1.
    10030    2    1    2    0    0  0.00000000000E+00  0.00000000000E+00  0.29905381432E+03  0.66756742979E+03  0.59683589826E+03 0.  0.
        4    1    3    3  502    0 -0.10230193196E+03 -0.27325782728E+03  0.79531591714E+02  0.30242753253E+03  0.12699999809E+01 0.  1.
       -4    1    3    3    0  502  0.10230193196E+03  0.27325782728E+03  0.21952222260E+03  0.36513989726E+03  0.12699999809E+01 0. -1.
</event>
<event>
 5   0  0.6007360E-02  0.5978021E+03  0.7818609E-02  0.9909976E-01
        2   -1    0    0  501    0  0.00000000000E+00  0.00000000000E+00  0.28366722553E+03  0.28366722554E+03  0.25500000920E-02 0. -1.
       -2   -1    0    0    0  501  0.00000000000E+00  0.00000000000E+00 -0.31495302316E+03  0.31495302317E+03  0.25500000920E-02 0.  1.
    10030    2    1    2    0    0  0.00000000000E+00  0.00000000000E+00 -0.31285797631E+02  0.59862024871E+03  0.59780214204E+03 0.  0.
        4    1    3    3  502    0 -0.19848871304E+03  0.12355519075E+03 -0.20211423554E+03  0.30905570933E+03  0.12699999809E+01 0.  1.
       -4    1    3    3    0  502  0.19848871304E+03 -0.12355519075E+03  0.17082843791E+03  0.28956453937E+03  0.12699999809E+01 0. -1.
</event>
<event>
 5   0  0.3767635E-02  0.5457084E+03  0.7818609E-02  0.1002492E+00
       -1   -1    0    0    0  501  0.00000000000E+00  0.00000000000E+00  0.33127165925E+03  0.33127165929E+03  0.50400001928E-02 0.  1.
        1   -1    0    0  501    0  0.00000000000E+00  0.00000000000E+00 -0.22473826804E+03  0.22473826810E+03  0.50400001928E-02 0. -1.
    10030    2    1    2    0    0  0.00000000000E+00  0.00000000000E+00  0.10653339122E+03  0.55600992739E+03  0.54570841656E+03 0.  0.
        2    1    3    3  502    0 -0.27017426999E+03 -0.19090732229E+02  0.19615555454E+02  0.27155729091E+03  0.25500000920E-02 0. -1.
       -2    1    3    3    0  502  0.27017426999E+03  0.19090732229E+02  0.86917835762E+02  0.28445263648E+03  0.25500000920E-02 0.  1.
</event>
<event>
 5   0  0.6007360E-02  0.5966905E+03  0.7818609E-02  0.9912296E-01
        2   -1    0    0  501    0  0.00000000000E+00  0.00000000000E+00  0.25536744035E+03  0.25536744036E+03  0.25500000920E-02 0.  1.
       -2   -1    0    0    0  501  0.00000000000E+00  0.00000000000E+00 -0.34855615368E+03  0.34855615369E+03  0.25500000920E-02 0. -1.
    10030    2    1    2    0    0  0.00000000000E+00  0.00000000000E+00 -0.93188713333E+02  0.60392359406E+03  0.59669051540E+03 0.  0.
        4    1    3    3  502    0  0.41959803877E+02  0.27160856939E+03  0.70900931268E+02  0.28383163154E+03  0.12699999809E+01 0. -1.
       -4    1    3    3    0  502 -0.41959803877E+02 -0.27160856939E+03 -0.16408964460E+03  0.32009196252E+03  0.12699999809E+01 0.  1.
</event>
<event>
 5   0  0.5872632E-02  0.5990499E+03  0.7818609E-02  0.9907379E-01
       -2   -1    0    0    0  501  0.00000000000E+00  0.00000000000E+00  0.75846499885E+02  0.75846499928E+02  0.25500000920E-02 0.  1.
        2   -1    0    0  501    0  0.00000000000E+00  0.00000000000E+00 -0.11828522223E+04  0.11828522223E+04  0.25500000920E-02 0. -1.
    10030    2    1    2    0    0  0.00000000000E+00  0.00000000000E+00 -0.11070057225E+04  0.12586987223E+04  0.59904991770E+03 0.  0.
        1    1    3    3  502    0 -0.25402762085E+03  0.13431289769E+03 -0.37589327271E+03  0.47314452246E+03  0.50400001928E-02 0. -1.
       -1    1    3    3    0  502  0.25402762085E+03 -0.13431289769E+03 -0.73111244975E+03  0.78555419981E+03  0.50400001928E-02 0.  1.
</event>
<event>
 5   0  0.2388000E-02  0.6012548E+03  0.7818609E-02  0.9902806E-01
        3   -1    0    0  501    0  0.00000000000E+00  0.00000000000E+00  0.11352500796E+03  0.11352505288E+03  0.10100000352E+00 0.  1.
       -3   -1    0    0    0  501  0.00000000000E+00  0.00000000000E+00 -0.79609611703E+03  0.79609612344E+03  0.10100000352E+00 0. -1.
    10030    2    1    2    0    0  0.00000000000E+00  0.00000000000E+00 -0.68257110907E+03  0.90962117632E+03  0.60125482573E+03 0.  0.
        1    1    3    3  502    0  0.22067536386E+03  0.19116473942E+03 -0.44969909418E+03  0.53616308073E+03  0.50400001928E-02 0. -1.
       -1    1    3    3    0  502 -0.22067536386E+03 -0.19116473942E+03 -0.23287201489E+03  0.37345809559E+03  0.50400001928E-02 0.  1.
</event>
<event>
 5   0  0.6007360E-02  0.5934018E+03  0.7818609E-02  0.9919191E-01
        2   -1    0    0  501    0  0.00000000000E+00  0.00000000000E+00  0.77440799487E+03  0.77440799487E+03  0.25500000920E-02 0.  1.
       -2   -1    0    0    0  501  0.00000000000E+00  0.00000000000E+00 -0.11367575817E+03  0.11367575820E+03  0.25500000920E-02 0. -1.
    10030    2    1    2    0    0  0.00000000000E+00  0.00000000000E+00  0.66073223670E+03  0.88808375307E+03  0.59340177271E+03 0.  0.
        4    1    3    3  502    0 -0.39641502786E+02 -0.37275496786E+02  0.76687237484E+03  0.76880151118E+03  0.12699999809E+01 0.  1.
       -4    1    3    3    0  502  0.39641502786E+02  0.37275496786E+02 -0.10614013814E+03  0.11928224188E+03  0.12699999809E+01 0. -1.
</event>
<event>
 5   0  0.3640827E-02  0.5977432E+03  0.7818609E-02  0.9910099E-01
        1   -1    0    0  501    0  0.00000000000E+00  0.00000000000E+00  0.48703225976E+03  0.48703225978E+03  0.50400001928E-02 0.  1.
       -1   -1    0    0    0  501  0.00000000000E+00  0.00000000000E+00 -0.18340516811E+03  0.18340516818E+03  0.50400001928E-02 0. -1.
    10030    2    1    2    0    0  0.00000000000E+00  0.00000000000E+00  0.30362709165E+03  0.67043742796E+03  0.59774320074E+03 0.  0.
        3    1    3    3  502    0 -0.77993440649E+02 -0.16851586341E+03 -0.11085422176E+03  0.21626197467E+03  0.10100000352E+00 0.  1.
       -3    1    3    3    0  502  0.77993440649E+02  0.16851586341E+03  0.41448131341E+03  0.45417545329E+03  0.10100000352E+00 0. -1.
</event>
<event>
 5   0  0.5999117E-02  0.5960213E+03  0.7818609E-02  0.9913695E-01
        2   -1    0    0  501    0  0.00000000000E+00  0.00000000000E+00  0.80007326661E+03  0.80007326662E+03  0.25500000920E-02 0.  1.
       -2   -1    0    0    0  501  0.00000000000E+00  0.00000000000E+00 -0.11100275853E+03  0.11100275856E+03  0.25500000920E-02 0. -1.
    10030    2    1    2    0    0  0.00000000000E+00  0.00000000000E+00  0.68907050809E+03  0.91107602517E+03  0.59602127356E+03 0.  0.
        5    1    3    3  502    0 -0.19390023527E+03 -0.22000746154E+03  0.42524261917E+03  0.51657909319E+03  0.46999998093E+01 0.  1.
       -5    1    3    3    0  502  0.19390023527E+03  0.22000746154E+03  0.26382788892E+03  0.39449693198E+03  0.46999998093E+01 0. -1.
</event>
<event>
 5   0  0.3640827E-02  0.6011019E+03  0.7818609E-02  0.9903123E-01
       -1   -1    0    0    0  501  0.00000000000E+00  0.00000000000E+00  0.30822216482E+03  0.30822216486E+03  0.50400001928E-02 0.  1.
        1   -1    0    0  501    0  0.00000000000E+00  0.00000000000E+00 -0.29307064250E+03  0.29307064255E+03  0.50400001928E-02 0. -1.
    10030    2    1    2    0    0  0.00000000000E+00  0.00000000000E+00  0.15151522317E+02  0.60129280741E+03  0.60110188123E+03 0.  0.
        3    1    3    3  502    0 -0.21037141680E+03  0.75413072049E+02  0.20860624072E+03  0.30571201859E+03  0.10100000352E+00 0.  1.
       -3    1    3    3    0  502  0.21037141680E+03 -0.75413072049E+02 -0.19345471841E+03  0.29558078882E+03  0.10100000352E+00 0. -1.
</event>
<event>
 5   0  0.3640827E-02  0.4920687E+03  0.7818609E-02  0.1015870E+00
       -1   -1    0    0    0  501  0.00000000000E+00  0.00000000000E+00  0.41251765258E+02  0.41251765565E+02  0.50400001928E-02 0. -1.
        1   -1    0    0  501    0  0.00000000000E+00  0.00000000000E+00 -0.14674014878E+04  0.14674014878E+04  0.50400001928E-02 0.  1.
    10030    2    1    2    0    0  0.00000000000E+00  0.00000000000E+00 -0.14261497225E+04  0.15086532534E+04  0.49206870232E+03 0.  0.
        3    1    3    3  502    0 -0.10797006461E+03  0.22031858224E+03 -0.76919741660E+03  0.80738001489E+03  0.10100000352E+00 0.  1.
       -3    1    3    3    0  502  0.10797006461E+03 -0.22031858224E+03 -0.65695230593E+03  0.70127323848E+03  0.10100000352E+00 0. -1.
</event>
<event>
 5   0  0.5935451E-02  0.6158674E+03  0.7818609E-02  0.9873022E-01
       -2   -1    0    0    0  501  0.00000000000E+00  0.00000000000E+00  0.62615818856E+03  0.62615818857E+03  0.25500000920E-02 0.  1.
        2   -1    0    0  501    0  0.00000000000E+00  0.00000000000E+00 -0.15143643566E+03  0.15143643568E+03  0.25500000920E-02 0. -1.
    10030    2    1    2    0    0  0.00000000000E+00  0.00000000000E+00  0.47472175290E+03  0.77759462425E+03  0.61586740211E+03 0.  0.
        3    1    3    3  502    0  0.43649216687E+02 -0.26207839431E+03  0.43390857683E+03  0.50878974255E+03  0.10100000352E+00 0.  1.
       -3    1    3    3    0  502 -0.43649216687E+02  0.26207839431E+03  0.40813176072E+02  0.26880488169E+03  0.10100000352E+00 0. -1.
</event>
<event>
 5   0  0.2388000E-02  0.5943643E+03  0.7818609E-02  0.9917168E-01
        3   -1    0    0  501    0  0.00000000000E+00  0.00000000000E+00  0.73881353542E+02  0.73881422578E+02  0.10100000352E+00 0. -1.
       -3   -1    0    0    0  501  0.00000000000E+00  0.00000000000E+00 -0.11953922132E+04  0.11953922174E+04  0.10100000352E+00 0.  1.
    10030    2    1    2    0    0  0.00000000000E+00  0.00000000000E+00 -0.11215108596E+04  0.12692736400E+04  0.59436433689E+03 0.  0.
        5    1    3    3  502    0 -0.72229321971E+02  0.28773679695E+03 -0.52466511063E+03  0.60274796356E+03  0.46999998093E+01 0.  1.
       -5    1    3    3    0  502  0.72229321971E+02 -0.28773679695E+03 -0.59684574898E+03  0.66652567644E+03  0.46999998093E+01 0. -1.
</event>
<event>
 5   0  0.3651984E-02  0.5994661E+03  0.7818609E-02  0.9906514E-01
       -1   -1    0    0    0  501  0.00000000000E+00  0.00000000000E+00  0.59636144320E+02  0.59636144533E+02  0.50400001928E-02 0. -1.
        1   -1    0    0  501    0  0.00000000000E+00  0.00000000000E+00 -0.15064675286E+04  0.15064675286E+04  0.50400001928E-02 0.  1.
    10030    2    1    2    0    0  0.00000000000E+00  0.00000000000E+00 -0.14468313842E+04  0.15661036731E+04  0.59946614624E+03 0.  0.
        1    1    3    3  502    0 -0.22804716350E+03  0.47242969377E+02 -0.12163580560E+04  0.12384523920E+04  0.50400001928E-02 0.  1.
       -1    1    3    3    0  502  0.22804716350E+03 -0.47242969377E+02 -0.23047332829E+03  0.32765128111E+03  0.50400001928E-02 0. -1.
</event>
<event>
 5   0  0.3478183E-02  0.6004888E+03  0.7818609E-02  0.9904393E-01
       -1   -1    0    0    0  501  0.00000000000E+00  0.00000000000E+00  0.18188715204E+03  0.18188715211E+03  0.50400001928E-02 0.  1.
        1   -1    0    0  501    0  0.00000000000E+00  0.00000000000E+00 -0.49561878991E+03  0.49561878993E+03  0.50400001928E-02 0. -1.
    10030    2    1    2    0    0  0.00000000000E+00  0.00000000000E+00 -0.31373163787E+03  0.67750594204E+03  0.60048876834E+03 0.  0.
        4    1    3    3  502    0  0.23146466743E+02  0.23125214975E+03 -0.37132902205E+03  0.43806411768E+03  0.12699999809E+01 0. -1.
       -4    1    3    3    0  502 -0.23146466743E+02 -0.23125214975E+03  0.57597384178E+02  0.23944182435E+03  0.12699999809E+01 0.  1.
</event>
<event>
 5   0  0.3703280E-02  0.5734881E+03  0.7818609E-02  0.9961990E-01
       -1   -1    0    0    0  501  0.00000000000E+00  0.00000000000E+00  0.13308850371E+03  0.13308850380E+03  0.50400001928E-02 0.  1.
        1   -1    0    0  501    0  0.00000000000E+00  0.00000000000E+00 -0.61780048101E+03  0.61780048103E+03  0.50400001928E-02 0. -1.
    10030    2    1    2    0    0  0.00000000000E+00  0.00000000000E+00 -0.48471197730E+03  0.75088898484E+03  0.57348807015E+03 0.  0.
        5    1    3    3  502    0 -0.13829163719E+03 -0.13285921246E+03  0.36701432235E+02  0.19530804483E+03  0.46999998093E+01 0.  1.
       -5    1    3    3    0  502  0.13829163719E+03  0.13285921246E+03 -0.52141340954E+03  0.55558094000E+03  0.46999998093E+01 0. -1.
</event>
<event>
 5   0  0.2388000E-02  0.6008137E+03  0.7818609E-02  0.9903719E-01
       -3   -1    0    0    0  501  0.00000000000E+00  0.00000000000E+00  0.13317241175E+04  0.13317241214E+04  0.10100000352E+00 0.  1.
        3   -1    0    0  501    0  0.00000000000E+00  0.00000000000E+00 -0.67764949304E+02  0.67765024572E+02  0.10100000352E+00 0. -1.
    10030    2    1    2    0    0  0.00000000000E+00  0.00000000000E+00  0.12639591682E+04  0.13994891459E+04  0.60081369046E+03 0.  0.
        3    1    3    3  502    0 -0.11737051088E+03 -0.13442401546E+03  0.11948792208E+04  0.12081316217E+04  0.10100000352E+00 0.  1.
       -3    1    3    3    0  502  0.11737051088E+03  0.13442401546E+03  0.69079947413E+02  0.19135752426E+03  0.10100000352E+00 0. -1.
</event>
<event>
 5   0  0.3478183E-02  0.6038638E+03  0.7818609E-02  0.9897422E-01
       -1   -1    0    0    0  501  0.00000000000E+00  0.00000000000E+00  0.14148119942E+03  0.14148119951E+03  0.50400001928E-02 0.  1.
        1   -1    0    0  501    0  0.00000000000E+00  0.00000000000E+00 -0.64434610148E+03  0.64434610150E+03  0.50400001928E-02 0. -1.
    10030    2    1    2    0    0  0.00000000000E+00  0.00000000000E+00 -0.50286490206E+03  0.78582730102E+03  0.60386375723E+03 0.  0.
        4    1    3    3  502    0 -0.10809481079E+03  0.15570127692E+02  0.11487423138E+03  0.15850747279E+03  0.12699999809E+01 0.  1.
       -4    1    3    3    0  502  0.10809481079E+03 -0.15570127692E+02 -0.61773913344E+03  0.62731982822E+03  0.12699999809E+01 0. -1.
</event>
<event>
 5   0  0.3651984E-02  0.5273301E+03  0.7818609E-02  0.1006882E+00
       -1   -1    0    0    0  501  0.00000000000E+00  0.00000000000E+00  0.86847408887E+02  0.86847409033E+02  0.50400001928E-02 0. -1.
        1   -1    0    0  501    0  0.00000000000E+00  0.00000000000E+00 -0.80047588928E+03  0.80047588929E+03  0.50400001928E-02 0.  1.
    10030    2    1    2    0    0  0.00000000000E+00  0.00000000000E+00 -0.71362848039E+03  0.88732329833E+03  0.52733009371E+03 0.  0.
        1    1    3    3  502    0  0.19022793234E+03  0.77696893897E+02 -0.63481572128E+03  0.66724393858E+03  0.50400001928E-02 0.  1.
       -1    1    3    3    0  502 -0.19022793234E+03 -0.77696893897E+02 -0.78812759113E+02  0.22007935975E+03  0.50400001928E-02 0. -1.
</event>
<event>
 5   0  0.6007360E-02  0.5984519E+03  0.7818609E-02  0.9908623E-01
        2   -1    0    0  501    0  0.00000000000E+00  0.00000000000E+00  0.95015502416E+03  0.95015502416E+03  0.25500000920E-02 0. -1.
       -2   -1    0    0    0  501  0.00000000000E+00  0.00000000000E+00 -0.94233234239E+02  0.94233234273E+02  0.25500000920E-02 0.  1.
    10030    2    1    2    0    0  0.00000000000E+00  0.00000000000E+00  0.85592178992E+03  0.10443882584E+04  0.59845193950E+03 0.  0.
        4    1    3    3  502    0 -0.89360052078E+02  0.22707133911E+03  0.73016901913E+03  0.76986688547E+03  0.12699999809E+01 0. -1.
       -4    1    3    3    0  502  0.89360052078E+02 -0.22707133911E+03  0.12575277079E+03  0.27452137296E+03  0.12699999809E+01 0.  1.
</event>
<event>
 5   0  0.3478183E-02  0.5993968E+03  0.7818609E-02  0.9906658E-01
        1   -1    0    0  501    0  0.00000000000E+00  0.00000000000E+00  0.78326884421E+03  0.78326884422E+03  0.50400001928E-02 0.  1.
       -1   -1    0    0    0  501  0.00000000000E+00  0.00000000000E+00 -0.11467217387E+03  0.11467217398E+03  0.50400001928E-02 0. -1.
    10030    2    1    2    0    0  0.00000000000E+00  0.00000000000E+00  0.66859667033E+03  0.89794101821E+03  0.59939683399E+03 0.  0.
        4    1    3    3  502    0  0.21137934958E+03  0.21105303546E+03  0.29782045424E+03  0.42180949381E+03  0.12699999809E+01 0.  1.
       -4    1    3    3    0  502 -0.21137934958E+03 -0.21105303546E+03  0.37077621609E+03  0.47613152440E+03  0.12699999809E+01 0. -1.
</event>
<event>
 5   0  0.3478183E-02  0.6022807E+03  0.7818609E-02  0.9900686E-01
       -1   -1    0    0    0  501  0.00000000000E+00  0.00000000000E+00  0.60121244961E+02  0.60121245172E+02  0.50400001928E-02 0.  1.
        1   -1    0    0  501    0  0.00000000000E+00  0.00000000000E+00 -0.15083770821E+04  0.15083770821E+04  0.50400001928E-02 0. -1.
    10030    2    1    2    0    0  0.00000000000E+00  0.00000000000E+00 -0.14482558371E+04  0.15684983273E+04  0.60228069276E+03 0.  0.
        4    1    3    3  502    0  0.11789927247E+03  0.24730345533E+03 -0.10496574376E+04  0.10848232975E+04  0.12699999809E+01 0. -1.
       -4    1    3    3    0  502 -0.11789927247E+03 -0.24730345533E+03 -0.39859839950E+03  0.48367502980E+03  0.12699999809E+01 0.  1.
</event>
<event>
 5   0  0.3640827E-02  0.6088206E+03  0.7818609E-02  0.9887273E-01
       -1   -1    0    0    0  501  0.00000000000E+00  0.00000000000E+00  0.48730289536E+02  0.48730289797E+02  0.50400001928E-02 0.  1.
        1   -1    0    0  501    0  0.00000000000E+00  0.00000000000E+00 -0.19016024328E+04  0.19016024328E+04  0.50400001928E-02 0. -1.
    10030    2    1    2    0    0  0.00000000000E+00  0.00000000000E+00 -0.18528721433E+04  0.19503327226E+04  0.60882062184E+03 0.  0.
        3    1    3    3  502    0  0.20077086199E+02  0.18695173562E+03 -0.15953283994E+03  0.24658624873E+03  0.10100000352E+00 0.  1.
       -3    1    3    3    0  502 -0.20077086199E+02 -0.18695173562E+03 -0.16933393034E+04  0.17037464739E+04  0.10100000352E+00 0. -1.
</event>
<event>
 5   0  0.3640827E-02  0.5961886E+03  0.7818609E-02  0.9913345E-01
        1   -1    0    0  501    0  0.00000000000E+00  0.00000000000E+00  0.16228617048E+03  0.16228617056E+03  0.50400001928E-02 0. -1.
       -1   -1    0    0    0  501  0.00000000000E+00  0.00000000000E+00 -0.54755261162E+03  0.54755261164E+03  0.50400001928E-02 0.  1.
    10030    2    1    2    0    0  0.00000000000E+00  0.00000000000E+00 -0.38526644114E+03  0.70983878220E+03  0.59618861617E+03 0.  0.
        3    1    3    3  502    0  0.27805441625E+03 -0.10525065963E+03 -0.21839722374E+03  0.36890285616E+03  0.10100000352E+00 0.  1.
       -3    1    3    3    0  502 -0.27805441625E+03  0.10525065963E+03 -0.16686921740E+03  0.34093592604E+03  0.10100000352E+00 0. -1.
</event>
<event>
 5   0  0.2388000E-02  0.5770879E+03  0.7818609E-02  0.9954116E-01
       -3   -1    0    0    0  501  0.00000000000E+00  0.00000000000E+00  0.59605026484E+03  0.59605027339E+03  0.10100000352E+00 0.  1.
        3   -1    0    0  501    0  0.00000000000E+00  0.00000000000E+00 -0.13968217730E+03  0.13968221382E+03  0.10100000352E+00 0. -1.
    10030    2    1    2    0    0  0.00000000000E+00  0.00000000000E+00  0.45636808753E+03  0.73573248721E+03  0.57708791481E+03 0.  0.
        1    1    3    3  502    0  0.16468654485E+03 -0.16158147959E+03  0.72631998741E+01  0.23083107828E+03  0.50400001928E-02 0. -1.
       -1    1    3    3    0  502 -0.16468654485E+03  0.16158147959E+03  0.44910488766E+03  0.50490140893E+03  0.50400001928E-02 0.  1.
</event>
<event>
 5   0  0.6007360E-02  0.5987984E+03  0.7818609E-02  0.9907902E-01
       -2   -1    0    0    0  501  0.00000000000E+00  0.00000000000E+00  0.38523163020E+02  0.38523163105E+02  0.25500000920E-02 0. -1.
        2   -1    0    0  501    0  0.00000000000E+00  0.00000000000E+00 -0.23269084326E+04  0.23269084326E+04  0.25500000920E-02 0.  1.
    10030    2    1    2    0    0  0.00000000000E+00  0.00000000000E+00 -0.22883852696E+04  0.23654315957E+04  0.59879837335E+03 0.  0.
        4    1    3    3  502    0 -0.15555355398E+03  0.12447812085E+03 -0.20270337006E+04  0.20368011555E+04  0.12699999809E+01 0.  1.
       -4    1    3    3    0  502  0.15555355398E+03 -0.12447812085E+03 -0.26135156894E+03  0.32863044018E+03  0.12699999809E+01 0. -1.
</event>
<event>
 5   0  0.3767635E-02  0.5908996E+03  0.7818609E-02  0.9924468E-01
        1   -1    0    0  501    0  0.00000000000E+00  0.00000000000E+00  0.48966445170E+03  0.48966445173E+03  0.50400001928E-02 0. -1.
       -1   -1    0    0    0  501  0.00000000000E+00  0.00000000000E+00 -0.17826612718E+03  0.17826612725E+03  0.50400001928E-02 0.  1.
    10030    2    1    2    0    0  0.00000000000E+00  0.00000000000E+00  0.31139832452E+03  0.66793057898E+03  0.59089960385E+03 0.  0.
        2    1    3    3  502    0 -0.83160225141E+02  0.45252227481E+02 -0.16065527044E+03  0.18647654830E+03  0.25500000920E-02 0.  1.
       -2    1    3    3    0  502  0.83160225141E+02 -0.45252227481E+02  0.47205359496E+03  0.48145403068E+03  0.25500000920E-02 0. -1.
</event>
<event>
 5   0  0.3478183E-02  0.6077181E+03  0.7818609E-02  0.9889521E-01
        1   -1    0    0  501    0  0.00000000000E+00  0.00000000000E+00  0.10638954506E+03  0.10638954518E+03  0.50400001928E-02 0.  1.
       -1   -1    0    0    0  501  0.00000000000E+00  0.00000000000E+00 -0.86785159548E+03  0.86785159550E+03  0.50400001928E-02 0. -1.
    10030    2    1    2    0    0  0.00000000000E+00  0.00000000000E+00 -0.76146205043E+03  0.97424114067E+03  0.60771814679E+03 0.  0.
        4    1    3    3  502    0  0.53095992832E+02  0.14117637228E+02 -0.85981855621E+03  0.86157301179E+03  0.12699999809E+01 0. -1.
       -4    1    3    3    0  502 -0.53095992832E+02 -0.14117637228E+02  0.98356505786E+02  0.11266812888E+03  0.12699999809E+01 0.  1.
</event>
<event>
 5   0  0.6007360E-02  0.5966228E+03  0.7818609E-02  0.9912438E-01
       -2   -1    0    0    0  501  0.00000000000E+00  0.00000000000E+00  0.17159669330E+03  0.17159669332E+03  0.25500000920E-02 0. -1.
        2   -1    0    0  501    0  0.00000000000E+00  0.00000000000E+00 -0.51859786764E+03  0.51859786765E+03  0.25500000920E-02 0.  1.
    10030    2    1    2    0    0  0.00000000000E+00  0.00000000000E+00 -0.34700117434E+03  0.69019456097E+03  0.59662275937E+03 0.  0.
        4    1    3    3  502    0  0.61969058460E+02  0.24259506631E+03 -0.36109190295E+03  0.43941040689E+03  0.12699999809E+01 0.  1.
       -4    1    3    3    0  502 -0.61969058460E+02 -0.24259506631E+03  0.14090728608E+02  0.25078415408E+03  0.12699999809E+01 0. -1.
</event>
<event>
 5   0  0.5999117E-02  0.5949914E+03  0.7818609E-02  0.9915852E-01
        2   -1    0    0  501    0  0.00000000000E+00  0.00000000000E+00  0.12350629805E+04  0.12350629805E+04  0.25500000920E-02 0. -1.
       -2   -1    0    0    0  501  0.00000000000E+00  0.00000000000E+00 -0.71659252496E+02  0.71659252541E+02  0.25500000920E-02 0.  1.
    10030    2    1    2    0    0  0.00000000000E+00  0.00000000000E+00  0.11634037280E+04  0.13067222330E+04  0.59499139489E+03 0.  0.
        5    1    3    3  502    0 -0.21583551120E+03 -0.16810936482E+03  0.32524514695E+03  0.42503202473E+03  0.46999998093E+01 0. -1.
       -5    1    3    3    0  502  0.21583551120E+03  0.16810936482E+03  0.83815858104E+03  0.88169020829E+03  0.46999998093E+01 0.  1.
</event>
<event>
 5   0  0.3478183E-02  0.6042654E+03  0.7818609E-02  0.9896596E-01
       -1   -1    0    0    0  501  0.00000000000E+00  0.00000000000E+00  0.14255475986E+03  0.14255475995E+03  0.50400001928E-02 0. -1.
        1   -1    0    0  501    0  0.00000000000E+00  0.00000000000E+00 -0.64034453368E+03  0.64034453370E+03  0.50400001928E-02 0.  1.
    10030    2    1    2    0    0  0.00000000000E+00  0.00000000000E+00 -0.49778977382E+03  0.78289929365E+03  0.60426537637E+03 0.  0.
        4    1    3    3  502    0  0.49980471336E+02  0.25082978384E+03 -0.40509460498E+02  0.25895222970E+03  0.12699999809E+01 0. -1.
       -4    1    3    3    0  502 -0.49980471336E+02 -0.25082978384E+03 -0.45728031333E+03  0.52394706396E+03  0.12699999809E+01 0.  1.
</event>
<event>
 5   0  0.6007360E-02  0.6118470E+03  0.7818609E-02  0.9881128E-01
        2   -1    0    0  501    0  0.00000000000E+00  0.00000000000E+00  0.11883215558E+04  0.11883215558E+04  0.25500000920E-02 0. -1.
       -2   -1    0    0    0  501  0.00000000000E+00  0.00000000000E+00 -0.78757461970E+02  0.78757462012E+02  0.25500000920E-02 0.  1.
    10030    2    1    2    0    0  0.00000000000E+00  0.00000000000E+00  0.11095640938E+04  0.12670790178E+04  0.61184700625E+03 0.  0.
        4    1    3    3  502    0 -0.17733307264E+03 -0.19937891020E+03  0.24491570170E+03  0.36219370829E+03  0.12699999809E+01 0.  1.
       -4    1    3    3    0  502  0.17733307264E+03  0.19937891020E+03  0.86464839210E+03  0.90488530949E+03  0.12699999809E+01 0. -1.
</event>
<event>
 5   0  0.5935451E-02  0.6100871E+03  0.7818609E-02  0.9884697E-01
        2   -1    0    0  501    0  0.00000000000E+00  0.00000000000E+00  0.85432371772E+03  0.85432371773E+03  0.25500000920E-02 0.  1.
       -2   -1    0    0    0  501  0.00000000000E+00  0.00000000000E+00 -0.10891840159E+03  0.10891840162E+03  0.25500000920E-02 0. -1.
    10030    2    1    2    0    0  0.00000000000E+00  0.00000000000E+00  0.74540531613E+03  0.96324211934E+03  0.61008712096E+03 0.  0.
        3    1    3    3  502    0  0.26870087917E+01 -0.41232230952E+02  0.84988482697E+03  0.85088868027E+03  0.10100000352E+00 0.  1.
       -3    1    3    3    0  502 -0.26870087917E+01  0.41232230952E+02 -0.10447951084E+03  0.11235343908E+03  0.10100000352E+00 0. -1.
</event>
<event>
 5   0  0.3703280E-02  0.5719485E+03  0.7818609E-02  0.9965376E-01
       -1   -1    0    0    0  501  0.00000000000E+00  0.00000000000E+00  0.77521969226E+02  0.77521969390E+02  0.50400001928E-02 0. -1.
        1   -1    0    0  501    0  0.00000000000E+00  0.00000000000E+00 -0.10549431031E+04  0.10549431031E+04  0.50400001928E-02 0.  1.
    10030    2    1    2    0    0  0.00000000000E+00  0.00000000000E+00 -0.97742113388E+03  0.11324650725E+04  0.57194848325E+03 0.  0.
        5    1    3    3  502    0 -0.14472485586E+02  0.24359333345E+03 -0.78380556816E+03  0.82092656408E+03  0.46999998093E+01 0.  1.
       -5    1    3    3    0  502  0.14472485586E+02 -0.24359333345E+03 -0.19361556572E+03  0.31153850842E+03  0.46999998093E+01 0. -1.
</event>
<event>
 5   0  0.5755078E-02  0.6043014E+03  0.7818609E-02  0.9896522E-01
       -2   -1    0    0    0  501  0.00000000000E+00  0.00000000000E+00  0.50456065584E+03  0.50456065585E+03  0.25500000920E-02 0. -1.
        2   -1    0    0  501    0  0.00000000000E+00  0.00000000000E+00 -0.18093970209E+03  0.18093970211E+03  0.25500000920E-02 0.  1.
    10030    2    1    2    0    0  0.00000000000E+00  0.00000000000E+00  0.32362095375E+03  0.68550035795E+03  0.60430143062E+03 0.  0.
        2    1    3    3  502    0 -0.25805041608E+03  0.15474450159E+03  0.19306590924E+03  0.35750569692E+03  0.25500000920E-02 0.  1.
       -2    1    3    3    0  502  0.25805041608E+03 -0.15474450159E+03  0.13055504451E+03  0.32799466103E+03  0.25500000920E-02 0. -1.
</event>
<event>
 5   0  0.3703280E-02  0.6092000E+03  0.7818609E-02  0.9886501E-01
        1   -1    0    0  501    0  0.00000000000E+00  0.00000000000E+00  0.93388251985E+03  0.93388251986E+03  0.50400001928E-02 0. -1.
       -1   -1    0    0    0  501  0.00000000000E+00  0.00000000000E+00 -0.99349932088E+02  0.99349932216E+02  0.50400001928E-02 0.  1.
    10030    2    1    2    0    0  0.00000000000E+00  0.00000000000E+00  0.83453258776E+03  0.10332324521E+04  0.60920001641E+03 0.  0.
        5    1    3    3  502    0  0.17132027833E+03 -0.17731523040E+03  0.72051163810E+03  0.76154477172E+03  0.46999998093E+01 0. -1.
       -5    1    3    3    0  502 -0.17132027833E+03  0.17731523040E+03  0.11402094966E+03  0.27168768036E+03  0.46999998093E+01 0.  1.
</event>
<event>
 5   0  0.5755078E-02  0.6864431E+03  0.7818609E-02  0.9740701E-01
        2   -1    0    0  501    0  0.00000000000E+00  0.00000000000E+00  0.48504273390E+03  0.48504273391E+03  0.25500000920E-02 0.  1.
       -2   -1    0    0    0  501  0.00000000000E+00  0.00000000000E+00 -0.24286735558E+03  0.24286735559E+03  0.25500000920E-02 0. -1.
    10030    2    1    2    0    0  0.00000000000E+00  0.00000000000E+00  0.24217537833E+03  0.72791008950E+03  0.68644314005E+03 0.  0.
        2    1    3    3  502    0 -0.25382481247E+03  0.13969142206E+03 -0.74039901280E+02  0.29903617809E+03  0.25500000920E-02 0. -1.
       -2    1    3    3    0  502  0.25382481247E+03 -0.13969142206E+03  0.31621527961E+03  0.42887391141E+03  0.25500000920E-02 0.  1.
</event>
<event>
 5   0  0.3640827E-02  0.6140063E+03  0.7818609E-02  0.9876766E-01
       -1   -1    0    0    0  501  0.00000000000E+00  0.00000000000E+00  0.38338428991E+03  0.38338428994E+03  0.50400001928E-02 0. -1.
        1   -1    0    0  501    0  0.00000000000E+00  0.00000000000E+00 -0.24583929698E+03  0.24583929703E+03  0.50400001928E-02 0.  1.
    10030    2    1    2    0    0  0.00000000000E+00  0.00000000000E+00  0.13754499293E+03  0.62922358697E+03  0.61400626815E+03 0.  0.
        3    1    3    3  502    0  0.92393007606E+02  0.22506854675E+03 -0.12310738720E+03  0.27266785211E+03  0.10100000352E+00 0.  1.
       -3    1    3    3    0  502 -0.92393007606E+02 -0.22506854675E+03  0.26065238013E+03  0.35655573486E+03  0.10100000352E+00 0. -1.
</event>
<event>
 5   0  0.5935451E-02  0.5999413E+03  0.7818609E-02  0.9905528E-01
       -2   -1    0    0    0  501  0.00000000000E+00  0.00000000000E+00  0.30208652573E+03  0.30208652574E+03  0.25500000920E-02 0. -1.
        2   -1    0    0  501    0  0.00000000000E+00  0.00000000000E+00 -0.29786963354E+03  0.29786963355E+03  0.25500000920E-02 0.  1.
    10030    2    1    2    0    0  0.00000000000E+00  0.00000000000E+00  0.42168921920E+01  0.59995615929E+03  0.59994133954E+03 0.  0.
        3    1    3    3  502    0  0.19626645258E+03 -0.14870766920E+03 -0.16920807720E+03  0.29877395281E+03  0.10100000352E+00 0.  1.
       -3    1    3    3    0  502 -0.19626645258E+03  0.14870766920E+03  0.17342496940E+03  0.30118220648E+03  0.10100000352E+00 0. -1.
</event>
<event>
 5   0  0.3767635E-02  0.6003559E+03  0.7818609E-02  0.9904668E-01
       -1   -1    0    0    0  501  0.00000000000E+00  0.00000000000E+00  0.20523403767E+03  0.20523403773E+03  0.50400001928E-02 0. -1.
        1   -1    0    0  501    0  0.00000000000E+00  0.00000000000E+00 -0.43904412389E+03  0.43904412392E+03  0.50400001928E-02 0.  1.
    10030    2    1    2    0    0  0.00000000000E+00  0.00000000000E+00 -0.23381008622E+03  0.64427816165E+03  0.60035588875E+03 0.  0.
        2    1    3    3  502    0 -0.19702369731E+03 -0.21739821973E+03 -0.18500191168E+03  0.34685159734E+03  0.25500000920E-02 0.  1.
       -2    1    3    3    0  502  0.19702369731E+03  0.21739821973E+03 -0.48808174545E+02  0.29742656431E+03  0.25500000920E-02 0. -1.
</event>
<event>
 5   0  0.3651984E-02  0.5950782E+03  0.7818609E-02  0.9915670E-01
        1   -1    0    0  501    0  0.00000000000E+00  0.00000000000E+00  0.55186119313E+03  0.55186119315E+03  0.50400001928E-02 0.  1.
       -1   -1    0    0    0  501  0.00000000000E+00  0.00000000000E+00 -0.16041992175E+03  0.16041992183E+03  0.50400001928E-02 0. -1.
    10030    2    1    2    0    0  0.00000000000E+00  0.00000000000E+00  0.39144127137E+03  0.71228111498E+03  0.59507824513E+03 0.  0.
        1    1    3    3  502    0  0.15832988349E+03  0.20420769814E+03  0.19153151926E+02  0.25910611579E+03  0.50400001928E-02 0. -1.
       -1    1    3    3    0  502 -0.15832988349E+03 -0.20420769814E+03  0.37228811945E+03  0.45317499919E+03  0.50400001928E-02 0.  1.
</event>
<event>
 5   0  0.5755078E-02  0.5906022E+03  0.7818609E-02  0.9925098E-01
        2   -1    0    0  501    0  0.00000000000E+00  0.00000000000E+00  0.91905589472E+03  0.91905589473E+03  0.25500000920E-02 0.  1.
       -2   -1    0    0    0  501  0.00000000000E+00  0.00000000000E+00 -0.94882963525E+02  0.94882963559E+02  0.25500000920E-02 0. -1.
    10030    2    1    2    0    0  0.00000000000E+00  0.00000000000E+00  0.82417293120E+03  0.10139388583E+04  0.59060222470E+03 0.  0.
        2    1    3    3  502    0  0.67638906377E+02  0.25129271741E+03  0.17247490357E+03  0.31220288892E+03  0.25500000920E-02 0. -1.
       -2    1    3    3    0  502 -0.67638906377E+02 -0.25129271741E+03  0.65169802763E+03  0.70173596937E+03  0.25500000920E-02 0.  1.
</event>
<event>
 5   0  0.3640827E-02  0.6001916E+03  0.7818609E-02  0.9905009E-01
        1   -1    0    0  501    0  0.00000000000E+00  0.00000000000E+00  0.92713286028E+03  0.92713286029E+03  0.50400001928E-02 0.  1.
       -1   -1    0    0    0  501  0.00000000000E+00  0.00000000000E+00 -0.97135476576E+02  0.97135476706E+02  0.50400001928E-02 0. -1.
    10030    2    1    2    0    0  0.00000000000E+00  0.00000000000E+00  0.82999738370E+03  0.10242683370E+04  0.60019161042E+03 0.  0.
        3    1    3    3  502    0 -0.64740632092E+01  0.48765058110E+02  0.92020516990E+03  0.92151913127E+03  0.10100000352E+00 0.  1.
       -3    1    3    3    0  502  0.64740632092E+01 -0.48765058110E+02 -0.90207786195E+02  0.10274920573E+03  0.10100000352E+00 0. -1.
</event>
<event>
 5   0  0.6007360E-02  0.6015788E+03  0.7818609E-02  0.9902136E-01
       -2   -1    0    0    0  501  0.00000000000E+00  0.00000000000E+00  0.24684931949E+03  0.24684931950E+03  0.25500000920E-02 0. -1.
        2   -1    0    0  501    0  0.00000000000E+00  0.00000000000E+00 -0.36651613998E+03  0.36651613999E+03  0.25500000920E-02 0.  1.
    10030    2    1    2    0    0  0.00000000000E+00  0.00000000000E+00 -0.11966682049E+03  0.61336545949E+03  0.60157878867E+03 0.  0.
        4    1    3    3  502    0 -0.37103757537E+02 -0.10416439054E+03 -0.34503841741E+03  0.36232586365E+03  0.12699999809E+01 0.  1.
       -4    1    3    3    0  502  0.37103757537E+02  0.10416439054E+03  0.22537159692E+03  0.25103959584E+03  0.12699999809E+01 0. -1.
</event>
<event>
 5   0  0.5935451E-02  0.6161197E+03  0.7818609E-02  0.9872516E-01
        2   -1    0    0  501    0  0.00000000000E+00  0.00000000000E+00  0.53222977404E+03  0.53222977404E+03  0.25500000920E-02 0.  1.
       -2   -1    0    0    0  501  0.00000000000E+00  0.00000000000E+00 -0.17830806599E+03  0.17830806601E+03  0.25500000920E-02 0. -1.
    10030    2    1    2    0    0  0.00000000000E+00  0.00000000000E+00  0.35392170804E+03  0.71053784005E+03  0.61611966916E+03 0.  0.
        3    1    3    3  502    0 -0.23806855183E+03 -0.42610268571E+00 -0.48509995093E+02  0.24296099843E+03  0.10100000352E+00 0. -1.
       -3    1    3    3    0  502  0.23806855183E+03  0.42610268571E+00  0.40243170314E+03  0.46757684162E+03  0.10100000352E+00 0.  1.
</event>
<event>
 5   0  0.5999117E-02  0.5985128E+03  0.7818609E-02  0.9908496E-01
        2   -1    0    0  501    0  0.00000000000E+00  0.00000000000E+00  0.10810644113E+04  0.10810644113E+04  0.25500000920E-02 0.  1.
       -2   -1    0    0    0  501  0.00000000000E+00  0.00000000000E+00 -0.82839097113E+02  0.82839097152E+02  0.25500000920E-02 0. -1.
    10030    2    1    2    0    0  0.00000000000E+00  0.00000000000E+00  0.99822531416E+03  0.11639035084E+04  0.59851282284E+03 0.  0.
        5    1    3    3  502    0  0.28304474235E+03  0.70328803964E+02  0.62915559989E+03  0.69348347183E+03  0.46999998093E+01 0. -1.
       -5    1    3    3    0  502 -0.28304474235E+03 -0.70328803964E+02  0.36906971427E+03  0.47042003659E+03  0.46999998093E+01 0.  1.
</event>
<event>
 5   0  0.3478183E-02  0.6042274E+03  0.7818609E-02  0.9896674E-01
        1   -1    0    0  501    0  0.00000000000E+00  0.00000000000E+00  0.32131357722E+03  0.32131357726E+03  0.50400001928E-02 0.  1.
       -1   -1    0    0    0  501  0.00000000000E+00  0.00000000000E+00 -0.28406109418E+03  0.28406109423E+03  0.50400001928E-02 0. -1.
    10030    2    1    2    0    0  0.00000000000E+00  0.00000000000E+00  0.37252483038E+02  0.60537467148E+03  0.60422739543E+03 0.  0.
        4    1    3    3  502    0 -0.25365090302E+02  0.16863582789E+03 -0.23122577953E+03  0.28731238100E+03  0.12699999809E+01 0. -1.
       -4    1    3    3    0  502  0.25365090302E+02 -0.16863582789E+03  0.26847826257E+03  0.31806229048E+03  0.12699999809E+01 0.  1.
</event>
<event>
 5   0  0.3651984E-02  0.5988064E+03  0.7818609E-02  0.9907886E-01
       -1   -1    0    0    0  501  0.00000000000E+00  0.00000000000E+00  0.18976176054E+03  0.18976176061E+03  0.50400001928E-02 0.  1.
        1   -1    0    0  501    0  0.00000000000E+00  0.00000000000E+00 -0.47239372264E+03  0.47239372267E+03  0.50400001928E-02 0. -1.
    10030    2    1    2    0    0  0.00000000000E+00  0.00000000000E+00 -0.28263196210E+03  0.66215548327E+03  0.59880636105E+03 0.  0.
        1    1    3    3  502    0 -0.29477592592E+02  0.18844126376E+03 -0.39651988202E+03  0.44000801721E+03  0.50400001928E-02 0. -1.
       -1    1    3    3    0  502  0.29477592592E+02 -0.18844126376E+03  0.11388791991E+03  0.22214746606E+03  0.50400001928E-02 0.  1.
</event>
<event>
 5   0  0.3703280E-02  0.6013494E+03  0.7818609E-02  0.9902610E-01
       -1   -1    0    0    0  501  0.00000000000E+00  0.00000000000E+00  0.51822403765E+03  0.51822403767E+03  0.50400001928E-02 0. -1.
        1   -1    0    0  501    0  0.00000000000E+00  0.00000000000E+00 -0.17445208882E+03  0.17445208890E+03  0.50400001928E-02 0.  1.
    10030    2    1    2    0    0  0.00000000000E+00  0.00000000000E+00  0.34377194882E+03  0.69267612657E+03  0.60134936894E+03 0.  0.
        5    1    3    3  502    0 -0.67248605455E+02 -0.24292092702E+03 -0.16859835000E+02  0.25266439352E+03  0.46999998093E+01 0.  1.
       -5    1    3    3    0  502  0.67248605455E+02  0.24292092702E+03  0.36063178382E+03  0.44001173305E+03  0.46999998093E+01 0. -1.
</event>
<event>
 5   0  0.6007360E-02  0.6279625E+03  0.7818609E-02  0.9849033E-01
       -2   -1    0    0    0  501  0.00000000000E+00  0.00000000000E+00  0.15479264633E+03  0.15479264635E+03  0.25500000920E-02 0.  1.
        2   -1    0    0  501    0  0.00000000000E+00  0.00000000000E+00 -0.63687924270E+03  0.63687924271E+03  0.25500000920E-02 0. -1.
    10030    2    1    2    0    0  0.00000000000E+00  0.00000000000E+00 -0.48208659638E+03  0.79167188906E+03  0.62796249372E+03 0.  0.
        4    1    3    3  502    0 -0.14964104105E+03  0.27053263882E+03 -0.17196594075E+03  0.35377146226E+03  0.12699999809E+01 0.  1.
       -4    1    3    3    0  502  0.14964104105E+03 -0.27053263882E+03 -0.31012065563E+03  0.43790042679E+03  0.12699999809E+01 0. -1.
</event>
<event>
 5   0  0.5872632E-02  0.6005553E+03  0.7818609E-02  0.9904255E-01
        2   -1    0    0  501    0  0.00000000000E+00  0.00000000000E+00  0.31258051731E+03  0.31258051732E+03  0.25500000920E-02 0. -1.
       -2   -1    0    0    0  501  0.00000000000E+00  0.00000000000E+00 -0.28845901456E+03  0.28845901457E+03  0.25500000920E-02 0.  1.
    10030    2    1    2    0    0  0.00000000000E+00  0.00000000000E+00  0.24121502746E+02  0.60103953189E+03  0.60055530303E+03 0.  0.
        1    1    3    3  502    0  0.42489867449E+02  0.44102422541E+02 -0.28214269324E+03  0.28871250732E+03  0.50400001928E-02 0.  1.
       -1    1    3    3    0  502 -0.42489867449E+02 -0.44102422541E+02  0.30626419598E+03  0.31232702457E+03  0.50400001928E-02 0. -1.
</event>
<event>
 5   0  0.5999117E-02  0.6264778E+03  0.7818609E-02  0.9851946E-01
        2   -1    0    0  501    0  0.00000000000E+00  0.00000000000E+00  0.92422394145E+03  0.92422394146E+03  0.25500000920E-02 0. -1.
       -2   -1    0    0    0  501  0.00000000000E+00  0.00000000000E+00 -0.10616324954E+03  0.10616324957E+03  0.25500000920E-02 0.  1.
    10030    2    1    2    0    0  0.00000000000E+00  0.00000000000E+00  0.81806069192E+03  0.10303871910E+04  0.62647782704E+03 0.  0.
        5    1    3    3  502    0  0.25145418656E+03  0.17906714672E+03  0.32196402407E+03  0.44606857519E+03  0.46999998093E+01 0. -1.
       -5    1    3    3    0  502 -0.25145418656E+03 -0.17906714672E+03  0.49609666784E+03  0.58431861584E+03  0.46999998093E+01 0.  1.
</event>
<event>
 5   0  0.6007360E-02  0.5949945E+03  0.7818609E-02  0.9915846E-01
       -2   -1    0    0    0  501  0.00000000000E+00  0.00000000000E+00  0.33524001328E+03  0.33524001329E+03  0.25500000920E-02 0.  1.
        2   -1    0    0  501    0  0.00000000000E+00  0.00000000000E+00 -0.26400369099E+03  0.26400369100E+03  0.25500000920E-02 0. -1.
    10030    2    1    2    0    0  0.00000000000E+00  0.00000000000E+00  0.71236322293E+02  0.59924370429E+03  0.59499445671E+03 0.  0.
        4    1    3    3  502    0  0.16572359807E+03 -0.12820692474E+03 -0.17708114781E+03  0.27433678630E+03  0.12699999809E+01 0. -1.
       -4    1    3    3    0  502 -0.16572359807E+03  0.12820692474E+03  0.24831747010E+03  0.32490691800E+03  0.12699999809E+01 0.  1.
</event>
<event>
 5   0  0.5755078E-02  0.5997502E+03  0.7818609E-02  0.9905924E-01
        2   -1    0    0  501    0  0.00000000000E+00  0.00000000000E+00  0.13587923769E+04  0.13587923769E+04  0.25500000920E-02 0.  1.
       -2   -1    0    0    0  501  0.00000000000E+00  0.00000000000E+00 -0.66180152909E+02  0.66180152958E+02  0.25500000920E-02 0. -1.
    10030    2    1    2    0    0  0.00000000000E+00  0.00000000000E+00  0.12926122240E+04  0.14249725298E+04  0.59975023905E+03 0.  0.
        2    1    3    3  502    0  0.96654293749E+02 -0.10203339735E+03  0.16917801499E+02  0.14155945284E+03  0.25500000920E-02 0. -1.
       -2    1    3    3    0  502 -0.96654293749E+02  0.10203339735E+03  0.12756944225E+04  0.12834130770E+04  0.25500000920E-02 0.  1.
</event>
<event>
 5   0  0.5999117E-02  0.5932721E+03  0.7818609E-02  0.9919464E-01
       -2   -1    0    0    0  501  0.00000000000E+00  0.00000000000E+00  0.37076421426E+03  0.37076421427E+03  0.25500000920E-02 0. -1.
        2   -1    0    0  501    0  0.00000000000E+00  0.00000000000E+00 -0.23732854980E+03  0.23732854981E+03  0.25500000920E-02 0.  1.
    10030    2    1    2    0    0  0.00000000000E+00  0.00000000000E+00  0.13343566446E+03  0.60809276409E+03  0.59327205664E+03 0.  0.
        5    1    3    3  502    0 -0.21773629950E+03 -0.19920709516E+03  0.97093969117E+02  0.31071191113E+03  0.46999998093E+01 0.  1.
       -5    1    3    3    0  502  0.21773629950E+03  0.19920709516E+03  0.36341695347E+02  0.29738085295E+03  0.46999998093E+01 0. -1.
</event>
<event>
 5   0  0.5999117E-02  0.6034008E+03  0.7818609E-02  0.9898375E-01
       -2   -1    0    0    0  501  0.00000000000E+00  0.00000000000E+00  0.53923354057E+02  0.53923354118E+02  0.25500000920E-02 0.  1.
        2   -1    0    0  501    0  0.00000000000E+00  0.00000000000E+00 -0.16880096955E+04  0.16880096955E+04  0.25500000920E-02 0. -1.
    10030    2    1    2    0    0  0.00000000000E+00  0.00000000000E+00 -0.16340863415E+04  0.17419330497E+04  0.60340084361E+03 0.  0.
        5    1    3    3  502    0  0.10930959409E+02 -0.30127096135E+03 -0.84831952400E+03  0.90030649383E+03  0.46999998093E+01 0. -1.
       -5    1    3    3    0  502 -0.10930959409E+02  0.30127096135E+03 -0.78576681748E+03  0.84162655583E+03  0.46999998093E+01 0.  1.
</event>
<event>
 5   0  0.2388000E-02  0.6006908E+03  0.7818609E-02  0.9903974E-01
       -4   -1    0    0    0  501  0.00000000000E+00  0.00000000000E+00  0.16694473566E+03  0.16694956624E+03  0.12699999809E+01 0. -1.
        4   -1    0    0  501    0  0.00000000000E+00  0.00000000000E+00 -0.54032930713E+03  0.54033079964E+03  0.12699999809E+01 0.  1.
    10030    2    1    2    0    0  0.00000000000E+00  0.00000000000E+00 -0.37338457146E+03  0.70728036588E+03  0.60069083375E+03 0.  0.
        3    1    3    3  502    0  0.61457246385E+02 -0.95005706908E+02 -0.51427659371E+03  0.52657715724E+03  0.10100000352E+00 0.  1.
       -3    1    3    3    0  502 -0.61457246385E+02  0.95005706908E+02  0.14089202225E+03  0.18070320864E+03  0.10100000352E+00 0. -1.
</event>
<event>
 5   0  0.2388000E-02  0.6004335E+03  0.7818609E-02  0.9904507E-01
        4   -1    0    0  501    0  0.00000000000E+00  0.00000000000E+00  0.39112943616E+03  0.39113149800E+03  0.12699999809E+01 0.  1.
       -4   -1    0    0    0  501  0.00000000000E+00  0.00000000000E+00 -0.23043105129E+03  0.23043455101E+03  0.12699999809E+01 0. -1.
    10030    2    1    2    0    0  0.00000000000E+00  0.00000000000E+00  0.16069838487E+03  0.62156604902E+03  0.60043349539E+03 0.  0.
        5    1    3    3  502    0  0.80355749468E+02 -0.13996109624E+03 -0.18166336935E+03  0.24304284539E+03  0.46999998093E+01 0. -1.
       -5    1    3    3    0  502 -0.80355749468E+02  0.13996109624E+03  0.34236175422E+03  0.37852320363E+03  0.46999998093E+01 0.  1.
</event>
<event>
 5   0  0.2388000E-02  0.6031689E+03  0.7818609E-02  0.9898853E-01
       -4   -1    0    0    0  501  0.00000000000E+00  0.00000000000E+00  0.92136339010E+03  0.92136426538E+03  0.12699999809E+01 0.  1.
        4   -1    0    0  501    0  0.00000000000E+00  0.00000000000E+00 -0.98710848370E+02  0.98719017853E+02  0.12699999809E+01 0. -1.
    10030    2    1    2    0    0  0.00000000000E+00  0.00000000000E+00  0.82265254173E+03  0.10200832832E+04  0.60316888208E+03 0.  0.
        2    1    3    3  502    0  0.19726424298E+02 -0.11987694861E+03 -0.55500589686E+02  0.13356620114E+03  0.25500000920E-02 0. -1.
       -2    1    3    3    0  502 -0.19726424298E+02  0.11987694861E+03  0.87815313142E+03  0.88651708210E+03  0.25500000920E-02 0.  1.
</event>
<event>
 5   0  0.3640827E-02  0.6004552E+03  0.7818609E-02  0.9904462E-01
        1   -1    0    0  501    0  0.00000000000E+00  0.00000000000E+00  0.32996616961E+03  0.32996616965E+03  0.50400001928E-02 0. -1.
       -1   -1    0    0    0  501  0.00000000000E+00  0.00000000000E+00 -0.27316927102E+03  0.27316927107E+03  0.50400001928E-02 0.  1.
    10030    2    1    2    0    0  0.00000000000E+00  0.00000000000E+00  0.56796898591E+02  0.60313544072E+03  0.60045522078E+03 0.  0.
        3    1    3    3  502    0 -0.99176642991E+02 -0.21553975190E+03  0.21318486464E+03  0.31896894500E+03  0.10100000352E+00 0. -1.
       -3    1    3    3    0  502  0.99176642991E+02  0.21553975190E+03 -0.15638796605E+03  0.28416649572E+03  0.10100000352E+00 0.  1.
</event>
<event>
 5   0  0.5935451E-02  0.5950102E+03  0.7818609E-02  0.9915813E-01
       -2   -1    0    0    0  501  0.00000000000E+00  0.00000000000E+00  0.95354638629E+02  0.95354638663E+02  0.25500000920E-02 0.  1.
        2   -1    0    0  501    0  0.00000000000E+00  0.00000000000E+00 -0.92821172480E+03  0.92821172480E+03  0.25500000920E-02 0. -1.
    10030    2    1    2    0    0  0.00000000000E+00  0.00000000000E+00 -0.83285708617E+03  0.10235663635E+04  0.59501023053E+03 0.  0.
        3    1    3    3  502    0  0.14761026847E+03  0.17195192080E+03 -0.84848269304E+02  0.24198242380E+03  0.10100000352E+00 0.  1.
       -3    1    3    3    0  502 -0.14761026847E+03 -0.17195192080E+03 -0.74800881687E+03  0.78158393966E+03  0.10100000352E+00 0. -1.
</event>
<event>
 5   0  0.3651984E-02  0.6034904E+03  0.7818609E-02  0.9898191E-01
        1   -1    0    0  501    0  0.00000000000E+00  0.00000000000E+00  0.80350041191E+03  0.80350041192E+03  0.50400001928E-02 0. -1.
       -1   -1    0    0    0  501  0.00000000000E+00  0.00000000000E+00 -0.11331689841E+03  0.11331689852E+03  0.50400001928E-02 0.  1.
    10030    2    1    2    0    0  0.00000000000E+00  0.00000000000E+00  0.69018351350E+03  0.91681731044E+03  0.60349042943E+03 0.  0.
        1    1    3    3  502    0 -0.75968525816E+02 -0.20154659112E+03  0.66613365029E+03  0.70009019803E+03  0.50400001928E-02 0. -1.
       -1    1    3    3    0  502  0.75968525816E+02  0.20154659112E+03  0.24049863207E+02  0.21672711241E+03  0.50400001928E-02 0.  1.
</event>
<event>
 5   0  0.3767635E-02  0.6028345E+03  0.7818609E-02  0.9899543E-01
        1   -1    0    0  501    0  0.00000000000E+00  0.00000000000E+00  0.39517250840E+03  0.39517250844E+03  0.50400001928E-02 0.  1.
       -1   -1    0    0    0  501  0.00000000000E+00  0.00000000000E+00 -0.22990556058E+03  0.22990556063E+03  0.50400001928E-02 0. -1.
    10030    2    1    2    0    0  0.00000000000E+00  0.00000000000E+00  0.16526694782E+03  0.62507806907E+03  0.60283449502E+03 0.  0.
        2    1    3    3  502    0  0.94640391904E+02 -0.18321669190E+03 -0.14531252338E+03  0.25227145980E+03  0.25500000920E-02 0. -1.
       -2    1    3    3    0  502 -0.94640391904E+02  0.18321669190E+03  0.31057947121E+03  0.37280660927E+03  0.25500000920E-02 0.  1.
</event>
<event>
 5   0  0.3703280E-02  0.5963724E+03  0.7818609E-02  0.9912961E-01
       -1   -1    0    0    0  501  0.00000000000E+00  0.00000000000E+00  0.10935432131E+04  0.10935432131E+04  0.50400001928E-02 0. -1.
        1   -1    0    0  501    0  0.00000000000E+00  0.00000000000E+00 -0.81309085657E+02  0.81309085813E+02  0.50400001928E-02 0.  1.
    10030    2    1    2    0    0  0.00000000000E+00  0.00000000000E+00  0.10122341275E+04  0.11748522990E+04  0.59637236316E+03 0.  0.
        5    1    3    3  502    0 -0.14971896573E+03  0.10992512863E+03  0.46665548234E+02  0.19157000286E+03  0.46999998093E+01 0.  1.
       -5    1    3    3    0  502  0.14971896573E+03 -0.10992512863E+03  0.96556857924E+03  0.98328229610E+03  0.46999998093E+01 0. -1.
</event>
<event>
 5   0  0.5755078E-02  0.5998394E+03  0.7818609E-02  0.9905739E-01
        2   -1    0    0  501    0  0.00000000000E+00  0.00000000000E+00  0.89629666015E+03  0.89629666015E+03  0.25500000920E-02 0. -1.
       -2   -1    0    0    0  501  0.00000000000E+00  0.00000000000E+00 -0.10035944481E+03  0.10035944485E+03  0.25500000920E-02 0.  1.
    10030    2    1    2    0    0  0.00000000000E+00  0.00000000000E+00  0.79593721533E+03  0.99665610500E+03  0.59983942925E+03 0.  0.
        2    1    3    3  502    0 -0.19224303558E+01  0.27688851543E+03  0.20648839411E+03  0.34541048424E+03  0.25500000920E-02 0.  1.
       -2    1    3    3    0  502  0.19224303558E+01 -0.27688851543E+03  0.58944882122E+03  0.65124562076E+03  0.25500000920E-02 0. -1.
</event>
<event>
 5   0  0.6007360E-02  0.6266391E+03  0.7818609E-02  0.9851629E-01
       -2   -1    0    0    0  501  0.00000000000E+00  0.00000000000E+00  0.38596320540E+03  0.38596320541E+03  0.25500000920E-02 0. -1.
        2   -1    0    0  501    0  0.00000000000E+00  0.00000000000E+00 -0.25434842868E+03  0.25434842870E+03  0.25500000920E-02 0.  1.
    10030    2    1    2    0    0  0.00000000000E+00  0.00000000000E+00  0.13161477671E+03  0.64031163411E+03  0.62663908218E+03 0.  0.
        4    1    3    3  502    0  0.28331962264E+03 -0.11340465975E+02 -0.70401131887E+02  0.29215842793E+03  0.12699999809E+01 0.  1.
       -4    1    3    3    0  502 -0.28331962264E+03  0.11340465975E+02  0.20201590860E+03  0.34815320617E+03  0.12699999809E+01 0. -1.
</event>
<event>
 5   0  0.3640827E-02  0.5985314E+03  0.7818609E-02  0.9908458E-01
       -1   -1    0    0    0  501  0.00000000000E+00  0.00000000000E+00  0.57686382683E+02  0.57686382904E+02  0.50400001928E-02 0.  1.
        1   -1    0    0  501    0  0.00000000000E+00  0.00000000000E+00 -0.15525320143E+04  0.15525320143E+04  0.50400001928E-02 0. -1.
    10030    2    1    2    0    0  0.00000000000E+00  0.00000000000E+00 -0.14948456316E+04  0.16102183972E+04  0.59853138962E+03 0.  0.
        3    1    3    3  502    0 -0.93046674464E+02 -0.23977709889E+03 -0.11590378094E+04  0.11872318200E+04  0.10100000352E+00 0. -1.
       -3    1    3    3    0  502  0.93046674464E+02  0.23977709889E+03 -0.33580782226E+03  0.42298657718E+03  0.10100000352E+00 0.  1.
</event>
<event>
 5   0  0.5755078E-02  0.6000038E+03  0.7818609E-02  0.9905398E-01
        2   -1    0    0  501    0  0.00000000000E+00  0.00000000000E+00  0.56523110795E+03  0.56523110795E+03  0.25500000920E-02 0. -1.
       -2   -1    0    0    0  501  0.00000000000E+00  0.00000000000E+00 -0.15922890083E+03  0.15922890085E+03  0.25500000920E-02 0.  1.
    10030    2    1    2    0    0  0.00000000000E+00  0.00000000000E+00  0.40600220711E+03  0.72446000881E+03  0.60000376014E+03 0.  0.
        2    1    3    3  502    0 -0.24166542926E+03  0.13927233123E+03  0.69624728180E+02  0.28748315555E+03  0.25500000920E-02 0.  1.
       -2    1    3    3    0  502  0.24166542926E+03 -0.13927233123E+03  0.33637747893E+03  0.43697685326E+03  0.25500000920E-02 0. -1.
</event>
<event>
 5   0  0.3703280E-02  0.6050637E+03  0.7818609E-02  0.9894956E-01
        1   -1    0    0  501    0  0.00000000000E+00  0.00000000000E+00  0.14748057225E+04  0.14748057225E+04  0.50400001928E-02 0. -1.
       -1   -1    0    0    0  501  0.00000000000E+00  0.00000000000E+00 -0.62059377979E+02  0.62059378183E+02  0.50400001928E-02 0.  1.
    10030    2    1    2    0    0  0.00000000000E+00  0.00000000000E+00  0.14127463445E+04  0.15368651007E+04  0.60506371876E+03 0.  0.
        5    1    3    3  502    0 -0.13600079487E+03 -0.21815774400E+03  0.11112982971E+04  0.11406555188E+04  0.46999998093E+01 0. -1.
       -5    1    3    3    0  502  0.13600079487E+03  0.21815774400E+03  0.30144804740E+03  0.39620958185E+03  0.46999998093E+01 0.  1.
</event>
<event>
 5   0  0.2388000E-02  0.6025470E+03  0.7818609E-02  0.9900136E-01
        3   -1    0    0  501    0  0.00000000000E+00  0.00000000000E+00  0.84029531640E+02  0.84029592339E+02  0.10100000352E+00 0.  1.
       -3   -1    0    0    0  501  0.00000000000E+00  0.00000000000E+00 -0.10801642382E+04  0.10801642429E+04  0.10100000352E+00 0. -1.
    10030    2    1    2    0    0  0.00000000000E+00  0.00000000000E+00 -0.99613470652E+03  0.11641938352E+04  0.60254703753E+03 0.  0.
        2    1    3    3  502    0  0.49232433923E+02 -0.25521392065E+03 -0.20372625389E+03  0.33024591500E+03  0.25500000920E-02 0.  1.
       -2    1    3    3    0  502 -0.49232433923E+02  0.25521392065E+03 -0.79240845263E+03  0.83394792023E+03  0.25500000920E-02 0. -1.
</event>
<event>
 5   0  0.3478183E-02  0.6083567E+03  0.7818609E-02  0.9888219E-01
       -1   -1    0    0    0  501  0.00000000000E+00  0.00000000000E+00  0.39697318859E+03  0.39697318862E+03  0.50400001928E-02 0.  1.
        1   -1    0    0  501    0  0.00000000000E+00  0.00000000000E+00 -0.23307486074E+03  0.23307486080E+03  0.50400001928E-02 0. -1.
    10030    2    1    2    0    0  0.00000000000E+00  0.00000000000E+00  0.16389832785E+03  0.63004804942E+03  0.60835670680E+03 0.  0.
        4    1    3    3  502    0  0.19366454832E+03  0.23434646711E+03  0.71663593690E+02  0.31234837519E+03  0.12699999809E+01 0. -1.
       -4    1    3    3    0  502 -0.19366454832E+03 -0.23434646711E+03  0.92234734157E+02  0.31769967423E+03  0.12699999809E+01 0.  1.
</event>
<event>
 5   0  0.3767635E-02  0.5999746E+03  0.7818609E-02  0.9905459E-01
        1   -1    0    0  501    0  0.00000000000E+00  0.00000000000E+00  0.12664918913E+04  0.12664918913E+04  0.50400001928E-02 0. -1.
       -1   -1    0    0    0  501  0.00000000000E+00  0.00000000000E+00 -0.71056429462E+02  0.71056429640E+02  0.50400001928E-02 0.  1.
    10030    2    1    2    0    0  0.00000000000E+00  0.00000000000E+00  0.11954354618E+04  0.13375483209E+04  0.59997463900E+03 0.  0.
        2    1    3    3  502    0  0.18054584315E+03 -0.21549125614E+03  0.36433742284E+03  0.46019022223E+03  0.25500000920E-02 0. -1.
       -2    1    3    3    0  502 -0.18054584315E+03  0.21549125614E+03  0.83109803895E+03  0.87735809867E+03  0.25500000920E-02 0.  1.
</event>
<event>
 5   0  0.3703280E-02  0.6007476E+03  0.7818609E-02  0.9903856E-01
        1   -1    0    0  501    0  0.00000000000E+00  0.00000000000E+00  0.63316824042E+03  0.63316824044E+03  0.50400001928E-02 0.  1.
       -1   -1    0    0    0  501  0.00000000000E+00  0.00000000000E+00 -0.14249677083E+03  0.14249677092E+03  0.50400001928E-02 0. -1.
    10030    2    1    2    0    0  0.00000000000E+00  0.00000000000E+00  0.49067146959E+03  0.77566501136E+03  0.60074763320E+03 0.  0.
        5    1    3    3  502    0  0.98026390351E+02  0.34204567219E+02 -0.11854231823E+03  0.15764991860E+03  0.46999998093E+01 0. -1.
       -5    1    3    3    0  502 -0.98026390351E+02 -0.34204567219E+02  0.60921378782E+03  0.61801509277E+03  0.46999998093E+01 0.  1.
</event>
<event>
 5   0  0.3651984E-02  0.6033820E+03  0.7818609E-02  0.9898414E-01
        1   -1    0    0  501    0  0.00000000000E+00  0.00000000000E+00  0.40731899267E+03  0.40731899270E+03  0.50400001928E-02 0.  1.
       -1   -1    0    0    0  501  0.00000000000E+00  0.00000000000E+00 -0.22345501187E+03  0.22345501193E+03  0.50400001928E-02 0. -1.
    10030    2    1    2    0    0  0.00000000000E+00  0.00000000000E+00  0.18386398080E+03  0.63077400463E+03  0.60338203610E+03 0.  0.
        1    1    3    3  502    0  0.79131798108E+02 -0.27719870547E+03  0.18494596414E+03  0.34249959630E+03  0.50400001928E-02 0.  1.
       -1    1    3    3    0  502 -0.79131798108E+02  0.27719870547E+03 -0.10819833365E+01  0.28827440834E+03  0.50400001928E-02 0. -1.
</event>
<event>
 5   0  0.5935451E-02  0.5959987E+03  0.7818609E-02  0.9913742E-01
       -2   -1    0    0    0  501  0.00000000000E+00  0.00000000000E+00  0.28689671079E+03  0.28689671080E+03  0.25500000920E-02 0. -1.
        2   -1    0    0  501    0  0.00000000000E+00  0.00000000000E+00 -0.30953162587E+03  0.30953162588E+03  0.25500000920E-02 0.  1.
    10030    2    1    2    0    0  0.00000000000E+00  0.00000000000E+00 -0.22634915082E+02  0.59642833668E+03  0.59599867569E+03 0.  0.
        3    1    3    3  502    0  0.62051576679E+02  0.18519377953E+03  0.21391469994E+03  0.28966643437E+03  0.10100000352E+00 0. -1.
       -3    1    3    3    0  502 -0.62051576679E+02 -0.18519377953E+03 -0.23654961502E+03  0.30676190232E+03  0.10100000352E+00 0.  1.
</event>
<event>
 5   0  0.5935451E-02  0.5987464E+03  0.7818609E-02  0.9908010E-01
        2   -1    0    0  501    0  0.00000000000E+00  0.00000000000E+00  0.97593002977E+03  0.97593002977E+03  0.25500000920E-02 0. -1.
       -2   -1    0    0    0  501  0.00000000000E+00  0.00000000000E+00 -0.91834785954E+02  0.91834785989E+02  0.25500000920E-02 0.  1.
    10030    2    1    2    0    0  0.00000000000E+00  0.00000000000E+00  0.88409524381E+03  0.10677648158E+04  0.59874644186E+03 0.  0.
        3    1    3    3  502    0  0.22850578935E+03 -0.17831061987E+03  0.30841958937E+03  0.42324015196E+03  0.10100000352E+00 0.  1.
       -3    1    3    3    0  502 -0.22850578935E+03  0.17831061987E+03  0.57567565444E+03  0.64452466379E+03  0.10100000352E+00 0. -1.
</event>
<event>
 5   0  0.3703280E-02  0.5952275E+03  0.7818609E-02  0.9915357E-01
       -1   -1    0    0    0  501  0.00000000000E+00  0.00000000000E+00  0.29814768361E+03  0.29814768365E+03  0.50400001928E-02 0.  1.
        1   -1    0    0  501    0  0.00000000000E+00  0.00000000000E+00 -0.29708073761E+03  0.29708073766E+03  0.50400001928E-02 0. -1.
    10030    2    1    2    0    0  0.00000000000E+00  0.00000000000E+00  0.10669459949E+01  0.59522842131E+03  0.59522746506E+03 0.  0.
        5    1    3    3  502    0  0.26595806169E+03 -0.10413159059E+03 -0.82981720013E+02  0.29746450980E+03  0.46999998093E+01 0. -1.
       -5    1    3    3    0  502 -0.26595806169E+03  0.10413159059E+03  0.84048666008E+02  0.29776391150E+03  0.46999998093E+01 0.  1.
</event>
<event>
 5   0  0.3651984E-02  0.5990950E+03  0.7818609E-02  0.9907285E-01
        1   -1    0    0  501    0  0.00000000000E+00  0.00000000000E+00  0.53021687878E+03  0.53021687880E+03  0.50400001928E-02 0. -1.
       -1   -1    0    0    0  501  0.00000000000E+00  0.00000000000E+00 -0.16923019741E+03  0.16923019749E+03  0.50400001928E-02 0.  1.
    10030    2    1    2    0    0  0.00000000000E+00  0.00000000000E+00  0.36098668137E+03  0.69944707629E+03  0.59909500783E+03 0.  0.
        1    1    3    3  502    0 -0.18214029440E+03 -0.23776668507E+03  0.18579537446E+03  0.35245993328E+03  0.50400001928E-02 0.  1.
       -1    1    3    3    0  502  0.18214029440E+03  0.23776668507E+03  0.17519130690E+03  0.34698714301E+03  0.50400001928E-02 0. -1.
</event>
<event>
 5   0  0.3640827E-02  0.5980906E+03  0.7818609E-02  0.9909375E-01
        1   -1    0    0  501    0  0.00000000000E+00  0.00000000000E+00  0.62380535775E+03  0.62380535777E+03  0.50400001928E-02 0.  1.
       -1   -1    0    0    0  501  0.00000000000E+00  0.00000000000E+00 -0.14335897184E+03  0.14335897193E+03  0.50400001928E-02 0. -1.
    10030    2    1    2    0    0  0.00000000000E+00  0.00000000000E+00  0.48044638592E+03  0.76716432970E+03  0.59809061105E+03 0.  0.
        3    1    3    3  502    0 -0.26430386018E+03  0.13988689499E+03  0.24252155628E+03  0.38502154401E+03  0.10100000352E+00 0. -1.
       -3    1    3    3    0  502  0.26430386018E+03 -0.13988689499E+03  0.23792482964E+03  0.38214278569E+03  0.10100000352E+00 0.  1.
</event>
<event>
 5   0  0.5755078E-02  0.5817535E+03  0.7818609E-02  0.9944002E-01
        2   -1    0    0  501    0  0.00000000000E+00  0.00000000000E+00  0.63857182985E+03  0.63857182985E+03  0.25500000920E-02 0. -1.
       -2   -1    0    0    0  501  0.00000000000E+00  0.00000000000E+00 -0.13249767212E+03  0.13249767214E+03  0.25500000920E-02 0.  1.
    10030    2    1    2    0    0  0.00000000000E+00  0.00000000000E+00  0.50607415773E+03  0.77106950199E+03  0.58175349056E+03 0.  0.
        2    1    3    3  502    0 -0.68126657472E+02 -0.14859964877E+03  0.57192787736E+03  0.59483156774E+03  0.25500000920E-02 0. -1.
       -2    1    3    3    0  502  0.68126657472E+02  0.14859964877E+03 -0.65853719633E+02  0.17623793425E+03  0.25500000920E-02 0.  1.
</event>
<event>
 5   0  0.5755078E-02  0.5971267E+03  0.7818609E-02  0.9911385E-01
        2   -1    0    0  501    0  0.00000000000E+00  0.00000000000E+00  0.22009801760E+04  0.22009801760E+04  0.25500000920E-02 0.  1.
       -2   -1    0    0    0  501  0.00000000000E+00  0.00000000000E+00 -0.40500169282E+02  0.40500169362E+02  0.25500000920E-02 0. -1.
    10030    2    1    2    0    0  0.00000000000E+00  0.00000000000E+00  0.21604800068E+04  0.22414803454E+04  0.59712668608E+03 0.  0.
        2    1    3    3  502    0 -0.91714061724E+02 -0.94410259763E-01  0.21467922696E+04  0.21487504571E+04  0.25500000920E-02 0.  1.
       -2    1    3    3    0  502  0.91714061724E+02  0.94410259763E-01  0.13687737157E+02  0.92729888312E+02  0.25500000920E-02 0. -1.
</event>
<event>
 5   0  0.3478183E-02  0.6012723E+03  0.7818609E-02  0.9902770E-01
       -1   -1    0    0    0  501  0.00000000000E+00  0.00000000000E+00  0.45430755019E+02  0.45430755298E+02  0.50400001928E-02 0. -1.
        1   -1    0    0  501    0  0.00000000000E+00  0.00000000000E+00 -0.19894472976E+04  0.19894472976E+04  0.50400001928E-02 0.  1.
    10030    2    1    2    0    0  0.00000000000E+00  0.00000000000E+00 -0.19440165426E+04  0.20348780529E+04  0.60127229470E+03 0.  0.
        4    1    3    3  502    0 -0.18912040242E+03 -0.15472117603E+03 -0.37927175419E+03  0.45116941978E+03  0.12699999809E+01 0. -1.
       -4    1    3    3    0  502  0.18912040242E+03  0.15472117603E+03 -0.15647447884E+04  0.15837086332E+04  0.12699999809E+01 0.  1.
</event>
<event>
 5   0  0.5872632E-02  0.5934482E+03  0.7818609E-02  0.9919093E-01
        2   -1    0    0  501    0  0.00000000000E+00  0.00000000000E+00  0.14829538845E+04  0.14829538845E+04  0.25500000920E-02 0. -1.
       -2   -1    0    0    0  501  0.00000000000E+00  0.00000000000E+00 -0.59371503868E+02  0.59371503923E+02  0.25500000920E-02 0.  1.
    10030    2    1    2    0    0  0.00000000000E+00  0.00000000000E+00  0.14235823806E+04  0.15423253884E+04  0.59344823644E+03 0.  0.
        1    1    3    3  502    0 -0.15330875056E+03  0.78113948884E+02  0.13400631457E+04  0.13510642459E+04  0.50400001928E-02 0. -1.
       -1    1    3    3    0  502  0.15330875056E+03 -0.78113948884E+02  0.83519234881E+02  0.19126114249E+03  0.50400001928E-02 0.  1.
</event>
<event>
 5   0  0.3703280E-02  0.5980930E+03  0.7818609E-02  0.9909370E-01
       -1   -1    0    0    0  501  0.00000000000E+00  0.00000000000E+00  0.79487258648E+03  0.79487258650E+03  0.50400001928E-02 0.  1.
        1   -1    0    0  501    0  0.00000000000E+00  0.00000000000E+00 -0.11250709791E+03  0.11250709803E+03  0.50400001928E-02 0. -1.
    10030    2    1    2    0    0  0.00000000000E+00  0.00000000000E+00  0.68236548857E+03  0.90737968452E+03  0.59809299603E+03 0.  0.
        5    1    3    3  502    0 -0.16518834933E+03 -0.21343272741E+03  0.14591561640E+03  0.30684552627E+03  0.46999998093E+01 0. -1.
       -5    1    3    3    0  502  0.16518834933E+03  0.21343272741E+03  0.53644987216E+03  0.60053415825E+03  0.46999998093E+01 0.  1.
</event>
<event>
 5   0  0.5999117E-02  0.5989892E+03  0.7818609E-02  0.9907505E-01
        2   -1    0    0  501    0  0.00000000000E+00  0.00000000000E+00  0.56594969224E+03  0.56594969224E+03  0.25500000920E-02 0.  1.
       -2   -1    0    0    0  501  0.00000000000E+00  0.00000000000E+00 -0.15848936940E+03  0.15848936942E+03  0.25500000920E-02 0. -1.
    10030    2    1    2    0    0  0.00000000000E+00  0.00000000000E+00  0.40746032283E+03  0.72443906166E+03  0.59898918136E+03 0.  0.
        5    1    3    3  502    0 -0.15977619112E+03  0.85058437085E+01 -0.10241279453E+03  0.19002960587E+03  0.46999998093E+01 0. -1.
       -5    1    3    3    0  502  0.15977619112E+03 -0.85058437085E+01  0.50987311737E+03  0.53440945579E+03  0.46999998093E+01 0.  1.
</event>
<event>
 5   0  0.5999117E-02  0.6939041E+03  0.7818609E-02  0.9727714E-01
        2   -1    0    0  501    0  0.00000000000E+00  0.00000000000E+00  0.84292536869E+03  0.84292536869E+03  0.25500000920E-02 0.  1.
       -2   -1    0    0    0  501  0.00000000000E+00  0.00000000000E+00 -0.14280707791E+03  0.14280707794E+03  0.25500000920E-02 0. -1.
    10030    2    1    2    0    0  0.00000000000E+00  0.00000000000E+00  0.70011829078E+03  0.98573244663E+03  0.69390405335E+03 0.  0.
        5    1    3    3  502    0 -0.25033458449E+02  0.16249136268E+03 -0.83906291044E+02  0.18464147059E+03  0.46999998093E+01 0. -1.
       -5    1    3    3    0  502  0.25033458449E+02 -0.16249136268E+03  0.78402458182E+03  0.80109097604E+03  0.46999998093E+01 0.  1.
</event>
<event>
 5   0  0.2388000E-02  0.6065949E+03  0.7818609E-02  0.9891817E-01
        3   -1    0    0  501    0  0.00000000000E+00  0.00000000000E+00  0.12770308529E+03  0.12770312523E+03  0.10100000352E+00 0. -1.
       -3   -1    0    0    0  501  0.00000000000E+00  0.00000000000E+00 -0.72033756096E+03  0.72033756804E+03  0.10100000352E+00 0.  1.
    10030    2    1    2    0    0  0.00000000000E+00  0.00000000000E+00 -0.59263447567E+03  0.84804069327E+03  0.60659491894E+03 0.  0.
        1    1    3    3  502    0 -0.23228644684E+03 -0.35061678478E+02 -0.56451783280E+03  0.61144639851E+03  0.50400001928E-02 0.  1.
       -1    1    3    3    0  502  0.23228644684E+03  0.35061678478E+02 -0.28116642878E+02  0.23659429476E+03  0.50400001928E-02 0. -1.
</event>
<event>
 5   0  0.5755078E-02  0.6079586E+03  0.7818609E-02  0.9889031E-01
       -2   -1    0    0    0  501  0.00000000000E+00  0.00000000000E+00  0.23563368663E+03  0.23563368665E+03  0.25500000920E-02 0.  1.
        2   -1    0    0  501    0  0.00000000000E+00  0.00000000000E+00 -0.39214853339E+03  0.39214853340E+03  0.25500000920E-02 0. -1.
    10030    2    1    2    0    0  0.00000000000E+00  0.00000000000E+00 -0.15651484676E+03  0.62778222005E+03  0.60795856647E+03 0.  0.
        2    1    3    3  502    0 -0.14517384163E+03  0.30632458829E+02  0.19570393907E+03  0.24558872857E+03  0.25500000920E-02 0.  1.
       -2    1    3    3    0  502  0.14517384163E+03 -0.30632458829E+02 -0.35221878583E+03  0.38219349147E+03  0.25500000920E-02 0. -1.
</event>
<event>
 5   0  0.3703280E-02  0.5939890E+03  0.7818609E-02  0.9917956E-01
       -1   -1    0    0    0  501  0.00000000000E+00  0.00000000000E+00  0.71734465181E+03  0.71734465182E+03  0.50400001928E-02 0.  1.
        1   -1    0    0  501    0  0.00000000000E+00  0.00000000000E+00 -0.12296145018E+03  0.12296145028E+03  0.50400001928E-02 0. -1.
    10030    2    1    2    0    0  0.00000000000E+00  0.00000000000E+00  0.59438320163E+03  0.84030610210E+03  0.59398901914E+03 0.  0.
        5    1    3    3  502    0 -0.22853086945E+02  0.50073042352E+01 -0.12160307076E+03  0.12392228813E+03  0.46999998093E+01 0. -1.
       -5    1    3    3    0  502  0.22853086945E+02 -0.50073042352E+01  0.71598627239E+03  0.71638381398E+03  0.46999998093E+01 0.  1.
</event>
<event>
 5   0  0.5935451E-02  0.6269163E+03  0.7818609E-02  0.9851085E-01
       -2   -1    0    0    0  501  0.00000000000E+00  0.00000000000E+00  0.82646955121E+02  0.82646955160E+02  0.25500000920E-02 0.  1.
        2   -1    0    0  501    0  0.00000000000E+00  0.00000000000E+00 -0.11888644328E+04  0.11888644328E+04  0.25500000920E-02 0. -1.
    10030    2    1    2    0    0  0.00000000000E+00  0.00000000000E+00 -0.11062174777E+04  0.12715113880E+04  0.62691634355E+03 0.  0.
        3    1    3    3  502    0 -0.20140226745E+03  0.21022610263E+03 -0.78874787850E+03  0.84076222179E+03  0.10100000352E+00 0.  1.
       -3    1    3    3    0  502  0.20140226745E+03 -0.21022610263E+03 -0.31746959922E+03  0.43074916620E+03  0.10100000352E+00 0. -1.
</event>
<event>
 5   0  0.3640827E-02  0.6120275E+03  0.7818609E-02  0.9880762E-01
        1   -1    0    0  501    0  0.00000000000E+00  0.00000000000E+00  0.21933046537E+03  0.21933046543E+03  0.50400001928E-02 0.  1.
       -1   -1    0    0    0  501  0.00000000000E+00  0.00000000000E+00 -0.42695577309E+03  0.42695577312E+03  0.50400001928E-02 0. -1.
    10030    2    1    2    0    0  0.00000000000E+00  0.00000000000E+00 -0.20762530772E+03  0.64628623855E+03  0.61202747792E+03 0.  0.
        3    1    3    3  502    0  0.87212944644E+02 -0.91433808660E+02 -0.39812159085E+03  0.41769253092E+03  0.10100000352E+00 0. -1.
       -3    1    3    3    0  502 -0.87212944644E+02  0.91433808660E+02  0.19049628313E+03  0.22859370763E+03  0.10100000352E+00 0.  1.
</event>
<event>
 5   0  0.6007360E-02  0.5920057E+03  0.7818609E-02  0.9922132E-01
        2   -1    0    0  501    0  0.00000000000E+00  0.00000000000E+00  0.12385575204E+04  0.12385575204E+04  0.25500000920E-02 0. -1.
       -2   -1    0    0    0  501  0.00000000000E+00  0.00000000000E+00 -0.70741720466E+02  0.70741720512E+02  0.25500000920E-02 0.  1.
    10030    2    1    2    0    0  0.00000000000E+00  0.00000000000E+00  0.11678157999E+04  0.13092992409E+04  0.59200570917E+03 0.  0.
        4    1    3    3  502    0 -0.13314554321E+03 -0.20343898963E+03  0.95728050670E+03  0.98767542218E+03  0.12699999809E+01 0.  1.
       -4    1    3    3    0  502  0.13314554321E+03  0.20343898963E+03  0.21053529324E+03  0.32162381873E+03  0.12699999809E+01 0. -1.
</event>
<event>
 5   0  0.3767635E-02  0.5980135E+03  0.7818609E-02  0.9909536E-01
        1   -1    0    0  501    0  0.00000000000E+00  0.00000000000E+00  0.49988988201E+03  0.49988988204E+03  0.50400001928E-02 0.  1.
       -1   -1    0    0    0  501  0.00000000000E+00  0.00000000000E+00 -0.17884945399E+03  0.17884945406E+03  0.50400001928E-02 0. -1.
    10030    2    1    2    0    0  0.00000000000E+00  0.00000000000E+00  0.32104042802E+03  0.67873933610E+03  0.59801348642E+03 0.  0.
        2    1    3    3  502    0  0.48594039772E+02  0.15179734590E+03 -0.12661480281E+03  0.20355619180E+03  0.25500000920E-02 0. -1.
       -2    1    3    3    0  502 -0.48594039772E+02 -0.15179734590E+03  0.44765523083E+03  0.47518314429E+03  0.25500000920E-02 0.  1.
</event>
<event>
 5   0  0.3651984E-02  0.5976321E+03  0.7818609E-02  0.9910331E-01
       -1   -1    0    0    0  501  0.00000000000E+00  0.00000000000E+00  0.10998920322E+03  0.10998920334E+03  0.50400001928E-02 0.  1.
        1   -1    0    0  501    0  0.00000000000E+00  0.00000000000E+00 -0.81181638115E+03  0.81181638117E+03  0.50400001928E-02 0. -1.
    10030    2    1    2    0    0  0.00000000000E+00  0.00000000000E+00 -0.70182717793E+03  0.92180558451E+03  0.59763211757E+03 0.  0.
        1    1    3    3  502    0 -0.19770894506E+03  0.12693238529E+03 -0.66125825976E+02  0.24407638616E+03  0.50400001928E-02 0.  1.
       -1    1    3    3    0  502  0.19770894506E+03 -0.12693238529E+03 -0.63570135195E+03  0.67772919835E+03  0.50400001928E-02 0. -1.
</event>
<event>
 5   0  0.5999117E-02  0.6115108E+03  0.7818609E-02  0.9881808E-01
        2   -1    0    0  501    0  0.00000000000E+00  0.00000000000E+00  0.38298679197E+03  0.38298679198E+03  0.25500000920E-02 0.  1.
       -2   -1    0    0    0  501  0.00000000000E+00  0.00000000000E+00 -0.24409817270E+03  0.24409817271E+03  0.25500000920E-02 0. -1.
    10030    2    1    2    0    0  0.00000000000E+00  0.00000000000E+00  0.13888861927E+03  0.62708496469E+03  0.61151083749E+03 0.  0.
        5    1    3    3  502    0 -0.23603317086E+03  0.17759219127E+03 -0.11389927087E+02  0.29563907824E+03  0.46999998093E+01 0. -1.
       -5    1    3    3    0  502  0.23603317086E+03 -0.17759219127E+03  0.15027854636E+03  0.33144588644E+03  0.46999998093E+01 0.  1.
</event>
<event>
 5   0  0.3703280E-02  0.6924211E+03  0.7818609E-02  0.9730282E-01
       -1   -1    0    0    0  501  0.00000000000E+00  0.00000000000E+00  0.10747687304E+03  0.10747687316E+03  0.50400001928E-02 0. -1.
        1   -1    0    0  501    0  0.00000000000E+00  0.00000000000E+00 -0.11152328992E+04  0.11152328992E+04  0.50400001928E-02 0.  1.
    10030    2    1    2    0    0  0.00000000000E+00  0.00000000000E+00 -0.10077560261E+04  0.12227097723E+04  0.69242109961E+03 0.  0.
        5    1    3    3  502    0  0.40104099614E+02  0.21762118774E+02  0.10208734285E+03  0.11191891792E+03  0.46999998093E+01 0. -1.
       -5    1    3    3    0  502 -0.40104099614E+02 -0.21762118774E+02 -0.11098433690E+04  0.11107908544E+04  0.46999998093E+01 0.  1.
</event>
<event>
 5   0  0.5935451E-02  0.6016369E+03  0.7818609E-02  0.9902016E-01
       -2   -1    0    0    0  501  0.00000000000E+00  0.00000000000E+00  0.79956665391E+02  0.79956665432E+02  0.25500000920E-02 0. -1.
        2   -1    0    0  501    0  0.00000000000E+00  0.00000000000E+00 -0.11317596146E+04  0.11317596146E+04  0.25500000920E-02 0.  1.
    10030    2    1    2    0    0  0.00000000000E+00  0.00000000000E+00 -0.10518029492E+04  0.12117162801E+04  0.60163685006E+03 0.  0.
        3    1    3    3  502    0  0.72112801692E+02  0.12112940733E+03  0.93127910566E+01  0.14127748499E+03  0.10100000352E+00 0. -1.
       -3    1    3    3    0  502 -0.72112801692E+02 -0.12112940733E+03 -0.10611157403E+04  0.10704387951E+04  0.10100000352E+00 0.  1.
</event>
<event>
 5   0  0.5872632E-02  0.5986399E+03  0.7818609E-02  0.9908232E-01
        2   -1    0    0  501    0  0.00000000000E+00  0.00000000000E+00  0.13036821723E+04  0.13036821723E+04  0.25500000920E-02 0.  1.
       -2   -1    0    0    0  501  0.00000000000E+00  0.00000000000E+00 -0.68722596821E+02  0.68722596869E+02  0.25500000920E-02 0. -1.
    10030    2    1    2    0    0  0.00000000000E+00  0.00000000000E+00  0.12349595755E+04  0.13724047692E+04  0.59863987286E+03 0.  0.
        1    1    3    3  502    0 -0.24400514747E+03 -0.10496678133E+03  0.30117691281E+03  0.40157697894E+03  0.50400001928E-02 0. -1.
       -1    1    3    3    0  502  0.24400514747E+03  0.10496678133E+03  0.93378266265E+03  0.97082779022E+03  0.50400001928E-02 0.  1.
</event>
<event>
 5   0  0.3767635E-02  0.5969254E+03  0.7818609E-02  0.9911805E-01
       -1   -1    0    0    0  501  0.00000000000E+00  0.00000000000E+00  0.21580050993E+03  0.21580050999E+03  0.50400001928E-02 0. -1.
        1   -1    0    0  501    0  0.00000000000E+00  0.00000000000E+00 -0.41278856388E+03  0.41278856391E+03  0.50400001928E-02 0.  1.
    10030    2    1    2    0    0  0.00000000000E+00  0.00000000000E+00 -0.19698805395E+03  0.62858907390E+03  0.59692539771E+03 0.  0.
        2    1    3    3  502    0 -0.40330174017E+02 -0.31409704321E+02  0.21115640496E+03  0.21725588559E+03  0.25500000920E-02 0. -1.
       -2    1    3    3    0  502  0.40330174017E+02  0.31409704321E+02 -0.40814445891E+03  0.41133318831E+03  0.25500000920E-02 0.  1.
</event>
<event>
 5   0  0.2388000E-02  0.6051976E+03  0.7818609E-02  0.9894681E-01
       -4   -1    0    0    0  501  0.00000000000E+00  0.00000000000E+00  0.80876666464E+02  0.80886637205E+02  0.12699999809E+01 0.  1.
        4   -1    0    0  501    0  0.00000000000E+00  0.00000000000E+00 -0.11320887374E+04  0.11320894498E+04  0.12699999809E+01 0. -1.
    10030    2    1    2    0    0  0.00000000000E+00  0.00000000000E+00 -0.10512120710E+04  0.12129760870E+04  0.60519762844E+03 0.  0.
        3    1    3    3  502    0 -0.25904692431E+03  0.15176016973E+03 -0.44982538128E+03  0.54081359261E+03  0.10100000352E+00 0. -1.
       -3    1    3    3    0  502  0.25904692431E+03 -0.15176016973E+03 -0.60138668969E+03  0.67216249438E+03  0.10100000352E+00 0.  1.
</event>
<event>
 5   0  0.5935451E-02  0.5991779E+03  0.7818609E-02  0.9907113E-01
       -2   -1    0    0    0  501  0.00000000000E+00  0.00000000000E+00  0.33590218732E+03  0.33590218733E+03  0.25500000920E-02 0. -1.
        2   -1    0    0  501    0  0.00000000000E+00  0.00000000000E+00 -0.26720137467E+03  0.26720137469E+03  0.25500000920E-02 0.  1.
    10030    2    1    2    0    0  0.00000000000E+00  0.00000000000E+00  0.68700812644E+02  0.60310356201E+03  0.59917785745E+03 0.  0.
        3    1    3    3  502    0  0.21941161220E+02  0.29796829820E+03  0.12137864160E+02  0.29902150297E+03  0.10100000352E+00 0.  1.
       -3    1    3    3    0  502 -0.21941161220E+02 -0.29796829820E+03  0.56562948484E+02  0.30408205904E+03  0.10100000352E+00 0. -1.
</event>
<event>
 5   0  0.5935451E-02  0.6015155E+03  0.7818609E-02  0.9902267E-01
        2   -1    0    0  501    0  0.00000000000E+00  0.00000000000E+00  0.34520246899E+03  0.34520246899E+03  0.25500000920E-02 0. -1.
       -2   -1    0    0    0  501  0.00000000000E+00  0.00000000000E+00 -0.26203526136E+03  0.26203526137E+03  0.25500000920E-02 0.  1.
    10030    2    1    2    0    0  0.00000000000E+00  0.00000000000E+00  0.83167207623E+02  0.60723773037E+03  0.60151548339E+03 0.  0.
        3    1    3    3  502    0 -0.21620472293E+03 -0.20803249154E+03  0.62595284444E+02  0.30649662248E+03  0.10100000352E+00 0.  1.
       -3    1    3    3    0  502  0.21620472293E+03  0.20803249154E+03  0.20571923179E+02  0.30074110789E+03  0.10100000352E+00 0. -1.
</event>
<event>
 5   0  0.3478183E-02  0.6069162E+03  0.7818609E-02  0.9891160E-01
       -1   -1    0    0    0  501  0.00000000000E+00  0.00000000000E+00  0.46347249370E+03  0.46347249373E+03  0.50400001928E-02 0. -1.
        1   -1    0    0  501    0  0.00000000000E+00  0.00000000000E+00 -0.19868887876E+03  0.19868887882E+03  0.50400001928E-02 0.  1.
    10030    2    1    2    0    0  0.00000000000E+00  0.00000000000E+00  0.26478361495E+03  0.66216137255E+03  0.60691623850E+03 0.  0.
        4    1    3    3  502    0  0.20024924506E+03 -0.19421935831E+03  0.26269656899E+03  0.38318666411E+03  0.12699999809E+01 0. -1.
       -4    1    3    3    0  502 -0.20024924506E+03  0.19421935831E+03  0.20870459512E+01  0.27897470844E+03  0.12699999809E+01 0.  1.
</event>
<event>
 5   0  0.3478183E-02  0.5979653E+03  0.7818609E-02  0.9909636E-01
       -1   -1    0    0    0  501  0.00000000000E+00  0.00000000000E+00  0.16874215362E+03  0.16874215369E+03  0.50400001928E-02 0.  1.
        1   -1    0    0  501    0  0.00000000000E+00  0.00000000000E+00 -0.52974685626E+03  0.52974685628E+03  0.50400001928E-02 0. -1.
    10030    2    1    2    0    0  0.00000000000E+00  0.00000000000E+00 -0.36100470264E+03  0.69848900997E+03  0.59796530144E+03 0.  0.
        4    1    3    3  502    0 -0.26272181906E+03 -0.17000814015E+01 -0.13812791752E+02  0.26309323557E+03  0.12699999809E+01 0.  1.
       -4    1    3    3    0  502  0.26272181906E+03  0.17000814015E+01 -0.34719191089E+03  0.43539577441E+03  0.12699999809E+01 0. -1.
</event>
<event>
 5   0  0.3651984E-02  0.6058976E+03  0.7818609E-02  0.9893245E-01
        1   -1    0    0  501    0  0.00000000000E+00  0.00000000000E+00  0.11699384753E+04  0.11699384753E+04  0.50400001928E-02 0.  1.
       -1   -1    0    0    0  501  0.00000000000E+00  0.00000000000E+00 -0.78446833325E+02  0.78446833487E+02  0.50400001928E-02 0. -1.
    10030    2    1    2    0    0  0.00000000000E+00  0.00000000000E+00  0.10914916420E+04  0.12483853088E+04  0.60589757776E+03 0.  0.
        1    1    3    3  502    0 -0.30367845125E+02  0.51607207691E+02 -0.66132629495E+02  0.89213421706E+02  0.50400001928E-02 0. -1.
       -1    1    3    3    0  502  0.30367845125E+02 -0.51607207691E+02  0.11576242715E+04  0.11591718871E+04  0.50400001928E-02 0.  1.
</event>
<event>
 5   0  0.3651984E-02  0.5882621E+03  0.7818609E-02  0.9930062E-01
        1   -1    0    0  501    0  0.00000000000E+00  0.00000000000E+00  0.21575761445E+03  0.21575761451E+03  0.50400001928E-02 0.  1.
       -1   -1    0    0    0  501  0.00000000000E+00  0.00000000000E+00 -0.40097340625E+03  0.40097340628E+03  0.50400001928E-02 0. -1.
    10030    2    1    2    0    0  0.00000000000E+00  0.00000000000E+00 -0.18521579180E+03  0.61673102080E+03  0.58826206956E+03 0.  0.
        1    1    3    3  502    0  0.12127503629E+02  0.21257259021E+03 -0.30535430021E+03  0.37225721099E+03  0.50400001928E-02 0. -1.
       -1    1    3    3    0  502 -0.12127503629E+02 -0.21257259021E+03  0.12013850841E+03  0.24447380981E+03  0.50400001928E-02 0.  1.
</event>
<event>
 5   0  0.3767635E-02  0.6111532E+03  0.7818609E-02  0.9882533E-01
        1   -1    0    0  501    0  0.00000000000E+00  0.00000000000E+00  0.93652490205E+03  0.93652490207E+03  0.50400001928E-02 0. -1.
       -1   -1    0    0    0  501  0.00000000000E+00  0.00000000000E+00 -0.99705897030E+02  0.99705897158E+02  0.50400001928E-02 0.  1.
    10030    2    1    2    0    0  0.00000000000E+00  0.00000000000E+00  0.83681900502E+03  0.10362307992E+04  0.61115319036E+03 0.  0.
        2    1    3    3  502    0 -0.57065837978E+02 -0.23414108654E+03  0.99854432519E+02  0.26086292563E+03  0.25500000920E-02 0.  1.
       -2    1    3    3    0  502  0.57065837978E+02  0.23414108654E+03  0.73696457250E+03  0.77536787359E+03  0.25500000920E-02 0. -1.
</event>
<event>
 5   0  0.3703280E-02  0.5994952E+03  0.7818609E-02  0.9906454E-01
        1   -1    0    0  501    0  0.00000000000E+00  0.00000000000E+00  0.12183113820E+03  0.12183113830E+03  0.50400001928E-02 0.  1.
       -1   -1    0    0    0  501  0.00000000000E+00  0.00000000000E+00 -0.73748480567E+03  0.73748480569E+03  0.50400001928E-02 0. -1.
    10030    2    1    2    0    0  0.00000000000E+00  0.00000000000E+00 -0.61565366748E+03  0.85931594399E+03  0.59949516538E+03 0.  0.
        5    1    3    3  502    0 -0.26833635366E+03 -0.13250632818E+03 -0.28452813632E+03  0.41296570809E+03  0.46999998093E+01 0. -1.
       -5    1    3    3    0  502  0.26833635366E+03  0.13250632818E+03 -0.33112553115E+03  0.44635023590E+03  0.46999998093E+01 0.  1.
</event>
<event>
 5   0  0.2388000E-02  0.6023085E+03  0.7818609E-02  0.9900628E-01
       -3   -1    0    0    0  501  0.00000000000E+00  0.00000000000E+00  0.35927106547E+03  0.35927107966E+03  0.10100000352E+00 0. -1.
        3   -1    0    0  501    0  0.00000000000E+00  0.00000000000E+00 -0.25243860361E+03  0.25243862381E+03  0.10100000352E+00 0.  1.
    10030    2    1    2    0    0  0.00000000000E+00  0.00000000000E+00  0.10683246186E+03  0.61170970348E+03  0.60230854753E+03 0.  0.
        1    1    3    3  502    0  0.24590223351E+03  0.53438096632E+02  0.22143839810E+03  0.33519919868E+03  0.50400001928E-02 0. -1.
       -1    1    3    3    0  502 -0.24590223351E+03 -0.53438096632E+02 -0.11460593624E+03  0.27651050480E+03  0.50400001928E-02 0.  1.
</event>
<event>
 5   0  0.3767635E-02  0.6073051E+03  0.7818609E-02  0.9890365E-01
        1   -1    0    0  501    0  0.00000000000E+00  0.00000000000E+00  0.28025398055E+03  0.28025398060E+03  0.50400001928E-02 0.  1.
       -1   -1    0    0    0  501  0.00000000000E+00  0.00000000000E+00 -0.32900469720E+03  0.32900469724E+03  0.50400001928E-02 0. -1.
    10030    2    1    2    0    0  0.00000000000E+00  0.00000000000E+00 -0.48750716646E+02  0.60925867784E+03  0.60730511619E+03 0.  0.
        2    1    3    3  502    0 -0.19485804864E+03 -0.17410985342E+03 -0.17953695148E+03  0.31704481881E+03  0.25500000920E-02 0. -1.
       -2    1    3    3    0  502  0.19485804864E+03  0.17410985342E+03  0.13078623483E+03  0.29221385903E+03  0.25500000920E-02 0.  1.
</event>
<event>
 5   0  0.5872632E-02  0.5983973E+03  0.7818609E-02  0.9908737E-01
       -2   -1    0    0    0  501  0.00000000000E+00  0.00000000000E+00  0.25739650674E+03  0.25739650675E+03  0.25500000920E-02 0.  1.
        2   -1    0    0  501    0  0.00000000000E+00  0.00000000000E+00 -0.34778963906E+03  0.34778963907E+03  0.25500000920E-02 0. -1.
    10030    2    1    2    0    0  0.00000000000E+00  0.00000000000E+00 -0.90393132321E+02  0.60518614583E+03  0.59839732012E+03 0.  0.
        1    1    3    3  502    0 -0.75069515736E+02 -0.25779749039E+03 -0.17869740210E+03  0.32253331578E+03  0.50400001928E-02 0. -1.
       -1    1    3    3    0  502  0.75069515736E+02  0.25779749039E+03  0.88304269779E+02  0.28265283005E+03  0.50400001928E-02 0.  1.
</event>
<event>
 5   0  0.5872632E-02  0.5994342E+03  0.7818609E-02  0.9906581E-01
        2   -1    0    0  501    0  0.00000000000E+00  0.00000000000E+00  0.65580237827E+03  0.65580237827E+03  0.25500000920E-02 0.  1.
       -2   -1    0    0    0  501  0.00000000000E+00  0.00000000000E+00 -0.13697777896E+03  0.13697777898E+03  0.25500000920E-02 0. -1.
    10030    2    1    2    0    0  0.00000000000E+00  0.00000000000E+00  0.51882459931E+03  0.79278015725E+03  0.59943424400E+03 0.  0.
        1    1    3    3  502    0  0.15729173553E+03  0.55829194836E+01  0.59674871492E+03  0.61715548110E+03  0.50400001928E-02 0.  1.
       -1    1    3    3    0  502 -0.15729173553E+03 -0.55829194836E+01 -0.77924115610E+02  0.17562467616E+03  0.50400001928E-02 0. -1.
</event>
<event>
 5   0  0.5755078E-02  0.5991819E+03  0.7818609E-02  0.9907105E-01
        2   -1    0    0  501    0  0.00000000000E+00  0.00000000000E+00  0.37743197608E+03  0.37743197609E+03  0.25500000920E-02 0. -1.
       -2   -1    0    0    0  501  0.00000000000E+00  0.00000000000E+00 -0.23780373741E+03  0.23780373743E+03  0.25500000920E-02 0.  1.
    10030    2    1    2    0    0  0.00000000000E+00  0.00000000000E+00  0.13962823867E+03  0.61523571352E+03  0.59918189071E+03 0.  0.
        2    1    3    3  502    0 -0.28809181069E+03 -0.80801256055E+02  0.85352321091E+02  0.31114426411E+03  0.25500000920E-02 0.  1.
       -2    1    3    3    0  502  0.28809181069E+03  0.80801256055E+02  0.54275917578E+02  0.30409144941E+03  0.25500000920E-02 0. -1.
</event>
<event>
 5   0  0.3767635E-02  0.5975781E+03  0.7818609E-02  0.9910443E-01
       -1   -1    0    0    0  501  0.00000000000E+00  0.00000000000E+00  0.16619975440E+03  0.16619975448E+03  0.50400001928E-02 0.  1.
        1   -1    0    0  501    0  0.00000000000E+00  0.00000000000E+00 -0.53715428894E+03  0.53715428896E+03  0.50400001928E-02 0. -1.
    10030    2    1    2    0    0  0.00000000000E+00  0.00000000000E+00 -0.37095453453E+03  0.70335404344E+03  0.59757814864E+03 0.  0.
        2    1    3    3  502    0  0.34330165615E+02 -0.89562402600E+02 -0.51854116098E+03  0.52733757676E+03  0.25500000920E-02 0. -1.
       -2    1    3    3    0  502 -0.34330165615E+02  0.89562402600E+02  0.14758662644E+03  0.17601646668E+03  0.25500000920E-02 0.  1.
</event>
<event>
 5   0  0.3478183E-02  0.6003468E+03  0.7818609E-02  0.9904687E-01
        1   -1    0    0  501    0  0.00000000000E+00  0.00000000000E+00  0.74714678720E+03  0.74714678722E+03  0.50400001928E-02 0. -1.
       -1   -1    0    0    0  501  0.00000000000E+00  0.00000000000E+00 -0.12059755066E+03  0.12059755076E+03  0.50400001928E-02 0.  1.
    10030    2    1    2    0    0  0.00000000000E+00  0.00000000000E+00  0.62654923654E+03  0.86774433798E+03  0.60034680835E+03 0.  0.
        4    1    3    3  502    0  0.92554004302E+01 -0.43511451009E+02  0.74235195535E+03  0.74368470962E+03  0.12699999809E+01 0. -1.
       -4    1    3    3    0  502 -0.92554004302E+01  0.43511451009E+02 -0.11580271881E+03  0.12405962836E+03  0.12699999809E+01 0.  1.
</event>
<event>
 5   0  0.3651984E-02  0.5992193E+03  0.7818609E-02  0.9907027E-01
       -1   -1    0    0    0  501  0.00000000000E+00  0.00000000000E+00  0.64028796313E+02  0.64028796512E+02  0.50400001928E-02 0. -1.
        1   -1    0    0  501    0  0.00000000000E+00  0.00000000000E+00 -0.14019618240E+04  0.14019618240E+04  0.50400001928E-02 0.  1.
    10030    2    1    2    0    0  0.00000000000E+00  0.00000000000E+00 -0.13379330277E+04  0.14659906205E+04  0.59921925276E+03 0.  0.
        1    1    3    3  502    0 -0.22826191215E+02 -0.39427877322E+02 -0.13934380036E+04  0.13941825785E+04  0.50400001928E-02 0.  1.
       -1    1    3    3    0  502  0.22826191215E+02  0.39427877322E+02  0.55504975895E+02  0.71808041959E+02  0.50400001928E-02 0. -1.
</event>
<event>
 5   0  0.3767635E-02  0.6363665E+03  0.7818609E-02  0.9832703E-01
       -1   -1    0    0    0  501  0.00000000000E+00  0.00000000000E+00  0.55887306100E+02  0.55887306327E+02  0.50400001928E-02 0. -1.
        1   -1    0    0  501    0  0.00000000000E+00  0.00000000000E+00 -0.18115128426E+04  0.18115128426E+04  0.50400001928E-02 0.  1.
    10030    2    1    2    0    0  0.00000000000E+00  0.00000000000E+00 -0.17556255365E+04  0.18674001489E+04  0.63636647603E+03 0.  0.
        2    1    3    3  502    0 -0.99901876137E+02 -0.17285740275E+03 -0.16048310466E+04  0.16172021379E+04  0.25500000920E-02 0.  1.
       -2    1    3    3    0  502  0.99901876137E+02  0.17285740275E+03 -0.15079448982E+03  0.25019801100E+03  0.25500000920E-02 0. -1.
</event>
<event>
 5   0  0.2388000E-02  0.6056955E+03  0.7818609E-02  0.9893660E-01
        4   -1    0    0  501    0  0.00000000000E+00  0.00000000000E+00  0.16668217496E+03  0.16668701314E+03  0.12699999809E+01 0. -1.
       -4   -1    0    0    0  501  0.00000000000E+00  0.00000000000E+00 -0.55023580607E+03  0.55023727172E+03  0.12699999809E+01 0.  1.
    10030    2    1    2    0    0  0.00000000000E+00  0.00000000000E+00 -0.38355363111E+03  0.71692428485E+03  0.60569550293E+03 0.  0.
        1    1    3    3  502    0 -0.15073410967E+03 -0.24846184249E+03 -0.90905417173E+02  0.30449606547E+03  0.50400001928E-02 0. -1.
       -1    1    3    3    0  502  0.15073410967E+03  0.24846184249E+03 -0.29264821394E+03  0.41242821938E+03  0.50400001928E-02 0.  1.
</event>
<event>
 5   0  0.5935451E-02  0.6031243E+03  0.7818609E-02  0.9898945E-01
       -2   -1    0    0    0  501  0.00000000000E+00  0.00000000000E+00  0.16532421850E+03  0.16532421852E+03  0.25500000920E-02 0. -1.
        2   -1    0    0  501    0  0.00000000000E+00  0.00000000000E+00 -0.55006905051E+03  0.55006905051E+03  0.25500000920E-02 0.  1.
    10030    2    1    2    0    0  0.00000000000E+00  0.00000000000E+00 -0.38474483200E+03  0.71539326903E+03  0.60312431855E+03 0.  0.
        3    1    3    3  502    0  0.18724744465E+03 -0.23291207949E+03 -0.24026220493E+03  0.38345218687E+03  0.10100000352E+00 0. -1.
       -3    1    3    3    0  502 -0.18724744465E+03  0.23291207949E+03 -0.14448262708E+03  0.33194108216E+03  0.10100000352E+00 0.  1.
</event>
<event>
 5   0  0.5872632E-02  0.5919100E+03  0.7818609E-02  0.9922334E-01
        2   -1    0    0  501    0  0.00000000000E+00  0.00000000000E+00  0.23472283813E+04  0.23472283813E+04  0.25500000920E-02 0.  1.
       -2   -1    0    0    0  501  0.00000000000E+00  0.00000000000E+00 -0.37316075688E+02  0.37316075775E+02  0.25500000920E-02 0. -1.
    10030    2    1    2    0    0  0.00000000000E+00  0.00000000000E+00  0.23099123056E+04  0.23845444570E+04  0.59190996625E+03 0.  0.
        1    1    3    3  502    0 -0.22069262867E+03 -0.28517969553E+02  0.36891369114E+03  0.43083154768E+03  0.50400001928E-02 0. -1.
       -1    1    3    3    0  502  0.22069262867E+03  0.28517969553E+02  0.19409986144E+04  0.19537129094E+04  0.50400001928E-02 0.  1.
</event>
<event>
 5   0  0.5935451E-02  0.6020474E+03  0.7818609E-02  0.9901168E-01
        2   -1    0    0  501    0  0.00000000000E+00  0.00000000000E+00  0.11263137168E+03  0.11263137170E+03  0.25500000920E-02 0. -1.
       -2   -1    0    0    0  501  0.00000000000E+00  0.00000000000E+00 -0.80452947238E+03  0.80452947239E+03  0.25500000920E-02 0.  1.
    10030    2    1    2    0    0  0.00000000000E+00  0.00000000000E+00 -0.69189810071E+03  0.91716084409E+03  0.60204736705E+03 0.  0.
        3    1    3    3  502    0 -0.13526318524E+03  0.11961336923E+03 -0.71287030210E+03  0.73538259783E+03  0.10100000352E+00 0.  1.
       -3    1    3    3    0  502  0.13526318524E+03 -0.11961336923E+03  0.20972201391E+02  0.18177824626E+03  0.10100000352E+00 0. -1.
</event>
<event>
 5   0  0.3478183E-02  0.6007517E+03  0.7818609E-02  0.9903848E-01
        1   -1    0    0  501    0  0.00000000000E+00  0.00000000000E+00  0.14347175178E+03  0.14347175187E+03  0.50400001928E-02 0. -1.
       -1   -1    0    0    0  501  0.00000000000E+00  0.00000000000E+00 -0.62887388215E+03  0.62887388217E+03  0.50400001928E-02 0.  1.
    10030    2    1    2    0    0  0.00000000000E+00  0.00000000000E+00 -0.48540213038E+03  0.77234563404E+03  0.60075165439E+03 0.  0.
        4    1    3    3  502    0 -0.18132408120E+02 -0.28985604919E+03 -0.34127402171E+03  0.44812373768E+03  0.12699999809E+01 0.  1.
       -4    1    3    3    0  502  0.18132408120E+02  0.28985604919E+03 -0.14412810866E+03  0.32422189636E+03  0.12699999809E+01 0. -1.
</event>
<event>
 5   0  0.5755078E-02  0.5972583E+03  0.7818609E-02  0.9911111E-01
       -2   -1    0    0    0  501  0.00000000000E+00  0.00000000000E+00  0.19649575498E+03  0.19649575500E+03  0.25500000920E-02 0. -1.
        2   -1    0    0  501    0  0.00000000000E+00  0.00000000000E+00 -0.45384877197E+03  0.45384877198E+03  0.25500000920E-02 0.  1.
    10030    2    1    2    0    0  0.00000000000E+00  0.00000000000E+00 -0.25735301699E+03  0.65034452698E+03  0.59725825940E+03 0.  0.
        2    1    3    3  502    0 -0.14562254675E+02  0.77471903027E+02 -0.44231534683E+03  0.44928478838E+03  0.25500000920E-02 0.  1.
       -2    1    3    3    0  502  0.14562254675E+02 -0.77471903027E+02  0.18496232984E+03  0.20105973860E+03  0.25500000920E-02 0. -1.
</event>
<event>
 5   0  0.5755078E-02  0.5938026E+03  0.7818609E-02  0.9918348E-01
        2   -1    0    0  501    0  0.00000000000E+00  0.00000000000E+00  0.65028451801E+03  0.65028451802E+03  0.25500000920E-02 0. -1.
       -2   -1    0    0    0  501  0.00000000000E+00  0.00000000000E+00 -0.13555663066E+03  0.13555663069E+03  0.25500000920E-02 0.  1.
    10030    2    1    2    0    0  0.00000000000E+00  0.00000000000E+00  0.51472788735E+03  0.78584114870E+03  0.59380258755E+03 0.  0.
        2    1    3    3  502    0 -0.28507295081E+03  0.74156127328E+01  0.14800234119E+03  0.32128845544E+03  0.25500000920E-02 0.  1.
       -2    1    3    3    0  502  0.28507295081E+03 -0.74156127328E+01  0.36672554616E+03  0.46455269326E+03  0.25500000920E-02 0. -1.
</event>
<event>
 5   0  0.3478183E-02  0.5956429E+03  0.7818609E-02  0.9914487E-01
       -1   -1    0    0    0  501  0.00000000000E+00  0.00000000000E+00  0.26001469754E+03  0.26001469759E+03  0.50400001928E-02 0. -1.
        1   -1    0    0  501    0  0.00000000000E+00  0.00000000000E+00 -0.34112537705E+03  0.34112537709E+03  0.50400001928E-02 0.  1.
    10030    2    1    2    0    0  0.00000000000E+00  0.00000000000E+00 -0.81110679513E+02  0.60114007468E+03  0.59564288550E+03 0.  0.
        4    1    3    3  502    0 -0.79511469650E+02  0.16826291094E+03  0.19410183613E+03  0.26890819380E+03  0.12699999809E+01 0. -1.
       -4    1    3    3    0  502  0.79511469650E+02 -0.16826291094E+03 -0.27521251564E+03  0.33223188088E+03  0.12699999809E+01 0.  1.
</event>
<event>
 5   0  0.3767635E-02  0.6053546E+03  0.7818609E-02  0.9894359E-01
        1   -1    0    0  501    0  0.00000000000E+00  0.00000000000E+00  0.12791734481E+04  0.12791734481E+04  0.50400001928E-02 0. -1.
       -1   -1    0    0    0  501  0.00000000000E+00  0.00000000000E+00 -0.71619333833E+02  0.71619334011E+02  0.50400001928E-02 0.  1.
    10030    2    1    2    0    0  0.00000000000E+00  0.00000000000E+00  0.12075541143E+04  0.13507927821E+04  0.60535460793E+03 0.  0.
        2    1    3    3  502    0  0.18793427860E+03 -0.21159059250E+03  0.84331507085E+03  0.88953368718E+03  0.25500000920E-02 0. -1.
       -2    1    3    3    0  502 -0.18793427860E+03  0.21159059250E+03  0.36423904341E+03  0.46125909493E+03  0.25500000920E-02 0.  1.
</event>
<event>
 5   0  0.3703280E-02  0.6026695E+03  0.7818609E-02  0.9899883E-01
        1   -1    0    0  501    0  0.00000000000E+00  0.00000000000E+00  0.31345402844E+03  0.31345402848E+03  0.50400001928E-02 0.  1.
       -1   -1    0    0    0  501  0.00000000000E+00  0.00000000000E+00 -0.28968406063E+03  0.28968406067E+03  0.50400001928E-02 0. -1.
    10030    2    1    2    0    0  0.00000000000E+00  0.00000000000E+00  0.23769967816E+02  0.60313808916E+03  0.60266951410E+03 0.  0.
        5    1    3    3  502    0  0.19813351509E+03 -0.91967126856E+02  0.21956911117E+03  0.30975397786E+03  0.46999998093E+01 0.  1.
       -5    1    3    3    0  502 -0.19813351509E+03  0.91967126856E+02 -0.19579914335E+03  0.29338411129E+03  0.46999998093E+01 0. -1.
</event>
<event>
 5   0  0.6007360E-02  0.6075161E+03  0.7818609E-02  0.9889934E-01
        2   -1    0    0  501    0  0.00000000000E+00  0.00000000000E+00  0.10467631285E+04  0.10467631285E+04  0.25500000920E-02 0.  1.
       -2   -1    0    0    0  501  0.00000000000E+00  0.00000000000E+00 -0.88146937710E+02  0.88146937747E+02  0.25500000920E-02 0. -1.
    10030    2    1    2    0    0  0.00000000000E+00  0.00000000000E+00  0.95861619079E+03  0.11349100662E+04  0.60751613742E+03 0.  0.
        4    1    3    3  502    0  0.29285094354E+03 -0.58493791251E+02  0.37556204716E+03  0.47982461683E+03  0.12699999809E+01 0.  1.
       -4    1    3    3    0  502 -0.29285094354E+03  0.58493791251E+02  0.58305414363E+03  0.65508544942E+03  0.12699999809E+01 0. -1.
</event>
<event>
 5   0  0.3703280E-02  0.6011822E+03  0.7818609E-02  0.9902956E-01
       -1   -1    0    0    0  501  0.00000000000E+00  0.00000000000E+00  0.35079575017E+03  0.35079575020E+03  0.50400001928E-02 0.  1.
        1   -1    0    0  501    0  0.00000000000E+00  0.00000000000E+00 -0.25757155351E+03  0.25757155356E+03  0.50400001928E-02 0. -1.
    10030    2    1    2    0    0  0.00000000000E+00  0.00000000000E+00  0.93224196658E+02  0.60836730376E+03  0.60118218989E+03 0.  0.
        5    1    3    3  502    0 -0.13364660325E+03  0.15919834737E+03  0.26629509500E+03  0.33784714885E+03  0.46999998093E+01 0. -1.
       -5    1    3    3    0  502  0.13364660325E+03 -0.15919834737E+03 -0.17307089834E+03  0.27052015492E+03  0.46999998093E+01 0.  1.
</event>
<event>
 5   0  0.5872632E-02  0.5969596E+03  0.7818609E-02  0.9911734E-01
       -2   -1    0    0    0  501  0.00000000000E+00  0.00000000000E+00  0.10084996284E+03  0.10084996288E+03  0.25500000920E-02 0. -1.
        2   -1    0    0  501    0  0.00000000000E+00  0.00000000000E+00 -0.88339348356E+03  0.88339348356E+03  0.25500000920E-02 0.  1.
    10030    2    1    2    0    0  0.00000000000E+00  0.00000000000E+00 -0.78254352071E+03  0.98424344644E+03  0.59695963016E+03 0.  0.
        1    1    3    3  502    0 -0.27946860504E+03 -0.86772568617E+02 -0.48822700952E+03  0.56920803993E+03  0.50400001928E-02 0.  1.
       -1    1    3    3    0  502  0.27946860504E+03  0.86772568617E+02 -0.29431651119E+03  0.41503540651E+03  0.50400001928E-02 0. -1.
</event>
<event>
 5   0  0.3703280E-02  0.6119540E+03  0.7818609E-02  0.9880911E-01
        1   -1    0    0  501    0  0.00000000000E+00  0.00000000000E+00  0.77159073332E+03  0.77159073334E+03  0.50400001928E-02 0. -1.
       -1   -1    0    0    0  501  0.00000000000E+00  0.00000000000E+00 -0.12133625771E+03  0.12133625782E+03  0.50400001928E-02 0.  1.
    10030    2    1    2    0    0  0.00000000000E+00  0.00000000000E+00  0.65025447561E+03  0.89292699115E+03  0.61195402481E+03 0.  0.
        5    1    3    3  502    0  0.16080188307E+03 -0.71117938715E+02 -0.40196926959E+02  0.18042419389E+03  0.46999998093E+01 0.  1.
       -5    1    3    3    0  502 -0.16080188307E+03  0.71117938715E+02  0.69045140257E+03  0.71250279727E+03  0.46999998093E+01 0. -1.
</event>
<event>
 5   0  0.3651984E-02  0.6047386E+03  0.7818609E-02  0.9895623E-01
       -1   -1    0    0    0  501  0.00000000000E+00  0.00000000000E+00  0.58537126460E+03  0.58537126462E+03  0.50400001928E-02 0. -1.
        1   -1    0    0  501    0  0.00000000000E+00  0.00000000000E+00 -0.15618668102E+03  0.15618668110E+03  0.50400001928E-02 0.  1.
    10030    2    1    2    0    0  0.00000000000E+00  0.00000000000E+00  0.42918458357E+03  0.74155794572E+03  0.60473860476E+03 0.  0.
        1    1    3    3  502    0  0.10037793957E+03  0.28487602030E+03  0.23180858999E+03  0.38074308938E+03  0.50400001928E-02 0. -1.
       -1    1    3    3    0  502 -0.10037793957E+03 -0.28487602030E+03  0.19737599359E+03  0.36081485635E+03  0.50400001928E-02 0.  1.
</event>
<event>
 5   0  0.3651984E-02  0.5986949E+03  0.7818609E-02  0.9908117E-01
       -1   -1    0    0    0  501  0.00000000000E+00  0.00000000000E+00  0.25529391586E+03  0.25529391591E+03  0.50400001928E-02 0.  1.
        1   -1    0    0  501    0  0.00000000000E+00  0.00000000000E+00 -0.35100288624E+03  0.35100288627E+03  0.50400001928E-02 0. -1.
    10030    2    1    2    0    0  0.00000000000E+00  0.00000000000E+00 -0.95708970376E+02  0.60629680218E+03  0.59869491840E+03 0.  0.
        1    1    3    3  502    0 -0.12531887457E+03 -0.13365895223E+03 -0.28758665171E+03  0.34099210856E+03  0.50400001928E-02 0. -1.
       -1    1    3    3    0  502  0.12531887457E+03  0.13365895223E+03  0.19187768134E+03  0.26530469362E+03  0.50400001928E-02 0.  1.
</event>
<event>
 5   0  0.3703280E-02  0.6001175E+03  0.7818609E-02  0.9905162E-01
       -1   -1    0    0    0  501  0.00000000000E+00  0.00000000000E+00  0.98919734339E+02  0.98919734467E+02  0.50400001928E-02 0.  1.
        1   -1    0    0  501    0  0.00000000000E+00  0.00000000000E+00 -0.91018508054E+03  0.91018508055E+03  0.50400001928E-02 0. -1.
    10030    2    1    2    0    0  0.00000000000E+00  0.00000000000E+00 -0.81126534620E+03  0.10091048150E+04  0.60011754328E+03 0.  0.
        5    1    3    3  502    0  0.27270093997E+02  0.18727259829E+03 -0.14167114437E+02  0.18983540562E+03  0.46999998093E+01 0.  1.
       -5    1    3    3    0  502 -0.27270093997E+02 -0.18727259829E+03 -0.79709823176E+03  0.81926940940E+03  0.46999998093E+01 0. -1.
</event>
<event>
 5   0  0.6007360E-02  0.4905930E+03  0.7818609E-02  0.1016264E+00
       -2   -1    0    0    0  501  0.00000000000E+00  0.00000000000E+00  0.12683212330E+03  0.12683212332E+03  0.25500000920E-02 0.  1.
        2   -1    0    0  501    0  0.00000000000E+00  0.00000000000E+00 -0.47440950379E+03  0.47440950380E+03  0.25500000920E-02 0. -1.
    10030    2    1    2    0    0  0.00000000000E+00  0.00000000000E+00 -0.34757738049E+03  0.60124162712E+03  0.49059296647E+03 0.  0.
        4    1    3    3  502    0  0.31708055237E+02 -0.12917682417E+03  0.78793720497E+02  0.15460309169E+03  0.12699999809E+01 0.  1.
       -4    1    3    3    0  502 -0.31708055237E+02  0.12917682417E+03 -0.42637110099E+03  0.44663853543E+03  0.12699999809E+01 0. -1.
</event>
<event>
 5   0  0.5935451E-02  0.6090385E+03  0.7818609E-02  0.9886829E-01
       -2   -1    0    0    0  501  0.00000000000E+00  0.00000000000E+00  0.19052741461E+03  0.19052741463E+03  0.25500000920E-02 0.  1.
        2   -1    0    0  501    0  0.00000000000E+00  0.00000000000E+00 -0.48671202591E+03  0.48671202592E+03  0.25500000920E-02 0. -1.
    10030    2    1    2    0    0  0.00000000000E+00  0.00000000000E+00 -0.29618461129E+03  0.67723944055E+03  0.60903853397E+03 0.  0.
        3    1    3    3  502    0  0.31276966588E+02  0.28585346135E+03 -0.25952106139E+03  0.38735208985E+03  0.10100000352E+00 0.  1.
       -3    1    3    3    0  502 -0.31276966588E+02 -0.28585346135E+03 -0.36663549900E+02  0.28988735070E+03  0.10100000352E+00 0. -1.
</event>
<event>
 5   0  0.5755078E-02  0.6091122E+03  0.7818609E-02  0.9886680E-01
        2   -1    0    0  501    0  0.00000000000E+00  0.00000000000E+00  0.70435190742E+03  0.70435190742E+03  0.25500000920E-02 0. -1.
       -2   -1    0    0    0  501  0.00000000000E+00  0.00000000000E+00 -0.13168759021E+03  0.13168759023E+03  0.25500000920E-02 0.  1.
    10030    2    1    2    0    0  0.00000000000E+00  0.00000000000E+00  0.57266431721E+03  0.83603949766E+03  0.60911215834E+03 0.  0.
        2    1    3    3  502    0 -0.29284727778E+03 -0.49304332097E+02  0.37905792810E+03  0.48153437897E+03  0.25500000920E-02 0.  1.
       -2    1    3    3    0  502  0.29284727778E+03  0.49304332097E+02  0.19360638911E+03  0.35450511869E+03  0.25500000920E-02 0. -1.
</event>
<event>
 5   0  0.5872632E-02  0.5529802E+03  0.7818609E-02  0.1000806E+00
        2   -1    0    0  501    0  0.00000000000E+00  0.00000000000E+00  0.74820127050E+03  0.74820127050E+03  0.25500000920E-02 0. -1.
       -2   -1    0    0    0  501  0.00000000000E+00  0.00000000000E+00 -0.10217408715E+03  0.10217408718E+03  0.25500000920E-02 0.  1.
    10030    2    1    2    0    0  0.00000000000E+00  0.00000000000E+00  0.64602718335E+03  0.85037535768E+03  0.55298022326E+03 0.  0.
        1    1    3    3  502    0  0.12811807737E+03  0.36390190144E+02  0.69562040999E+03  0.70825577478E+03  0.50400001928E-02 0. -1.
       -1    1    3    3    0  502 -0.12811807737E+03 -0.36390190144E+02 -0.49593226642E+02  0.14211958290E+03  0.50400001928E-02 0.  1.
</event>
<event>
 5   0  0.5999117E-02  0.5999450E+03  0.7818609E-02  0.9905520E-01
        2   -1    0    0  501    0  0.00000000000E+00  0.00000000000E+00  0.48531581155E+03  0.48531581156E+03  0.25500000920E-02 0.  1.
       -2   -1    0    0    0  501  0.00000000000E+00  0.00000000000E+00 -0.18541224702E+03  0.18541224704E+03  0.25500000920E-02 0. -1.
    10030    2    1    2    0    0  0.00000000000E+00  0.00000000000E+00  0.29990356453E+03  0.67072805860E+03  0.59994498129E+03 0.  0.
        5    1    3    3  502    0 -0.28351639563E+03 -0.65692610127E+02  0.23106786990E+03  0.37163357776E+03  0.46999998093E+01 0.  1.
       -5    1    3    3    0  502  0.28351639563E+03  0.65692610127E+02  0.68835694627E+02  0.29909448084E+03  0.46999998093E+01 0. -1.
</event>
<event>
 5   0  0.5935451E-02  0.5926428E+03  0.7818609E-02  0.9920789E-01
        2   -1    0    0  501    0  0.00000000000E+00  0.00000000000E+00  0.51687030947E+03  0.51687030948E+03  0.25500000920E-02 0. -1.
       -2   -1    0    0    0  501  0.00000000000E+00  0.00000000000E+00 -0.16988085253E+03  0.16988085255E+03  0.25500000920E-02 0.  1.
    10030    2    1    2    0    0  0.00000000000E+00  0.00000000000E+00  0.34698945694E+03  0.68675116203E+03  0.59264278898E+03 0.  0.
        3    1    3    3  502    0 -0.16506390855E+03 -0.85067886253E+02 -0.94093260647E+02  0.20817346392E+03  0.10100000352E+00 0.  1.
       -3    1    3    3    0  502  0.16506390855E+03  0.85067886253E+02  0.44108271759E+03  0.47857769812E+03  0.10100000352E+00 0. -1.
</event>
<event>
 5   0  0.3651984E-02  0.6041991E+03  0.7818609E-02  0.9896732E-01
       -1   -1    0    0    0  501  0.00000000000E+00  0.00000000000E+00  0.16388455257E+03  0.16388455264E+03  0.50400001928E-02 0.  1.
        1   -1    0    0  501    0  0.00000000000E+00  0.00000000000E+00 -0.55688065720E+03  0.55688065723E+03  0.50400001928E-02 0. -1.
    10030    2    1    2    0    0  0.00000000000E+00  0.00000000000E+00 -0.39299610464E+03  0.72076520987E+03  0.60419909756E+03 0.  0.
        1    1    3    3  502    0  0.24196933307E+03  0.86330850351E+02 -0.68941397352E+01  0.25700136781E+03  0.50400001928E-02 0.  1.
       -1    1    3    3    0  502 -0.24196933307E+03 -0.86330850351E+02 -0.38610196490E+03  0.46376384206E+03  0.50400001928E-02 0. -1.
</event>
<event>
 5   0  0.3640827E-02  0.5939992E+03  0.7818609E-02  0.9917935E-01
        1   -1    0    0  501    0  0.00000000000E+00  0.00000000000E+00  0.49315831209E+03  0.49315831212E+03  0.50400001928E-02 0.  1.
       -1   -1    0    0    0  501  0.00000000000E+00  0.00000000000E+00 -0.17886497312E+03  0.17886497319E+03  0.50400001928E-02 0. -1.
    10030    2    1    2    0    0  0.00000000000E+00  0.00000000000E+00  0.31429333898E+03  0.67202328531E+03  0.59399915242E+03 0.  0.
        3    1    3    3  502    0 -0.54714517833E+02  0.17348911358E+03  0.42275375405E+03  0.46023135243E+03  0.10100000352E+00 0.  1.
       -3    1    3    3    0  502  0.54714517833E+02 -0.17348911358E+03 -0.10846041508E+03  0.21179193288E+03  0.10100000352E+00 0. -1.
</event>
<event>
 5   0  0.3703280E-02  0.6017603E+03  0.7818609E-02  0.9901761E-01
        1   -1    0    0  501    0  0.00000000000E+00  0.00000000000E+00  0.14212016278E+04  0.14212016278E+04  0.50400001928E-02 0.  1.
       -1   -1    0    0    0  501  0.00000000000E+00  0.00000000000E+00 -0.63698809405E+02  0.63698809604E+02  0.50400001928E-02 0. -1.
    10030    2    1    2    0    0  0.00000000000E+00  0.00000000000E+00  0.13575028184E+04  0.14849004374E+04  0.60176025714E+03 0.  0.
        5    1    3    3  502    0 -0.63258122041E+02  0.12299787707E+03  0.13380043075E+04  0.13451422545E+04  0.46999998093E+01 0.  1.
       -5    1    3    3    0  502  0.63258122041E+02 -0.12299787707E+03  0.19498510824E+02  0.13975818291E+03  0.46999998093E+01 0. -1.
</event>
<event>
 5   0  0.3640827E-02  0.6066765E+03  0.7818609E-02  0.9891651E-01
       -1   -1    0    0    0  501  0.00000000000E+00  0.00000000000E+00  0.10034553546E+03  0.10034553559E+03  0.50400001928E-02 0. -1.
        1   -1    0    0  501    0  0.00000000000E+00  0.00000000000E+00 -0.91697234831E+03  0.91697234833E+03  0.50400001928E-02 0.  1.
    10030    2    1    2    0    0  0.00000000000E+00  0.00000000000E+00 -0.81662681285E+03  0.10173178839E+04  0.60667645863E+03 0.  0.
        3    1    3    3  502    0  0.27043966013E+03 -0.73909895925E+02 -0.60252505120E+03  0.66455754454E+03  0.10100000352E+00 0.  1.
       -3    1    3    3    0  502 -0.27043966013E+03  0.73909895925E+02 -0.21410176165E+03  0.35276033937E+03  0.10100000352E+00 0. -1.
</event>
<event>
 5   0  0.5755078E-02  0.5966246E+03  0.7818609E-02  0.9912434E-01
        2   -1    0    0  501    0  0.00000000000E+00  0.00000000000E+00  0.84348792477E+03  0.84348792477E+03  0.25500000920E-02 0.  1.
       -2   -1    0    0    0  501  0.00000000000E+00  0.00000000000E+00 -0.10550266417E+03  0.10550266420E+03  0.25500000920E-02 0. -1.
    10030    2    1    2    0    0  0.00000000000E+00  0.00000000000E+00  0.73798526060E+03  0.94899058898E+03  0.59662458306E+03 0.  0.
        2    1    3    3  502    0  0.99934888120E+01  0.69908139789E+02 -0.92015612853E+02  0.11599090845E+03  0.25500000920E-02 0. -1.
       -2    1    3    3    0  502 -0.99934888120E+01 -0.69908139789E+02  0.83000087345E+03  0.83299968053E+03  0.25500000920E-02 0.  1.
</event>
<event>
 5   0  0.5935451E-02  0.6158523E+03  0.7818609E-02  0.9873053E-01
        2   -1    0    0  501    0  0.00000000000E+00  0.00000000000E+00  0.26115515410E+03  0.26115515411E+03  0.25500000920E-02 0. -1.
       -2   -1    0    0    0  501  0.00000000000E+00  0.00000000000E+00 -0.36307352908E+03  0.36307352909E+03  0.25500000920E-02 0.  1.
    10030    2    1    2    0    0  0.00000000000E+00  0.00000000000E+00 -0.10191837498E+03  0.62422868321E+03  0.61585233115E+03 0.  0.
        3    1    3    3  502    0  0.16736165997E+02  0.16974275465E+02  0.26021851773E+03  0.26130807957E+03  0.10100000352E+00 0. -1.
       -3    1    3    3    0  502 -0.16736165997E+02 -0.16974275465E+02 -0.36213689271E+03  0.36292060363E+03  0.10100000352E+00 0.  1.
</event>
<event>
 5   0  0.3640827E-02  0.5718259E+03  0.7818609E-02  0.9965646E-01
       -1   -1    0    0    0  501  0.00000000000E+00  0.00000000000E+00  0.14265112521E+03  0.14265112530E+03  0.50400001928E-02 0. -1.
        1   -1    0    0  501    0  0.00000000000E+00  0.00000000000E+00 -0.57304994379E+03  0.57304994381E+03  0.50400001928E-02 0.  1.
    10030    2    1    2    0    0  0.00000000000E+00  0.00000000000E+00 -0.43039881858E+03  0.71570106911E+03  0.57182591520E+03 0.  0.
        3    1    3    3  502    0 -0.93162029153E+02 -0.86073117385E+02  0.10551109988E+03  0.16498590125E+03  0.10100000352E+00 0. -1.
       -3    1    3    3    0  502  0.93162029153E+02  0.86073117385E+02 -0.53590991846E+03  0.55071516787E+03  0.10100000352E+00 0.  1.
</event>
<event>
 5   0  0.3767635E-02  0.5995359E+03  0.7818609E-02  0.9906369E-01
       -1   -1    0    0    0  501  0.00000000000E+00  0.00000000000E+00  0.17947340999E+03  0.17947341006E+03  0.50400001928E-02 0.  1.
        1   -1    0    0  501    0  0.00000000000E+00  0.00000000000E+00 -0.50069161339E+03  0.50069161342E+03  0.50400001928E-02 0. -1.
    10030    2    1    2    0    0  0.00000000000E+00  0.00000000000E+00 -0.32121820340E+03  0.68016502348E+03  0.59953592467E+03 0.  0.
        2    1    3    3  502    0 -0.18600620596E+03  0.25330058658E+02  0.10453291313E+03  0.21486519137E+03  0.25500000920E-02 0.  1.
       -2    1    3    3    0  502  0.18600620596E+03 -0.25330058658E+02 -0.42575111654E+03  0.46529983211E+03  0.25500000920E-02 0. -1.
</event>
<event>
 5   0  0.5755078E-02  0.6051507E+03  0.7818609E-02  0.9894777E-01
       -2   -1    0    0    0  501  0.00000000000E+00  0.00000000000E+00  0.81928231762E+02  0.81928231802E+02  0.25500000920E-02 0.  1.
        2   -1    0    0  501    0  0.00000000000E+00  0.00000000000E+00 -0.11174640856E+04  0.11174640856E+04  0.25500000920E-02 0. -1.
    10030    2    1    2    0    0  0.00000000000E+00  0.00000000000E+00 -0.10355358538E+04  0.11993923174E+04  0.60515074689E+03 0.  0.
        2    1    3    3  502    0 -0.14076586741E+03  0.10508491288E+03 -0.29486137776E+02  0.17812158957E+03  0.25500000920E-02 0.  1.
       -2    1    3    3    0  502  0.14076586741E+03 -0.10508491288E+03 -0.10060497160E+04  0.10212707278E+04  0.25500000920E-02 0. -1.
</event>
<event>
 5   0  0.3767635E-02  0.5830931E+03  0.7818609E-02  0.9941117E-01
        1   -1    0    0  501    0  0.00000000000E+00  0.00000000000E+00  0.11693255424E+04  0.11693255424E+04  0.50400001928E-02 0.  1.
       -1   -1    0    0    0  501  0.00000000000E+00  0.00000000000E+00 -0.72690960506E+02  0.72690960681E+02  0.50400001928E-02 0. -1.
    10030    2    1    2    0    0  0.00000000000E+00  0.00000000000E+00  0.10966345819E+04  0.12420165031E+04  0.58309312099E+03 0.  0.
        2    1    3    3  502    0  0.22461366249E+03 -0.13986050827E+03  0.80908198999E+03  0.85124962596E+03  0.25500000920E-02 0.  1.
       -2    1    3    3    0  502 -0.22461366249E+03  0.13986050827E+03  0.28755259191E+03  0.39076687715E+03  0.25500000920E-02 0. -1.
</event>
<event>
 5   0  0.2388000E-02  0.5925092E+03  0.7818609E-02  0.9921070E-01
       -3   -1    0    0    0  501  0.00000000000E+00  0.00000000000E+00  0.61935131622E+03  0.61935132445E+03  0.10100000352E+00 0.  1.
        3   -1    0    0  501    0  0.00000000000E+00  0.00000000000E+00 -0.14170755257E+03  0.14170758856E+03  0.10100000352E+00 0. -1.
    10030    2    1    2    0    0  0.00000000000E+00  0.00000000000E+00  0.47764376365E+03  0.76105891301E+03  0.59250915953E+03 0.  0.
        2    1    3    3  502    0 -0.19054566531E+03 -0.22271412017E+03  0.18346227310E+03  0.34578553404E+03  0.25500000920E-02 0.  1.
       -2    1    3    3    0  502  0.19054566531E+03  0.22271412017E+03  0.29418149055E+03  0.41527337897E+03  0.25500000920E-02 0. -1.
</event>
<event>
 5   0  0.5872632E-02  0.5974264E+03  0.7818609E-02  0.9910760E-01
        2   -1    0    0  501    0  0.00000000000E+00  0.00000000000E+00  0.33801421569E+03  0.33801421570E+03  0.25500000920E-02 0.  1.
       -2   -1    0    0    0  501  0.00000000000E+00  0.00000000000E+00 -0.26398175645E+03  0.26398175646E+03  0.25500000920E-02 0. -1.
    10030    2    1    2    0    0  0.00000000000E+00  0.00000000000E+00  0.74032459238E+02  0.60199597216E+03  0.59742643520E+03 0.  0.
        1    1    3    3  502    0 -0.90065734044E+02  0.19288640864E+02 -0.24931508492E+03  0.26578543923E+03  0.50400001928E-02 0. -1.
       -1    1    3    3    0  502  0.90065734044E+02 -0.19288640864E+02  0.32334754416E+03  0.33621053293E+03  0.50400001928E-02 0.  1.
</event>
<event>
 5   0  0.3767635E-02  0.5983668E+03  0.7818609E-02  0.9908800E-01
       -1   -1    0    0    0  501  0.00000000000E+00  0.00000000000E+00  0.10207148869E+03  0.10207148881E+03  0.50400001928E-02 0. -1.
        1   -1    0    0  501    0  0.00000000000E+00  0.00000000000E+00 -0.87694123656E+03  0.87694123657E+03  0.50400001928E-02 0.  1.
    10030    2    1    2    0    0  0.00000000000E+00  0.00000000000E+00 -0.77486974787E+03  0.97901272539E+03  0.59836676905E+03 0.  0.
        2    1    3    3  502    0  0.11551177686E+03  0.23265559000E+03 -0.63032945831E+03  0.68175275590E+03  0.25500000920E-02 0.  1.
       -2    1    3    3    0  502 -0.11551177686E+03 -0.23265559000E+03 -0.14454028956E+03  0.29725996949E+03  0.25500000920E-02 0. -1.
</event>
<event>
 5   0  0.3651984E-02  0.6071169E+03  0.7818609E-02  0.9890750E-01
        1   -1    0    0  501    0  0.00000000000E+00  0.00000000000E+00  0.29689297273E+03  0.29689297277E+03  0.50400001928E-02 0. -1.
       -1   -1    0    0    0  501  0.00000000000E+00  0.00000000000E+00 -0.31037362142E+03  0.31037362146E+03  0.50400001928E-02 0.  1.
    10030    2    1    2    0    0  0.00000000000E+00  0.00000000000E+00 -0.13480648697E+02  0.60726659423E+03  0.60711694803E+03 0.  0.
        1    1    3    3  502    0 -0.26949327198E+03  0.11505777615E+03 -0.86024176885E+02  0.30539331121E+03  0.50400001928E-02 0.  1.
       -1    1    3    3    0  502  0.26949327198E+03 -0.11505777615E+03  0.72543528188E+02  0.30187328303E+03  0.50400001928E-02 0. -1.
</event>
<event>
 5   0  0.3767635E-02  0.5955202E+03  0.7818609E-02  0.9914744E-01
       -1   -1    0    0    0  501  0.00000000000E+00  0.00000000000E+00  0.16293566413E+03  0.16293566421E+03  0.50400001928E-02 0. -1.
        1   -1    0    0  501    0  0.00000000000E+00  0.00000000000E+00 -0.54414767641E+03  0.54414767644E+03  0.50400001928E-02 0.  1.
    10030    2    1    2    0    0  0.00000000000E+00  0.00000000000E+00 -0.38121201228E+03  0.70708334065E+03  0.59552015274E+03 0.  0.
        2    1    3    3  502    0  0.15548797747E+03  0.13729062794E+03  0.63039483977E+02  0.21679299851E+03  0.25500000920E-02 0. -1.
       -2    1    3    3    0  502 -0.15548797747E+03 -0.13729062794E+03 -0.44425149626E+03  0.49029034213E+03  0.25500000920E-02 0.  1.
</event>
<event>
 5   0  0.5872632E-02  0.6678284E+03  0.7818609E-02  0.9773889E-01
       -2   -1    0    0    0  501  0.00000000000E+00  0.00000000000E+00  0.10841642879E+03  0.10841642882E+03  0.25500000920E-02 0.  1.
        2   -1    0    0  501    0  0.00000000000E+00  0.00000000000E+00 -0.10284297219E+04  0.10284297219E+04  0.25500000920E-02 0. -1.
    10030    2    1    2    0    0  0.00000000000E+00  0.00000000000E+00 -0.92001329308E+03  0.11368461507E+04  0.66782835436E+03 0.  0.
        1    1    3    3  502    0 -0.35347821794E+02  0.18278612577E+01  0.10521398012E+03  0.11100806827E+03  0.50400001928E-02 0.  1.
       -1    1    3    3    0  502  0.35347821794E+02 -0.18278612577E+01 -0.10252272732E+04  0.10258380824E+04  0.50400001928E-02 0. -1.
</event>
<event>
 5   0  0.5999117E-02  0.6039340E+03  0.7818609E-02  0.9897278E-01
        2   -1    0    0  501    0  0.00000000000E+00  0.00000000000E+00  0.78409190949E+03  0.78409190949E+03  0.25500000920E-02 0. -1.
       -2   -1    0    0    0  501  0.00000000000E+00  0.00000000000E+00 -0.11629258471E+03  0.11629258474E+03  0.25500000920E-02 0.  1.
    10030    2    1    2    0    0  0.00000000000E+00  0.00000000000E+00  0.66779932478E+03  0.90038449423E+03  0.60393401897E+03 0.  0.
        5    1    3    3  502    0 -0.97494432309E+02  0.27251310283E+03  0.46209182522E+03  0.54527011699E+03  0.46999998093E+01 0. -1.
       -5    1    3    3    0  502  0.97494432309E+02 -0.27251310283E+03  0.20570749956E+03  0.35511437724E+03  0.46999998093E+01 0.  1.
</event>
<event>
 5   0  0.3640827E-02  0.6000140E+03  0.7818609E-02  0.9905377E-01
       -1   -1    0    0    0  501  0.00000000000E+00  0.00000000000E+00  0.13777179796E+03  0.13777179805E+03  0.50400001928E-02 0. -1.
        1   -1    0    0  501    0  0.00000000000E+00  0.00000000000E+00 -0.65328461107E+03  0.65328461109E+03  0.50400001928E-02 0.  1.
    10030    2    1    2    0    0  0.00000000000E+00  0.00000000000E+00 -0.51551281311E+03  0.79105640915E+03  0.60001398481E+03 0.  0.
        3    1    3    3  502    0 -0.13107802244E+01  0.29887365048E+03 -0.29206027068E+03  0.41788322413E+03  0.10100000352E+00 0.  1.
       -3    1    3    3    0  502  0.13107802244E+01 -0.29887365048E+03 -0.22345254243E+03  0.37317318502E+03  0.10100000352E+00 0. -1.
</event>
<event>
 5   0  0.6007360E-02  0.6049700E+03  0.7818609E-02  0.9895148E-01
        2   -1    0    0  501    0  0.00000000000E+00  0.00000000000E+00  0.21793056670E+03  0.21793056672E+03  0.25500000920E-02 0.  1.
       -2   -1    0    0    0  501  0.00000000000E+00  0.00000000000E+00 -0.41984554823E+03  0.41984554824E+03  0.25500000920E-02 0. -1.
    10030    2    1    2    0    0  0.00000000000E+00  0.00000000000E+00 -0.20191498153E+03  0.63777611496E+03  0.60497001004E+03 0.  0.
        4    1    3    3  502    0  0.24208186977E+03  0.14804038108E+03  0.94900482658E+01  0.28392122150E+03  0.12699999809E+01 0.  1.
       -4    1    3    3    0  502 -0.24208186977E+03 -0.14804038108E+03 -0.21140502980E+03  0.35385489346E+03  0.12699999809E+01 0. -1.
</event>
<event>
 5   0  0.3478183E-02  0.6021338E+03  0.7818609E-02  0.9900989E-01
       -1   -1    0    0    0  501  0.00000000000E+00  0.00000000000E+00  0.76829197995E+02  0.76829198161E+02  0.50400001928E-02 0.  1.
        1   -1    0    0  501    0  0.00000000000E+00  0.00000000000E+00 -0.11797762626E+04  0.11797762626E+04  0.50400001928E-02 0. -1.
    10030    2    1    2    0    0  0.00000000000E+00  0.00000000000E+00 -0.11029470646E+04  0.12566054608E+04  0.60213375319E+03 0.  0.
        4    1    3    3  502    0 -0.26354372301E+03 -0.71922585933E+01 -0.85485058783E+03  0.89458267530E+03  0.12699999809E+01 0. -1.
       -4    1    3    3    0  502  0.26354372301E+03  0.71922585933E+01 -0.24809647679E+03  0.36202278549E+03  0.12699999809E+01 0.  1.
</event>
<event>
 5   0  0.3703280E-02  0.5992632E+03  0.7818609E-02  0.9906936E-01
       -1   -1    0    0    0  501  0.00000000000E+00  0.00000000000E+00  0.48031814988E+03  0.48031814990E+03  0.50400001928E-02 0.  1.
        1   -1    0    0  501    0  0.00000000000E+00  0.00000000000E+00 -0.18691588749E+03  0.18691588756E+03  0.50400001928E-02 0. -1.
    10030    2    1    2    0    0  0.00000000000E+00  0.00000000000E+00  0.29340226238E+03  0.66723403746E+03  0.59926319191E+03 0.  0.
        5    1    3    3  502    0  0.27890668738E+03 -0.10939702114E+03  0.14603792535E+03  0.33332538778E+03  0.46999998093E+01 0.  1.
       -5    1    3    3    0  502 -0.27890668738E+03  0.10939702114E+03  0.14736433703E+03  0.33390864968E+03  0.46999998093E+01 0. -1.
</event>
<event>
 5   0  0.3767635E-02  0.5952434E+03  0.7818609E-02  0.9915324E-01
        1   -1    0    0  501    0  0.00000000000E+00  0.00000000000E+00  0.14536531109E+03  0.14536531118E+03  0.50400001928E-02 0. -1.
       -1   -1    0    0    0  501  0.00000000000E+00  0.00000000000E+00 -0.60935215723E+03  0.60935215725E+03  0.50400001928E-02 0.  1.
    10030    2    1    2    0    0  0.00000000000E+00  0.00000000000E+00 -0.46398684614E+03  0.75471746843E+03  0.59524336516E+03 0.  0.
        2    1    3    3  502    0 -0.17950218613E+03 -0.49778801271E+02  0.62314823725E+02  0.19642327037E+03  0.25500000920E-02 0. -1.
       -2    1    3    3    0  502  0.17950218613E+03  0.49778801271E+02 -0.52630166987E+03  0.55829419806E+03  0.25500000920E-02 0.  1.
</event>
<event>
 5   0  0.3767635E-02  0.6000144E+03  0.7818609E-02  0.9905376E-01
       -1   -1    0    0    0  501  0.00000000000E+00  0.00000000000E+00  0.50318481719E+03  0.50318481722E+03  0.50400001928E-02 0. -1.
        1   -1    0    0  501    0  0.00000000000E+00  0.00000000000E+00 -0.17886931625E+03  0.17886931632E+03  0.50400001928E-02 0.  1.
    10030    2    1    2    0    0  0.00000000000E+00  0.00000000000E+00  0.32431550095E+03  0.68205413354E+03  0.60001441393E+03 0.  0.
        2    1    3    3  502    0  0.83158534809E+02  0.18709713580E+02  0.48913091397E+03  0.49650221178E+03  0.25500000920E-02 0. -1.
       -2    1    3    3    0  502 -0.83158534809E+02 -0.18709713580E+02 -0.16481541302E+03  0.18555192176E+03  0.25500000920E-02 0.  1.
</event>
<event>
 5   0  0.3703280E-02  0.5988405E+03  0.7818609E-02  0.9907814E-01
       -1   -1    0    0    0  501  0.00000000000E+00  0.00000000000E+00  0.33346694547E+02  0.33346694928E+02  0.50400001928E-02 0.  1.
        1   -1    0    0  501    0  0.00000000000E+00  0.00000000000E+00 -0.26884973390E+04  0.26884973390E+04  0.50400001928E-02 0. -1.
    10030    2    1    2    0    0  0.00000000000E+00  0.00000000000E+00 -0.26551506444E+04  0.27218440339E+04  0.59884054665E+03 0.  0.
        5    1    3    3  502    0 -0.18606812610E+03 -0.10540908917E+03 -0.22798765357E+04  0.22898889780E+04  0.46999998093E+01 0. -1.
       -5    1    3    3    0  502  0.18606812610E+03  0.10540908917E+03 -0.37527410877E+03  0.43195505593E+03  0.46999998093E+01 0.  1.
</event>
<event>
 5   0  0.3703280E-02  0.5776654E+03  0.7818609E-02  0.9952858E-01
       -1   -1    0    0    0  501  0.00000000000E+00  0.00000000000E+00  0.25263543149E+03  0.25263543154E+03  0.50400001928E-02 0.  1.
        1   -1    0    0  501    0  0.00000000000E+00  0.00000000000E+00 -0.33021631025E+03  0.33021631029E+03  0.50400001928E-02 0. -1.
    10030    2    1    2    0    0  0.00000000000E+00  0.00000000000E+00 -0.77580878753E+02  0.58285174183E+03  0.57766543968E+03 0.  0.
        5    1    3    3  502    0  0.13186370532E+03 -0.12152062056E+03  0.18961988650E+03  0.26102315865E+03  0.46999998093E+01 0.  1.
       -5    1    3    3    0  502 -0.13186370532E+03  0.12152062056E+03 -0.26720076525E+03  0.32182858318E+03  0.46999998093E+01 0. -1.
</event>
<event>
 5   0  0.3767635E-02  0.6005245E+03  0.7818609E-02  0.9904318E-01
        1   -1    0    0  501    0  0.00000000000E+00  0.00000000000E+00  0.30771331071E+03  0.30771331075E+03  0.50400001928E-02 0. -1.
       -1   -1    0    0    0  501  0.00000000000E+00  0.00000000000E+00 -0.29299162534E+03  0.29299162538E+03  0.50400001928E-02 0.  1.
    10030    2    1    2    0    0  0.00000000000E+00  0.00000000000E+00  0.14721685374E+02  0.60070493614E+03  0.60052451430E+03 0.  0.
        2    1    3    3  502    0 -0.23522189126E+02  0.15507451177E+03 -0.24875519109E+03  0.29407574310E+03  0.25500000920E-02 0.  1.
       -2    1    3    3    0  502  0.23522189126E+02 -0.15507451177E+03  0.26347687646E+03  0.30662919303E+03  0.25500000920E-02 0. -1.
</event>
<event>
 5   0  0.2388000E-02  0.6011903E+03  0.7818609E-02  0.9902940E-01
        4   -1    0    0  501    0  0.00000000000E+00  0.00000000000E+00  0.95943550574E+03  0.95943634628E+03  0.12699999809E+01 0.  1.
       -4   -1    0    0    0  501  0.00000000000E+00  0.00000000000E+00 -0.94172549023E+02  0.94181112169E+02  0.12699999809E+01 0. -1.
    10030    2    1    2    0    0  0.00000000000E+00  0.00000000000E+00  0.86526295671E+03  0.10536174585E+04  0.60119028975E+03 0.  0.
        3    1    3    3  502    0  0.73394031167E+02 -0.22027049663E+03  0.76723432317E+03  0.80159484302E+03  0.10100000352E+00 0.  1.
       -3    1    3    3    0  502 -0.73394031167E+02  0.22027049663E+03  0.98028633539E+02  0.25202261543E+03  0.10100000352E+00 0. -1.
</event>
<event>
 5   0  0.2388000E-02  0.6012554E+03  0.7818609E-02  0.9902805E-01
       -3   -1    0    0    0  501  0.00000000000E+00  0.00000000000E+00  0.33485019859E+03  0.33485021382E+03  0.10100000352E+00 0.  1.
        3   -1    0    0  501    0  0.00000000000E+00  0.00000000000E+00 -0.26990281296E+03  0.26990283186E+03  0.10100000352E+00 0. -1.
    10030    2    1    2    0    0  0.00000000000E+00  0.00000000000E+00  0.64947385625E+02  0.60475304568E+03  0.60125542273E+03 0.  0.
        3    1    3    3  502    0  0.12626414193E+02  0.36875659202E+02  0.33229794768E+03  0.33457611512E+03  0.10100000352E+00 0.  1.
       -3    1    3    3    0  502 -0.12626414193E+02 -0.36875659202E+02 -0.26735056205E+03  0.27017693056E+03  0.10100000352E+00 0. -1.
</event>
<event>
 5   0  0.2388000E-02  0.6081271E+03  0.7818609E-02  0.9888687E-01
       -4   -1    0    0    0  501  0.00000000000E+00  0.00000000000E+00  0.26776683059E+03  0.26776984233E+03  0.12699999809E+01 0. -1.
        4   -1    0    0  501    0  0.00000000000E+00  0.00000000000E+00 -0.34527433562E+03  0.34527667129E+03  0.12699999809E+01 0.  1.
    10030    2    1    2    0    0  0.00000000000E+00  0.00000000000E+00 -0.77507505032E+02  0.61304651362E+03  0.60812713681E+03 0.  0.
        2    1    3    3  502    0 -0.29699665753E+03  0.60464792135E+02 -0.63274331875E+02  0.30962339503E+03  0.25500000920E-02 0. -1.
       -2    1    3    3    0  502  0.29699665753E+03 -0.60464792135E+02 -0.14233173157E+02  0.30342311859E+03  0.25500000920E-02 0.  1.
</event>
<event>
 5   0  0.5872632E-02  0.5988099E+03  0.7818609E-02  0.9907878E-01
        2   -1    0    0  501    0  0.00000000000E+00  0.00000000000E+00  0.50894391994E+03  0.50894391995E+03  0.25500000920E-02 0.  1.
       -2   -1    0    0    0  501  0.00000000000E+00  0.00000000000E+00 -0.17613597305E+03  0.17613597307E+03  0.25500000920E-02 0. -1.
    10030    2    1    2    0    0  0.00000000000E+00  0.00000000000E+00  0.33280794689E+03  0.68507989302E+03  0.59880992836E+03 0.  0.
        1    1    3    3  502    0  0.27567087327E+03 -0.77034831403E+02  0.26689034396E+03  0.39135565837E+03  0.50400001928E-02 0. -1.
       -1    1    3    3    0  502 -0.27567087327E+03  0.77034831403E+02  0.65917602936E+02  0.29372423465E+03  0.50400001928E-02 0.  1.
</event>
<event>
 5   0  0.3703280E-02  0.6069896E+03  0.7818609E-02  0.9891010E-01
        1   -1    0    0  501    0  0.00000000000E+00  0.00000000000E+00  0.46608280641E+03  0.46608280644E+03  0.50400001928E-02 0.  1.
       -1   -1    0    0    0  501  0.00000000000E+00  0.00000000000E+00 -0.19762391217E+03  0.19762391224E+03  0.50400001928E-02 0. -1.
    10030    2    1    2    0    0  0.00000000000E+00  0.00000000000E+00  0.26845889424E+03  0.66370671867E+03  0.60698964614E+03 0.  0.
        5    1    3    3  502    0  0.11612135787E+03 -0.17683175820E+03 -0.10366191712E+03  0.23563005649E+03  0.46999998093E+01 0. -1.
       -5    1    3    3    0  502 -0.11612135787E+03  0.17683175820E+03  0.37212081136E+03  0.42807666218E+03  0.46999998093E+01 0.  1.
</event>
<event>
 5   0  0.3767635E-02  0.5905722E+03  0.7818609E-02  0.9925161E-01
       -1   -1    0    0    0  501  0.00000000000E+00  0.00000000000E+00  0.18818083269E+03  0.18818083276E+03  0.50400001928E-02 0.  1.
        1   -1    0    0  501    0  0.00000000000E+00  0.00000000000E+00 -0.46335162267E+03  0.46335162270E+03  0.50400001928E-02 0. -1.
    10030    2    1    2    0    0  0.00000000000E+00  0.00000000000E+00 -0.27517078998E+03  0.65153245545E+03  0.59057224524E+03 0.  0.
        2    1    3    3  502    0  0.17570214380E+03 -0.11722399978E+03  0.90066826214E+02  0.22961868968E+03  0.25500000920E-02 0.  1.
       -2    1    3    3    0  502 -0.17570214380E+03  0.11722399978E+03 -0.36523761619E+03  0.42191376577E+03  0.25500000920E-02 0. -1.
</event>
<event>
 5   0  0.3651984E-02  0.6065238E+03  0.7818609E-02  0.9891963E-01
       -1   -1    0    0    0  501  0.00000000000E+00  0.00000000000E+00  0.67397462749E+02  0.67397462937E+02  0.50400001928E-02 0. -1.
        1   -1    0    0  501    0  0.00000000000E+00  0.00000000000E+00 -0.13645584430E+04  0.13645584430E+04  0.50400001928E-02 0.  1.
    10030    2    1    2    0    0  0.00000000000E+00  0.00000000000E+00 -0.12971609802E+04  0.14319559059E+04  0.60652379004E+03 0.  0.
        1    1    3    3  502    0 -0.22313472455E+03 -0.19223047534E+03 -0.47790493375E+03  0.56136867270E+03  0.50400001928E-02 0.  1.
       -1    1    3    3    0  502  0.22313472455E+03  0.19223047534E+03 -0.81925604649E+03  0.87058723325E+03  0.50400001928E-02 0. -1.
</event>
<event>
 5   0  0.5999117E-02  0.5916844E+03  0.7818609E-02  0.9922810E-01
        2   -1    0    0  501    0  0.00000000000E+00  0.00000000000E+00  0.80506035840E+03  0.80506035841E+03  0.25500000920E-02 0.  1.
       -2   -1    0    0    0  501  0.00000000000E+00  0.00000000000E+00 -0.10871558102E+03  0.10871558105E+03  0.25500000920E-02 0. -1.
    10030    2    1    2    0    0  0.00000000000E+00  0.00000000000E+00  0.69634477738E+03  0.91377593946E+03  0.59168439100E+03 0.  0.
        5    1    3    3  502    0  0.86638448400E+02 -0.12361123216E+03  0.74104395466E+03  0.75627653024E+03  0.46999998093E+01 0.  1.
       -5    1    3    3    0  502 -0.86638448400E+02  0.12361123216E+03 -0.44699177277E+02  0.15749940922E+03  0.46999998093E+01 0. -1.
</event>
<event>
 5   0  0.5999117E-02  0.6029970E+03  0.7818609E-02  0.9899208E-01
       -2   -1    0    0    0  501  0.00000000000E+00  0.00000000000E+00  0.19851432469E+03  0.19851432471E+03  0.25500000920E-02 0. -1.
        2   -1    0    0  501    0  0.00000000000E+00  0.00000000000E+00 -0.45790824870E+03  0.45790824871E+03  0.25500000920E-02 0.  1.
    10030    2    1    2    0    0  0.00000000000E+00  0.00000000000E+00 -0.25939392401E+03  0.65642257341E+03  0.60299700420E+03 0.  0.
        5    1    3    3  502    0 -0.10605282283E+03  0.17692303573E+03 -0.36901645591E+03  0.42278149975E+03  0.46999998093E+01 0.  1.
       -5    1    3    3    0  502  0.10605282283E+03 -0.17692303573E+03  0.10962253190E+03  0.23364107366E+03  0.46999998093E+01 0. -1.
</event>
<event>
 5   0  0.6007360E-02  0.6176017E+03  0.7818609E-02  0.9869546E-01
       -2   -1    0    0    0  501  0.00000000000E+00  0.00000000000E+00  0.73244879031E+02  0.73244879076E+02  0.25500000920E-02 0.  1.
        2   -1    0    0  501    0  0.00000000000E+00  0.00000000000E+00 -0.13019062466E+04  0.13019062467E+04  0.25500000920E-02 0. -1.
    10030    2    1    2    0    0  0.00000000000E+00  0.00000000000E+00 -0.12286613676E+04  0.13751511257E+04  0.61760170200E+03 0.  0.
        4    1    3    3  502    0 -0.24386009234E+01 -0.12042050806E+03  0.18780660972E+02  0.12190722563E+03  0.12699999809E+01 0.  1.
       -4    1    3    3    0  502  0.24386009234E+01  0.12042050806E+03 -0.12474420286E+04  0.12532439001E+04  0.12699999809E+01 0. -1.
</event>
<event>
 5   0  0.3703280E-02  0.6019848E+03  0.7818609E-02  0.9901297E-01
       -1   -1    0    0    0  501  0.00000000000E+00  0.00000000000E+00  0.42292649135E+03  0.42292649138E+03  0.50400001928E-02 0.  1.
        1   -1    0    0  501    0  0.00000000000E+00  0.00000000000E+00 -0.21421314959E+03  0.21421314965E+03  0.50400001928E-02 0. -1.
    10030    2    1    2    0    0  0.00000000000E+00  0.00000000000E+00  0.20871334176E+03  0.63713964102E+03  0.60198476985E+03 0.  0.
        5    1    3    3  502    0  0.13773750872E+02  0.16062465667E+03 -0.16461881421E+03  0.23045919494E+03  0.46999998093E+01 0. -1.
       -5    1    3    3    0  502 -0.13773750872E+02 -0.16062465667E+03  0.37333215597E+03  0.40668044608E+03  0.46999998093E+01 0.  1.
</event>
<event>
 5   0  0.5755078E-02  0.6032133E+03  0.7818609E-02  0.9898762E-01
       -2   -1    0    0    0  501  0.00000000000E+00  0.00000000000E+00  0.82593614890E+02  0.82593614930E+02  0.25500000920E-02 0.  1.
        2   -1    0    0  501    0  0.00000000000E+00  0.00000000000E+00 -0.11013753413E+04  0.11013753413E+04  0.25500000920E-02 0. -1.
    10030    2    1    2    0    0  0.00000000000E+00  0.00000000000E+00 -0.10187817264E+04  0.11839689562E+04  0.60321329830E+03 0.  0.
        2    1    3    3  502    0 -0.14561235892E+03  0.12886242098E+03 -0.56853872381E+02  0.20258540279E+03  0.25500000920E-02 0.  1.
       -2    1    3    3    0  502  0.14561235892E+03 -0.12886242098E+03 -0.96192785399E+03  0.98138355340E+03  0.25500000920E-02 0. -1.
</event>
<event>
 5   0  0.3767635E-02  0.5782068E+03  0.7818609E-02  0.9951681E-01
        1   -1    0    0  501    0  0.00000000000E+00  0.00000000000E+00  0.14517097279E+04  0.14517097279E+04  0.50400001928E-02 0.  1.
       -1   -1    0    0    0  501  0.00000000000E+00  0.00000000000E+00 -0.57574021919E+02  0.57574022139E+02  0.50400001928E-02 0. -1.
    10030    2    1    2    0    0  0.00000000000E+00  0.00000000000E+00  0.13941357059E+04  0.15092837500E+04  0.57820677223E+03 0.  0.
        2    1    3    3  502    0 -0.25524697168E+03  0.61774493797E+02  0.10126171881E+04  0.10461169506E+04  0.25500000920E-02 0. -1.
       -2    1    3    3    0  502  0.25524697168E+03 -0.61774493797E+02  0.38151851785E+03  0.46316679944E+03  0.25500000920E-02 0.  1.
</event>
<event>
 5   0  0.5755078E-02  0.6024131E+03  0.7818609E-02  0.9900412E-01
       -2   -1    0    0    0  501  0.00000000000E+00  0.00000000000E+00  0.33259261836E+03  0.33259261837E+03  0.25500000920E-02 0. -1.
        2   -1    0    0  501    0  0.00000000000E+00  0.00000000000E+00 -0.27278231634E+03  0.27278231636E+03  0.25500000920E-02 0.  1.
    10030    2    1    2    0    0  0.00000000000E+00  0.00000000000E+00  0.59810302013E+02  0.60537493472E+03  0.60241309694E+03 0.  0.
        2    1    3    3  502    0 -0.21822855007E+03 -0.18537012826E+03  0.12385061505E+03  0.31196916413E+03  0.25500000920E-02 0. -1.
       -2    1    3    3    0  502  0.21822855007E+03  0.18537012826E+03 -0.64040313041E+02  0.29340577059E+03  0.25500000920E-02 0.  1.
</event>
<event>
 5   0  0.3703280E-02  0.5810825E+03  0.7818609E-02  0.9945450E-01
       -1   -1    0    0    0  501  0.00000000000E+00  0.00000000000E+00  0.15366772277E+03  0.15366772285E+03  0.50400001928E-02 0. -1.
        1   -1    0    0  501    0  0.00000000000E+00  0.00000000000E+00 -0.54932956680E+03  0.54932956682E+03  0.50400001928E-02 0.  1.
    10030    2    1    2    0    0  0.00000000000E+00  0.00000000000E+00 -0.39566184403E+03  0.70299728967E+03  0.58108251950E+03 0.  0.
        5    1    3    3  502    0 -0.17926556281E+03  0.53825987199E+02  0.70949688982E+02  0.20022319364E+03  0.46999998093E+01 0. -1.
       -5    1    3    3    0  502  0.17926556281E+03 -0.53825987199E+02 -0.46661153301E+03  0.50277409603E+03  0.46999998093E+01 0.  1.
</event>
<event>
 5   0  0.6007360E-02  0.5912931E+03  0.7818609E-02  0.9923637E-01
       -2   -1    0    0    0  501  0.00000000000E+00  0.00000000000E+00  0.45195967011E+03  0.45195967012E+03  0.25500000920E-02 0. -1.
        2   -1    0    0  501    0  0.00000000000E+00  0.00000000000E+00 -0.19339531580E+03  0.19339531582E+03  0.25500000920E-02 0.  1.
    10030    2    1    2    0    0  0.00000000000E+00  0.00000000000E+00  0.25856435431E+03  0.64535498594E+03  0.59129310207E+03 0.  0.
        4    1    3    3  502    0  0.19034808937E+03  0.13187549727E+03  0.32988488433E+03  0.40304986257E+03  0.12699999809E+01 0. -1.
       -4    1    3    3    0  502 -0.19034808937E+03 -0.13187549727E+03 -0.71320530018E+02  0.24230512337E+03  0.12699999809E+01 0.  1.
</event>
<event>
 5   0  0.3651984E-02  0.6024019E+03  0.7818609E-02  0.9900435E-01
        1   -1    0    0  501    0  0.00000000000E+00  0.00000000000E+00  0.99984767875E+03  0.99984767876E+03  0.50400001928E-02 0.  1.
       -1   -1    0    0    0  501  0.00000000000E+00  0.00000000000E+00 -0.90735843978E+02  0.90735844118E+02  0.50400001928E-02 0. -1.
    10030    2    1    2    0    0  0.00000000000E+00  0.00000000000E+00  0.90911183477E+03  0.10905835229E+04  0.60240193580E+03 0.  0.
        1    1    3    3  502    0 -0.24656516436E+03  0.17088334018E+03  0.50335350988E+03  0.58596949764E+03  0.50400001928E-02 0. -1.
       -1    1    3    3    0  502  0.24656516436E+03 -0.17088334018E+03  0.40575832489E+03  0.50461402524E+03  0.50400001928E-02 0.  1.
</event>
<event>
 5   0  0.3703280E-02  0.5910083E+03  0.7818609E-02  0.9924239E-01
        1   -1    0    0  501    0  0.00000000000E+00  0.00000000000E+00  0.80016034338E+03  0.80016034340E+03  0.50400001928E-02 0.  1.
       -1   -1    0    0    0  501  0.00000000000E+00  0.00000000000E+00 -0.10913148781E+03  0.10913148792E+03  0.50400001928E-02 0. -1.
    10030    2    1    2    0    0  0.00000000000E+00  0.00000000000E+00  0.69102885557E+03  0.90929183132E+03  0.59100825314E+03 0.  0.
        5    1    3    3  502    0  0.28247908761E+03 -0.21041644768E+02  0.47481994215E+03  0.55291342289E+03  0.46999998093E+01 0.  1.
       -5    1    3    3    0  502 -0.28247908761E+03  0.21041644768E+02  0.21620891342E+03  0.35637840843E+03  0.46999998093E+01 0. -1.
</event>
<event>
 5   0  0.3478183E-02  0.6015684E+03  0.7818609E-02  0.9902157E-01
        1   -1    0    0  501    0  0.00000000000E+00  0.00000000000E+00  0.60485097969E+03  0.60485097971E+03  0.50400001928E-02 0.  1.
       -1   -1    0    0    0  501  0.00000000000E+00  0.00000000000E+00 -0.14957591493E+03  0.14957591501E+03  0.50400001928E-02 0. -1.
    10030    2    1    2    0    0  0.00000000000E+00  0.00000000000E+00  0.45527506476E+03  0.75442689472E+03  0.60156841248E+03 0.  0.
        4    1    3    3  502    0  0.12622737640E+03 -0.14546512646E+03  0.51737552343E+03  0.55206204245E+03  0.12699999809E+01 0.  1.
       -4    1    3    3    0  502 -0.12622737640E+03  0.14546512646E+03 -0.62100458668E+02  0.20236485227E+03  0.12699999809E+01 0. -1.
</event>
<event>
 5   0  0.5755078E-02  0.6039504E+03  0.7818609E-02  0.9897244E-01
       -2   -1    0    0    0  501  0.00000000000E+00  0.00000000000E+00  0.17754887485E+03  0.17754887487E+03  0.25500000920E-02 0.  1.
        2   -1    0    0  501    0  0.00000000000E+00  0.00000000000E+00 -0.51359962316E+03  0.51359962316E+03  0.25500000920E-02 0. -1.
    10030    2    1    2    0    0  0.00000000000E+00  0.00000000000E+00 -0.33605074831E+03  0.69114849803E+03  0.60395044573E+03 0.  0.
        2    1    3    3  502    0  0.14353136692E+03  0.16850067871E+03 -0.40309803239E+03  0.45987145567E+03  0.25500000920E-02 0. -1.
       -2    1    3    3    0  502 -0.14353136692E+03 -0.16850067871E+03  0.67047284077E+02  0.23127704237E+03  0.25500000920E-02 0.  1.
</event>
<event>
 5   0  0.5935451E-02  0.6055418E+03  0.7818609E-02  0.9893975E-01
       -2   -1    0    0    0  501  0.00000000000E+00  0.00000000000E+00  0.20509101024E+03  0.20509101025E+03  0.25500000920E-02 0.  1.
        2   -1    0    0  501    0  0.00000000000E+00  0.00000000000E+00 -0.44697342039E+03  0.44697342040E+03  0.25500000920E-02 0. -1.
    10030    2    1    2    0    0  0.00000000000E+00  0.00000000000E+00 -0.24188241016E+03  0.65206443065E+03  0.60554184115E+03 0.  0.
        3    1    3    3  502    0  0.14881661999E+02  0.36999807611E+02 -0.44413274896E+03  0.44591967721E+03  0.10100000352E+00 0. -1.
       -3    1    3    3    0  502 -0.14881661999E+02 -0.36999807611E+02  0.20225033880E+03  0.20614475344E+03  0.10100000352E+00 0.  1.
</event>
<event>
 5   0  0.3640827E-02  0.6036363E+03  0.7818609E-02  0.9897890E-01
        1   -1    0    0  501    0  0.00000000000E+00  0.00000000000E+00  0.16823314015E+03  0.16823314022E+03  0.50400001928E-02 0. -1.
       -1   -1    0    0    0  501  0.00000000000E+00  0.00000000000E+00 -0.54147597382E+03  0.54147597385E+03  0.50400001928E-02 0.  1.
    10030    2    1    2    0    0  0.00000000000E+00  0.00000000000E+00 -0.37324283368E+03  0.70970911407E+03  0.60363632570E+03 0.  0.
        3    1    3    3  502    0 -0.15127992462E+03 -0.17824511898E+03 -0.41104983202E+03  0.47288361426E+03  0.10100000352E+00 0.  1.
       -3    1    3    3    0  502  0.15127992462E+03  0.17824511898E+03  0.37806998343E+02  0.23682549981E+03  0.10100000352E+00 0. -1.
</event>
<event>
 5   0  0.5999117E-02  0.6015084E+03  0.7818609E-02  0.9902282E-01
       -2   -1    0    0    0  501  0.00000000000E+00  0.00000000000E+00  0.71978298742E+02  0.71978298787E+02  0.25500000920E-02 0. -1.
        2   -1    0    0  501    0  0.00000000000E+00  0.00000000000E+00 -0.12566715710E+04  0.12566715710E+04  0.25500000920E-02 0.  1.
    10030    2    1    2    0    0  0.00000000000E+00  0.00000000000E+00 -0.11846932723E+04  0.13286498698E+04  0.60150837664E+03 0.  0.
        5    1    3    3  502    0 -0.30994769467E+00  0.15667503925E+03 -0.11593142883E+04  0.11698627582E+04  0.46999998093E+01 0.  1.
       -5    1    3    3    0  502  0.30994769467E+00 -0.15667503925E+03 -0.25378984004E+02  0.15878711163E+03  0.46999998093E+01 0. -1.
</event>
<event>
 5   0  0.5999117E-02  0.6041836E+03  0.7818609E-02  0.9896764E-01
        2   -1    0    0  501    0  0.00000000000E+00  0.00000000000E+00  0.10849367850E+04  0.10849367850E+04  0.25500000920E-02 0.  1.
       -2   -1    0    0    0  501  0.00000000000E+00  0.00000000000E+00 -0.84115000587E+02  0.84115000625E+02  0.25500000920E-02 0. -1.
    10030    2    1    2    0    0  0.00000000000E+00  0.00000000000E+00  0.10008217844E+04  0.11690517857E+04  0.60418360896E+03 0.  0.
        5    1    3    3  502    0  0.27221587359E+03  0.19245024854E+02  0.75094869629E+03  0.79901056769E+03  0.46999998093E+01 0.  1.
       -5    1    3    3    0  502 -0.27221587359E+03 -0.19245024854E+02  0.24987308816E+03  0.37004121797E+03  0.46999998093E+01 0. -1.
</event>
<event>
 5   0  0.5999117E-02  0.5956668E+03  0.7818609E-02  0.9914437E-01
        2   -1    0    0  501    0  0.00000000000E+00  0.00000000000E+00  0.16587633206E+03  0.16587633208E+03  0.25500000920E-02 0.  1.
       -2   -1    0    0    0  501  0.00000000000E+00  0.00000000000E+00 -0.53476427308E+03  0.53476427308E+03  0.25500000920E-02 0. -1.
    10030    2    1    2    0    0  0.00000000000E+00  0.00000000000E+00 -0.36888794101E+03  0.70064060517E+03  0.59566680668E+03 0.  0.
        5    1    3    3  502    0  0.65237266885E+02 -0.13231720960E+03  0.11983105236E+03  0.19011921538E+03  0.46999998093E+01 0.  1.
       -5    1    3    3    0  502 -0.65237266885E+02  0.13231720960E+03 -0.48871899337E+03  0.51052138979E+03  0.46999998093E+01 0. -1.
</event>
<event>
 5   0  0.3478183E-02  0.5990446E+03  0.7818609E-02  0.9907390E-01
       -1   -1    0    0    0  501  0.00000000000E+00  0.00000000000E+00  0.28085445667E+03  0.28085445672E+03  0.50400001928E-02 0.  1.
        1   -1    0    0  501    0  0.00000000000E+00  0.00000000000E+00 -0.31943098528E+03  0.31943098532E+03  0.50400001928E-02 0. -1.
    10030    2    1    2    0    0  0.00000000000E+00  0.00000000000E+00 -0.38576528609E+02  0.60028544204E+03  0.59904462552E+03 0.  0.
        4    1    3    3  502    0  0.12180326603E+03 -0.97973812314E+02 -0.27531130966E+03  0.31659569429E+03  0.12699999809E+01 0. -1.
       -4    1    3    3    0  502 -0.12180326603E+03  0.97973812314E+02  0.23673478106E+03  0.28368974775E+03  0.12699999809E+01 0.  1.
</event>
<event>
 5   0  0.6007360E-02  0.6093055E+03  0.7818609E-02  0.9886286E-01
        2   -1    0    0  501    0  0.00000000000E+00  0.00000000000E+00  0.31759313471E+03  0.31759313472E+03  0.25500000920E-02 0. -1.
       -2   -1    0    0    0  501  0.00000000000E+00  0.00000000000E+00 -0.29223963402E+03  0.29223963404E+03  0.25500000920E-02 0.  1.
    10030    2    1    2    0    0  0.00000000000E+00  0.00000000000E+00  0.25353500689E+02  0.60983276876E+03  0.60930551110E+03 0.  0.
        4    1    3    3  502    0  0.13353847793E+03 -0.12219398752E+03  0.25793531108E+03  0.31511288973E+03  0.12699999809E+01 0.  1.
       -4    1    3    3    0  502 -0.13353847793E+03  0.12219398752E+03 -0.23258181039E+03  0.29471987903E+03  0.12699999809E+01 0. -1.
</event>
<event>
 5   0  0.3478183E-02  0.5864858E+03  0.7818609E-02  0.9933847E-01
       -1   -1    0    0    0  501  0.00000000000E+00  0.00000000000E+00  0.17608816249E+03  0.17608816256E+03  0.50400001928E-02 0.  1.
        1   -1    0    0  501    0  0.00000000000E+00  0.00000000000E+00 -0.48834294815E+03  0.48834294818E+03  0.50400001928E-02 0. -1.
    10030    2    1    2    0    0  0.00000000000E+00  0.00000000000E+00 -0.31225478566E+03  0.66443111073E+03  0.58648584786E+03 0.  0.
        4    1    3    3  502    0  0.19968372544E+02 -0.28346153905E+03 -0.74114196687E+02  0.29367278913E+03  0.12699999809E+01 0.  1.
       -4    1    3    3    0  502 -0.19968372544E+02  0.28346153905E+03 -0.23814058898E+03  0.37075832161E+03  0.12699999809E+01 0. -1.
</event>
<event>
 5   0  0.2388000E-02  0.5927489E+03  0.7818609E-02  0.9920565E-01
        3   -1    0    0  501    0  0.00000000000E+00  0.00000000000E+00  0.62499311997E+03  0.62499312813E+03  0.10100000352E+00 0.  1.
       -3   -1    0    0    0  501  0.00000000000E+00  0.00000000000E+00 -0.14054200124E+03  0.14054203753E+03  0.10100000352E+00 0. -1.
    10030    2    1    2    0    0  0.00000000000E+00  0.00000000000E+00  0.48445111873E+03  0.76553516566E+03  0.59274885359E+03 0.  0.
        4    1    3    3  502    0  0.94571781436E+02  0.24682173157E+03  0.69090362522E+02  0.27320300166E+03  0.12699999809E+01 0. -1.
       -4    1    3    3    0  502 -0.94571781436E+02 -0.24682173157E+03  0.41536075621E+03  0.49233216401E+03  0.12699999809E+01 0.  1.
</event>
<event>
 5   0  0.3651984E-02  0.5938712E+03  0.7818609E-02  0.9918204E-01
        1   -1    0    0  501    0  0.00000000000E+00  0.00000000000E+00  0.13966640826E+04  0.13966640826E+04  0.50400001928E-02 0.  1.
       -1   -1    0    0    0  501  0.00000000000E+00  0.00000000000E+00 -0.63129531637E+02  0.63129531838E+02  0.50400001928E-02 0. -1.
    10030    2    1    2    0    0  0.00000000000E+00  0.00000000000E+00  0.13335345509E+04  0.14597936144E+04  0.59387119661E+03 0.  0.
        1    1    3    3  502    0  0.16306488202E+03 -0.10643369595E+02  0.57340810564E+02  0.17318026922E+03  0.50400001928E-02 0.  1.
       -1    1    3    3    0  502 -0.16306488202E+03  0.10643369595E+02  0.12761937404E+04  0.12866133452E+04  0.50400001928E-02 0. -1.
</event>
<event>
 5   0  0.3767635E-02  0.5996192E+03  0.7818609E-02  0.9906196E-01
        1   -1    0    0  501    0  0.00000000000E+00  0.00000000000E+00  0.77360133203E+03  0.77360133205E+03  0.50400001928E-02 0. -1.
       -1   -1    0    0    0  501  0.00000000000E+00  0.00000000000E+00 -0.11619135931E+03  0.11619135942E+03  0.50400001928E-02 0.  1.
    10030    2    1    2    0    0  0.00000000000E+00  0.00000000000E+00  0.65740997272E+03  0.88979269147E+03  0.59961918045E+03 0.  0.
        2    1    3    3  502    0  0.25634414577E+03 -0.16485749639E+02  0.99286919077E+02  0.27539425070E+03  0.25500000920E-02 0.  1.
       -2    1    3    3    0  502 -0.25634414577E+03  0.16485749639E+02  0.55812305365E+03  0.61439844078E+03  0.25500000920E-02 0. -1.
</event>
<event>
 5   0  0.6007360E-02  0.6129176E+03  0.7818609E-02  0.9878963E-01
        2   -1    0    0  501    0  0.00000000000E+00  0.00000000000E+00  0.24288003354E+03  0.24288003356E+03  0.25500000920E-02 0.  1.
       -2   -1    0    0    0  501  0.00000000000E+00  0.00000000000E+00 -0.38668057353E+03  0.38668057354E+03  0.25500000920E-02 0. -1.
    10030    2    1    2    0    0  0.00000000000E+00  0.00000000000E+00 -0.14380053999E+03  0.62956060710E+03  0.61291758231E+03 0.  0.
        4    1    3    3  502    0  0.24489655422E+02  0.10700403598E+03  0.22199097145E+03  0.24765139056E+03  0.12699999809E+01 0.  1.
       -4    1    3    3    0  502 -0.24489655422E+02 -0.10700403598E+03 -0.36579151144E+03  0.38190921654E+03  0.12699999809E+01 0. -1.
</event>
<event>
 5   0  0.3478183E-02  0.5952350E+03  0.7818609E-02  0.9915341E-01
        1   -1    0    0  501    0  0.00000000000E+00  0.00000000000E+00  0.16024600013E+04  0.16024600013E+04  0.50400001928E-02 0.  1.
       -1   -1    0    0    0  501  0.00000000000E+00  0.00000000000E+00 -0.55275126030E+02  0.55275126259E+02  0.50400001928E-02 0. -1.
    10030    2    1    2    0    0  0.00000000000E+00  0.00000000000E+00  0.15471848752E+04  0.16577351275E+04  0.59523500813E+03 0.  0.
        4    1    3    3  502    0 -0.24426739449E+03  0.95363719193E+02  0.11656142200E+04  0.11947463838E+04  0.12699999809E+01 0.  1.
       -4    1    3    3    0  502  0.24426739449E+03 -0.95363719193E+02  0.38157065529E+03  0.46298874374E+03  0.12699999809E+01 0. -1.
</event>
<event>
 5   0  0.3651984E-02  0.6025873E+03  0.7818609E-02  0.9900053E-01
       -1   -1    0    0    0  501  0.00000000000E+00  0.00000000000E+00  0.23512580228E+03  0.23512580234E+03  0.50400001928E-02 0.  1.
        1   -1    0    0  501    0  0.00000000000E+00  0.00000000000E+00 -0.38608207278E+03  0.38608207282E+03  0.50400001928E-02 0. -1.
    10030    2    1    2    0    0  0.00000000000E+00  0.00000000000E+00 -0.15095627050E+03  0.62120787515E+03  0.60258727878E+03 0.  0.
        1    1    3    3  502    0  0.19842932950E+03  0.22082511170E+03 -0.12844607291E+03  0.32347538149E+03  0.50400001928E-02 0.  1.
       -1    1    3    3    0  502 -0.19842932950E+03 -0.22082511170E+03 -0.22510197587E+02  0.29773249366E+03  0.50400001928E-02 0. -1.
</event>
<event>
 5   0  0.5872632E-02  0.5970883E+03  0.7818609E-02  0.9911465E-01
       -2   -1    0    0    0  501  0.00000000000E+00  0.00000000000E+00  0.12947038646E+03  0.12947038649E+03  0.25500000920E-02 0.  1.
        2   -1    0    0  501    0  0.00000000000E+00  0.00000000000E+00 -0.68840926643E+03  0.68840926644E+03  0.25500000920E-02 0. -1.
    10030    2    1    2    0    0  0.00000000000E+00  0.00000000000E+00 -0.55893887997E+03  0.81787965293E+03  0.59708831434E+03 0.  0.
        1    1    3    3  502    0 -0.27764620233E+03  0.26082793543E+02 -0.13346805654E+03  0.30916249437E+03  0.50400001928E-02 0. -1.
       -1    1    3    3    0  502  0.27764620233E+03 -0.26082793543E+02 -0.42547082344E+03  0.50871715855E+03  0.50400001928E-02 0.  1.
</event>
<event>
 5   0  0.2388000E-02  0.6080094E+03  0.7818609E-02  0.9888927E-01
        3   -1    0    0  501    0  0.00000000000E+00  0.00000000000E+00  0.27925975566E+03  0.27925977392E+03  0.10100000352E+00 0. -1.
       -3   -1    0    0    0  501  0.00000000000E+00  0.00000000000E+00 -0.33094222669E+03  0.33094224210E+03  0.10100000352E+00 0.  1.
    10030    2    1    2    0    0  0.00000000000E+00  0.00000000000E+00 -0.51682471030E+02  0.61020201603E+03  0.60800939347E+03 0.  0.
        5    1    3    3  502    0  0.12629757145E+03  0.23747303354E+03  0.11627538663E+03  0.29306411201E+03  0.46999998093E+01 0. -1.
       -5    1    3    3    0  502 -0.12629757145E+03 -0.23747303354E+03 -0.16795785766E+03  0.31713790401E+03  0.46999998093E+01 0.  1.
</event>
<event>
 5   0  0.5999117E-02  0.6007169E+03  0.7818609E-02  0.9903920E-01
        2   -1    0    0  501    0  0.00000000000E+00  0.00000000000E+00  0.36692981823E+03  0.36692981824E+03  0.25500000920E-02 0. -1.
       -2   -1    0    0    0  501  0.00000000000E+00  0.00000000000E+00 -0.24586501372E+03  0.24586501373E+03  0.25500000920E-02 0.  1.
    10030    2    1    2    0    0  0.00000000000E+00  0.00000000000E+00  0.12106480451E+03  0.61279483198E+03  0.60071692102E+03 0.  0.
        5    1    3    3  502    0  0.11519503744E+03 -0.26440003561E+03 -0.24912281321E+02  0.28951681685E+03  0.46999998093E+01 0.  1.
       -5    1    3    3    0  502 -0.11519503744E+03  0.26440003561E+03  0.14597708583E+03  0.32327801513E+03  0.46999998093E+01 0. -1.
</event>
<event>
 5   0  0.3478183E-02  0.5895373E+03  0.7818609E-02  0.9927354E-01
        1   -1    0    0  501    0  0.00000000000E+00  0.00000000000E+00  0.83554562360E+03  0.83554562361E+03  0.50400001928E-02 0. -1.
       -1   -1    0    0    0  501  0.00000000000E+00  0.00000000000E+00 -0.10399018536E+03  0.10399018548E+03  0.50400001928E-02 0.  1.
    10030    2    1    2    0    0  0.00000000000E+00  0.00000000000E+00  0.73155543824E+03  0.93953580910E+03  0.58953725698E+03 0.  0.
        4    1    3    3  502    0 -0.54147700387E+02 -0.20106778490E+03  0.33286660115E+02  0.21087873819E+03  0.12699999809E+01 0.  1.
       -4    1    3    3    0  502  0.54147700387E+02  0.20106778490E+03  0.69826877812E+03  0.72865707090E+03  0.12699999809E+01 0. -1.
</event>
<event>
 5   0  0.6007360E-02  0.6032768E+03  0.7818609E-02  0.9898631E-01
        2   -1    0    0  501    0  0.00000000000E+00  0.00000000000E+00  0.76783621762E+03  0.76783621763E+03  0.25500000920E-02 0. -1.
       -2   -1    0    0    0  501  0.00000000000E+00  0.00000000000E+00 -0.11849628502E+03  0.11849628504E+03  0.25500000920E-02 0.  1.
    10030    2    1    2    0    0  0.00000000000E+00  0.00000000000E+00  0.64933993261E+03  0.88633250267E+03  0.60327684956E+03 0.  0.
        4    1    3    3  502    0 -0.38357334197E+02  0.29835481831E+03  0.29190839937E+03  0.41916465645E+03  0.12699999809E+01 0.  1.
       -4    1    3    3    0  502  0.38357334197E+02 -0.29835481831E+03  0.35743153324E+03  0.46716784622E+03  0.12699999809E+01 0. -1.
</event>
<event>
 5   0  0.5755078E-02  0.6139807E+03  0.7818609E-02  0.9876818E-01
       -2   -1    0    0    0  501  0.00000000000E+00  0.00000000000E+00  0.34311541526E+03  0.34311541527E+03  0.25500000920E-02 0. -1.
        2   -1    0    0  501    0  0.00000000000E+00  0.00000000000E+00 -0.27466873891E+03  0.27466873892E+03  0.25500000920E-02 0.  1.
    10030    2    1    2    0    0  0.00000000000E+00  0.00000000000E+00  0.68446676352E+02  0.61778415419E+03  0.61398071115E+03 0.  0.
        2    1    3    3  502    0 -0.71325335591E+02 -0.14245710216E+03  0.29826415132E+03  0.33814617168E+03  0.25500000920E-02 0. -1.
       -2    1    3    3    0  502  0.71325335591E+02  0.14245710216E+03 -0.22981747497E+03  0.27963798251E+03  0.25500000920E-02 0.  1.
</event>
<event>
 5   0  0.3651984E-02  0.5994710E+03  0.7818609E-02  0.9906504E-01
        1   -1    0    0  501    0  0.00000000000E+00  0.00000000000E+00  0.40781419330E+03  0.40781419333E+03  0.50400001928E-02 0.  1.
       -1   -1    0    0    0  501  0.00000000000E+00  0.00000000000E+00 -0.22029974256E+03  0.22029974262E+03  0.50400001928E-02 0. -1.
    10030    2    1    2    0    0  0.00000000000E+00  0.00000000000E+00  0.18751445074E+03  0.62811393594E+03  0.59947097285E+03 0.  0.
        1    1    3    3  502    0 -0.23392352311E+03  0.12414091510E+03 -0.53343755687E+02  0.27014206959E+03  0.50400001928E-02 0. -1.
       -1    1    3    3    0  502  0.23392352311E+03 -0.12414091510E+03  0.24085820643E+03  0.35797186635E+03  0.50400001928E-02 0.  1.
</event>
<event>
 5   0  0.5755078E-02  0.6002182E+03  0.7818609E-02  0.9904954E-01
        2   -1    0    0  501    0  0.00000000000E+00  0.00000000000E+00  0.10752757128E+04  0.10752757128E+04  0.25500000920E-02 0. -1.
       -2   -1    0    0    0  501  0.00000000000E+00  0.00000000000E+00 -0.83760343643E+02  0.83760343682E+02  0.25500000920E-02 0.  1.
    10030    2    1    2    0    0  0.00000000000E+00  0.00000000000E+00  0.99151536920E+03  0.11590360565E+04  0.60021817114E+03 0.  0.
        2    1    3    3  502    0 -0.21918941970E+03 -0.18628781315E+03  0.33056406325E+03  0.43820058302E+03  0.25500000920E-02 0. -1.
       -2    1    3    3    0  502  0.21918941970E+03  0.18628781315E+03  0.66095130594E+03  0.72083547351E+03  0.25500000920E-02 0.  1.
</event>
<event>
 5   0  0.3767635E-02  0.6008378E+03  0.7818609E-02  0.9903669E-01
        1   -1    0    0  501    0  0.00000000000E+00  0.00000000000E+00  0.76092324817E+03  0.76092324818E+03  0.50400001928E-02 0.  1.
       -1   -1    0    0    0  501  0.00000000000E+00  0.00000000000E+00 -0.11860791344E+03  0.11860791355E+03  0.50400001928E-02 0. -1.
    10030    2    1    2    0    0  0.00000000000E+00  0.00000000000E+00  0.64231533473E+03  0.87953116173E+03  0.60083781108E+03 0.  0.
        2    1    3    3  502    0  0.13784559868E+03  0.22860581071E+03  0.52287845769E+03  0.58708083540E+03  0.25500000920E-02 0.  1.
       -2    1    3    3    0  502 -0.13784559868E+03 -0.22860581071E+03  0.11943687704E+03  0.29245032633E+03  0.25500000920E-02 0. -1.
</event>
<event>
 5   0  0.3478183E-02  0.5993595E+03  0.7818609E-02  0.9906736E-01
        1   -1    0    0  501    0  0.00000000000E+00  0.00000000000E+00  0.13071882625E+04  0.13071882625E+04  0.50400001928E-02 0. -1.
       -1   -1    0    0    0  501  0.00000000000E+00  0.00000000000E+00 -0.68703150644E+02  0.68703150829E+02  0.50400001928E-02 0.  1.
    10030    2    1    2    0    0  0.00000000000E+00  0.00000000000E+00  0.12384851118E+04  0.13758914133E+04  0.59935949896E+03 0.  0.
        4    1    3    3  502    0 -0.14200472294E+02  0.29264399639E+03  0.47470746381E+03  0.55784491674E+03  0.12699999809E+01 0.  1.
       -4    1    3    3    0  502  0.14200472294E+02 -0.29264399639E+03  0.76377764801E+03  0.81804649656E+03  0.12699999809E+01 0. -1.
</event>
<event>
 5   0  0.5872632E-02  0.5851763E+03  0.7818609E-02  0.9936647E-01
        2   -1    0    0  501    0  0.00000000000E+00  0.00000000000E+00  0.59395563883E+03  0.59395563883E+03  0.25500000920E-02 0.  1.
       -2   -1    0    0    0  501  0.00000000000E+00  0.00000000000E+00 -0.14413167177E+03  0.14413167180E+03  0.25500000920E-02 0. -1.
    10030    2    1    2    0    0  0.00000000000E+00  0.00000000000E+00  0.44982396705E+03  0.73808731063E+03  0.58517627838E+03 0.  0.
        1    1    3    3  502    0  0.19477109723E+03  0.21279803795E+03  0.28656185595E+03  0.40661589072E+03  0.50400001928E-02 0.  1.
       -1    1    3    3    0  502 -0.19477109723E+03 -0.21279803795E+03  0.16326211111E+03  0.33147141991E+03  0.50400001928E-02 0. -1.
</event>
<event>
 5   0  0.5755078E-02  0.5958277E+03  0.7818609E-02  0.9914100E-01
        2   -1    0    0  501    0  0.00000000000E+00  0.00000000000E+00  0.35117189331E+03  0.35117189332E+03  0.25500000920E-02 0. -1.
       -2   -1    0    0    0  501  0.00000000000E+00  0.00000000000E+00 -0.25273284164E+03  0.25273284165E+03  0.25500000920E-02 0.  1.
    10030    2    1    2    0    0  0.00000000000E+00  0.00000000000E+00  0.98439051674E+02  0.60390473497E+03  0.59582772848E+03 0.  0.
        2    1    3    3  502    0 -0.57628543887E+02 -0.25254488279E+03 -0.99923788459E+02  0.27764137012E+03  0.25500000920E-02 0.  1.
       -2    1    3    3    0  502  0.57628543887E+02  0.25254488279E+03  0.19836284013E+03  0.32626336485E+03  0.25500000920E-02 0. -1.
</event>
<event>
 5   0  0.3651984E-02  0.6116021E+03  0.7818609E-02  0.9881624E-01
       -1   -1    0    0    0  501  0.00000000000E+00  0.00000000000E+00  0.98390854251E+02  0.98390854380E+02  0.50400001928E-02 0. -1.
        1   -1    0    0  501    0  0.00000000000E+00  0.00000000000E+00 -0.95043657885E+03  0.95043657886E+03  0.50400001928E-02 0.  1.
    10030    2    1    2    0    0  0.00000000000E+00  0.00000000000E+00 -0.85204572460E+03  0.10488274332E+04  0.61160205029E+03 0.  0.
        1    1    3    3  502    0 -0.25881090529E+03  0.12831456419E+03 -0.25396459767E+03  0.38463713936E+03  0.50400001928E-02 0.  1.
       -1    1    3    3    0  502  0.25881090529E+03 -0.12831456419E+03 -0.59808112693E+03  0.66419029389E+03  0.50400001928E-02 0. -1.
</event>
<event>
 5   0  0.3767635E-02  0.5932681E+03  0.7818609E-02  0.9919472E-01
       -1   -1    0    0    0  501  0.00000000000E+00  0.00000000000E+00  0.21840122481E+03  0.21840122487E+03  0.50400001928E-02 0. -1.
        1   -1    0    0  501    0  0.00000000000E+00  0.00000000000E+00 -0.40289045893E+03  0.40289045896E+03  0.50400001928E-02 0.  1.
    10030    2    1    2    0    0  0.00000000000E+00  0.00000000000E+00 -0.18448923411E+03  0.62129168383E+03  0.59326813406E+03 0.  0.
        2    1    3    3  502    0 -0.25181050217E+03 -0.12988703597E+03 -0.18421434107E+03  0.33795575832E+03  0.25500000920E-02 0. -1.
       -2    1    3    3    0  502  0.25181050217E+03  0.12988703597E+03 -0.27489304596E+00  0.28333592552E+03  0.25500000920E-02 0.  1.
</event>
<event>
 5   0  0.5872632E-02  0.5785925E+03  0.7818609E-02  0.9950843E-01
       -2   -1    0    0    0  501  0.00000000000E+00  0.00000000000E+00  0.34456422950E+02  0.34456423044E+02  0.25500000920E-02 0.  1.
        2   -1    0    0  501    0  0.00000000000E+00  0.00000000000E+00 -0.24289320287E+04  0.24289320287E+04  0.25500000920E-02 0. -1.
    10030    2    1    2    0    0  0.00000000000E+00  0.00000000000E+00 -0.23944756058E+04  0.24633884518E+04  0.57859246250E+03 0.  0.
        1    1    3    3  502    0  0.26311587297E+03  0.23597782710E+02 -0.16992951194E+04  0.17197065798E+04  0.50400001928E-02 0. -1.
       -1    1    3    3    0  502 -0.26311587297E+03 -0.23597782710E+02 -0.69518048644E+03  0.74368187198E+03  0.50400001928E-02 0.  1.
</event>
<event>
 5   0  0.3767635E-02  0.5993575E+03  0.7818609E-02  0.9906740E-01
       -1   -1    0    0    0  501  0.00000000000E+00  0.00000000000E+00  0.10602245899E+03  0.10602245911E+03  0.50400001928E-02 0.  1.
        1   -1    0    0  501    0  0.00000000000E+00  0.00000000000E+00 -0.84705960525E+03  0.84705960527E+03  0.50400001928E-02 0. -1.
    10030    2    1    2    0    0  0.00000000000E+00  0.00000000000E+00 -0.74103714626E+03  0.95308206438E+03  0.59935746370E+03 0.  0.
        2    1    3    3  502    0  0.24461423247E+03  0.17144804805E+03 -0.33232837707E+03  0.44684751999E+03  0.25500000920E-02 0. -1.
       -2    1    3    3    0  502 -0.24461423247E+03 -0.17144804805E+03 -0.40870876919E+03  0.50623454438E+03  0.25500000920E-02 0.  1.
</event>
<event>
 5   0  0.3651984E-02  0.6014120E+03  0.7818609E-02  0.9902481E-01
       -1   -1    0    0    0  501  0.00000000000E+00  0.00000000000E+00  0.62705339096E+03  0.62705339098E+03  0.50400001928E-02 0.  1.
        1   -1    0    0  501    0  0.00000000000E+00  0.00000000000E+00 -0.14420476644E+03  0.14420476652E+03  0.50400001928E-02 0. -1.
    10030    2    1    2    0    0  0.00000000000E+00  0.00000000000E+00  0.48284862452E+03  0.77125815750E+03  0.60141196472E+03 0.  0.
        1    1    3    3  502    0  0.27560156143E+03 -0.18009307943E+02  0.88911389179E+02  0.29014787779E+03  0.50400001928E-02 0. -1.
       -1    1    3    3    0  502 -0.27560156143E+03  0.18009307943E+02  0.39393723534E+03  0.48111027972E+03  0.50400001928E-02 0.  1.
</event>
<event>
 5   0  0.2388000E-02  0.5966146E+03  0.7818609E-02  0.9912455E-01
       -3   -1    0    0    0  501  0.00000000000E+00  0.00000000000E+00  0.14760812045E+03  0.14760815501E+03  0.10100000352E+00 0. -1.
        3   -1    0    0  501    0  0.00000000000E+00  0.00000000000E+00 -0.60286132083E+03  0.60286132929E+03  0.10100000352E+00 0.  1.
    10030    2    1    2    0    0  0.00000000000E+00  0.00000000000E+00 -0.45525320037E+03  0.75046948429E+03  0.59661459118E+03 0.  0.
        3    1    3    3  502    0 -0.19355157669E+03 -0.22580201593E+03 -0.25681562500E+03  0.39294152069E+03  0.10100000352E+00 0.  1.
       -3    1    3    3    0  502  0.19355157669E+03  0.22580201593E+03 -0.19843757537E+03  0.35752796360E+03  0.10100000352E+00 0. -1.
</event>
<event>
 5   0  0.6007360E-02  0.6025181E+03  0.7818609E-02  0.9900196E-01
        2   -1    0    0  501    0  0.00000000000E+00  0.00000000000E+00  0.17141422830E+04  0.17141422830E+04  0.25500000920E-02 0. -1.
       -2   -1    0    0    0  501  0.00000000000E+00  0.00000000000E+00 -0.52946021802E+02  0.52946021863E+02  0.25500000920E-02 0.  1.
    10030    2    1    2    0    0  0.00000000000E+00  0.00000000000E+00  0.16611962612E+04  0.17670883049E+04  0.60251809846E+03 0.  0.
        4    1    3    3  502    0 -0.21436278642E+03  0.20290774384E+03  0.65383662701E+03  0.71737500962E+03  0.12699999809E+01 0.  1.
       -4    1    3    3    0  502  0.21436278642E+03 -0.20290774384E+03  0.10073596342E+04  0.10497132952E+04  0.12699999809E+01 0. -1.
</event>
<event>
 5   0  0.6007360E-02  0.6005213E+03  0.7818609E-02  0.9904325E-01
       -2   -1    0    0    0  501  0.00000000000E+00  0.00000000000E+00  0.14341012212E+03  0.14341012214E+03  0.25500000920E-02 0. -1.
        2   -1    0    0  501    0  0.00000000000E+00  0.00000000000E+00 -0.62866165096E+03  0.62866165096E+03  0.25500000920E-02 0.  1.
    10030    2    1    2    0    0  0.00000000000E+00  0.00000000000E+00 -0.48525152884E+03  0.77207177310E+03  0.60052125406E+03 0.  0.
        4    1    3    3  502    0 -0.15778498365E+03 -0.21030864414E+03 -0.56185956084E+02  0.26885739980E+03  0.12699999809E+01 0.  1.
       -4    1    3    3    0  502  0.15778498365E+03  0.21030864414E+03 -0.42906557276E+03  0.50321437330E+03  0.12699999809E+01 0. -1.
</event>
<event>
 5   0  0.6007360E-02  0.6026500E+03  0.7818609E-02  0.9899923E-01
        2   -1    0    0  501    0  0.00000000000E+00  0.00000000000E+00  0.11805278160E+04  0.11805278160E+04  0.25500000920E-02 0.  1.
       -2   -1    0    0    0  501  0.00000000000E+00  0.00000000000E+00 -0.76911999848E+02  0.76911999890E+02  0.25500000920E-02 0. -1.
    10030    2    1    2    0    0  0.00000000000E+00  0.00000000000E+00  0.11036158162E+04  0.12574398159E+04  0.60264999871E+03 0.  0.
        4    1    3    3  502    0 -0.28200855359E+03 -0.82567702959E+02  0.41263714702E+03  0.50657405961E+03  0.12699999809E+01 0. -1.
       -4    1    3    3    0  502  0.28200855359E+03  0.82567702959E+02  0.69097866918E+03  0.75086575633E+03  0.12699999809E+01 0.  1.
</event>
<event>
 5   0  0.5935451E-02  0.5952134E+03  0.7818609E-02  0.9915387E-01
       -2   -1    0    0    0  501  0.00000000000E+00  0.00000000000E+00  0.16803512488E+03  0.16803512490E+03  0.25500000920E-02 0. -1.
        2   -1    0    0  501    0  0.00000000000E+00  0.00000000000E+00 -0.52709059902E+03  0.52709059903E+03  0.25500000920E-02 0.  1.
    10030    2    1    2    0    0  0.00000000000E+00  0.00000000000E+00 -0.35905547414E+03  0.69512572393E+03  0.59521335549E+03 0.  0.
        3    1    3    3  502    0  0.80704603420E+02  0.28541330775E+03 -0.15102298172E+03  0.33283921112E+03  0.10100000352E+00 0.  1.
       -3    1    3    3    0  502 -0.80704603420E+02 -0.28541330775E+03 -0.20803249242E+03  0.36228651280E+03  0.10100000352E+00 0. -1.
</event>
<event>
 5   0  0.3651984E-02  0.5990517E+03  0.7818609E-02  0.9907375E-01
       -1   -1    0    0    0  501  0.00000000000E+00  0.00000000000E+00  0.21512485783E+03  0.21512485789E+03  0.50400001928E-02 0.  1.
        1   -1    0    0  501    0  0.00000000000E+00  0.00000000000E+00 -0.41704031044E+03  0.41704031047E+03  0.50400001928E-02 0. -1.
    10030    2    1    2    0    0  0.00000000000E+00  0.00000000000E+00 -0.20191545261E+03  0.63216516835E+03  0.59905170902E+03 0.  0.
        1    1    3    3  502    0  0.26943256180E+02 -0.37249523534E+02  0.21137963363E+03  0.21632109374E+03  0.50400001928E-02 0.  1.
       -1    1    3    3    0  502 -0.26943256180E+02  0.37249523534E+02 -0.41329508624E+03  0.41584407461E+03  0.50400001928E-02 0. -1.
</event>
<event>
 5   0  0.5755078E-02  0.5925890E+03  0.7818609E-02  0.9920902E-01
        2   -1    0    0  501    0  0.00000000000E+00  0.00000000000E+00  0.83159153998E+03  0.83159153998E+03  0.25500000920E-02 0.  1.
       -2   -1    0    0    0  501  0.00000000000E+00  0.00000000000E+00 -0.10556918043E+03  0.10556918047E+03  0.25500000920E-02 0. -1.
    10030    2    1    2    0    0  0.00000000000E+00  0.00000000000E+00  0.72602235955E+03  0.93716072045E+03  0.59258902234E+03 0.  0.
        2    1    3    3  502    0  0.21294596970E+03 -0.85736949489E+02  0.65927226026E+03  0.69809506779E+03  0.25500000920E-02 0.  1.
       -2    1    3    3    0  502 -0.21294596970E+03  0.85736949489E+02  0.66750099290E+02  0.23906565266E+03  0.25500000920E-02 0. -1.
</event>
<event>
 5   0  0.5872632E-02  0.5969352E+03  0.7818609E-02  0.9911785E-01
        2   -1    0    0  501    0  0.00000000000E+00  0.00000000000E+00  0.86460934033E+03  0.86460934033E+03  0.25500000920E-02 0.  1.
       -2   -1    0    0    0  501  0.00000000000E+00  0.00000000000E+00 -0.10303253646E+03  0.10303253649E+03  0.25500000920E-02 0. -1.
    10030    2    1    2    0    0  0.00000000000E+00  0.00000000000E+00  0.76157680387E+03  0.96764187682E+03  0.59693515023E+03 0.  0.
        1    1    3    3  502    0 -0.15992247681E+03 -0.25197208812E+03  0.37395670798E+03  0.47844409417E+03  0.50400001928E-02 0.  1.
       -1    1    3    3    0  502  0.15992247681E+03  0.25197208812E+03  0.38762009589E+03  0.48919778265E+03  0.50400001928E-02 0. -1.
</event>
<event>
 5   0  0.3767635E-02  0.5983472E+03  0.7818609E-02  0.9908841E-01
       -1   -1    0    0    0  501  0.00000000000E+00  0.00000000000E+00  0.30951125630E+03  0.30951125634E+03  0.50400001928E-02 0.  1.
        1   -1    0    0  501    0  0.00000000000E+00  0.00000000000E+00 -0.28918124118E+03  0.28918124122E+03  0.50400001928E-02 0. -1.
    10030    2    1    2    0    0  0.00000000000E+00  0.00000000000E+00  0.20330015120E+02  0.59869249756E+03  0.59834722120E+03 0.  0.
        2    1    3    3  502    0  0.12469963112E+03  0.25809739447E+03  0.95891668848E+02  0.30225729965E+03  0.25500000920E-02 0.  1.
       -2    1    3    3    0  502 -0.12469963112E+03 -0.25809739447E+03 -0.75561653728E+02  0.29643519790E+03  0.25500000920E-02 0. -1.
</event>
<event>
 5   0  0.3767635E-02  0.5960418E+03  0.7818609E-02  0.9913652E-01
        1   -1    0    0  501    0  0.00000000000E+00  0.00000000000E+00  0.14479910401E+04  0.14479910401E+04  0.50400001928E-02 0.  1.
       -1   -1    0    0    0  501  0.00000000000E+00  0.00000000000E+00 -0.61337715757E+02  0.61337715964E+02  0.50400001928E-02 0. -1.
    10030    2    1    2    0    0  0.00000000000E+00  0.00000000000E+00  0.13866533243E+04  0.15093287561E+04  0.59604182068E+03 0.  0.
        2    1    3    3  502    0  0.23964548059E+02 -0.20398767594E+03  0.12401478954E+04  0.12570409993E+04  0.25500000920E-02 0.  1.
       -2    1    3    3    0  502 -0.23964548059E+02  0.20398767594E+03  0.14650542899E+03  0.25228775679E+03  0.25500000920E-02 0. -1.
</event>
<event>
 5   0  0.6007360E-02  0.6045814E+03  0.7818609E-02  0.9895947E-01
       -2   -1    0    0    0  501  0.00000000000E+00  0.00000000000E+00  0.96104896941E+02  0.96104896975E+02  0.25500000920E-02 0. -1.
        2   -1    0    0  501    0  0.00000000000E+00  0.00000000000E+00 -0.95083248276E+03  0.95083248276E+03  0.25500000920E-02 0.  1.
    10030    2    1    2    0    0  0.00000000000E+00  0.00000000000E+00 -0.85472758582E+03  0.10469373797E+04  0.60458136850E+03 0.  0.
        4    1    3    3  502    0  0.26759633434E+03 -0.11921908488E+03 -0.55645253067E+03  0.62885771056E+03  0.12699999809E+01 0. -1.
       -4    1    3    3    0  502 -0.26759633434E+03  0.11921908488E+03 -0.29827505515E+03  0.41807966917E+03  0.12699999809E+01 0.  1.
</event>
<event>
 5   0  0.6007360E-02  0.6021944E+03  0.7818609E-02  0.9900864E-01
        2   -1    0    0  501    0  0.00000000000E+00  0.00000000000E+00  0.16215248408E+03  0.16215248410E+03  0.25500000920E-02 0. -1.
       -2   -1    0    0    0  501  0.00000000000E+00  0.00000000000E+00 -0.55910042347E+03  0.55910042347E+03  0.25500000920E-02 0.  1.
    10030    2    1    2    0    0  0.00000000000E+00  0.00000000000E+00 -0.39694793939E+03  0.72125290757E+03  0.60219439560E+03 0.  0.
        4    1    3    3  502    0 -0.53898732101E+02  0.17663448202E+03  0.86351656250E+02  0.20387014249E+03  0.12699999809E+01 0. -1.
       -4    1    3    3    0  502  0.53898732101E+02 -0.17663448202E+03 -0.48329959564E+03  0.51738276509E+03  0.12699999809E+01 0.  1.
</event>
<event>
 5   0  0.6007360E-02  0.5798835E+03  0.7818609E-02  0.9948043E-01
        2   -1    0    0  501    0  0.00000000000E+00  0.00000000000E+00  0.69456145178E+03  0.69456145178E+03  0.25500000920E-02 0.  1.
       -2   -1    0    0    0  501  0.00000000000E+00  0.00000000000E+00 -0.12103494090E+03  0.12103494093E+03  0.25500000920E-02 0. -1.
    10030    2    1    2    0    0  0.00000000000E+00  0.00000000000E+00  0.57352651088E+03  0.81559639271E+03  0.57988345133E+03 0.  0.
        4    1    3    3  502    0  0.18208912372E+03  0.16879592425E+03  0.76184575296E+02  0.25971949375E+03  0.12699999809E+01 0. -1.
       -4    1    3    3    0  502 -0.18208912372E+03 -0.16879592425E+03  0.49734193558E+03  0.55587689897E+03  0.12699999809E+01 0.  1.
</event>
<event>
 5   0  0.3640827E-02  0.5966824E+03  0.7818609E-02  0.9912313E-01
        1   -1    0    0  501    0  0.00000000000E+00  0.00000000000E+00  0.10300132635E+04  0.10300132635E+04  0.50400001928E-02 0. -1.
       -1   -1    0    0    0  501  0.00000000000E+00  0.00000000000E+00 -0.86413899404E+02  0.86413899551E+02  0.50400001928E-02 0.  1.
    10030    2    1    2    0    0  0.00000000000E+00  0.00000000000E+00  0.94359936413E+03  0.11164271631E+04  0.59668236987E+03 0.  0.
        3    1    3    3  502    0  0.22295524283E+03  0.13482346761E+03  0.19987734359E+03  0.32838600823E+03  0.10100000352E+00 0.  1.
       -3    1    3    3    0  502 -0.22295524283E+03 -0.13482346761E+03  0.74372202054E+03  0.78804115486E+03  0.10100000352E+00 0. -1.
</event>
<event>
 5   0  0.2388000E-02  0.6042359E+03  0.7818609E-02  0.9896657E-01
       -3   -1    0    0    0  501  0.00000000000E+00  0.00000000000E+00  0.13032099932E+04  0.13032099971E+04  0.10100000352E+00 0.  1.
        3   -1    0    0  501    0  0.00000000000E+00  0.00000000000E+00 -0.70038748715E+02  0.70038821539E+02  0.10100000352E+00 0. -1.
    10030    2    1    2    0    0  0.00000000000E+00  0.00000000000E+00  0.12331712445E+04  0.13732488187E+04  0.60423588085E+03 0.  0.
        4    1    3    3  502    0  0.19171570623E+03  0.20291996041E+03  0.87910217047E+03  0.92236308543E+03  0.12699999809E+01 0.  1.
       -4    1    3    3    0  502 -0.19171570623E+03 -0.20291996041E+03  0.35406907403E+03  0.45088573323E+03  0.12699999809E+01 0. -1.
</event>
<event>
 5   0  0.3640827E-02  0.5759341E+03  0.7818609E-02  0.9956633E-01
        1   -1    0    0  501    0  0.00000000000E+00  0.00000000000E+00  0.66236729996E+03  0.66236729998E+03  0.50400001928E-02 0.  1.
       -1   -1    0    0    0  501  0.00000000000E+00  0.00000000000E+00 -0.12519493897E+03  0.12519493907E+03  0.50400001928E-02 0. -1.
    10030    2    1    2    0    0  0.00000000000E+00  0.00000000000E+00  0.53717236099E+03  0.78756223905E+03  0.57593414117E+03 0.  0.
        3    1    3    3  502    0 -0.14293514801E+02  0.20340609543E+03  0.54664224955E+03  0.58343474650E+03  0.10100000352E+00 0.  1.
       -3    1    3    3    0  502  0.14293514801E+02 -0.20340609543E+03 -0.94698885620E+01  0.20412749255E+03  0.10100000352E+00 0. -1.
</event>
<event>
 5   0  0.5755078E-02  0.5969080E+03  0.7818609E-02  0.9911842E-01
       -2   -1    0    0    0  501  0.00000000000E+00  0.00000000000E+00  0.75949390469E+02  0.75949390512E+02  0.25500000920E-02 0.  1.
        2   -1    0    0  501    0  0.00000000000E+00  0.00000000000E+00 -0.11728175845E+04  0.11728175845E+04  0.25500000920E-02 0. -1.
    10030    2    1    2    0    0  0.00000000000E+00  0.00000000000E+00 -0.10968681940E+04  0.12487669750E+04  0.59690796845E+03 0.  0.
        2    1    3    3  502    0 -0.12579227617E+03  0.13895458641E+02  0.17033753489E+02  0.12769858762E+03  0.25500000920E-02 0.  1.
       -2    1    3    3    0  502  0.12579227617E+03 -0.13895458641E+02 -0.11139019475E+04  0.11210683873E+04  0.25500000920E-02 0. -1.
</event>
<event>
 5   0  0.3767635E-02  0.5930196E+03  0.7818609E-02  0.9919995E-01
        1   -1    0    0  501    0  0.00000000000E+00  0.00000000000E+00  0.46840216701E+03  0.46840216704E+03  0.50400001928E-02 0. -1.
       -1   -1    0    0    0  501  0.00000000000E+00  0.00000000000E+00 -0.18769783127E+03  0.18769783134E+03  0.50400001928E-02 0.  1.
    10030    2    1    2    0    0  0.00000000000E+00  0.00000000000E+00  0.28070433574E+03  0.65609999838E+03  0.59301963186E+03 0.  0.
        2    1    3    3  502    0 -0.10318363558E+02 -0.22276602003E+03  0.35655340899E+03  0.42054904800E+03  0.25500000920E-02 0. -1.
       -2    1    3    3    0  502  0.10318363558E+02  0.22276602003E+03 -0.75849073245E+02  0.23555095038E+03  0.25500000920E-02 0.  1.
</event>
<event>
 5   0  0.3767635E-02  0.6086935E+03  0.7818609E-02  0.9887532E-01
       -1   -1    0    0    0  501  0.00000000000E+00  0.00000000000E+00  0.52685232704E+03  0.52685232707E+03  0.50400001928E-02 0. -1.
        1   -1    0    0  501    0  0.00000000000E+00  0.00000000000E+00 -0.17581196617E+03  0.17581196624E+03  0.50400001928E-02 0.  1.
    10030    2    1    2    0    0  0.00000000000E+00  0.00000000000E+00  0.35104036088E+03  0.70266429331E+03  0.60869349768E+03 0.  0.
        2    1    3    3  502    0 -0.12793085504E+03 -0.27594772632E+03  0.16322224502E+03  0.34518828574E+03  0.25500000920E-02 0.  1.
       -2    1    3    3    0  502  0.12793085504E+03  0.27594772632E+03  0.18781811586E+03  0.35747600757E+03  0.25500000920E-02 0. -1.
</event>
<event>
 5   0  0.3651984E-02  0.6316950E+03  0.7818609E-02  0.9841747E-01
        1   -1    0    0  501    0  0.00000000000E+00  0.00000000000E+00  0.80996675163E+03  0.80996675165E+03  0.50400001928E-02 0. -1.
       -1   -1    0    0    0  501  0.00000000000E+00  0.00000000000E+00 -0.12316509447E+03  0.12316509457E+03  0.50400001928E-02 0.  1.
    10030    2    1    2    0    0  0.00000000000E+00  0.00000000000E+00  0.68680165717E+03  0.93313184622E+03  0.63169496289E+03 0.  0.
        1    1    3    3  502    0  0.20671894327E+03  0.40986220434E+02  0.69092322332E+03  0.72234859473E+03  0.50400001928E-02 0. -1.
       -1    1    3    3    0  502 -0.20671894327E+03 -0.40986220434E+02 -0.41215661469E+01  0.21078325149E+03  0.50400001928E-02 0.  1.
</event>
<event>
 5   0  0.5755078E-02  0.5986981E+03  0.7818609E-02  0.9908111E-01
        2   -1    0    0  501    0  0.00000000000E+00  0.00000000000E+00  0.10770982092E+04  0.10770982092E+04  0.25500000920E-02 0. -1.
       -2   -1    0    0    0  501  0.00000000000E+00  0.00000000000E+00 -0.83195608900E+02  0.83195608939E+02  0.25500000920E-02 0.  1.
    10030    2    1    2    0    0  0.00000000000E+00  0.00000000000E+00  0.99390260031E+03  0.11602938182E+04  0.59869805874E+03 0.  0.
        2    1    3    3  502    0 -0.20211743247E+03  0.94562400621E+02  0.11023651056E+03  0.24888871487E+03  0.25500000920E-02 0.  1.
       -2    1    3    3    0  502  0.20211743247E+03 -0.94562400621E+02  0.88366608975E+03  0.91140510329E+03  0.25500000920E-02 0. -1.
</event>
<event>
 5   0  0.6007360E-02  0.5945916E+03  0.7818609E-02  0.9916691E-01
       -2   -1    0    0    0  501  0.00000000000E+00  0.00000000000E+00  0.10324519076E+03  0.10324519079E+03  0.25500000920E-02 0.  1.
        2   -1    0    0  501    0  0.00000000000E+00  0.00000000000E+00 -0.85606694367E+03  0.85606694367E+03  0.25500000920E-02 0. -1.
    10030    2    1    2    0    0  0.00000000000E+00  0.00000000000E+00 -0.75282175291E+03  0.95931213446E+03  0.59459160747E+03 0.  0.
        4    1    3    3  502    0 -0.10907808196E+03 -0.92738500183E+02  0.43954747164E+02  0.14977346253E+03  0.12699999809E+01 0.  1.
       -4    1    3    3    0  502  0.10907808196E+03  0.92738500183E+02 -0.79677650008E+03  0.80953867193E+03  0.12699999809E+01 0. -1.
</event>
<event>
 5   0  0.3651984E-02  0.6159199E+03  0.7818609E-02  0.9872917E-01
       -1   -1    0    0    0  501  0.00000000000E+00  0.00000000000E+00  0.57083316487E+03  0.57083316489E+03  0.50400001928E-02 0.  1.
        1   -1    0    0  501    0  0.00000000000E+00  0.00000000000E+00 -0.16614191782E+03  0.16614191790E+03  0.50400001928E-02 0. -1.
    10030    2    1    2    0    0  0.00000000000E+00  0.00000000000E+00  0.40469124705E+03  0.73697508279E+03  0.61591985453E+03 0.  0.
        1    1    3    3  502    0 -0.18710753488E+03  0.14309599800E+03 -0.35021713910E+02  0.23814326512E+03  0.50400001928E-02 0. -1.
       -1    1    3    3    0  502  0.18710753488E+03 -0.14309599800E+03  0.43971296096E+03  0.49883181766E+03  0.50400001928E-02 0.  1.
</event>
<event>
 5   0  0.5872632E-02  0.5927541E+03  0.7818609E-02  0.9920554E-01
       -2   -1    0    0    0  501  0.00000000000E+00  0.00000000000E+00  0.14158719678E+03  0.14158719680E+03  0.25500000920E-02 0. -1.
        2   -1    0    0  501    0  0.00000000000E+00  0.00000000000E+00 -0.62039056292E+03  0.62039056292E+03  0.25500000920E-02 0.  1.
    10030    2    1    2    0    0  0.00000000000E+00  0.00000000000E+00 -0.47880336614E+03  0.76197775973E+03  0.59275411672E+03 0.  0.
        1    1    3    3  502    0 -0.18249095839E+03  0.10086199129E+03  0.31355189756E+02  0.21085359644E+03  0.50400001928E-02 0. -1.
       -1    1    3    3    0  502  0.18249095839E+03 -0.10086199129E+03 -0.51015855590E+03  0.55112416329E+03  0.50400001928E-02 0.  1.
</event>
<event>
 5   0  0.3767635E-02  0.6166506E+03  0.7818609E-02  0.9871451E-01
        1   -1    0    0  501    0  0.00000000000E+00  0.00000000000E+00  0.81741953148E+03  0.81741953150E+03  0.50400001928E-02 0. -1.
       -1   -1    0    0    0  501  0.00000000000E+00  0.00000000000E+00 -0.11629829086E+03  0.11629829097E+03  0.50400001928E-02 0.  1.
    10030    2    1    2    0    0  0.00000000000E+00  0.00000000000E+00  0.70112124062E+03  0.93371782247E+03  0.61665061254E+03 0.  0.
        2    1    3    3  502    0 -0.28004892614E+03 -0.73664187228E+02  0.19023885802E+03  0.34647458294E+03  0.25500000920E-02 0.  1.
       -2    1    3    3    0  502  0.28004892614E+03  0.73664187228E+02  0.51088238260E+03  0.58724323953E+03  0.25500000920E-02 0. -1.
</event>
<event>
 5   0  0.3478183E-02  0.5882784E+03  0.7818609E-02  0.9930028E-01
       -1   -1    0    0    0  501  0.00000000000E+00  0.00000000000E+00  0.45029496218E+03  0.45029496221E+03  0.50400001928E-02 0. -1.
        1   -1    0    0  501    0  0.00000000000E+00  0.00000000000E+00 -0.19213598118E+03  0.19213598124E+03  0.50400001928E-02 0.  1.
    10030    2    1    2    0    0  0.00000000000E+00  0.00000000000E+00  0.25815898100E+03  0.64243094345E+03  0.58827838447E+03 0.  0.
        4    1    3    3  502    0 -0.21386772709E+02  0.27613127202E+03  0.20914570787E+02  0.27774971756E+03  0.12699999809E+01 0.  1.
       -4    1    3    3    0  502  0.21386772709E+02 -0.27613127202E+03  0.23724441021E+03  0.36468122589E+03  0.12699999809E+01 0. -1.
</event>
<event>
 5   0  0.3651984E-02  0.5944922E+03  0.7818609E-02  0.9916899E-01
        1   -1    0    0  501    0  0.00000000000E+00  0.00000000000E+00  0.24258049545E+04  0.24258049545E+04  0.50400001928E-02 0.  1.
       -1   -1    0    0    0  501  0.00000000000E+00  0.00000000000E+00 -0.36423065675E+02  0.36423066023E+02  0.50400001928E-02 0. -1.
    10030    2    1    2    0    0  0.00000000000E+00  0.00000000000E+00  0.23893818888E+04  0.24622280205E+04  0.59449223244E+03 0.  0.
        1    1    3    3  502    0 -0.17600961858E+03  0.40746057232E+01  0.21866274529E+04  0.21937036277E+04  0.50400001928E-02 0.  1.
       -1    1    3    3    0  502  0.17600961858E+03 -0.40746057232E+01  0.20275443589E+03  0.26852439283E+03  0.50400001928E-02 0. -1.
</event>
<event>
 5   0  0.3651984E-02  0.5982601E+03  0.7818609E-02  0.9909022E-01
       -1   -1    0    0    0  501  0.00000000000E+00  0.00000000000E+00  0.21570069635E+03  0.21570069641E+03  0.50400001928E-02 0.  1.
        1   -1    0    0  501    0  0.00000000000E+00  0.00000000000E+00 -0.41482848517E+03  0.41482848520E+03  0.50400001928E-02 0. -1.
    10030    2    1    2    0    0  0.00000000000E+00  0.00000000000E+00 -0.19912778882E+03  0.63052918161E+03  0.59826012117E+03 0.  0.
        1    1    3    3  502    0 -0.29440121525E+03 -0.89723836720E+01 -0.44534453416E+02  0.29788571093E+03  0.50400001928E-02 0.  1.
       -1    1    3    3    0  502  0.29440121525E+03  0.89723836720E+01 -0.15459333541E+03  0.33264347068E+03  0.50400001928E-02 0. -1.
</event>
<event>
 5   0  0.3651984E-02  0.5792131E+03  0.7818609E-02  0.9949496E-01
        1   -1    0    0  501    0  0.00000000000E+00  0.00000000000E+00  0.12436482454E+04  0.12436482454E+04  0.50400001928E-02 0. -1.
       -1   -1    0    0    0  501  0.00000000000E+00  0.00000000000E+00 -0.67440261546E+02  0.67440261735E+02  0.50400001928E-02 0.  1.
    10030    2    1    2    0    0  0.00000000000E+00  0.00000000000E+00  0.11762079838E+04  0.13110885071E+04  0.57921313200E+03 0.  0.
        1    1    3    3  502    0  0.77381219055E+02 -0.14392470198E+03  0.11293278213E+04  0.11410887349E+04  0.50400001928E-02 0. -1.
       -1    1    3    3    0  502 -0.77381219055E+02  0.14392470198E+03  0.46880162559E+02  0.16999977226E+03  0.50400001928E-02 0.  1.
</event>
<event>
 5   0  0.2388000E-02  0.6293451E+03  0.7818609E-02  0.9846328E-01
        3   -1    0    0  501    0  0.00000000000E+00  0.00000000000E+00  0.11313690978E+03  0.11313695486E+03  0.10100000352E+00 0. -1.
       -3   -1    0    0    0  501  0.00000000000E+00  0.00000000000E+00 -0.87521194093E+03  0.87521194676E+03  0.10100000352E+00 0.  1.
    10030    2    1    2    0    0  0.00000000000E+00  0.00000000000E+00 -0.76207503115E+03  0.98834890162E+03  0.62934505498E+03 0.  0.
        3    1    3    3  502    0 -0.21746813227E+03 -0.10222760085E+03 -0.61979372994E+02  0.24816189032E+03  0.10100000352E+00 0. -1.
       -3    1    3    3    0  502  0.21746813227E+03  0.10222760085E+03 -0.70009565815E+03  0.74018701130E+03  0.10100000352E+00 0.  1.
</event>
<event>
 5   0  0.3767635E-02  0.5890080E+03  0.7818609E-02  0.9928477E-01
       -1   -1    0    0    0  501  0.00000000000E+00  0.00000000000E+00  0.32393854958E+03  0.32393854962E+03  0.50400001928E-02 0. -1.
        1   -1    0    0  501    0  0.00000000000E+00  0.00000000000E+00 -0.26774399097E+03  0.26774399102E+03  0.50400001928E-02 0.  1.
    10030    2    1    2    0    0  0.00000000000E+00  0.00000000000E+00  0.56194558616E+02  0.59168254064E+03  0.58900797998E+03 0.  0.
        2    1    3    3  502    0  0.43969511187E+02  0.13075851509E+03  0.28947387576E+03  0.32066529581E+03  0.25500000920E-02 0. -1.
       -2    1    3    3    0  502 -0.43969511187E+02 -0.13075851509E+03 -0.23327931715E+03  0.27101724483E+03  0.25500000920E-02 0.  1.
</event>
<event>
 5   0  0.3478183E-02  0.6017344E+03  0.7818609E-02  0.9901814E-01
        1   -1    0    0  501    0  0.00000000000E+00  0.00000000000E+00  0.34165954620E+03  0.34165954624E+03  0.50400001928E-02 0.  1.
       -1   -1    0    0    0  501  0.00000000000E+00  0.00000000000E+00 -0.26494528719E+03  0.26494528724E+03  0.50400001928E-02 0. -1.
    10030    2    1    2    0    0  0.00000000000E+00  0.00000000000E+00  0.76714259010E+02  0.60660483348E+03  0.60173444847E+03 0.  0.
        4    1    3    3  502    0 -0.28396424974E+03  0.48721458033E+02 -0.49004536079E+02  0.29225422677E+03  0.12699999809E+01 0. -1.
       -4    1    3    3    0  502  0.28396424974E+03 -0.48721458033E+02  0.12571879509E+03  0.31435060672E+03  0.12699999809E+01 0.  1.
</event>
<event>
 5   0  0.5755078E-02  0.6016960E+03  0.7818609E-02  0.9901894E-01
        2   -1    0    0  501    0  0.00000000000E+00  0.00000000000E+00  0.35864133773E+03  0.35864133774E+03  0.25500000920E-02 0. -1.
       -2   -1    0    0    0  501  0.00000000000E+00  0.00000000000E+00 -0.25236775666E+03  0.25236775667E+03  0.25500000920E-02 0.  1.
    10030    2    1    2    0    0  0.00000000000E+00  0.00000000000E+00  0.10627358107E+03  0.61100909441E+03  0.60169596925E+03 0.  0.
        2    1    3    3  502    0 -0.19693609387E+03 -0.13897840811E+03 -0.12967941460E+03  0.27370709447E+03  0.25500000920E-02 0.  1.
       -2    1    3    3    0  502  0.19693609387E+03  0.13897840811E+03  0.23595299566E+03  0.33730199993E+03  0.25500000920E-02 0. -1.
</event>
<event>
 5   0  0.2388000E-02  0.6110547E+03  0.7818609E-02  0.9882733E-01
       -4   -1    0    0    0  501  0.00000000000E+00  0.00000000000E+00  0.60015568708E+03  0.60015703081E+03  0.12699999809E+01 0.  1.
        4   -1    0    0  501    0  0.00000000000E+00  0.00000000000E+00 -0.15553381412E+03  0.15553899908E+03  0.12699999809E+01 0. -1.
    10030    2    1    2    0    0  0.00000000000E+00  0.00000000000E+00  0.44462187296E+03  0.75569602989E+03  0.61105472724E+03 0.  0.
        3    1    3    3  502    0 -0.23952040196E+03 -0.85716498049E+02  0.43156544050E+03  0.50096514912E+03  0.10100000352E+00 0.  1.
       -3    1    3    3    0  502  0.23952040196E+03  0.85716498049E+02  0.13056432453E+02  0.25473088078E+03  0.10100000352E+00 0. -1.
</event>
<event>
 5   0  0.3703280E-02  0.6010292E+03  0.7818609E-02  0.9903273E-01
        1   -1    0    0  501    0  0.00000000000E+00  0.00000000000E+00  0.64926703940E+03  0.64926703942E+03  0.50400001928E-02 0. -1.
       -1   -1    0    0    0  501  0.00000000000E+00  0.00000000000E+00 -0.13909382290E+03  0.13909382299E+03  0.50400001928E-02 0.  1.
    10030    2    1    2    0    0  0.00000000000E+00  0.00000000000E+00  0.51017321649E+03  0.78836086241E+03  0.60102923270E+03 0.  0.
        5    1    3    3  502    0  0.22329570348E+03 -0.16663295246E+03  0.10750352446E+03  0.29867475589E+03  0.46999998093E+01 0.  1.
       -5    1    3    3    0  502 -0.22329570348E+03  0.16663295246E+03  0.40266969203E+03  0.48968610652E+03  0.46999998093E+01 0. -1.
</event>
<event>
 5   0  0.5872632E-02  0.6019742E+03  0.7818609E-02  0.9901319E-01
       -2   -1    0    0    0  501  0.00000000000E+00  0.00000000000E+00  0.14141927472E+03  0.14141927474E+03  0.25500000920E-02 0.  1.
        2   -1    0    0  501    0  0.00000000000E+00  0.00000000000E+00 -0.64060028784E+03  0.64060028785E+03  0.25500000920E-02 0. -1.
    10030    2    1    2    0    0  0.00000000000E+00  0.00000000000E+00 -0.49918101313E+03  0.78201956259E+03  0.60197417918E+03 0.  0.
        1    1    3    3  502    0 -0.46067192984E+02 -0.29736020955E+03 -0.24059505194E+03  0.38526777641E+03  0.50400001928E-02 0. -1.
       -1    1    3    3    0  502  0.46067192984E+02  0.29736020955E+03 -0.25858596118E+03  0.39675178618E+03  0.50400001928E-02 0.  1.
</event>
<event>
 5   0  0.5872632E-02  0.6095007E+03  0.7818609E-02  0.9885889E-01
       -2   -1    0    0    0  501  0.00000000000E+00  0.00000000000E+00  0.23836683968E+03  0.23836683969E+03  0.25500000920E-02 0.  1.
        2   -1    0    0  501    0  0.00000000000E+00  0.00000000000E+00 -0.38962117616E+03  0.38962117617E+03  0.25500000920E-02 0. -1.
    10030    2    1    2    0    0  0.00000000000E+00  0.00000000000E+00 -0.15125433648E+03  0.62798801586E+03  0.60950067577E+03 0.  0.
        1    1    3    3  502    0  0.20799230881E+03  0.15385638464E+02  0.15331817713E+03  0.25885127363E+03  0.50400001928E-02 0.  1.
       -1    1    3    3    0  502 -0.20799230881E+03 -0.15385638464E+02 -0.30457251361E+03  0.36913674224E+03  0.50400001928E-02 0. -1.
</event>
<event>
 5   0  0.5755078E-02  0.6039224E+03  0.7818609E-02  0.9897302E-01
        2   -1    0    0  501    0  0.00000000000E+00  0.00000000000E+00  0.73387894996E+02  0.73387895040E+02  0.25500000920E-02 0. -1.
       -2   -1    0    0    0  501  0.00000000000E+00  0.00000000000E+00 -0.12424468735E+04  0.12424468735E+04  0.25500000920E-02 0.  1.
    10030    2    1    2    0    0  0.00000000000E+00  0.00000000000E+00 -0.11690589785E+04  0.13158347685E+04  0.60392238150E+03 0.  0.
        2    1    3    3  502    0  0.24614889438E+03  0.97528386544E+02 -0.90086674846E+03  0.93896856330E+03  0.25500000920E-02 0.  1.
       -2    1    3    3    0  502 -0.24614889438E+03 -0.97528386544E+02 -0.26819223002E+03  0.37686620522E+03  0.25500000920E-02 0. -1.
</event>
<event>
 5   0  0.5999117E-02  0.6012156E+03  0.7818609E-02  0.9902887E-01
       -2   -1    0    0    0  501  0.00000000000E+00  0.00000000000E+00  0.13864191656E+03  0.13864191658E+03  0.25500000920E-02 0. -1.
        2   -1    0    0  501    0  0.00000000000E+00  0.00000000000E+00 -0.65178732915E+03  0.65178732915E+03  0.25500000920E-02 0.  1.
    10030    2    1    2    0    0  0.00000000000E+00  0.00000000000E+00 -0.51314541259E+03  0.79042924573E+03  0.60121558367E+03 0.  0.
        5    1    3    3  502    0  0.27189179711E+03  0.43266739236E+02 -0.41513557511E+03  0.49815338580E+03  0.46999998093E+01 0.  1.
       -5    1    3    3    0  502 -0.27189179711E+03 -0.43266739236E+02 -0.98009837483E+02  0.29227585994E+03  0.46999998093E+01 0. -1.
</event>
<event>
 5   0  0.3767635E-02  0.6057177E+03  0.7818609E-02  0.9893614E-01
       -1   -1    0    0    0  501  0.00000000000E+00  0.00000000000E+00  0.16026020784E+03  0.16026020792E+03  0.50400001928E-02 0.  1.
        1   -1    0    0  501    0  0.00000000000E+00  0.00000000000E+00 -0.57234104303E+03  0.57234104305E+03  0.50400001928E-02 0. -1.
    10030    2    1    2    0    0  0.00000000000E+00  0.00000000000E+00 -0.41208083519E+03  0.73260125097E+03  0.60571773806E+03 0.  0.
        2    1    3    3  502    0 -0.20386987600E+02 -0.30177814692E+03 -0.18738876678E+03  0.35580925950E+03  0.25500000920E-02 0.  1.
       -2    1    3    3    0  502  0.20386987600E+02  0.30177814692E+03 -0.22469206841E+03  0.37679199147E+03  0.25500000920E-02 0. -1.
</event>
<event>
 5   0  0.5872632E-02  0.5930031E+03  0.7818609E-02  0.9920030E-01
       -2   -1    0    0    0  501  0.00000000000E+00  0.00000000000E+00  0.18866262764E+03  0.18866262765E+03  0.25500000920E-02 0. -1.
        2   -1    0    0  501    0  0.00000000000E+00  0.00000000000E+00 -0.46598086344E+03  0.46598086345E+03  0.25500000920E-02 0.  1.
    10030    2    1    2    0    0  0.00000000000E+00  0.00000000000E+00 -0.27731823581E+03  0.65464349110E+03  0.59300311680E+03 0.  0.
        1    1    3    3  502    0 -0.29202401384E+03 -0.94106024964E+01 -0.19436837840E+03  0.35092114591E+03  0.50400001928E-02 0.  1.
       -1    1    3    3    0  502  0.29202401384E+03  0.94106024964E+01 -0.82949857405E+02  0.30372234519E+03  0.50400001928E-02 0. -1.
</event>
<event>
 5   0  0.3478183E-02  0.5979314E+03  0.7818609E-02  0.9909707E-01
        1   -1    0    0  501    0  0.00000000000E+00  0.00000000000E+00  0.12379471872E+03  0.12379471882E+03  0.50400001928E-02 0. -1.
       -1   -1    0    0    0  501  0.00000000000E+00  0.00000000000E+00 -0.72200573578E+03  0.72200573580E+03  0.50400001928E-02 0.  1.
    10030    2    1    2    0    0  0.00000000000E+00  0.00000000000E+00 -0.59821101706E+03  0.84580045462E+03  0.59793142424E+03 0.  0.
        4    1    3    3  502    0  0.14235147373E+03  0.25738428943E+03 -0.37486316323E+03  0.47648149866E+03  0.12699999809E+01 0.  1.
       -4    1    3    3    0  502 -0.14235147373E+03 -0.25738428943E+03 -0.22334785382E+03  0.36931895595E+03  0.12699999809E+01 0. -1.
</event>
<event>
 5   0  0.2388000E-02  0.6008535E+03  0.7818609E-02  0.9903637E-01
       -4   -1    0    0    0  501  0.00000000000E+00  0.00000000000E+00  0.39842957621E+03  0.39843160028E+03  0.12699999809E+01 0. -1.
        4   -1    0    0  501    0  0.00000000000E+00  0.00000000000E+00 -0.22652560688E+03  0.22652916693E+03  0.12699999809E+01 0.  1.
    10030    2    1    2    0    0  0.00000000000E+00  0.00000000000E+00  0.17190396933E+03  0.62496076721E+03  0.60085354778E+03 0.  0.
        1    1    3    3  502    0  0.79235271212E+02 -0.25610741541E+03 -0.55087165098E+02  0.27368564488E+03  0.50400001928E-02 0.  1.
       -1    1    3    3    0  502 -0.79235271212E+02  0.25610741541E+03  0.22699113443E+03  0.35127512233E+03  0.50400001928E-02 0. -1.
</event>
<event>
 5   0  0.3651984E-02  0.6110112E+03  0.7818609E-02  0.9882821E-01
       -1   -1    0    0    0  501  0.00000000000E+00  0.00000000000E+00  0.87674351431E+02  0.87674351576E+02  0.50400001928E-02 0. -1.
        1   -1    0    0  501    0  0.00000000000E+00  0.00000000000E+00 -0.10645492909E+04  0.10645492909E+04  0.50400001928E-02 0.  1.
    10030    2    1    2    0    0  0.00000000000E+00  0.00000000000E+00 -0.97687493948E+03  0.11522236425E+04  0.61101119053E+03 0.  0.
        1    1    3    3  502    0 -0.24476504876E+03 -0.18279822677E+03 -0.48292409498E+03  0.57143748769E+03  0.50400001928E-02 0.  1.
       -1    1    3    3    0  502  0.24476504876E+03  0.18279822677E+03 -0.49395084450E+03  0.58078615481E+03  0.50400001928E-02 0. -1.
</event>
<event>
 5   0  0.3703280E-02  0.5953572E+03  0.7818609E-02  0.9915086E-01
       -1   -1    0    0    0  501  0.00000000000E+00  0.00000000000E+00  0.25941393914E+03  0.25941393919E+03  0.50400001928E-02 0.  1.
        1   -1    0    0  501    0  0.00000000000E+00  0.00000000000E+00 -0.34158742732E+03  0.34158742736E+03  0.50400001928E-02 0. -1.
    10030    2    1    2    0    0  0.00000000000E+00  0.00000000000E+00 -0.82173488183E+02  0.60100136655E+03  0.59535717047E+03 0.  0.
        5    1    3    3  502    0  0.73262164134E+01 -0.12136814750E+03  0.23316242587E+03  0.26300324620E+03  0.46999998093E+01 0.  1.
       -5    1    3    3    0  502 -0.73262164134E+01  0.12136814750E+03 -0.31533591405E+03  0.33799812035E+03  0.46999998093E+01 0. -1.
</event>
<event>
 5   0  0.2388000E-02  0.5997252E+03  0.7818609E-02  0.9905976E-01
       -4   -1    0    0    0  501  0.00000000000E+00  0.00000000000E+00  0.29168993224E+03  0.29169269698E+03  0.12699999809E+01 0. -1.
        4   -1    0    0  501    0  0.00000000000E+00  0.00000000000E+00 -0.30825871381E+03  0.30826132994E+03  0.12699999809E+01 0.  1.
    10030    2    1    2    0    0  0.00000000000E+00  0.00000000000E+00 -0.16568781570E+02  0.59995402692E+03  0.59972519531E+03 0.  0.
        1    1    3    3  502    0  0.83639550139E+02 -0.19968024969E+03 -0.21584801834E+03  0.30570924669E+03  0.50400001928E-02 0.  1.
       -1    1    3    3    0  502 -0.83639550139E+02  0.19968024969E+03  0.19927923677E+03  0.29424478023E+03  0.50400001928E-02 0. -1.
</event>
<event>
 5   0  0.5872632E-02  0.5998278E+03  0.7818609E-02  0.9905763E-01
       -2   -1    0    0    0  501  0.00000000000E+00  0.00000000000E+00  0.10625230626E+03  0.10625230629E+03  0.25500000920E-02 0. -1.
        2   -1    0    0  501    0  0.00000000000E+00  0.00000000000E+00 -0.84655444513E+03  0.84655444514E+03  0.25500000920E-02 0.  1.
    10030    2    1    2    0    0  0.00000000000E+00  0.00000000000E+00 -0.74030213888E+03  0.95280675142E+03  0.59982784925E+03 0.  0.
        1    1    3    3  502    0  0.25317546690E+03 -0.15687762921E+03 -0.42608574036E+03  0.51986292977E+03  0.50400001928E-02 0.  1.
       -1    1    3    3    0  502 -0.25317546690E+03  0.15687762921E+03 -0.31421639852E+03  0.43294382165E+03  0.50400001928E-02 0. -1.
</event>
<event>
 5   0  0.5935451E-02  0.5954181E+03  0.7818609E-02  0.9914958E-01
       -2   -1    0    0    0  501  0.00000000000E+00  0.00000000000E+00  0.13945978878E+03  0.13945978881E+03  0.25500000920E-02 0. -1.
        2   -1    0    0  501    0  0.00000000000E+00  0.00000000000E+00 -0.63552859725E+03  0.63552859726E+03  0.25500000920E-02 0.  1.
    10030    2    1    2    0    0  0.00000000000E+00  0.00000000000E+00 -0.49606880847E+03  0.77498838606E+03  0.59541811846E+03 0.  0.
        3    1    3    3  502    0 -0.20325172164E+03 -0.20272019290E+03 -0.35071908685E+03  0.45322249176E+03  0.10100000352E+00 0.  1.
       -3    1    3    3    0  502  0.20325172164E+03  0.20272019290E+03 -0.14534972162E+03  0.32176589430E+03  0.10100000352E+00 0. -1.
</event>
<event>
 5   0  0.3651984E-02  0.6033950E+03  0.7818609E-02  0.9898387E-01
       -1   -1    0    0    0  501  0.00000000000E+00  0.00000000000E+00  0.16651193717E+03  0.16651193725E+03  0.50400001928E-02 0. -1.
        1   -1    0    0  501    0  0.00000000000E+00  0.00000000000E+00 -0.54663578918E+03  0.54663578921E+03  0.50400001928E-02 0.  1.
    10030    2    1    2    0    0  0.00000000000E+00  0.00000000000E+00 -0.38012385201E+03  0.71314772646E+03  0.60339500900E+03 0.  0.
        1    1    3    3  502    0  0.18756393358E+03 -0.15723337277E+03  0.18430056607E+02  0.24544292555E+03  0.50400001928E-02 0. -1.
       -1    1    3    3    0  502 -0.18756393358E+03  0.15723337277E+03 -0.39855390862E+03  0.46770480091E+03  0.50400001928E-02 0.  1.
</event>
<event>
 5   0  0.3767635E-02  0.6060434E+03  0.7818609E-02  0.9892947E-01
        1   -1    0    0  501    0  0.00000000000E+00  0.00000000000E+00  0.64194543483E+02  0.64194543680E+02  0.50400001928E-02 0.  1.
       -1   -1    0    0    0  501  0.00000000000E+00  0.00000000000E+00 -0.14303733146E+04  0.14303733146E+04  0.50400001928E-02 0. -1.
    10030    2    1    2    0    0  0.00000000000E+00  0.00000000000E+00 -0.13661787711E+04  0.14945678583E+04  0.60604343770E+03 0.  0.
        2    1    3    3  502    0  0.24204273099E+03  0.11974782060E+03 -0.34407424511E+03  0.43739148405E+03  0.25500000920E-02 0.  1.
       -2    1    3    3    0  502 -0.24204273099E+03 -0.11974782060E+03 -0.10221045260E+04  0.10571763742E+04  0.25500000920E-02 0. -1.
</event>
<event>
 5   0  0.2388000E-02  0.6020855E+03  0.7818609E-02  0.9901089E-01
        3   -1    0    0  501    0  0.00000000000E+00  0.00000000000E+00  0.11024640126E+03  0.11024644752E+03  0.10100000352E+00 0.  1.
       -3   -1    0    0    0  501  0.00000000000E+00  0.00000000000E+00 -0.82203787297E+03  0.82203787917E+03  0.10100000352E+00 0. -1.
    10030    2    1    2    0    0  0.00000000000E+00  0.00000000000E+00 -0.71179147171E+03  0.93228432670E+03  0.60208551436E+03 0.  0.
        2    1    3    3  502    0  0.12132830667E+03 -0.12159120285E+03 -0.73871002564E+03  0.75841774808E+03  0.25500000920E-02 0. -1.
       -2    1    3    3    0  502 -0.12132830667E+03  0.12159120285E+03  0.26918553926E+02  0.17386657862E+03  0.25500000920E-02 0.  1.
</event>
<event>
 5   0  0.3478183E-02  0.5478840E+03  0.7818609E-02  0.1001985E+00
       -1   -1    0    0    0  501  0.00000000000E+00  0.00000000000E+00  0.15616502002E+03  0.15616502010E+03  0.50400001928E-02 0.  1.
        1   -1    0    0  501    0  0.00000000000E+00  0.00000000000E+00 -0.48054443745E+03  0.48054443747E+03  0.50400001928E-02 0. -1.
    10030    2    1    2    0    0  0.00000000000E+00  0.00000000000E+00 -0.32437941743E+03  0.63670945757E+03  0.54788404513E+03 0.  0.
        4    1    3    3  502    0  0.20456500303E+03  0.10877568407E+02 -0.37354771477E+03  0.42603364899E+03  0.12699999809E+01 0. -1.
       -4    1    3    3    0  502 -0.20456500303E+03 -0.10877568407E+02  0.49168297339E+02  0.21067580858E+03  0.12699999809E+01 0.  1.
</event>
<event>
 5   0  0.3767635E-02  0.5970924E+03  0.7818609E-02  0.9911457E-01
        1   -1    0    0  501    0  0.00000000000E+00  0.00000000000E+00  0.15246442615E+04  0.15246442615E+04  0.50400001928E-02 0. -1.
       -1   -1    0    0    0  501  0.00000000000E+00  0.00000000000E+00 -0.58459429790E+02  0.58459430007E+02  0.50400001928E-02 0.  1.
    10030    2    1    2    0    0  0.00000000000E+00  0.00000000000E+00  0.14661848317E+04  0.15831036915E+04  0.59709240268E+03 0.  0.
        2    1    3    3  502    0  0.19237873131E+03 -0.20032965834E+03  0.10233919673E+04  0.10604115555E+04  0.25500000920E-02 0. -1.
       -2    1    3    3    0  502 -0.19237873131E+03  0.20032965834E+03  0.44279286433E+03  0.52269213594E+03  0.25500000920E-02 0.  1.
</event>
<event>
 5   0  0.3640827E-02  0.5936522E+03  0.7818609E-02  0.9918664E-01
       -1   -1    0    0    0  501  0.00000000000E+00  0.00000000000E+00  0.51060073517E+03  0.51060073519E+03  0.50400001928E-02 0. -1.
        1   -1    0    0  501    0  0.00000000000E+00  0.00000000000E+00 -0.17255307888E+03  0.17255307895E+03  0.50400001928E-02 0.  1.
    10030    2    1    2    0    0  0.00000000000E+00  0.00000000000E+00  0.33804765629E+03  0.68315381415E+03  0.59365218425E+03 0.  0.
        3    1    3    3  502    0  0.39244778109E+02 -0.29359090550E+03  0.19115761942E+03  0.35252945701E+03  0.10100000352E+00 0. -1.
       -3    1    3    3    0  502 -0.39244778109E+02  0.29359090550E+03  0.14689003687E+03  0.33062435714E+03  0.10100000352E+00 0.  1.
</event>
<event>
 5   0  0.5872632E-02  0.5996103E+03  0.7818609E-02  0.9906215E-01
        2   -1    0    0  501    0  0.00000000000E+00  0.00000000000E+00  0.97066478410E+03  0.97066478410E+03  0.25500000920E-02 0.  1.
       -2   -1    0    0    0  501  0.00000000000E+00  0.00000000000E+00 -0.92599566037E+02  0.92599566072E+02  0.25500000920E-02 0. -1.
    10030    2    1    2    0    0  0.00000000000E+00  0.00000000000E+00  0.87806521806E+03  0.10632643502E+04  0.59961033278E+03 0.  0.
        1    1    3    3  502    0 -0.12843229919E+02  0.37292930468E+02  0.96604391624E+03  0.96684877791E+03  0.50400001928E-02 0.  1.
       -1    1    3    3    0  502  0.12843229919E+02 -0.37292930468E+02 -0.87978698175E+02  0.96415572267E+02  0.50400001928E-02 0. -1.
</event>
<event>
 5   0  0.3703280E-02  0.5980687E+03  0.7818609E-02  0.9909421E-01
       -1   -1    0    0    0  501  0.00000000000E+00  0.00000000000E+00  0.55216929040E+02  0.55216929270E+02  0.50400001928E-02 0. -1.
        1   -1    0    0  501    0  0.00000000000E+00  0.00000000000E+00 -0.16194585677E+04  0.16194585677E+04  0.50400001928E-02 0.  1.
    10030    2    1    2    0    0  0.00000000000E+00  0.00000000000E+00 -0.15642416386E+04  0.16746754970E+04  0.59806865497E+03 0.  0.
        5    1    3    3  502    0 -0.55755551966E+02 -0.10771944612E+03 -0.15473701201E+04  0.15521238802E+04  0.46999998093E+01 0.  1.
       -5    1    3    3    0  502  0.55755551966E+02  0.10771944612E+03 -0.16871518503E+02  0.12255161681E+03  0.46999998093E+01 0. -1.
</event>
<event>
 5   0  0.5755078E-02  0.6017814E+03  0.7818609E-02  0.9901717E-01
        2   -1    0    0  501    0  0.00000000000E+00  0.00000000000E+00  0.12833527579E+04  0.12833527579E+04  0.25500000920E-02 0.  1.
       -2   -1    0    0    0  501  0.00000000000E+00  0.00000000000E+00 -0.70545856817E+02  0.70545856863E+02  0.25500000920E-02 0. -1.
    10030    2    1    2    0    0  0.00000000000E+00  0.00000000000E+00  0.12128069011E+04  0.13538986148E+04  0.60178142191E+03 0.  0.
        2    1    3    3  502    0  0.10266626726E+03 -0.12832870477E+03  0.39348459472E+02  0.16898792906E+03  0.25500000920E-02 0. -1.
       -2    1    3    3    0  502 -0.10266626726E+03  0.12832870477E+03  0.11734584416E+04  0.11849106857E+04  0.25500000920E-02 0.  1.
</event>
<event>
 5   0  0.3767635E-02  0.5990082E+03  0.7818609E-02  0.9907466E-01
        1   -1    0    0  501    0  0.00000000000E+00  0.00000000000E+00  0.11755143456E+04  0.11755143456E+04  0.50400001928E-02 0. -1.
       -1   -1    0    0    0  501  0.00000000000E+00  0.00000000000E+00 -0.76309326391E+02  0.76309326557E+02  0.50400001928E-02 0.  1.
    10030    2    1    2    0    0  0.00000000000E+00  0.00000000000E+00  0.10992050192E+04  0.12518236721E+04  0.59900820690E+03 0.  0.
        2    1    3    3  502    0  0.78308497972E+02 -0.12966971062E+03  0.96490052970E+01  0.15178787177E+03  0.25500000920E-02 0.  1.
       -2    1    3    3    0  502 -0.78308497972E+02  0.12966971062E+03  0.10895560139E+04  0.11000358004E+04  0.25500000920E-02 0. -1.
</event>
<event>
 5   0  0.5935451E-02  0.5971739E+03  0.7818609E-02  0.9911287E-01
       -2   -1    0    0    0  501  0.00000000000E+00  0.00000000000E+00  0.31649726278E+03  0.31649726279E+03  0.25500000920E-02 0. -1.
        2   -1    0    0  501    0  0.00000000000E+00  0.00000000000E+00 -0.28169013787E+03  0.28169013788E+03  0.25500000920E-02 0.  1.
    10030    2    1    2    0    0  0.00000000000E+00  0.00000000000E+00  0.34807124914E+02  0.59818740067E+03  0.59717386947E+03 0.  0.
        3    1    3    3  502    0 -0.96945234526E+01  0.10020090714E+03 -0.26417839145E+03  0.28270910542E+03  0.10100000352E+00 0.  1.
       -3    1    3    3    0  502  0.96945234526E+01 -0.10020090714E+03  0.29898551637E+03  0.31547829525E+03  0.10100000352E+00 0. -1.
</event>
<event>
 5   0  0.3478183E-02  0.5960035E+03  0.7818609E-02  0.9913732E-01
        1   -1    0    0  501    0  0.00000000000E+00  0.00000000000E+00  0.12277840321E+04  0.12277840321E+04  0.50400001928E-02 0.  1.
       -1   -1    0    0    0  501  0.00000000000E+00  0.00000000000E+00 -0.72329521740E+02  0.72329521916E+02  0.50400001928E-02 0. -1.
    10030    2    1    2    0    0  0.00000000000E+00  0.00000000000E+00  0.11554545104E+04  0.13001135541E+04  0.59600346296E+03 0.  0.
        4    1    3    3  502    0 -0.93241946847E+02 -0.98473249449E+02  0.11565652193E+04  0.11644894851E+04  0.12699999809E+01 0.  1.
       -4    1    3    3    0  502  0.93241946847E+02  0.98473249449E+02 -0.11107089016E+01  0.13562406897E+03  0.12699999809E+01 0. -1.
</event>
<event>
 5   0  0.5935451E-02  0.5968462E+03  0.7818609E-02  0.9911971E-01
       -2   -1    0    0    0  501  0.00000000000E+00  0.00000000000E+00  0.27430178638E+03  0.27430178640E+03  0.25500000920E-02 0. -1.
        2   -1    0    0  501    0  0.00000000000E+00  0.00000000000E+00 -0.32466553455E+03  0.32466553456E+03  0.25500000920E-02 0.  1.
    10030    2    1    2    0    0  0.00000000000E+00  0.00000000000E+00 -0.50363748168E+02  0.59896732096E+03  0.59684616481E+03 0.  0.
        3    1    3    3  502    0  0.14887509235E+02 -0.29584119883E+03  0.11177718355E+02  0.29642638958E+03  0.10100000352E+00 0.  1.
       -3    1    3    3    0  502 -0.14887509235E+02  0.29584119883E+03 -0.61541466523E+02  0.30254093137E+03  0.10100000352E+00 0. -1.
</event>
<event>
 5   0  0.3640827E-02  0.6075399E+03  0.7818609E-02  0.9889886E-01
        1   -1    0    0  501    0  0.00000000000E+00  0.00000000000E+00  0.42288413623E+03  0.42288413626E+03  0.50400001928E-02 0.  1.
       -1   -1    0    0    0  501  0.00000000000E+00  0.00000000000E+00 -0.21820674396E+03  0.21820674402E+03  0.50400001928E-02 0. -1.
    10030    2    1    2    0    0  0.00000000000E+00  0.00000000000E+00  0.20467739227E+03  0.64109088028E+03  0.60753986032E+03 0.  0.
        3    1    3    3  502    0 -0.42892128131E+02 -0.34294478998E+02 -0.21292504717E+03  0.21989300093E+03  0.10100000352E+00 0. -1.
       -3    1    3    3    0  502  0.42892128131E+02  0.34294478998E+02  0.41760243944E+03  0.42119787935E+03  0.10100000352E+00 0.  1.
</event>
<event>
 5   0  0.3703280E-02  0.5974521E+03  0.7818609E-02  0.9910706E-01
       -1   -1    0    0    0  501  0.00000000000E+00  0.00000000000E+00  0.11796800718E+03  0.11796800729E+03  0.50400001928E-02 0.  1.
        1   -1    0    0  501    0  0.00000000000E+00  0.00000000000E+00 -0.75645305552E+03  0.75645305554E+03  0.50400001928E-02 0. -1.
    10030    2    1    2    0    0  0.00000000000E+00  0.00000000000E+00 -0.63848504834E+03  0.87442106282E+03  0.59745212206E+03 0.  0.
        5    1    3    3  502    0  0.24473961447E+03  0.17009328736E+03 -0.34799604559E+03  0.45820578678E+03  0.46999998093E+01 0. -1.
       -5    1    3    3    0  502 -0.24473961447E+03 -0.17009328736E+03 -0.29048900275E+03  0.41621527605E+03  0.46999998093E+01 0.  1.
</event>
<event>
 5   0  0.3640827E-02  0.5988300E+03  0.7818609E-02  0.9907836E-01
       -1   -1    0    0    0  501  0.00000000000E+00  0.00000000000E+00  0.12270475106E+03  0.12270475117E+03  0.50400001928E-02 0. -1.
        1   -1    0    0  501    0  0.00000000000E+00  0.00000000000E+00 -0.73061018866E+03  0.73061018868E+03  0.50400001928E-02 0.  1.
    10030    2    1    2    0    0  0.00000000000E+00  0.00000000000E+00 -0.60790543760E+03  0.85331493985E+03  0.59882999717E+03 0.  0.
        3    1    3    3  502    0 -0.19475487245E+03 -0.36386519923E+02 -0.62384471225E+03  0.65454997852E+03  0.10100000352E+00 0.  1.
       -3    1    3    3    0  502  0.19475487245E+03  0.36386519923E+02  0.15939274649E+02  0.19876496133E+03  0.10100000352E+00 0. -1.
</event>
<event>
 5   0  0.5999117E-02  0.6129299E+03  0.7818609E-02  0.9878938E-01
       -2   -1    0    0    0  501  0.00000000000E+00  0.00000000000E+00  0.77619712653E+02  0.77619712695E+02  0.25500000920E-02 0. -1.
        2   -1    0    0  501    0  0.00000000000E+00  0.00000000000E+00 -0.12100119309E+04  0.12100119309E+04  0.25500000920E-02 0.  1.
    10030    2    1    2    0    0  0.00000000000E+00  0.00000000000E+00 -0.11323922182E+04  0.12876316436E+04  0.61292994188E+03 0.  0.
        5    1    3    3  502    0 -0.95359447075E+02 -0.10875888049E+03  0.13133737267E+01  0.14472640802E+03  0.46999998093E+01 0. -1.
       -5    1    3    3    0  502  0.95359447075E+02  0.10875888049E+03 -0.11337055920E+04  0.11429052356E+04  0.46999998093E+01 0.  1.
</event>
<event>
 5   0  0.5872632E-02  0.5980796E+03  0.7818609E-02  0.9909398E-01
       -2   -1    0    0    0  501  0.00000000000E+00  0.00000000000E+00  0.12221562573E+03  0.12221562576E+03  0.25500000920E-02 0.  1.
        2   -1    0    0  501    0  0.00000000000E+00  0.00000000000E+00 -0.73169688606E+03  0.73169688606E+03  0.25500000920E-02 0. -1.
    10030    2    1    2    0    0  0.00000000000E+00  0.00000000000E+00 -0.60948126032E+03  0.85391251182E+03  0.59807956925E+03 0.  0.
        1    1    3    3  502    0 -0.10104815951E+03  0.18811654607E+02  0.96202985805E+02  0.14078218421E+03  0.50400001928E-02 0.  1.
       -1    1    3    3    0  502  0.10104815951E+03 -0.18811654607E+02 -0.70568424613E+03  0.71313032760E+03  0.50400001928E-02 0. -1.
</event>
<event>
 5   0  0.5872632E-02  0.6253861E+03  0.7818609E-02  0.9854094E-01
       -2   -1    0    0    0  501  0.00000000000E+00  0.00000000000E+00  0.13009862026E+03  0.13009862029E+03  0.25500000920E-02 0.  1.
        2   -1    0    0  501    0  0.00000000000E+00  0.00000000000E+00 -0.75156014255E+03  0.75156014256E+03  0.25500000920E-02 0. -1.
    10030    2    1    2    0    0  0.00000000000E+00  0.00000000000E+00 -0.62146152229E+03  0.88165876285E+03  0.62538608109E+03 0.  0.
        1    1    3    3  502    0  0.21808072918E+03  0.22386620107E+03 -0.29651659772E+03  0.43081013587E+03  0.50400001928E-02 0. -1.
       -1    1    3    3    0  502 -0.21808072918E+03 -0.22386620107E+03 -0.32494492457E+03  0.45084862698E+03  0.50400001928E-02 0.  1.
</event>
<event>
 5   0  0.3767635E-02  0.6061283E+03  0.7818609E-02  0.9892773E-01
       -1   -1    0    0    0  501  0.00000000000E+00  0.00000000000E+00  0.13580567157E+03  0.13580567166E+03  0.50400001928E-02 0.  1.
        1   -1    0    0  501    0  0.00000000000E+00  0.00000000000E+00 -0.67631853937E+03  0.67631853939E+03  0.50400001928E-02 0. -1.
    10030    2    1    2    0    0  0.00000000000E+00  0.00000000000E+00 -0.54051286780E+03  0.81212421105E+03  0.60612834773E+03 0.  0.
        2    1    3    3  502    0  0.21514227029E+03 -0.11989542957E+03 -0.50687191239E+03  0.56354258586E+03  0.25500000920E-02 0. -1.
       -2    1    3    3    0  502 -0.21514227029E+03  0.11989542957E+03 -0.33640955409E+02  0.24858162520E+03  0.25500000920E-02 0.  1.
</event>
<event>
 5   0  0.2388000E-02  0.5940132E+03  0.7818609E-02  0.9917905E-01
       -4   -1    0    0    0  501  0.00000000000E+00  0.00000000000E+00  0.65824730425E+03  0.65824852939E+03  0.12699999809E+01 0.  1.
        4   -1    0    0  501    0  0.00000000000E+00  0.00000000000E+00 -0.13400748341E+03  0.13401350122E+03  0.12699999809E+01 0. -1.
    10030    2    1    2    0    0  0.00000000000E+00  0.00000000000E+00  0.52423982084E+03  0.79226203061E+03  0.59401324513E+03 0.  0.
        2    1    3    3  502    0  0.15192029321E+03 -0.25344859978E+03  0.22217507714E+03  0.36969951735E+03  0.25500000920E-02 0.  1.
       -2    1    3    3    0  502 -0.15192029321E+03  0.25344859978E+03  0.30206474370E+03  0.42256251326E+03  0.25500000920E-02 0. -1.
</event>
<event>
 5   0  0.5755078E-02  0.5992439E+03  0.7818609E-02  0.9906976E-01
       -2   -1    0    0    0  501  0.00000000000E+00  0.00000000000E+00  0.97623155985E+02  0.97623156019E+02  0.25500000920E-02 0. -1.
        2   -1    0    0  501    0  0.00000000000E+00  0.00000000000E+00 -0.91959035916E+03  0.91959035916E+03  0.25500000920E-02 0.  1.
    10030    2    1    2    0    0  0.00000000000E+00  0.00000000000E+00 -0.82196720317E+03  0.10172135152E+04  0.59924390057E+03 0.  0.
        2    1    3    3  502    0  0.23446673225E+03 -0.16716884966E+02 -0.95600132819E+02  0.25375872040E+03  0.25500000920E-02 0. -1.
       -2    1    3    3    0  502 -0.23446673225E+03  0.16716884966E+02 -0.72636707035E+03  0.76345479478E+03  0.25500000920E-02 0.  1.
</event>
<event>
 5   0  0.3703280E-02  0.5976521E+03  0.7818609E-02  0.9910289E-01
        1   -1    0    0  501    0  0.00000000000E+00  0.00000000000E+00  0.22277139860E+04  0.22277139860E+04  0.50400001928E-02 0.  1.
       -1   -1    0    0    0  501  0.00000000000E+00  0.00000000000E+00 -0.40084586643E+02  0.40084586960E+02  0.50400001928E-02 0. -1.
    10030    2    1    2    0    0  0.00000000000E+00  0.00000000000E+00  0.21876293994E+04  0.22677985730E+04  0.59765205481E+03 0.  0.
        5    1    3    3  502    0 -0.69990179303E+02 -0.62874755768E+02  0.17730348751E+02  0.95855700805E+02  0.46999998093E+01 0. -1.
       -5    1    3    3    0  502  0.69990179303E+02  0.62874755768E+02  0.21698990506E+04  0.21719428722E+04  0.46999998093E+01 0.  1.
</event>
<event>
 5   0  0.3478183E-02  0.6009855E+03  0.7818609E-02  0.9903364E-01
        1   -1    0    0  501    0  0.00000000000E+00  0.00000000000E+00  0.23916718089E+03  0.23916718094E+03  0.50400001928E-02 0.  1.
       -1   -1    0    0    0  501  0.00000000000E+00  0.00000000000E+00 -0.37754295437E+03  0.37754295440E+03  0.50400001928E-02 0. -1.
    10030    2    1    2    0    0  0.00000000000E+00  0.00000000000E+00 -0.13837577349E+03  0.61671013534E+03  0.60098547099E+03 0.  0.
        4    1    3    3  502    0  0.13152918204E+03  0.12604944340E+03 -0.31440881927E+03  0.36337708575E+03  0.12699999809E+01 0. -1.
       -4    1    3    3    0  502 -0.13152918204E+03 -0.12604944340E+03  0.17603304579E+03  0.25333304960E+03  0.12699999809E+01 0.  1.
</event>
<event>
 5   0  0.3640827E-02  0.5996338E+03  0.7818609E-02  0.9906166E-01
        1   -1    0    0  501    0  0.00000000000E+00  0.00000000000E+00  0.48849100230E+02  0.48849100490E+02  0.50400001928E-02 0.  1.
       -1   -1    0    0    0  501  0.00000000000E+00  0.00000000000E+00 -0.18401599643E+04  0.18401599643E+04  0.50400001928E-02 0. -1.
    10030    2    1    2    0    0  0.00000000000E+00  0.00000000000E+00 -0.17913108640E+04  0.18890090648E+04  0.59963375084E+03 0.  0.
        3    1    3    3  502    0 -0.10383437078E+03  0.17235490466E+03 -0.15958549631E+04  0.16084902434E+04  0.10100000352E+00 0. -1.
       -3    1    3    3    0  502  0.10383437078E+03 -0.17235490466E+03 -0.19545590093E+03  0.28051882134E+03  0.10100000352E+00 0.  1.
</event>
<event>
 5   0  0.3640827E-02  0.5838271E+03  0.7818609E-02  0.9939540E-01
       -1   -1    0    0    0  501  0.00000000000E+00  0.00000000000E+00  0.12967512872E+03  0.12967512881E+03  0.50400001928E-02 0.  1.
        1   -1    0    0  501    0  0.00000000000E+00  0.00000000000E+00 -0.65713080330E+03  0.65713080332E+03  0.50400001928E-02 0. -1.
    10030    2    1    2    0    0  0.00000000000E+00  0.00000000000E+00 -0.52745567458E+03  0.78680593213E+03  0.58382710299E+03 0.  0.
        3    1    3    3  502    0  0.26197129824E+03  0.12453389118E+03 -0.21952386551E+03  0.36376969209E+03  0.10100000352E+00 0.  1.
       -3    1    3    3    0  502 -0.26197129824E+03 -0.12453389118E+03 -0.30793180907E+03  0.42303624004E+03  0.10100000352E+00 0. -1.
</event>
<event>
 5   0  0.5755078E-02  0.5973676E+03  0.7818609E-02  0.9910883E-01
       -2   -1    0    0    0  501  0.00000000000E+00  0.00000000000E+00  0.12917675174E+03  0.12917675177E+03  0.25500000920E-02 0.  1.
        2   -1    0    0  501    0  0.00000000000E+00  0.00000000000E+00 -0.69061970495E+03  0.69061970495E+03  0.25500000920E-02 0. -1.
    10030    2    1    2    0    0  0.00000000000E+00  0.00000000000E+00 -0.56144295320E+03  0.81979645672E+03  0.59736759265E+03 0.  0.
        2    1    3    3  502    0 -0.20434636654E+03  0.21052229672E+03 -0.35755993902E+03  0.46252155077E+03  0.25500000920E-02 0. -1.
       -2    1    3    3    0  502  0.20434636654E+03 -0.21052229672E+03 -0.20388301419E+03  0.35727490594E+03  0.25500000920E-02 0.  1.
</event>
<event>
 5   0  0.5755078E-02  0.6070233E+03  0.7818609E-02  0.9890941E-01
        2   -1    0    0  501    0  0.00000000000E+00  0.00000000000E+00  0.85322874188E+03  0.85322874188E+03  0.25500000920E-02 0.  1.
       -2   -1    0    0    0  501  0.00000000000E+00  0.00000000000E+00 -0.10796556138E+03  0.10796556141E+03  0.25500000920E-02 0. -1.
    10030    2    1    2    0    0  0.00000000000E+00  0.00000000000E+00  0.74526318050E+03  0.96119430329E+03  0.60702329484E+03 0.  0.
        2    1    3    3  502    0 -0.56775109061E+02 -0.17705497373E+03  0.75248746519E+03  0.77511886959E+03  0.25500000920E-02 0.  1.
       -2    1    3    3    0  502  0.56775109061E+02  0.17705497373E+03 -0.72242846909E+01  0.18607543370E+03  0.25500000920E-02 0. -1.
</event>
<event>
 5   0  0.3478183E-02  0.5926549E+03  0.7818609E-02  0.9920763E-01
        1   -1    0    0  501    0  0.00000000000E+00  0.00000000000E+00  0.44205438479E+03  0.44205438482E+03  0.50400001928E-02 0. -1.
       -1   -1    0    0    0  501  0.00000000000E+00  0.00000000000E+00 -0.19864061688E+03  0.19864061694E+03  0.50400001928E-02 0.  1.
    10030    2    1    2    0    0  0.00000000000E+00  0.00000000000E+00  0.24341376791E+03  0.64069500176E+03  0.59265489357E+03 0.  0.
        4    1    3    3  502    0  0.14034974239E+03 -0.16431002728E+03  0.34090481186E+03  0.40362549338E+03  0.12699999809E+01 0. -1.
       -4    1    3    3    0  502 -0.14034974239E+03  0.16431002728E+03 -0.97491043951E+02  0.23706950838E+03  0.12699999809E+01 0.  1.
</event>
<event>
 5   0  0.3651984E-02  0.6000722E+03  0.7818609E-02  0.9905256E-01
       -1   -1    0    0    0  501  0.00000000000E+00  0.00000000000E+00  0.98477640753E+02  0.98477640882E+02  0.50400001928E-02 0.  1.
        1   -1    0    0  501    0  0.00000000000E+00  0.00000000000E+00 -0.91413309869E+03  0.91413309871E+03  0.50400001928E-02 0. -1.
    10030    2    1    2    0    0  0.00000000000E+00  0.00000000000E+00 -0.81565545794E+03  0.10126107396E+04  0.60007223221E+03 0.  0.
        1    1    3    3  502    0  0.21842578124E+03  0.15938506159E+03 -0.18840159885E+03  0.32955816216E+03  0.50400001928E-02 0.  1.
       -1    1    3    3    0  502 -0.21842578124E+03 -0.15938506159E+03 -0.62725385909E+03  0.68305257743E+03  0.50400001928E-02 0. -1.
</event>
<event>
 5   0  0.3478183E-02  0.6041472E+03  0.7818609E-02  0.9896839E-01
       -1   -1    0    0    0  501  0.00000000000E+00  0.00000000000E+00  0.60726160251E+02  0.60726160460E+02  0.50400001928E-02 0. -1.
        1   -1    0    0  501    0  0.00000000000E+00  0.00000000000E+00 -0.15026218124E+04  0.15026218124E+04  0.50400001928E-02 0.  1.
    10030    2    1    2    0    0  0.00000000000E+00  0.00000000000E+00 -0.14418956522E+04  0.15633479729E+04  0.60414717792E+03 0.  0.
        4    1    3    3  502    0 -0.48334762657E+02  0.25750664028E+03 -0.33192420318E+03  0.42287256784E+03  0.12699999809E+01 0. -1.
       -4    1    3    3    0  502  0.48334762657E+02 -0.25750664028E+03 -0.11099714490E+04  0.11404754050E+04  0.12699999809E+01 0.  1.
</event>
<event>
 5   0  0.2388000E-02  0.5860743E+03  0.7818609E-02  0.9934726E-01
       -3   -1    0    0    0  501  0.00000000000E+00  0.00000000000E+00  0.98456386836E+03  0.98456387354E+03  0.10100000352E+00 0. -1.
        3   -1    0    0  501    0  0.00000000000E+00  0.00000000000E+00 -0.87217038257E+02  0.87217096737E+02  0.10100000352E+00 0.  1.
    10030    2    1    2    0    0  0.00000000000E+00  0.00000000000E+00  0.89734683010E+03  0.10717809703E+04  0.58607432528E+03 0.  0.
        3    1    3    3  502    0  0.23182334487E+03 -0.16977019326E+03  0.34351199563E+03  0.44784426209E+03  0.10100000352E+00 0. -1.
       -3    1    3    3    0  502 -0.23182334487E+03  0.16977019326E+03  0.55383483446E+03  0.62393670818E+03  0.10100000352E+00 0.  1.
</event>
<event>
 5   0  0.2388000E-02  0.5887605E+03  0.7818609E-02  0.9929003E-01
       -3   -1    0    0    0  501  0.00000000000E+00  0.00000000000E+00  0.77604208006E+03  0.77604208663E+03  0.10100000352E+00 0. -1.
        3   -1    0    0  501    0  0.00000000000E+00  0.00000000000E+00 -0.11166880991E+03  0.11166885559E+03  0.10100000352E+00 0.  1.
    10030    2    1    2    0    0  0.00000000000E+00  0.00000000000E+00  0.66437327015E+03  0.88771094222E+03  0.58876045626E+03 0.  0.
        2    1    3    3  502    0  0.28763449289E+03 -0.48338185145E+01  0.23799368820E+03  0.37336036604E+03  0.25500000920E-02 0. -1.
       -2    1    3    3    0  502 -0.28763449289E+03  0.48338185145E+01  0.42637958195E+03  0.51435057618E+03  0.25500000920E-02 0.  1.
</event>
<event>
 5   0  0.3640827E-02  0.5965394E+03  0.7818609E-02  0.9912612E-01
        1   -1    0    0  501    0  0.00000000000E+00  0.00000000000E+00  0.39053504806E+03  0.39053504809E+03  0.50400001928E-02 0.  1.
       -1   -1    0    0    0  501  0.00000000000E+00  0.00000000000E+00 -0.22780240136E+03  0.22780240142E+03  0.50400001928E-02 0. -1.
    10030    2    1    2    0    0  0.00000000000E+00  0.00000000000E+00  0.16273264670E+03  0.61833744951E+03  0.59653942632E+03 0.  0.
        3    1    3    3  502    0 -0.13615396218E+03  0.19817323190E+03 -0.10158908818E+03  0.26101893475E+03  0.10100000352E+00 0. -1.
       -3    1    3    3    0  502  0.13615396218E+03 -0.19817323190E+03  0.26432173488E+03  0.35731851476E+03  0.10100000352E+00 0.  1.
</event>
<event>
 5   0  0.6007360E-02  0.5955108E+03  0.7818609E-02  0.9914764E-01
       -2   -1    0    0    0  501  0.00000000000E+00  0.00000000000E+00  0.10333352273E+03  0.10333352276E+03  0.25500000920E-02 0. -1.
        2   -1    0    0  501    0  0.00000000000E+00  0.00000000000E+00 -0.85798162777E+03  0.85798162777E+03  0.25500000920E-02 0.  1.
    10030    2    1    2    0    0  0.00000000000E+00  0.00000000000E+00 -0.75464810504E+03  0.96131515053E+03  0.59551075238E+03 0.  0.
        4    1    3    3  502    0  0.17466976280E+03  0.18796008189E+03 -0.13347771863E+03  0.28923421770E+03  0.12699999809E+01 0. -1.
       -4    1    3    3    0  502 -0.17466976280E+03 -0.18796008189E+03 -0.62117038641E+03  0.67208093283E+03  0.12699999809E+01 0.  1.
</event>
<event>
 5   0  0.5935451E-02  0.5988362E+03  0.7818609E-02  0.9907823E-01
       -2   -1    0    0    0  501  0.00000000000E+00  0.00000000000E+00  0.60346643026E+02  0.60346643080E+02  0.25500000920E-02 0. -1.
        2   -1    0    0  501    0  0.00000000000E+00  0.00000000000E+00 -0.14856038967E+04  0.14856038967E+04  0.25500000920E-02 0.  1.
    10030    2    1    2    0    0  0.00000000000E+00  0.00000000000E+00 -0.14252572537E+04  0.15459505398E+04  0.59883623163E+03 0.  0.
        3    1    3    3  502    0  0.43645020990E+02 -0.25470520251E+03 -0.11030517342E+04  0.11329178110E+04  0.10100000352E+00 0.  1.
       -3    1    3    3    0  502 -0.43645020990E+02  0.25470520251E+03 -0.32220551950E+03  0.41303272878E+03  0.10100000352E+00 0. -1.
</event>
<event>
 5   0  0.5872632E-02  0.5899163E+03  0.7818609E-02  0.9926550E-01
        2   -1    0    0  501    0  0.00000000000E+00  0.00000000000E+00  0.15071516587E+04  0.15071516587E+04  0.25500000920E-02 0.  1.
       -2   -1    0    0    0  501  0.00000000000E+00  0.00000000000E+00 -0.57724993370E+02  0.57724993426E+02  0.25500000920E-02 0. -1.
    10030    2    1    2    0    0  0.00000000000E+00  0.00000000000E+00  0.14494266654E+04  0.15648766522E+04  0.58991633154E+03 0.  0.
        1    1    3    3  502    0 -0.54440587085E+02  0.12514719948E+03  0.14183586732E+04  0.14249094445E+04  0.50400001928E-02 0.  1.
       -1    1    3    3    0  502  0.54440587085E+02 -0.12514719948E+03  0.31067992126E+02  0.13996720766E+03  0.50400001928E-02 0. -1.
</event>
<event>
 5   0  0.2388000E-02  0.6023632E+03  0.7818609E-02  0.9900515E-01
        3   -1    0    0  501    0  0.00000000000E+00  0.00000000000E+00  0.38137811137E+03  0.38137812474E+03  0.10100000352E+00 0. -1.
       -3   -1    0    0    0  501  0.00000000000E+00  0.00000000000E+00 -0.23784887523E+03  0.23784889668E+03  0.10100000352E+00 0.  1.
    10030    2    1    2    0    0  0.00000000000E+00  0.00000000000E+00  0.14352923614E+03  0.61922702142E+03  0.60236323131E+03 0.  0.
        1    1    3    3  502    0 -0.11352768518E+03 -0.26985213139E+03  0.14446696289E+03  0.32646502341E+03  0.50400001928E-02 0. -1.
       -1    1    3    3    0  502  0.11352768518E+03  0.26985213139E+03 -0.93772675654E+00  0.29276199801E+03  0.50400001928E-02 0.  1.
</event>
<event>
 5   0  0.5935451E-02  0.6004668E+03  0.7818609E-02  0.9904438E-01
        2   -1    0    0  501    0  0.00000000000E+00  0.00000000000E+00  0.37099718485E+03  0.37099718486E+03  0.25500000920E-02 0. -1.
       -2   -1    0    0    0  501  0.00000000000E+00  0.00000000000E+00 -0.24296709409E+03  0.24296709411E+03  0.25500000920E-02 0.  1.
    10030    2    1    2    0    0  0.00000000000E+00  0.00000000000E+00  0.12803009076E+03  0.61396427897E+03  0.60046684481E+03 0.  0.
        3    1    3    3  502    0 -0.55457967273E+02 -0.22540253457E+03  0.25871114248E+03  0.34758215456E+03  0.10100000352E+00 0. -1.
       -3    1    3    3    0  502  0.55457967273E+02  0.22540253457E+03 -0.13068105172E+03  0.26638212441E+03  0.10100000352E+00 0.  1.
</event>
<event>
 5   0  0.5999117E-02  0.6090681E+03  0.7818609E-02  0.9886769E-01
       -2   -1    0    0    0  501  0.00000000000E+00  0.00000000000E+00  0.70648440969E+02  0.70648441015E+02  0.25500000920E-02 0.  1.
        2   -1    0    0  501    0  0.00000000000E+00  0.00000000000E+00 -0.13127110220E+04  0.13127110220E+04  0.25500000920E-02 0. -1.
    10030    2    1    2    0    0  0.00000000000E+00  0.00000000000E+00 -0.12420625811E+04  0.13833594631E+04  0.60906809860E+03 0.  0.
        5    1    3    3  502    0  0.46786628189E+02 -0.29991256653E+03 -0.67584199077E+03  0.74089204519E+03  0.46999998093E+01 0. -1.
       -5    1    3    3    0  502 -0.46786628189E+02  0.29991256653E+03 -0.56622059030E+03  0.64246741787E+03  0.46999998093E+01 0.  1.
</event>
<event>
 5   0  0.2388000E-02  0.5990189E+03  0.7818609E-02  0.9907444E-01
       -4   -1    0    0    0  501  0.00000000000E+00  0.00000000000E+00  0.39996818396E+03  0.39997020024E+03  0.12699999809E+01 0. -1.
        4   -1    0    0  501    0  0.00000000000E+00  0.00000000000E+00 -0.22427824281E+03  0.22428183854E+03  0.12699999809E+01 0.  1.
    10030    2    1    2    0    0  0.00000000000E+00  0.00000000000E+00  0.17568994115E+03  0.62425203878E+03  0.59901890830E+03 0.  0.
        2    1    3    3  502    0  0.64184205978E+02  0.29175280825E+03  0.65334132359E+02  0.30579055295E+03  0.25500000920E-02 0.  1.
       -2    1    3    3    0  502 -0.64184205978E+02 -0.29175280825E+03  0.11035580879E+03  0.31846148583E+03  0.25500000920E-02 0. -1.
</event>
<event>
 5   0  0.3651984E-02  0.6025527E+03  0.7818609E-02  0.9900124E-01
        1   -1    0    0  501    0  0.00000000000E+00  0.00000000000E+00  0.56530592144E+03  0.56530592147E+03  0.50400001928E-02 0. -1.
       -1   -1    0    0    0  501  0.00000000000E+00  0.00000000000E+00 -0.16056338549E+03  0.16056338557E+03  0.50400001928E-02 0.  1.
    10030    2    1    2    0    0  0.00000000000E+00  0.00000000000E+00  0.40474253595E+03  0.72586930704E+03  0.60255267860E+03 0.  0.
        1    1    3    3  502    0 -0.14220834405E+03  0.24017486069E+02 -0.11627674658E+03  0.18525748183E+03  0.50400001928E-02 0.  1.
       -1    1    3    3    0  502  0.14220834405E+03 -0.24017486069E+02  0.52101928253E+03  0.54061182520E+03  0.50400001928E-02 0. -1.
</event>
<event>
 5   0  0.5872632E-02  0.5919746E+03  0.7818609E-02  0.9922198E-01
        2   -1    0    0  501    0  0.00000000000E+00  0.00000000000E+00  0.51342343200E+03  0.51342343201E+03  0.25500000920E-02 0.  1.
       -2   -1    0    0    0  501  0.00000000000E+00  0.00000000000E+00 -0.17063590663E+03  0.17063590665E+03  0.25500000920E-02 0. -1.
    10030    2    1    2    0    0  0.00000000000E+00  0.00000000000E+00  0.34278752537E+03  0.68405933866E+03  0.59197456977E+03 0.  0.
        1    1    3    3  502    0 -0.52776432023E+02  0.17291340395E+03 -0.99420856182E+02  0.20632232965E+03  0.50400001928E-02 0. -1.
       -1    1    3    3    0  502  0.52776432023E+02 -0.17291340395E+03  0.44220838155E+03  0.47773700901E+03  0.50400001928E-02 0.  1.
</event>
<event>
 5   0  0.3640827E-02  0.6024492E+03  0.7818609E-02  0.9900338E-01
       -1   -1    0    0    0  501  0.00000000000E+00  0.00000000000E+00  0.13480039468E+03  0.13480039477E+03  0.50400001928E-02 0.  1.
        1   -1    0    0  501    0  0.00000000000E+00  0.00000000000E+00 -0.67311564398E+03  0.67311564400E+03  0.50400001928E-02 0. -1.
    10030    2    1    2    0    0  0.00000000000E+00  0.00000000000E+00 -0.53831524930E+03  0.80791603877E+03  0.60244918298E+03 0.  0.
        3    1    3    3  502    0  0.62911854814E+02  0.25983501883E+03 -0.83025970116E+02  0.27993831535E+03  0.10100000352E+00 0.  1.
       -3    1    3    3    0  502 -0.62911854814E+02 -0.25983501883E+03 -0.45528927919E+03  0.52797772342E+03  0.10100000352E+00 0. -1.
</event>
<event>
 5   0  0.3767635E-02  0.5974102E+03  0.7818609E-02  0.9910794E-01
       -1   -1    0    0    0  501  0.00000000000E+00  0.00000000000E+00  0.13732399871E+04  0.13732399872E+04  0.50400001928E-02 0.  1.
        1   -1    0    0  501    0  0.00000000000E+00  0.00000000000E+00 -0.64973880698E+02  0.64973880894E+02  0.50400001928E-02 0. -1.
    10030    2    1    2    0    0  0.00000000000E+00  0.00000000000E+00  0.13082661064E+04  0.14382138681E+04  0.59741018151E+03 0.  0.
        2    1    3    3  502    0  0.24534243881E+03  0.59492579909E+02  0.10385094014E+04  0.10687535058E+04  0.25500000920E-02 0.  1.
       -2    1    3    3    0  502 -0.24534243881E+03 -0.59492579909E+02  0.26975670501E+03  0.36946036221E+03  0.25500000920E-02 0. -1.
</event>
<event>
 5   0  0.3478183E-02  0.6481809E+03  0.7818609E-02  0.9810199E-01
        1   -1    0    0  501    0  0.00000000000E+00  0.00000000000E+00  0.25686838462E+03  0.25686838467E+03  0.50400001928E-02 0.  1.
       -1   -1    0    0    0  501  0.00000000000E+00  0.00000000000E+00 -0.40890448873E+03  0.40890448877E+03  0.50400001928E-02 0. -1.
    10030    2    1    2    0    0  0.00000000000E+00  0.00000000000E+00 -0.15203610411E+03  0.66577287344E+03  0.64818094854E+03 0.  0.
        4    1    3    3  502    0 -0.62557995937E+02 -0.54324847439E+00 -0.40264100397E+03  0.40747415740E+03  0.12699999809E+01 0. -1.
       -4    1    3    3    0  502  0.62557995937E+02  0.54324847439E+00  0.25060489986E+03  0.25829871604E+03  0.12699999809E+01 0.  1.
</event>
<event>
 5   0  0.6007360E-02  0.5996916E+03  0.7818609E-02  0.9906046E-01
        2   -1    0    0  501    0  0.00000000000E+00  0.00000000000E+00  0.75675289760E+03  0.75675289761E+03  0.25500000920E-02 0. -1.
       -2   -1    0    0    0  501  0.00000000000E+00  0.00000000000E+00 -0.11880696085E+03  0.11880696087E+03  0.25500000920E-02 0.  1.
    10030    2    1    2    0    0  0.00000000000E+00  0.00000000000E+00  0.63794593676E+03  0.87555985848E+03  0.59969162705E+03 0.  0.
        4    1    3    3  502    0  0.14267112841E+03  0.22824203633E+03  0.51187440423E+03  0.57833078479E+03  0.12699999809E+01 0. -1.
       -4    1    3    3    0  502 -0.14267112841E+03 -0.22824203633E+03  0.12607153252E+03  0.29722907368E+03  0.12699999809E+01 0.  1.
</event>
<event>
 5   0  0.3703280E-02  0.5862155E+03  0.7818609E-02  0.9934424E-01
        1   -1    0    0  501    0  0.00000000000E+00  0.00000000000E+00  0.94318598380E+03  0.94318598382E+03  0.50400001928E-02 0.  1.
       -1   -1    0    0    0  501  0.00000000000E+00  0.00000000000E+00 -0.91087189522E+02  0.91087189662E+02  0.50400001928E-02 0. -1.
    10030    2    1    2    0    0  0.00000000000E+00  0.00000000000E+00  0.85209879428E+03  0.10342731735E+04  0.58621552535E+03 0.  0.
        5    1    3    3  502    0  0.14305155391E+03 -0.68028554070E+02  0.86108435798E+03  0.87554554010E+03  0.46999998093E+01 0.  1.
       -5    1    3    3    0  502 -0.14305155391E+03  0.68028554070E+02 -0.89855636949E+01  0.15872763338E+03  0.46999998093E+01 0. -1.
</event>
<event>
 5   0  0.3640827E-02  0.5984400E+03  0.7818609E-02  0.9908648E-01
       -1   -1    0    0    0  501  0.00000000000E+00  0.00000000000E+00  0.36631222792E+03  0.36631222795E+03  0.50400001928E-02 0.  1.
        1   -1    0    0  501    0  0.00000000000E+00  0.00000000000E+00 -0.24441608743E+03  0.24441608748E+03  0.50400001928E-02 0. -1.
    10030    2    1    2    0    0  0.00000000000E+00  0.00000000000E+00  0.12189614049E+03  0.61072831543E+03  0.59843997711E+03 0.  0.
        3    1    3    3  502    0 -0.31415650488E+02  0.19086628041E+02 -0.24210300348E+03  0.24487775922E+03  0.10100000352E+00 0. -1.
       -3    1    3    3    0  502  0.31415650488E+02 -0.19086628041E+02  0.36399914397E+03  0.36585055621E+03  0.10100000352E+00 0.  1.
</event>
<event>
 5   0  0.3703280E-02  0.6436121E+03  0.7818609E-02  0.9818840E-01
       -1   -1    0    0    0  501  0.00000000000E+00  0.00000000000E+00  0.55857116658E+03  0.55857116660E+03  0.50400001928E-02 0. -1.
        1   -1    0    0  501    0  0.00000000000E+00  0.00000000000E+00 -0.18540007829E+03  0.18540007836E+03  0.50400001928E-02 0.  1.
    10030    2    1    2    0    0  0.00000000000E+00  0.00000000000E+00  0.37317108829E+03  0.74397124496E+03  0.64361211315E+03 0.  0.
        5    1    3    3  502    0 -0.53795627774E+02  0.86254815139E+02  0.53948201767E+03  0.54899617494E+03  0.46999998093E+01 0. -1.
       -5    1    3    3    0  502  0.53795627774E+02 -0.86254815139E+02 -0.16631092938E+03  0.19497507003E+03  0.46999998093E+01 0.  1.
</event>
<event>
 5   0  0.5999117E-02  0.5972263E+03  0.7818609E-02  0.9911177E-01
        2   -1    0    0  501    0  0.00000000000E+00  0.00000000000E+00  0.48001560335E+03  0.48001560336E+03  0.25500000920E-02 0. -1.
       -2   -1    0    0    0  501  0.00000000000E+00  0.00000000000E+00 -0.18576439429E+03  0.18576439431E+03  0.25500000920E-02 0.  1.
    10030    2    1    2    0    0  0.00000000000E+00  0.00000000000E+00  0.29425120906E+03  0.66577999766E+03  0.59722628145E+03 0.  0.
        5    1    3    3  502    0  0.25863564555E+03  0.25983522557E+02  0.31088994321E+03  0.40526804387E+03  0.46999998093E+01 0. -1.
       -5    1    3    3    0  502 -0.25863564555E+03 -0.25983522557E+02 -0.16638734147E+02  0.26051195379E+03  0.46999998093E+01 0.  1.
</event>
<event>
 5   0  0.5872632E-02  0.6078067E+03  0.7818609E-02  0.9889341E-01
       -2   -1    0    0    0  501  0.00000000000E+00  0.00000000000E+00  0.16426390243E+03  0.16426390245E+03  0.25500000920E-02 0. -1.
        2   -1    0    0  501    0  0.00000000000E+00  0.00000000000E+00 -0.56224912329E+03  0.56224912330E+03  0.25500000920E-02 0.  1.
    10030    2    1    2    0    0  0.00000000000E+00  0.00000000000E+00 -0.39798522086E+03  0.72651302575E+03  0.60780666380E+03 0.  0.
        1    1    3    3  502    0 -0.38809255441E+02  0.47433583301E+01 -0.55923034594E+03  0.56059543131E+03  0.50400001928E-02 0.  1.
       -1    1    3    3    0  502  0.38809255441E+02 -0.47433583301E+01  0.16124512508E+03  0.16591759444E+03  0.50400001928E-02 0. -1.
</event>
<event>
 5   0  0.2388000E-02  0.6048211E+03  0.7818609E-02  0.9895454E-01
       -4   -1    0    0    0  501  0.00000000000E+00  0.00000000000E+00  0.42254571232E+02  0.42273652432E+02  0.12699999809E+01 0.  1.
        4   -1    0    0  501    0  0.00000000000E+00  0.00000000000E+00 -0.21638056072E+04  0.21638059799E+04  0.12699999809E+01 0. -1.
    10030    2    1    2    0    0  0.00000000000E+00  0.00000000000E+00 -0.21215510359E+04  0.22060796323E+04  0.60482108591E+03 0.  0.
        5    1    3    3  502    0 -0.13024150012E+03  0.26613981634E+03 -0.84081043361E+03  0.89150295875E+03  0.46999998093E+01 0. -1.
       -5    1    3    3    0  502  0.13024150012E+03 -0.26613981634E+03 -0.12807406023E+04  0.13145766735E+04  0.46999998093E+01 0.  1.
</event>
<event>
 5   0  0.5999117E-02  0.6050564E+03  0.7818609E-02  0.9894971E-01
       -2   -1    0    0    0  501  0.00000000000E+00  0.00000000000E+00  0.90979825881E+02  0.90979825917E+02  0.25500000920E-02 0.  1.
        2   -1    0    0  501    0  0.00000000000E+00  0.00000000000E+00 -0.10059738040E+04  0.10059738040E+04  0.25500000920E-02 0. -1.
    10030    2    1    2    0    0  0.00000000000E+00  0.00000000000E+00 -0.91499397816E+03  0.10969536300E+04  0.60505643226E+03 0.  0.
        5    1    3    3  502    0 -0.13238342101E+03 -0.53251955864E+02  0.26062148509E+02  0.14512913747E+03  0.46999998093E+01 0.  1.
       -5    1    3    3    0  502  0.13238342101E+03  0.53251955864E+02 -0.94105612667E+03  0.95182449249E+03  0.46999998093E+01 0. -1.
</event>
<event>
 5   0  0.5872632E-02  0.5681403E+03  0.7818609E-02  0.9973802E-01
       -2   -1    0    0    0  501  0.00000000000E+00  0.00000000000E+00  0.10335157537E+03  0.10335157540E+03  0.25500000920E-02 0.  1.
        2   -1    0    0  501    0  0.00000000000E+00  0.00000000000E+00 -0.78078981958E+03  0.78078981958E+03  0.25500000920E-02 0. -1.
    10030    2    1    2    0    0  0.00000000000E+00  0.00000000000E+00 -0.67743824421E+03  0.88414139499E+03  0.56814032739E+03 0.  0.
        1    1    3    3  502    0 -0.10637488065E+03  0.26322657115E+03 -0.35364689966E+03  0.45350851443E+03  0.50400001928E-02 0.  1.
       -1    1    3    3    0  502  0.10637488065E+03 -0.26322657115E+03 -0.32379134455E+03  0.43063288056E+03  0.50400001928E-02 0. -1.
</event>
<event>
 5   0  0.3703280E-02  0.6066183E+03  0.7818609E-02  0.9891770E-01
        1   -1    0    0  501    0  0.00000000000E+00  0.00000000000E+00  0.36728735456E+03  0.36728735459E+03  0.50400001928E-02 0.  1.
       -1   -1    0    0    0  501  0.00000000000E+00  0.00000000000E+00 -0.25047538280E+03  0.25047538285E+03  0.50400001928E-02 0. -1.
    10030    2    1    2    0    0  0.00000000000E+00  0.00000000000E+00  0.11681197175E+03  0.61776273745E+03  0.60661830094E+03 0.  0.
        5    1    3    3  502    0 -0.16293250433E+03 -0.96110634311E+02 -0.18299335867E+03  0.26323547313E+03  0.46999998093E+01 0. -1.
       -5    1    3    3    0  502  0.16293250433E+03  0.96110634311E+02  0.29980533043E+03  0.35452726432E+03  0.46999998093E+01 0.  1.
</event>
<event>
 5   0  0.5872632E-02  0.5996050E+03  0.7818609E-02  0.9906226E-01
       -2   -1    0    0    0  501  0.00000000000E+00  0.00000000000E+00  0.35817967073E+02  0.35817967164E+02  0.25500000920E-02 0.  1.
        2   -1    0    0  501    0  0.00000000000E+00  0.00000000000E+00 -0.25093977263E+04  0.25093977263E+04  0.25500000920E-02 0. -1.
    10030    2    1    2    0    0  0.00000000000E+00  0.00000000000E+00 -0.24735797592E+04  0.25452156935E+04  0.59960495412E+03 0.  0.
        1    1    3    3  502    0 -0.19718395020E+03 -0.54004211759E+02 -0.30598706544E+03  0.36800278443E+03  0.50400001928E-02 0.  1.
       -1    1    3    3    0  502  0.19718395020E+03  0.54004211759E+02 -0.21675926938E+04  0.21772129090E+04  0.50400001928E-02 0. -1.
</event>
<event>
 5   0  0.5935451E-02  0.5935386E+03  0.7818609E-02  0.9918903E-01
       -2   -1    0    0    0  501  0.00000000000E+00  0.00000000000E+00  0.13505292916E+03  0.13505292918E+03  0.25500000920E-02 0. -1.
        2   -1    0    0  501    0  0.00000000000E+00  0.00000000000E+00 -0.65212972575E+03  0.65212972575E+03  0.25500000920E-02 0.  1.
    10030    2    1    2    0    0  0.00000000000E+00  0.00000000000E+00 -0.51707679659E+03  0.78718265494E+03  0.59353864125E+03 0.  0.
        3    1    3    3  502    0  0.29167069262E+03 -0.47885001932E+02 -0.22326770850E+03  0.37042306381E+03  0.10100000352E+00 0.  1.
       -3    1    3    3    0  502 -0.29167069262E+03  0.47885001932E+02 -0.29380908809E+03  0.41675959112E+03  0.10100000352E+00 0. -1.
</event>
<event>
 5   0  0.3478183E-02  0.5985934E+03  0.7818609E-02  0.9908329E-01
       -1   -1    0    0    0  501  0.00000000000E+00  0.00000000000E+00  0.70172207474E+02  0.70172207655E+02  0.50400001928E-02 0.  1.
        1   -1    0    0  501    0  0.00000000000E+00  0.00000000000E+00 -0.12765525903E+04  0.12765525903E+04  0.50400001928E-02 0. -1.
    10030    2    1    2    0    0  0.00000000000E+00  0.00000000000E+00 -0.12063803829E+04  0.13467247980E+04  0.59859339572E+03 0.  0.
        4    1    3    3  502    0  0.24204047179E+03  0.10322904959E+03 -0.28234822586E+03  0.38595590449E+03  0.12699999809E+01 0.  1.
       -4    1    3    3    0  502 -0.24204047179E+03 -0.10322904959E+03 -0.92403215701E+03  0.96076889352E+03  0.12699999809E+01 0. -1.
</event>
<event>
 5   0  0.3478183E-02  0.6025244E+03  0.7818609E-02  0.9900183E-01
       -1   -1    0    0    0  501  0.00000000000E+00  0.00000000000E+00  0.17378934037E+03  0.17378934044E+03  0.50400001928E-02 0.  1.
        1   -1    0    0  501    0  0.00000000000E+00  0.00000000000E+00 -0.52223515317E+03  0.52223515319E+03  0.50400001928E-02 0. -1.
    10030    2    1    2    0    0  0.00000000000E+00  0.00000000000E+00 -0.34844581280E+03  0.69602449363E+03  0.60252436571E+03 0.  0.
        4    1    3    3  502    0  0.78653446543E+02 -0.50395832401E+02  0.15663338881E+03  0.18237800297E+03  0.12699999809E+01 0.  1.
       -4    1    3    3    0  502 -0.78653446543E+02  0.50395832401E+02 -0.50507920161E+03  0.51364649067E+03  0.12699999809E+01 0. -1.
</event>
<event>
 5   0  0.3651984E-02  0.5986542E+03  0.7818609E-02  0.9908202E-01
        1   -1    0    0  501    0  0.00000000000E+00  0.00000000000E+00  0.10499920768E+04  0.10499920768E+04  0.50400001928E-02 0.  1.
       -1   -1    0    0    0  501  0.00000000000E+00  0.00000000000E+00 -0.85330843907E+02  0.85330844056E+02  0.50400001928E-02 0. -1.
    10030    2    1    2    0    0  0.00000000000E+00  0.00000000000E+00  0.96466123291E+03  0.11353229209E+04  0.59865419101E+03 0.  0.
        1    1    3    3  502    0 -0.35275213105E+02 -0.69285716285E+02 -0.65847175347E+02  0.10188572848E+03  0.50400001928E-02 0. -1.
       -1    1    3    3    0  502  0.35275213105E+02  0.69285716285E+02  0.10305084083E+04  0.10334371924E+04  0.50400001928E-02 0.  1.
</event>
<event>
 5   0  0.5999117E-02  0.5717939E+03  0.7818609E-02  0.9965717E-01
        2   -1    0    0  501    0  0.00000000000E+00  0.00000000000E+00  0.10182215329E+04  0.10182215329E+04  0.25500000920E-02 0.  1.
       -2   -1    0    0    0  501  0.00000000000E+00  0.00000000000E+00 -0.80274349361E+02  0.80274349401E+02  0.25500000920E-02 0. -1.
    10030    2    1    2    0    0  0.00000000000E+00  0.00000000000E+00  0.93794718354E+03  0.10984958823E+04  0.57179391771E+03 0.  0.
        5    1    3    3  502    0 -0.23300822764E+03  0.87754717153E+02  0.73876380623E+03  0.77960744989E+03  0.46999998093E+01 0.  1.
       -5    1    3    3    0  502  0.23300822764E+03 -0.87754717153E+02  0.19918337731E+03  0.31888843241E+03  0.46999998093E+01 0. -1.
</event>
<event>
 5   0  0.3651984E-02  0.5990925E+03  0.7818609E-02  0.9907291E-01
       -1   -1    0    0    0  501  0.00000000000E+00  0.00000000000E+00  0.24090447141E+03  0.24090447146E+03  0.50400001928E-02 0.  1.
        1   -1    0    0  501    0  0.00000000000E+00  0.00000000000E+00 -0.37246278072E+03  0.37246278075E+03  0.50400001928E-02 0. -1.
    10030    2    1    2    0    0  0.00000000000E+00  0.00000000000E+00 -0.13155830931E+03  0.61336725221E+03  0.59909247812E+03 0.  0.
        1    1    3    3  502    0 -0.24992264755E+03 -0.11489383851E+02  0.10287169721E+03  0.27051048374E+03  0.50400001928E-02 0. -1.
       -1    1    3    3    0  502  0.24992264755E+03  0.11489383851E+02 -0.23443000653E+03  0.34285676847E+03  0.50400001928E-02 0.  1.
</event>
<event>
 5   0  0.2388000E-02  0.5928543E+03  0.7818609E-02  0.9920343E-01
       -3   -1    0    0    0  501  0.00000000000E+00  0.00000000000E+00  0.53382939701E+03  0.53382940657E+03  0.10100000352E+00 0. -1.
        3   -1    0    0  501    0  0.00000000000E+00  0.00000000000E+00 -0.16460133108E+03  0.16460136206E+03  0.10100000352E+00 0.  1.
    10030    2    1    2    0    0  0.00000000000E+00  0.00000000000E+00  0.36922806594E+03  0.69843076863E+03  0.59285426025E+03 0.  0.
        2    1    3    3  502    0  0.97306506673E+02 -0.90227218082E+01 -0.14507856802E+03  0.17492214455E+03  0.25500000920E-02 0.  1.
       -2    1    3    3    0  502 -0.97306506673E+02  0.90227218082E+01  0.51430663395E+03  0.52350862408E+03  0.25500000920E-02 0. -1.
</event>
<event>
 5   0  0.5999117E-02  0.7035612E+03  0.7818609E-02  0.9711161E-01
       -2   -1    0    0    0  501  0.00000000000E+00  0.00000000000E+00  0.18075939244E+03  0.18075939245E+03  0.25500000920E-02 0. -1.
        2   -1    0    0  501    0  0.00000000000E+00  0.00000000000E+00 -0.68460943207E+03  0.68460943207E+03  0.25500000920E-02 0.  1.
    10030    2    1    2    0    0  0.00000000000E+00  0.00000000000E+00 -0.50385003963E+03  0.86536882452E+03  0.70356118428E+03 0.  0.
        5    1    3    3  502    0  0.93936897249E+02 -0.27612415761E+03 -0.10087555415E+02  0.29187761108E+03  0.46999998093E+01 0. -1.
       -5    1    3    3    0  502 -0.93936897249E+02  0.27612415761E+03 -0.49376248422E+03  0.57349121344E+03  0.46999998093E+01 0.  1.
</event>
<event>
 5   0  0.5872632E-02  0.5998198E+03  0.7818609E-02  0.9905780E-01
        2   -1    0    0  501    0  0.00000000000E+00  0.00000000000E+00  0.57449758925E+03  0.57449758926E+03  0.25500000920E-02 0. -1.
       -2   -1    0    0    0  501  0.00000000000E+00  0.00000000000E+00 -0.15656455758E+03  0.15656455760E+03  0.25500000920E-02 0.  1.
    10030    2    1    2    0    0  0.00000000000E+00  0.00000000000E+00  0.41793303168E+03  0.73106214685E+03  0.59981984262E+03 0.  0.
        1    1    3    3  502    0  0.12369483740E+03  0.96232992206E+02 -0.10268678679E+03  0.18736535912E+03  0.50400001928E-02 0.  1.
       -1    1    3    3    0  502 -0.12369483740E+03 -0.96232992206E+02  0.52061981847E+03  0.54369678774E+03  0.50400001928E-02 0. -1.
</event>
<event>
 5   0  0.6007360E-02  0.5985283E+03  0.7818609E-02  0.9908464E-01
        2   -1    0    0  501    0  0.00000000000E+00  0.00000000000E+00  0.16123977930E+04  0.16123977931E+04  0.25500000920E-02 0. -1.
       -2   -1    0    0    0  501  0.00000000000E+00  0.00000000000E+00 -0.55544013486E+02  0.55544013545E+02  0.25500000920E-02 0.  1.
    10030    2    1    2    0    0  0.00000000000E+00  0.00000000000E+00  0.15568537796E+04  0.16679418066E+04  0.59852834457E+03 0.  0.
        4    1    3    3  502    0  0.16228058865E+03 -0.23186779876E+03  0.10494687549E+04  0.10869608760E+04  0.12699999809E+01 0. -1.
       -4    1    3    3    0  502 -0.16228058865E+03  0.23186779876E+03  0.50738502464E+03  0.58098093057E+03  0.12699999809E+01 0.  1.
</event>
<event>
 5   0  0.5999117E-02  0.6057540E+03  0.7818609E-02  0.9893540E-01
       -2   -1    0    0    0  501  0.00000000000E+00  0.00000000000E+00  0.55566034471E+02  0.55566034530E+02  0.25500000920E-02 0. -1.
        2   -1    0    0  501    0  0.00000000000E+00  0.00000000000E+00 -0.16509091537E+04  0.16509091537E+04  0.25500000920E-02 0.  1.
    10030    2    1    2    0    0  0.00000000000E+00  0.00000000000E+00 -0.15953431192E+04  0.17064751882E+04  0.60575399295E+03 0.  0.
        5    1    3    3  502    0 -0.15909507079E+03  0.17628229552E+03 -0.26819217611E+03  0.35823989531E+03  0.46999998093E+01 0. -1.
       -5    1    3    3    0  502  0.15909507079E+03 -0.17628229552E+03 -0.13271509431E+04  0.13482352929E+04  0.46999998093E+01 0.  1.
</event>
<event>
 5   0  0.3478183E-02  0.6023098E+03  0.7818609E-02  0.9900626E-01
       -1   -1    0    0    0  501  0.00000000000E+00  0.00000000000E+00  0.18504364402E+03  0.18504364409E+03  0.50400001928E-02 0. -1.
        1   -1    0    0  501    0  0.00000000000E+00  0.00000000000E+00 -0.49012368720E+03  0.49012368722E+03  0.50400001928E-02 0.  1.
    10030    2    1    2    0    0  0.00000000000E+00  0.00000000000E+00 -0.30508004317E+03  0.67516733131E+03  0.60230979780E+03 0.  0.
        4    1    3    3  502    0 -0.25296134161E+03 -0.36613862894E+02  0.25980753287E+02  0.25691755049E+03  0.12699999809E+01 0. -1.
       -4    1    3    3    0  502  0.25296134161E+03  0.36613862894E+02 -0.33106079646E+03  0.41824978082E+03  0.12699999809E+01 0.  1.
</event>
<event>
 5   0  0.5872632E-02  0.5920268E+03  0.7818609E-02  0.9922087E-01
       -2   -1    0    0    0  501  0.00000000000E+00  0.00000000000E+00  0.12209471377E+03  0.12209471380E+03  0.25500000920E-02 0. -1.
        2   -1    0    0  501    0  0.00000000000E+00  0.00000000000E+00 -0.71767173268E+03  0.71767173268E+03  0.25500000920E-02 0.  1.
    10030    2    1    2    0    0  0.00000000000E+00  0.00000000000E+00 -0.59557701890E+03  0.83976644648E+03  0.59202677236E+03 0.  0.
        1    1    3    3  502    0 -0.48168854943E+02  0.71216216025E+01  0.11637509052E+03  0.12615117043E+03  0.50400001928E-02 0. -1.
       -1    1    3    3    0  502  0.48168854943E+02 -0.71216216025E+01 -0.71195210942E+03  0.71361527605E+03  0.50400001928E-02 0.  1.
</event>
<event>
 5   0  0.3478183E-02  0.5971763E+03  0.7818609E-02  0.9911282E-01
       -1   -1    0    0    0  501  0.00000000000E+00  0.00000000000E+00  0.31451478656E+03  0.31451478660E+03  0.50400001928E-02 0. -1.
        1   -1    0    0  501    0  0.00000000000E+00  0.00000000000E+00 -0.28346803819E+03  0.28346803824E+03  0.50400001928E-02 0.  1.
    10030    2    1    2    0    0  0.00000000000E+00  0.00000000000E+00  0.31046748364E+02  0.59798282484E+03  0.59717632088E+03 0.  0.
        4    1    3    3  502    0  0.23556972815E+03  0.14295172855E+03 -0.99631863254E+02  0.29301265261E+03  0.12699999809E+01 0.  1.
       -4    1    3    3    0  502 -0.23556972815E+03 -0.14295172855E+03  0.13067861162E+03  0.30497017223E+03  0.12699999809E+01 0. -1.
</event>
<event>
 5   0  0.3767635E-02  0.6002169E+03  0.7818609E-02  0.9904956E-01
       -1   -1    0    0    0  501  0.00000000000E+00  0.00000000000E+00  0.75982471430E+02  0.75982471597E+02  0.50400001928E-02 0. -1.
        1   -1    0    0  501    0  0.00000000000E+00  0.00000000000E+00 -0.11853402373E+04  0.11853402373E+04  0.50400001928E-02 0.  1.
    10030    2    1    2    0    0  0.00000000000E+00  0.00000000000E+00 -0.11093577659E+04  0.12613227089E+04  0.60021689689E+03 0.  0.
        2    1    3    3  502    0 -0.13926337506E+02 -0.12978805662E+03 -0.11225598898E+04  0.11301237051E+04  0.25500000920E-02 0.  1.
       -2    1    3    3    0  502  0.13926337506E+02  0.12978805662E+03  0.13202123980E+02  0.13119900381E+03  0.25500000920E-02 0. -1.
</event>
<event>
 5   0  0.2388000E-02  0.5986841E+03  0.7818609E-02  0.9908140E-01
       -4   -1    0    0    0  501  0.00000000000E+00  0.00000000000E+00  0.11901415913E+03  0.11902093502E+03  0.12699999809E+01 0. -1.
        4   -1    0    0  501    0  0.00000000000E+00  0.00000000000E+00 -0.75287040131E+03  0.75287147248E+03  0.12699999809E+01 0.  1.
    10030    2    1    2    0    0  0.00000000000E+00  0.00000000000E+00 -0.63385624218E+03  0.87189240750E+03  0.59868408572E+03 0.  0.
        4    1    3    3  502    0 -0.12952305273E+03 -0.17011664454E+03 -0.62202574691E+03  0.65774884011E+03  0.12699999809E+01 0. -1.
       -4    1    3    3    0  502  0.12952305273E+03  0.17011664454E+03 -0.11830495267E+02  0.21414356739E+03  0.12699999809E+01 0.  1.
</event>
<event>
 5   0  0.3478183E-02  0.5977214E+03  0.7818609E-02  0.9910145E-01
        1   -1    0    0  501    0  0.00000000000E+00  0.00000000000E+00  0.40619345657E+03  0.40619345660E+03  0.50400001928E-02 0. -1.
       -1   -1    0    0    0  501  0.00000000000E+00  0.00000000000E+00 -0.21988960527E+03  0.21988960533E+03  0.50400001928E-02 0.  1.
    10030    2    1    2    0    0  0.00000000000E+00  0.00000000000E+00  0.18630385131E+03  0.62608306193E+03  0.59772140285E+03 0.  0.
        4    1    3    3  502    0  0.29116650455E+03  0.18265938115E+02  0.16107100286E+03  0.33325224490E+03  0.12699999809E+01 0. -1.
       -4    1    3    3    0  502 -0.29116650455E+03 -0.18265938115E+02  0.25232848442E+02  0.29283081703E+03  0.12699999809E+01 0.  1.
</event>
<event>
 5   0  0.3478183E-02  0.5951884E+03  0.7818609E-02  0.9915439E-01
        1   -1    0    0  501    0  0.00000000000E+00  0.00000000000E+00  0.93324038202E+02  0.93324038338E+02  0.50400001928E-02 0.  1.
       -1   -1    0    0    0  501  0.00000000000E+00  0.00000000000E+00 -0.94897641329E+03  0.94897641330E+03  0.50400001928E-02 0. -1.
    10030    2    1    2    0    0  0.00000000000E+00  0.00000000000E+00 -0.85565237509E+03  0.10423004516E+04  0.59518841092E+03 0.  0.
        4    1    3    3  502    0  0.18158780438E+03 -0.25362242487E+02 -0.17342478950E+02  0.18417314820E+03  0.12699999809E+01 0.  1.
       -4    1    3    3    0  502 -0.18158780438E+03  0.25362242487E+02 -0.83830989614E+03  0.85812730344E+03  0.12699999809E+01 0. -1.
</event>
<event>
 5   0  0.6007360E-02  0.5836140E+03  0.7818609E-02  0.9939997E-01
        2   -1    0    0  501    0  0.00000000000E+00  0.00000000000E+00  0.14323130659E+04  0.14323130659E+04  0.25500000920E-02 0. -1.
       -2   -1    0    0    0  501  0.00000000000E+00  0.00000000000E+00 -0.59450224502E+02  0.59450224557E+02  0.25500000920E-02 0.  1.
    10030    2    1    2    0    0  0.00000000000E+00  0.00000000000E+00  0.13728628414E+04  0.14917632905E+04  0.58361402782E+03 0.  0.
        4    1    3    3  502    0  0.83602392411E+02  0.10916026362E+02  0.14004938207E+04  0.14030299621E+04  0.12699999809E+01 0. -1.
       -4    1    3    3    0  502 -0.83602392411E+02 -0.10916026362E+02 -0.27630979336E+02  0.88733328391E+02  0.12699999809E+01 0.  1.
</event>
<event>
 5   0  0.5755078E-02  0.5909376E+03  0.7818609E-02  0.9924388E-01
       -2   -1    0    0    0  501  0.00000000000E+00  0.00000000000E+00  0.14949600808E+03  0.14949600810E+03  0.25500000920E-02 0.  1.
        2   -1    0    0  501    0  0.00000000000E+00  0.00000000000E+00 -0.58397414613E+03  0.58397414614E+03  0.25500000920E-02 0. -1.
    10030    2    1    2    0    0  0.00000000000E+00  0.00000000000E+00 -0.43447813805E+03  0.73347015424E+03  0.59093757261E+03 0.  0.
        2    1    3    3  502    0  0.32631568041E+02  0.94096078647E+02 -0.56251267319E+03  0.57126123512E+03  0.25500000920E-02 0. -1.
       -2    1    3    3    0  502 -0.32631568041E+02 -0.94096078647E+02  0.12803453513E+03  0.16220891912E+03  0.25500000920E-02 0.  1.
</event>
<event>
 5   0  0.3640827E-02  0.5877651E+03  0.7818609E-02  0.9931120E-01
        1   -1    0    0  501    0  0.00000000000E+00  0.00000000000E+00  0.15404513092E+04  0.15404513092E+04  0.50400001928E-02 0.  1.
       -1   -1    0    0    0  501  0.00000000000E+00  0.00000000000E+00 -0.56066010217E+02  0.56066010443E+02  0.50400001928E-02 0. -1.
    10030    2    1    2    0    0  0.00000000000E+00  0.00000000000E+00  0.14843852990E+04  0.15965173196E+04  0.58776511985E+03 0.  0.
        3    1    3    3  502    0 -0.13022146961E+03  0.24387264874E+03  0.47144570074E+03  0.54652772930E+03  0.10100000352E+00 0.  1.
       -3    1    3    3    0  502  0.13022146961E+03 -0.24387264874E+03  0.10129395982E+04  0.10499895903E+04  0.10100000352E+00 0. -1.
</event>
<event>
 5   0  0.5755078E-02  0.6142399E+03  0.7818609E-02  0.9876295E-01
        2   -1    0    0  501    0  0.00000000000E+00  0.00000000000E+00  0.10236576549E+04  0.10236576549E+04  0.25500000920E-02 0.  1.
       -2   -1    0    0    0  501  0.00000000000E+00  0.00000000000E+00 -0.92142777159E+02  0.92142777195E+02  0.25500000920E-02 0. -1.
    10030    2    1    2    0    0  0.00000000000E+00  0.00000000000E+00  0.93151487776E+03  0.11158004321E+04  0.61423988541E+03 0.  0.
        2    1    3    3  502    0  0.20741797332E+03  0.10222361320E+03  0.83291178149E+03  0.86441536226E+03  0.25500000920E-02 0.  1.
       -2    1    3    3    0  502 -0.20741797332E+03 -0.10222361320E+03  0.98603096271E+02  0.25138506986E+03  0.25500000920E-02 0. -1.
</event>
<event>
 5   0  0.3703280E-02  0.6041297E+03  0.7818609E-02  0.9896875E-01
       -1   -1    0    0    0  501  0.00000000000E+00  0.00000000000E+00  0.75531345912E+02  0.75531346080E+02  0.50400001928E-02 0. -1.
        1   -1    0    0  501    0  0.00000000000E+00  0.00000000000E+00 -0.12080173286E+04  0.12080173286E+04  0.50400001928E-02 0.  1.
    10030    2    1    2    0    0  0.00000000000E+00  0.00000000000E+00 -0.11324859827E+04  0.12835486747E+04  0.60412970405E+03 0.  0.
        5    1    3    3  502    0  0.66802609079E+02  0.76541574584E+02 -0.11705478712E+04  0.11749577056E+04  0.46999998093E+01 0.  1.
       -5    1    3    3    0  502 -0.66802609079E+02 -0.76541574584E+02  0.38061888475E+02  0.10859096911E+03  0.46999998093E+01 0. -1.
</event>
<event>
 5   0  0.5872632E-02  0.5979062E+03  0.7818609E-02  0.9909760E-01
       -2   -1    0    0    0  501  0.00000000000E+00  0.00000000000E+00  0.67758456801E+02  0.67758456849E+02  0.25500000920E-02 0.  1.
        2   -1    0    0  501    0  0.00000000000E+00  0.00000000000E+00 -0.13189933668E+04  0.13189933668E+04  0.25500000920E-02 0. -1.
    10030    2    1    2    0    0  0.00000000000E+00  0.00000000000E+00 -0.12512349100E+04  0.13867518237E+04  0.59790619699E+03 0.  0.
        1    1    3    3  502    0 -0.27456307039E+03 -0.74767034589E+02 -0.41307154770E+03  0.50160053093E+03  0.50400001928E-02 0. -1.
       -1    1    3    3    0  502  0.27456307039E+03  0.74767034589E+02 -0.83816336231E+03  0.88515129273E+03  0.50400001928E-02 0.  1.
</event>
<event>
 5   0  0.6007360E-02  0.5999258E+03  0.7818609E-02  0.9905560E-01
       -2   -1    0    0    0  501  0.00000000000E+00  0.00000000000E+00  0.75895891541E+02  0.75895891583E+02  0.25500000920E-02 0.  1.
        2   -1    0    0  501    0  0.00000000000E+00  0.00000000000E+00 -0.11855415136E+04  0.11855415136E+04  0.25500000920E-02 0. -1.
    10030    2    1    2    0    0  0.00000000000E+00  0.00000000000E+00 -0.11096456221E+04  0.12614374052E+04  0.59992576262E+03 0.  0.
        4    1    3    3  502    0 -0.11271392271E+03 -0.23953788260E+03 -0.25825670289E+03  0.36983910429E+03  0.12699999809E+01 0.  1.
       -4    1    3    3    0  502  0.11271392271E+03  0.23953788260E+03 -0.85138891921E+03  0.89159830094E+03  0.12699999809E+01 0. -1.
</event>
<event>
 5   0  0.3640827E-02  0.6111137E+03  0.7818609E-02  0.9882613E-01
        1   -1    0    0  501    0  0.00000000000E+00  0.00000000000E+00  0.15940747325E+03  0.15940747333E+03  0.50400001928E-02 0. -1.
       -1   -1    0    0    0  501  0.00000000000E+00  0.00000000000E+00 -0.58570017054E+03  0.58570017056E+03  0.50400001928E-02 0.  1.
    10030    2    1    2    0    0  0.00000000000E+00  0.00000000000E+00 -0.42629269729E+03  0.74510764388E+03  0.61111368600E+03 0.  0.
        3    1    3    3  502    0  0.41125584187E+02 -0.26867166801E+03 -0.38335983296E+03  0.46993675170E+03  0.10100000352E+00 0.  1.
       -3    1    3    3    0  502 -0.41125584187E+02  0.26867166801E+03 -0.42932864328E+02  0.27517089219E+03  0.10100000352E+00 0. -1.
</event>
<event>
 5   0  0.6007360E-02  0.6021512E+03  0.7818609E-02  0.9900953E-01
        2   -1    0    0  501    0  0.00000000000E+00  0.00000000000E+00  0.34777951811E+03  0.34777951812E+03  0.25500000920E-02 0.  1.
       -2   -1    0    0    0  501  0.00000000000E+00  0.00000000000E+00 -0.26064361886E+03  0.26064361887E+03  0.25500000920E-02 0. -1.
    10030    2    1    2    0    0  0.00000000000E+00  0.00000000000E+00  0.87135899258E+02  0.60842313699E+03  0.60215118425E+03 0.  0.
        4    1    3    3  502    0  0.15002202332E+03  0.25943488689E+03  0.72709844951E+02  0.30838515280E+03  0.12699999809E+01 0.  1.
       -4    1    3    3    0  502 -0.15002202332E+03 -0.25943488689E+03  0.14426054307E+02  0.30003798419E+03  0.12699999809E+01 0. -1.
</event>
<event>
 5   0  0.5999117E-02  0.5945962E+03  0.7818609E-02  0.9916681E-01
       -2   -1    0    0    0  501  0.00000000000E+00  0.00000000000E+00  0.55050699607E+02  0.55050699666E+02  0.25500000920E-02 0.  1.
        2   -1    0    0  501    0  0.00000000000E+00  0.00000000000E+00 -0.16055411548E+04  0.16055411548E+04  0.25500000920E-02 0. -1.
    10030    2    1    2    0    0  0.00000000000E+00  0.00000000000E+00 -0.15504904552E+04  0.16605918545E+04  0.59459621213E+03 0.  0.
        5    1    3    3  502    0 -0.13984056301E+03  0.28132998524E+01 -0.15077954995E+04  0.15142762813E+04  0.46999998093E+01 0. -1.
       -5    1    3    3    0  502  0.13984056301E+03 -0.28132998524E+01 -0.42694955685E+02  0.14631557319E+03  0.46999998093E+01 0.  1.
</event>
<event>
 5   0  0.5872632E-02  0.5960163E+03  0.7818609E-02  0.9913706E-01
       -2   -1    0    0    0  501  0.00000000000E+00  0.00000000000E+00  0.10901786454E+03  0.10901786457E+03  0.25500000920E-02 0. -1.
        2   -1    0    0  501    0  0.00000000000E+00  0.00000000000E+00 -0.81462670316E+03  0.81462670316E+03  0.25500000920E-02 0.  1.
    10030    2    1    2    0    0  0.00000000000E+00  0.00000000000E+00 -0.70560883862E+03  0.92364456773E+03  0.59601632055E+03 0.  0.
        1    1    3    3  502    0  0.13452764886E+03 -0.28964644111E+02  0.56832426781E+02  0.14888439701E+03  0.50400001928E-02 0. -1.
       -1    1    3    3    0  502 -0.13452764886E+03  0.28964644111E+02 -0.76244126540E+03  0.77476017072E+03  0.50400001928E-02 0.  1.
</event>
<event>
 5   0  0.3478183E-02  0.5909011E+03  0.7818609E-02  0.9924465E-01
        1   -1    0    0  501    0  0.00000000000E+00  0.00000000000E+00  0.49763416675E+03  0.49763416677E+03  0.50400001928E-02 0. -1.
       -1   -1    0    0    0  501  0.00000000000E+00  0.00000000000E+00 -0.17541207109E+03  0.17541207116E+03  0.50400001928E-02 0.  1.
    10030    2    1    2    0    0  0.00000000000E+00  0.00000000000E+00  0.32222209566E+03  0.67304623794E+03  0.59090114188E+03 0.  0.
        4    1    3    3  502    0 -0.25300154696E+03  0.14673794551E+03  0.11349498097E+03  0.31372684141E+03  0.12699999809E+01 0. -1.
       -4    1    3    3    0  502  0.25300154696E+03 -0.14673794551E+03  0.20872711469E+03  0.35931939653E+03  0.12699999809E+01 0.  1.
</event>
<event>
 5   0  0.5872632E-02  0.5964679E+03  0.7818609E-02  0.9912761E-01
        2   -1    0    0  501    0  0.00000000000E+00  0.00000000000E+00  0.10144964137E+04  0.10144964137E+04  0.25500000920E-02 0.  1.
       -2   -1    0    0    0  501  0.00000000000E+00  0.00000000000E+00 -0.87672543914E+02  0.87672543952E+02  0.25500000920E-02 0. -1.
    10030    2    1    2    0    0  0.00000000000E+00  0.00000000000E+00  0.92682386981E+03  0.11021689577E+04  0.59646787476E+03 0.  0.
        1    1    3    3  502    0 -0.25537403487E+03 -0.93778163162E+02  0.68921931754E+03  0.74096795428E+03  0.50400001928E-02 0.  1.
       -1    1    3    3    0  502  0.25537403487E+03  0.93778163162E+02  0.23760455228E+03  0.36120100341E+03  0.50400001928E-02 0. -1.
</event>
<event>
 5   0  0.3767635E-02  0.6030870E+03  0.7818609E-02  0.9899022E-01
        1   -1    0    0  501    0  0.00000000000E+00  0.00000000000E+00  0.44872366606E+03  0.44872366608E+03  0.50400001928E-02 0.  1.
       -1   -1    0    0    0  501  0.00000000000E+00  0.00000000000E+00 -0.20263803409E+03  0.20263803415E+03  0.50400001928E-02 0. -1.
    10030    2    1    2    0    0  0.00000000000E+00  0.00000000000E+00  0.24608563196E+03  0.65136170024E+03  0.60308699727E+03 0.  0.
        2    1    3    3  502    0 -0.21929967954E+03  0.14342183593E+03  0.28420619721E+03  0.38656866791E+03  0.25500000920E-02 0.  1.
       -2    1    3    3    0  502  0.21929967954E+03 -0.14342183593E+03 -0.38120565249E+02  0.26479303233E+03  0.25500000920E-02 0. -1.
</event>
<event>
 5   0  0.5935451E-02  0.6040539E+03  0.7818609E-02  0.9897031E-01
       -2   -1    0    0    0  501  0.00000000000E+00  0.00000000000E+00  0.10512653576E+03  0.10512653579E+03  0.25500000920E-02 0. -1.
        2   -1    0    0  501    0  0.00000000000E+00  0.00000000000E+00 -0.86771883199E+03  0.86771883200E+03  0.25500000920E-02 0.  1.
    10030    2    1    2    0    0  0.00000000000E+00  0.00000000000E+00 -0.76259229623E+03  0.97284536779E+03  0.60405388779E+03 0.  0.
        3    1    3    3  502    0  0.13803014530E+03  0.26800591649E+03 -0.41102651753E+03  0.50972767298E+03  0.10100000352E+00 0. -1.
       -3    1    3    3    0  502 -0.13803014530E+03 -0.26800591649E+03 -0.35156577871E+03  0.46311769481E+03  0.10100000352E+00 0.  1.
</event>
<event>
 5   0  0.3478183E-02  0.6021945E+03  0.7818609E-02  0.9900864E-01
        1   -1    0    0  501    0  0.00000000000E+00  0.00000000000E+00  0.53650357690E+03  0.53650357692E+03  0.50400001928E-02 0.  1.
       -1   -1    0    0    0  501  0.00000000000E+00  0.00000000000E+00 -0.16898217109E+03  0.16898217117E+03  0.50400001928E-02 0. -1.
    10030    2    1    2    0    0  0.00000000000E+00  0.00000000000E+00  0.36752140581E+03  0.70548574809E+03  0.60219445118E+03 0.  0.
        4    1    3    3  502    0  0.27690223913E+03 -0.11395436705E+03  0.14676057046E+03  0.33346772820E+03  0.12699999809E+01 0. -1.
       -4    1    3    3    0  502 -0.27690223913E+03  0.11395436705E+03  0.22076083534E+03  0.37201801990E+03  0.12699999809E+01 0.  1.
</event>
<event>
 5   0  0.3478183E-02  0.6063203E+03  0.7818609E-02  0.9892380E-01
        1   -1    0    0  501    0  0.00000000000E+00  0.00000000000E+00  0.76481824261E+02  0.76481824427E+02  0.50400001928E-02 0. -1.
       -1   -1    0    0    0  501  0.00000000000E+00  0.00000000000E+00 -0.12016719768E+04  0.12016719769E+04  0.50400001928E-02 0.  1.
    10030    2    1    2    0    0  0.00000000000E+00  0.00000000000E+00 -0.11251901526E+04  0.12781538013E+04  0.60632026213E+03 0.  0.
        4    1    3    3  502    0  0.58427088469E+02  0.11540546219E+03  0.15381147128E+02  0.13027024970E+03  0.12699999809E+01 0. -1.
       -4    1    3    3    0  502 -0.58427088469E+02 -0.11540546219E+03 -0.11405712997E+04  0.11478835516E+04  0.12699999809E+01 0.  1.
</event>
<event>
 5   0  0.5872632E-02  0.6032327E+03  0.7818609E-02  0.9898722E-01
        2   -1    0    0  501    0  0.00000000000E+00  0.00000000000E+00  0.67383824997E+03  0.67383824998E+03  0.25500000920E-02 0.  1.
       -2   -1    0    0    0  501  0.00000000000E+00  0.00000000000E+00 -0.13500633473E+03  0.13500633475E+03  0.25500000920E-02 0. -1.
    10030    2    1    2    0    0  0.00000000000E+00  0.00000000000E+00  0.53883191524E+03  0.80884458473E+03  0.60323273234E+03 0.  0.
        1    1    3    3  502    0 -0.26299762035E+03 -0.78686689880E+02  0.43695830607E+03  0.51603479025E+03  0.50400001928E-02 0.  1.
       -1    1    3    3    0  502  0.26299762035E+03  0.78686689880E+02  0.10187360916E+03  0.29280979448E+03  0.50400001928E-02 0. -1.
</event>
<event>
 5   0  0.6007360E-02  0.6165507E+03  0.7818609E-02  0.9871651E-01
        2   -1    0    0  501    0  0.00000000000E+00  0.00000000000E+00  0.24654781168E+03  0.24654781169E+03  0.25500000920E-02 0.  1.
       -2   -1    0    0    0  501  0.00000000000E+00  0.00000000000E+00 -0.38545742623E+03  0.38545742624E+03  0.25500000920E-02 0. -1.
    10030    2    1    2    0    0  0.00000000000E+00  0.00000000000E+00 -0.13890961455E+03  0.63200523793E+03  0.61655067899E+03 0.  0.
        4    1    3    3  502    0  0.76744451053E+02 -0.81681847811E+02 -0.36382988912E+03  0.38070386936E+03  0.12699999809E+01 0. -1.
       -4    1    3    3    0  502 -0.76744451053E+02  0.81681847811E+02  0.22492027458E+03  0.25130136857E+03  0.12699999809E+01 0.  1.
</event>
<event>
 5   0  0.3703280E-02  0.4995267E+03  0.7818609E-02  0.1013903E+00
        1   -1    0    0  501    0  0.00000000000E+00  0.00000000000E+00  0.35961199213E+03  0.35961199217E+03  0.50400001928E-02 0.  1.
       -1   -1    0    0    0  501  0.00000000000E+00  0.00000000000E+00 -0.17346956933E+03  0.17346956940E+03  0.50400001928E-02 0. -1.
    10030    2    1    2    0    0  0.00000000000E+00  0.00000000000E+00  0.18614242281E+03  0.53308156157E+03  0.49952672573E+03 0.  0.
        5    1    3    3  502    0  0.72098519772E+02  0.19892816243E+03  0.23460364182E+03  0.31596134117E+03  0.46999998093E+01 0.  1.
       -5    1    3    3    0  502 -0.72098519772E+02 -0.19892816243E+03 -0.48461219006E+02  0.21712022040E+03  0.46999998093E+01 0. -1.
</event>
<event>
 5   0  0.5872632E-02  0.5919056E+03  0.7818609E-02  0.9922343E-01
        2   -1    0    0  501    0  0.00000000000E+00  0.00000000000E+00  0.91385268613E+03  0.91385268614E+03  0.25500000920E-02 0.  1.
       -2   -1    0    0    0  501  0.00000000000E+00  0.00000000000E+00 -0.95844837572E+02  0.95844837606E+02  0.25500000920E-02 0. -1.
    10030    2    1    2    0    0  0.00000000000E+00  0.00000000000E+00  0.81800784856E+03  0.10096975237E+04  0.59190560831E+03 0.  0.
        1    1    3    3  502    0 -0.90394747359E+02 -0.28159585015E+03  0.39026844263E+03  0.48967018544E+03  0.50400001928E-02 0.  1.
       -1    1    3    3    0  502  0.90394747359E+02  0.28159585015E+03  0.42773940593E+03  0.52002733830E+03  0.50400001928E-02 0. -1.
</event>
<event>
 5   0  0.5935451E-02  0.5966285E+03  0.7818609E-02  0.9912426E-01
       -2   -1    0    0    0  501  0.00000000000E+00  0.00000000000E+00  0.70296262879E+02  0.70296262925E+02  0.25500000920E-02 0.  1.
        2   -1    0    0  501    0  0.00000000000E+00  0.00000000000E+00 -0.12659475126E+04  0.12659475126E+04  0.25500000920E-02 0. -1.
    10030    2    1    2    0    0  0.00000000000E+00  0.00000000000E+00 -0.11956512497E+04  0.13362437755E+04  0.59662845782E+03 0.  0.
        3    1    3    3  502    0  0.78701086207E+02  0.54462681844E+02 -0.12306284329E+04  0.12343445203E+04  0.10100000352E+00 0. -1.
       -3    1    3    3    0  502 -0.78701086207E+02 -0.54462681844E+02  0.34977183149E+02  0.10189925528E+03  0.10100000352E+00 0.  1.
</event>
<event>
 5   0  0.3651984E-02  0.5972052E+03  0.7818609E-02  0.9911221E-01
       -1   -1    0    0    0  501  0.00000000000E+00  0.00000000000E+00  0.72591623936E+02  0.72591624111E+02  0.50400001928E-02 0.  1.
        1   -1    0    0  501    0  0.00000000000E+00  0.00000000000E+00 -0.12282893036E+04  0.12282893036E+04  0.50400001928E-02 0. -1.
    10030    2    1    2    0    0  0.00000000000E+00  0.00000000000E+00 -0.11556976797E+04  0.13008809277E+04  0.59720520873E+03 0.  0.
        1    1    3    3  502    0  0.12625801663E+03  0.34805854774E+02  0.66899327799E+01  0.13113843645E+03  0.50400001928E-02 0.  1.
       -1    1    3    3    0  502 -0.12625801663E+03 -0.34805854774E+02 -0.11623876124E+04  0.11697424913E+04  0.50400001928E-02 0. -1.
</event>
<event>
 5   0  0.3478183E-02  0.5934161E+03  0.7818609E-02  0.9919161E-01
       -1   -1    0    0    0  501  0.00000000000E+00  0.00000000000E+00  0.17477000591E+03  0.17477000598E+03  0.50400001928E-02 0.  1.
        1   -1    0    0  501    0  0.00000000000E+00  0.00000000000E+00 -0.50372290013E+03  0.50372290015E+03  0.50400001928E-02 0. -1.
    10030    2    1    2    0    0  0.00000000000E+00  0.00000000000E+00 -0.32895289422E+03  0.67849290614E+03  0.59341605730E+03 0.  0.
        4    1    3    3  502    0  0.22805147057E+02  0.27646501473E+03 -0.44117961386E+02  0.28089319415E+03  0.12699999809E+01 0.  1.
       -4    1    3    3    0  502 -0.22805147057E+02 -0.27646501473E+03 -0.28483493284E+03  0.39759971198E+03  0.12699999809E+01 0. -1.
</event>
<event>
 5   0  0.3651984E-02  0.5997471E+03  0.7818609E-02  0.9905931E-01
       -1   -1    0    0    0  501  0.00000000000E+00  0.00000000000E+00  0.14088560489E+03  0.14088560498E+03  0.50400001928E-02 0. -1.
        1   -1    0    0  501    0  0.00000000000E+00  0.00000000000E+00 -0.63827780841E+03  0.63827780843E+03  0.50400001928E-02 0.  1.
    10030    2    1    2    0    0  0.00000000000E+00  0.00000000000E+00 -0.49739220352E+03  0.77916341340E+03  0.59974713060E+03 0.  0.
        1    1    3    3  502    0 -0.25153715911E+02  0.52755907417E+02 -0.63080676819E+03  0.63350854297E+03  0.50400001928E-02 0.  1.
       -1    1    3    3    0  502  0.25153715911E+02 -0.52755907417E+02  0.13341456467E+03  0.14565487044E+03  0.50400001928E-02 0. -1.
</event>
<event>
 5   0  0.3640827E-02  0.5810063E+03  0.7818609E-02  0.9945615E-01
       -1   -1    0    0    0  501  0.00000000000E+00  0.00000000000E+00  0.36448176288E+03  0.36448176291E+03  0.50400001928E-02 0.  1.
        1   -1    0    0  501    0  0.00000000000E+00  0.00000000000E+00 -0.23153992679E+03  0.23153992684E+03  0.50400001928E-02 0. -1.
    10030    2    1    2    0    0  0.00000000000E+00  0.00000000000E+00  0.13294183609E+03  0.59602168975E+03  0.58100630192E+03 0.  0.
        3    1    3    3  502    0 -0.20200736945E+03 -0.20576551445E+03  0.30265081482E+02  0.28993518174E+03  0.10100000352E+00 0.  1.
       -3    1    3    3    0  502  0.20200736945E+03  0.20576551445E+03  0.10267675461E+03  0.30608650802E+03  0.10100000352E+00 0. -1.
</event>
<event>
 5   0  0.2388000E-02  0.6190814E+03  0.7818609E-02  0.9866590E-01
       -3   -1    0    0    0  501  0.00000000000E+00  0.00000000000E+00  0.36455076100E+03  0.36455077499E+03  0.10100000352E+00 0. -1.
        3   -1    0    0  501    0  0.00000000000E+00  0.00000000000E+00 -0.26283152922E+03  0.26283154863E+03  0.10100000352E+00 0.  1.
    10030    2    1    2    0    0  0.00000000000E+00  0.00000000000E+00  0.10171923178E+03  0.62738232362E+03  0.61908139843E+03 0.  0.
        5    1    3    3  502    0  0.54593294815E+02 -0.22026327866E+03 -0.16243100227E+03  0.27910976382E+03  0.46999998093E+01 0.  1.
       -5    1    3    3    0  502 -0.54593294815E+02  0.22026327866E+03  0.26415023404E+03  0.34827255980E+03  0.46999998093E+01 0. -1.
</event>
<event>
 5   0  0.2388000E-02  0.5859249E+03  0.7818609E-02  0.9935045E-01
       -3   -1    0    0    0  501  0.00000000000E+00  0.00000000000E+00  0.39346536651E+03  0.39346537947E+03  0.10100000352E+00 0. -1.
        3   -1    0    0  501    0  0.00000000000E+00  0.00000000000E+00 -0.21813099201E+03  0.21813101539E+03  0.10100000352E+00 0.  1.
    10030    2    1    2    0    0  0.00000000000E+00  0.00000000000E+00  0.17533437450E+03  0.61159639486E+03  0.58592491612E+03 0.  0.
        4    1    3    3  502    0  0.22312695981E+03  0.10442669185E+03  0.25315301046E+03  0.35324019275E+03  0.12699999809E+01 0. -1.
       -4    1    3    3    0  502 -0.22312695981E+03 -0.10442669185E+03 -0.77818635963E+02  0.25835620211E+03  0.12699999809E+01 0.  1.
</event>
<event>
 5   0  0.3640827E-02  0.6026310E+03  0.7818609E-02  0.9899963E-01
        1   -1    0    0  501    0  0.00000000000E+00  0.00000000000E+00  0.80400400814E+03  0.80400400815E+03  0.50400001928E-02 0. -1.
       -1   -1    0    0    0  501  0.00000000000E+00  0.00000000000E+00 -0.11292360436E+03  0.11292360447E+03  0.50400001928E-02 0.  1.
    10030    2    1    2    0    0  0.00000000000E+00  0.00000000000E+00  0.69108040377E+03  0.91692761262E+03  0.60263100012E+03 0.  0.
        3    1    3    3  502    0  0.23455483182E+03 -0.13294360745E+03  0.55024850044E+03  0.61275067877E+03  0.10100000352E+00 0. -1.
       -3    1    3    3    0  502 -0.23455483182E+03  0.13294360745E+03  0.14083190333E+03  0.30417693385E+03  0.10100000352E+00 0.  1.
</event>
<event>
 5   0  0.6007360E-02  0.6020081E+03  0.7818609E-02  0.9901249E-01
        2   -1    0    0  501    0  0.00000000000E+00  0.00000000000E+00  0.69608789892E+03  0.69608789892E+03  0.25500000920E-02 0.  1.
       -2   -1    0    0    0  501  0.00000000000E+00  0.00000000000E+00 -0.13016092450E+03  0.13016092453E+03  0.25500000920E-02 0. -1.
    10030    2    1    2    0    0  0.00000000000E+00  0.00000000000E+00  0.56592697442E+03  0.82624882345E+03  0.60200812110E+03 0.  0.
        4    1    3    3  502    0 -0.11626515503E+03  0.22631957937E+03  0.50368963042E+03  0.56430753581E+03  0.12699999809E+01 0.  1.
       -4    1    3    3    0  502  0.11626515503E+03 -0.22631957937E+03  0.62237343996E+02  0.26194128764E+03  0.12699999809E+01 0. -1.
</event>
<event>
 5   0  0.5872632E-02  0.6039659E+03  0.7818609E-02  0.9897212E-01
        2   -1    0    0  501    0  0.00000000000E+00  0.00000000000E+00  0.99531335494E+03  0.99531335495E+03  0.25500000920E-02 0.  1.
       -2   -1    0    0    0  501  0.00000000000E+00  0.00000000000E+00 -0.91623114017E+02  0.91623114053E+02  0.25500000920E-02 0. -1.
    10030    2    1    2    0    0  0.00000000000E+00  0.00000000000E+00  0.90369024093E+03  0.10869364690E+04  0.60396592296E+03 0.  0.
        1    1    3    3  502    0  0.64047364527E+02  0.23816459884E+03  0.13822141136E+03  0.28271823363E+03  0.50400001928E-02 0. -1.
       -1    1    3    3    0  502 -0.64047364527E+02 -0.23816459884E+03  0.76546882957E+03  0.80421823537E+03  0.50400001928E-02 0.  1.
</event>
<event>
 5   0  0.3767635E-02  0.6144766E+03  0.7818609E-02  0.9875819E-01
        1   -1    0    0  501    0  0.00000000000E+00  0.00000000000E+00  0.17677230499E+03  0.17677230506E+03  0.50400001928E-02 0. -1.
       -1   -1    0    0    0  501  0.00000000000E+00  0.00000000000E+00 -0.53399409596E+03  0.53399409598E+03  0.50400001928E-02 0.  1.
    10030    2    1    2    0    0  0.00000000000E+00  0.00000000000E+00 -0.35722179097E+03  0.71076640104E+03  0.61447658125E+03 0.  0.
        2    1    3    3  502    0  0.14338875663E+03 -0.11670353378E+03  0.10523004829E+03  0.21272849690E+03  0.25500000920E-02 0. -1.
       -2    1    3    3    0  502 -0.14338875663E+03  0.11670353378E+03 -0.46245183926E+03  0.49803790414E+03  0.25500000920E-02 0.  1.
</event>
<event>
 5   0  0.5999117E-02  0.6199353E+03  0.7818609E-02  0.9864889E-01
        2   -1    0    0  501    0  0.00000000000E+00  0.00000000000E+00  0.19958430945E+04  0.19958430945E+04  0.25500000920E-02 0.  1.
       -2   -1    0    0    0  501  0.00000000000E+00  0.00000000000E+00 -0.48140022700E+02  0.48140022768E+02  0.25500000920E-02 0. -1.
    10030    2    1    2    0    0  0.00000000000E+00  0.00000000000E+00  0.19477030718E+04  0.20439831172E+04  0.61993526095E+03 0.  0.
        5    1    3    3  502    0 -0.31524871364E+02 -0.15793864380E+03  0.10077947732E+03  0.19004479937E+03  0.46999998093E+01 0. -1.
       -5    1    3    3    0  502  0.31524871364E+02  0.15793864380E+03  0.18469235944E+04  0.18539383179E+04  0.46999998093E+01 0.  1.
</event>
<event>
 5   0  0.2388000E-02  0.6004864E+03  0.7818609E-02  0.9904397E-01
       -3   -1    0    0    0  501  0.00000000000E+00  0.00000000000E+00  0.13496089045E+03  0.13496092824E+03  0.10100000352E+00 0.  1.
        3   -1    0    0  501    0  0.00000000000E+00  0.00000000000E+00 -0.66794137427E+03  0.66794138190E+03  0.10100000352E+00 0. -1.
    10030    2    1    2    0    0  0.00000000000E+00  0.00000000000E+00 -0.53298048382E+03  0.80290231015E+03  0.60048640576E+03 0.  0.
        3    1    3    3  502    0  0.13646044714E+03  0.18896878604E+03 -0.13447482564E+02  0.23347698113E+03  0.10100000352E+00 0.  1.
       -3    1    3    3    0  502 -0.13646044714E+03 -0.18896878604E+03 -0.51953300125E+03  0.56942532901E+03  0.10100000352E+00 0. -1.
</event>
<event>
 5   0  0.2388000E-02  0.5982928E+03  0.7818609E-02  0.9908954E-01
        3   -1    0    0  501    0  0.00000000000E+00  0.00000000000E+00  0.50789596866E+03  0.50789597871E+03  0.10100000352E+00 0. -1.
       -3   -1    0    0    0  501  0.00000000000E+00  0.00000000000E+00 -0.17619462790E+03  0.17619465685E+03  0.10100000352E+00 0.  1.
    10030    2    1    2    0    0  0.00000000000E+00  0.00000000000E+00  0.33170134076E+03  0.68409063556E+03  0.59829275292E+03 0.  0.
        3    1    3    3  502    0  0.47581548778E+02 -0.66342575185E+02  0.49491129279E+03  0.50159997906E+03  0.10100000352E+00 0. -1.
       -3    1    3    3    0  502 -0.47581548778E+02  0.66342575185E+02 -0.16320995203E+03  0.18249065649E+03  0.10100000352E+00 0.  1.
</event>
<event>
 5   0  0.3767635E-02  0.5985070E+03  0.7818609E-02  0.9908508E-01
       -1   -1    0    0    0  501  0.00000000000E+00  0.00000000000E+00  0.28204948004E+03  0.28204948008E+03  0.50400001928E-02 0. -1.
        1   -1    0    0  501    0  0.00000000000E+00  0.00000000000E+00 -0.31750687262E+03  0.31750687266E+03  0.50400001928E-02 0.  1.
    10030    2    1    2    0    0  0.00000000000E+00  0.00000000000E+00 -0.35457392581E+02  0.59955635274E+03  0.59850697024E+03 0.  0.
        2    1    3    3  502    0  0.17311151857E+03  0.23464376952E+03 -0.85132269988E+02  0.30376438211E+03  0.25500000920E-02 0.  1.
       -2    1    3    3    0  502 -0.17311151857E+03 -0.23464376952E+03  0.49674877407E+02  0.29579197063E+03  0.25500000920E-02 0. -1.
</event>
<event>
 5   0  0.5755078E-02  0.6019721E+03  0.7818609E-02  0.9901323E-01
       -2   -1    0    0    0  501  0.00000000000E+00  0.00000000000E+00  0.55808113329E+02  0.55808113387E+02  0.25500000920E-02 0.  1.
        2   -1    0    0  501    0  0.00000000000E+00  0.00000000000E+00 -0.16232870820E+04  0.16232870820E+04  0.25500000920E-02 0. -1.
    10030    2    1    2    0    0  0.00000000000E+00  0.00000000000E+00 -0.15674789687E+04  0.16790951954E+04  0.60197205746E+03 0.  0.
        2    1    3    3  502    0 -0.14299904742E+03 -0.26482990306E+03 -0.77537878303E+03  0.83174266591E+03  0.25500000920E-02 0.  1.
       -2    1    3    3    0  502  0.14299904742E+03  0.26482990306E+03 -0.79210018567E+03  0.84735252950E+03  0.25500000920E-02 0. -1.
</event>
<event>
 5   0  0.5935451E-02  0.5286516E+03  0.7818609E-02  0.1006560E+00
       -2   -1    0    0    0  501  0.00000000000E+00  0.00000000000E+00  0.14671640119E+03  0.14671640121E+03  0.25500000920E-02 0.  1.
        2   -1    0    0  501    0  0.00000000000E+00  0.00000000000E+00 -0.47621220411E+03  0.47621220411E+03  0.25500000920E-02 0. -1.
    10030    2    1    2    0    0  0.00000000000E+00  0.00000000000E+00 -0.32949580292E+03  0.62292860532E+03  0.52865164635E+03 0.  0.
        3    1    3    3  502    0  0.24316230349E+03  0.36066389384E+02 -0.27923111400E+03  0.37201977838E+03  0.10100000352E+00 0. -1.
       -3    1    3    3    0  502 -0.24316230349E+03 -0.36066389384E+02 -0.50264688919E+02  0.25090882694E+03  0.10100000352E+00 0.  1.
</event>
<event>
 5   0  0.3703280E-02  0.5965594E+03  0.7818609E-02  0.9912570E-01
        1   -1    0    0  501    0  0.00000000000E+00  0.00000000000E+00  0.29179521164E+03  0.29179521169E+03  0.50400001928E-02 0.  1.
       -1   -1    0    0    0  501  0.00000000000E+00  0.00000000000E+00 -0.30490830439E+03  0.30490830444E+03  0.50400001928E-02 0. -1.
    10030    2    1    2    0    0  0.00000000000E+00  0.00000000000E+00 -0.13113092751E+02  0.59670351612E+03  0.59655941276E+03 0.  0.
        5    1    3    3  502    0 -0.18393170462E+03 -0.23422662923E+03  0.94381709610E+01  0.29800025986E+03  0.46999998093E+01 0. -1.
       -5    1    3    3    0  502  0.18393170462E+03  0.23422662923E+03 -0.22551263712E+02  0.29870325626E+03  0.46999998093E+01 0.  1.
</event>
<event>
 5   0  0.5872632E-02  0.6046341E+03  0.7818609E-02  0.9895838E-01
       -2   -1    0    0    0  501  0.00000000000E+00  0.00000000000E+00  0.63063257873E+02  0.63063257925E+02  0.25500000920E-02 0. -1.
        2   -1    0    0  501    0  0.00000000000E+00  0.00000000000E+00 -0.14492686246E+04  0.14492686246E+04  0.25500000920E-02 0.  1.
    10030    2    1    2    0    0  0.00000000000E+00  0.00000000000E+00 -0.13862053667E+04  0.15123318825E+04  0.60463410767E+03 0.  0.
        1    1    3    3  502    0  0.14058189862E+03 -0.93124634746E+01 -0.24072120984E+02  0.14293165930E+03  0.50400001928E-02 0. -1.
       -1    1    3    3    0  502 -0.14058189862E+03  0.93124634746E+01 -0.13621332457E+04  0.13694002232E+04  0.50400001928E-02 0.  1.
</event>
<event>
 5   0  0.6007360E-02  0.6020094E+03  0.7818609E-02  0.9901246E-01
        2   -1    0    0  501    0  0.00000000000E+00  0.00000000000E+00  0.10455510786E+04  0.10455510786E+04  0.25500000920E-02 0. -1.
       -2   -1    0    0    0  501  0.00000000000E+00  0.00000000000E+00 -0.86656532750E+02  0.86656532787E+02  0.25500000920E-02 0.  1.
    10030    2    1    2    0    0  0.00000000000E+00  0.00000000000E+00  0.95889454589E+03  0.11322076114E+04  0.60200940627E+03 0.  0.
        4    1    3    3  502    0 -0.18934965670E+03  0.22220236787E+03  0.34156342774E+03  0.44932657705E+03  0.12699999809E+01 0.  1.
       -4    1    3    3    0  502  0.18934965670E+03 -0.22220236787E+03  0.61733111815E+03  0.68288103437E+03  0.12699999809E+01 0. -1.
</event>
<event>
 5   0  0.3703280E-02  0.5975264E+03  0.7818609E-02  0.9910551E-01
        1   -1    0    0  501    0  0.00000000000E+00  0.00000000000E+00  0.68660905986E+03  0.68660905987E+03  0.50400001928E-02 0. -1.
       -1   -1    0    0    0  501  0.00000000000E+00  0.00000000000E+00 -0.13000038818E+03  0.13000038828E+03  0.50400001928E-02 0.  1.
    10030    2    1    2    0    0  0.00000000000E+00  0.00000000000E+00  0.55660867168E+03  0.81660944815E+03  0.59752638220E+03 0.  0.
        5    1    3    3  502    0  0.10189906197E+03  0.27711543551E+03  0.21626127025E+03  0.36601558769E+03  0.46999998093E+01 0.  1.
       -5    1    3    3    0  502 -0.10189906197E+03 -0.27711543551E+03  0.34034740143E+03  0.45059386046E+03  0.46999998093E+01 0. -1.
</event>
<event>
 5   0  0.3767635E-02  0.6058468E+03  0.7818609E-02  0.9893350E-01
       -1   -1    0    0    0  501  0.00000000000E+00  0.00000000000E+00  0.10649431158E+03  0.10649431170E+03  0.50400001928E-02 0. -1.
        1   -1    0    0  501    0  0.00000000000E+00  0.00000000000E+00 -0.86166649186E+03  0.86166649187E+03  0.50400001928E-02 0.  1.
    10030    2    1    2    0    0  0.00000000000E+00  0.00000000000E+00 -0.75517218027E+03  0.96816080357E+03  0.60584677907E+03 0.  0.
        2    1    3    3  502    0  0.34674249026E+02  0.16289661794E+03  0.26765707827E+02  0.16868317878E+03  0.25500000920E-02 0. -1.
       -2    1    3    3    0  502 -0.34674249026E+02 -0.16289661794E+03 -0.78193788810E+03  0.79947762479E+03  0.25500000920E-02 0.  1.
</event>
<event>
 5   0  0.3703280E-02  0.5991184E+03  0.7818609E-02  0.9907237E-01
       -1   -1    0    0    0  501  0.00000000000E+00  0.00000000000E+00  0.40785259127E+03  0.40785259130E+03  0.50400001928E-02 0.  1.
        1   -1    0    0  501    0  0.00000000000E+00  0.00000000000E+00 -0.22001993627E+03  0.22001993633E+03  0.50400001928E-02 0. -1.
    10030    2    1    2    0    0  0.00000000000E+00  0.00000000000E+00  0.18783265500E+03  0.62787252763E+03  0.59911835614E+03 0.  0.
        5    1    3    3  502    0  0.15275288210E+03 -0.12204627428E+03 -0.14387646493E+03  0.24279881222E+03  0.46999998093E+01 0. -1.
       -5    1    3    3    0  502 -0.15275288210E+03  0.12204627428E+03  0.33170911993E+03  0.38507371541E+03  0.46999998093E+01 0.  1.
</event>
<event>
 5   0  0.5935451E-02  0.6066110E+03  0.7818609E-02  0.9891784E-01
        2   -1    0    0  501    0  0.00000000000E+00  0.00000000000E+00  0.38471952514E+03  0.38471952515E+03  0.25500000920E-02 0.  1.
       -2   -1    0    0    0  501  0.00000000000E+00  0.00000000000E+00 -0.23912026321E+03  0.23912026322E+03  0.25500000920E-02 0. -1.
    10030    2    1    2    0    0  0.00000000000E+00  0.00000000000E+00  0.14559926193E+03  0.62383978837E+03  0.60661102568E+03 0.  0.
        3    1    3    3  502    0  0.12091651651E+03  0.22271969556E+03  0.24417392705E+03  0.35191729655E+03  0.10100000352E+00 0.  1.
       -3    1    3    3    0  502 -0.12091651651E+03 -0.22271969556E+03 -0.98574665115E+02  0.27192249183E+03  0.10100000352E+00 0. -1.
</event>
<event>
 5   0  0.5755078E-02  0.6006831E+03  0.7818609E-02  0.9903990E-01
        2   -1    0    0  501    0  0.00000000000E+00  0.00000000000E+00  0.10915094379E+03  0.10915094382E+03  0.25500000920E-02 0. -1.
       -2   -1    0    0    0  501  0.00000000000E+00  0.00000000000E+00 -0.82642488988E+03  0.82642488988E+03  0.25500000920E-02 0.  1.
    10030    2    1    2    0    0  0.00000000000E+00  0.00000000000E+00 -0.71727394609E+03  0.93557583370E+03  0.60068313350E+03 0.  0.
        2    1    3    3  502    0 -0.23181740294E+03 -0.16924999112E+03 -0.22090264968E+03  0.36219172884E+03  0.25500000920E-02 0.  1.
       -2    1    3    3    0  502  0.23181740294E+03  0.16924999112E+03 -0.49637129641E+03  0.57338410486E+03  0.25500000920E-02 0. -1.
</event>
<event>
 5   0  0.5999117E-02  0.6260376E+03  0.7818609E-02  0.9852812E-01
       -2   -1    0    0    0  501  0.00000000000E+00  0.00000000000E+00  0.12894601234E+03  0.12894601237E+03  0.25500000920E-02 0. -1.
        2   -1    0    0  501    0  0.00000000000E+00  0.00000000000E+00 -0.75985881163E+03  0.75985881163E+03  0.25500000920E-02 0.  1.
    10030    2    1    2    0    0  0.00000000000E+00  0.00000000000E+00 -0.63091279928E+03  0.88880482400E+03  0.62603758263E+03 0.  0.
        5    1    3    3  502    0  0.81168025212E+02  0.20134476313E+03 -0.63554417845E+03  0.67161481127E+03  0.46999998093E+01 0.  1.
       -5    1    3    3    0  502 -0.81168025212E+02 -0.20134476313E+03  0.46313791701E+01  0.21719001273E+03  0.46999998093E+01 0. -1.
</event>
<event>
 5   0  0.3478183E-02  0.6002839E+03  0.7818609E-02  0.9904817E-01
       -1   -1    0    0    0  501  0.00000000000E+00  0.00000000000E+00  0.11939502827E+03  0.11939502838E+03  0.50400001928E-02 0.  1.
        1   -1    0    0  501    0  0.00000000000E+00  0.00000000000E+00 -0.75451385551E+03  0.75451385553E+03  0.50400001928E-02 0. -1.
    10030    2    1    2    0    0  0.00000000000E+00  0.00000000000E+00 -0.63511882724E+03  0.87390888391E+03  0.60028394335E+03 0.  0.
        4    1    3    3  502    0 -0.11329087008E+03 -0.22961754821E+03 -0.54554634657E+03  0.60264539228E+03  0.12699999809E+01 0. -1.
       -4    1    3    3    0  502  0.11329087008E+03  0.22961754821E+03 -0.89572480680E+02  0.27126349162E+03  0.12699999809E+01 0.  1.
</event>
<event>
 5   0  0.3651984E-02  0.5899844E+03  0.7818609E-02  0.9926406E-01
        1   -1    0    0  501    0  0.00000000000E+00  0.00000000000E+00  0.15425175579E+04  0.15425175579E+04  0.50400001928E-02 0.  1.
       -1   -1    0    0    0  501  0.00000000000E+00  0.00000000000E+00 -0.56414517863E+02  0.56414518088E+02  0.50400001928E-02 0. -1.
    10030    2    1    2    0    0  0.00000000000E+00  0.00000000000E+00  0.14861030401E+04  0.15989320760E+04  0.58998435407E+03 0.  0.
        1    1    3    3  502    0 -0.18015262415E+03  0.46695719630E+02  0.13633385336E+04  0.13759823456E+04  0.50400001928E-02 0.  1.
       -1    1    3    3    0  502  0.18015262415E+03 -0.46695719630E+02  0.12276450648E+03  0.22294973043E+03  0.50400001928E-02 0. -1.
</event>
<event>
 5   0  0.5755078E-02  0.5992960E+03  0.7818609E-02  0.9906868E-01
        2   -1    0    0  501    0  0.00000000000E+00  0.00000000000E+00  0.55452823549E+03  0.55452823550E+03  0.25500000920E-02 0. -1.
       -2   -1    0    0    0  501  0.00000000000E+00  0.00000000000E+00 -0.16191950450E+03  0.16191950452E+03  0.25500000920E-02 0.  1.
    10030    2    1    2    0    0  0.00000000000E+00  0.00000000000E+00  0.39260873099E+03  0.71644774002E+03  0.59929604415E+03 0.  0.
        2    1    3    3  502    0  0.98103759133E+02 -0.24172988862E+03  0.37253664766E+03  0.45479802162E+03  0.25500000920E-02 0. -1.
       -2    1    3    3    0  502 -0.98103759133E+02  0.24172988862E+03  0.20072083325E+02  0.26164971841E+03  0.25500000920E-02 0.  1.
</event>
<event>
 5   0  0.3703280E-02  0.6106621E+03  0.7818609E-02  0.9883529E-01
        1   -1    0    0  501    0  0.00000000000E+00  0.00000000000E+00  0.19480506740E+04  0.19480506740E+04  0.50400001928E-02 0.  1.
       -1   -1    0    0    0  501  0.00000000000E+00  0.00000000000E+00 -0.47856586840E+02  0.47856587105E+02  0.50400001928E-02 0. -1.
    10030    2    1    2    0    0  0.00000000000E+00  0.00000000000E+00  0.19001940871E+04  0.19959072611E+04  0.61066212104E+03 0.  0.
        5    1    3    3  502    0  0.25564544406E+03 -0.16960727464E+02  0.14927226846E+04  0.15145578109E+04  0.46999998093E+01 0.  1.
       -5    1    3    3    0  502 -0.25564544406E+03  0.16960727464E+02  0.40747140255E+03  0.48134945023E+03  0.46999998093E+01 0. -1.
</event>
<event>
 5   0  0.3478183E-02  0.5898899E+03  0.7818609E-02  0.9926606E-01
       -1   -1    0    0    0  501  0.00000000000E+00  0.00000000000E+00  0.12208547442E+04  0.12208547442E+04  0.50400001928E-02 0.  1.
        1   -1    0    0  501    0  0.00000000000E+00  0.00000000000E+00 -0.71255426001E+02  0.71255426179E+02  0.50400001928E-02 0. -1.
    10030    2    1    2    0    0  0.00000000000E+00  0.00000000000E+00  0.11495993182E+04  0.12921101704E+04  0.58988990500E+03 0.  0.
        4    1    3    3  502    0  0.26860832985E+03  0.11461432770E+03  0.48437901468E+03  0.56560721507E+03  0.12699999809E+01 0. -1.
       -4    1    3    3    0  502 -0.26860832985E+03 -0.11461432770E+03  0.66522030354E+03  0.72650295534E+03  0.12699999809E+01 0.  1.
</event>
<event>
 5   0  0.6007360E-02  0.5998247E+03  0.7818609E-02  0.9905770E-01
        2   -1    0    0  501    0  0.00000000000E+00  0.00000000000E+00  0.61734714136E+03  0.61734714137E+03  0.25500000920E-02 0.  1.
       -2   -1    0    0    0  501  0.00000000000E+00  0.00000000000E+00 -0.14569989601E+03  0.14569989603E+03  0.25500000920E-02 0. -1.
    10030    2    1    2    0    0  0.00000000000E+00  0.00000000000E+00  0.47164724535E+03  0.76304703740E+03  0.59982468875E+03 0.  0.
        4    1    3    3  502    0  0.68963666182E+02 -0.19036352687E+03  0.51727939548E+03  0.55549423534E+03  0.12699999809E+01 0.  1.
       -4    1    3    3    0  502 -0.68963666182E+02  0.19036352687E+03 -0.45632150124E+02  0.20755280205E+03  0.12699999809E+01 0. -1.
</event>
<event>
 5   0  0.3703280E-02  0.5943612E+03  0.7818609E-02  0.9917174E-01
       -1   -1    0    0    0  501  0.00000000000E+00  0.00000000000E+00  0.62849822250E+02  0.62849822452E+02  0.50400001928E-02 0.  1.
        1   -1    0    0  501    0  0.00000000000E+00  0.00000000000E+00 -0.14051956938E+04  0.14051956938E+04  0.50400001928E-02 0. -1.
    10030    2    1    2    0    0  0.00000000000E+00  0.00000000000E+00 -0.13423458715E+04  0.14680455162E+04  0.59436116877E+03 0.  0.
        5    1    3    3  502    0 -0.58356398035E+02  0.12741221058E+03 -0.23993416989E+02  0.14225721301E+03  0.46999998093E+01 0.  1.
       -5    1    3    3    0  502  0.58356398035E+02 -0.12741221058E+03 -0.13183524545E+04  0.13257883032E+04  0.46999998093E+01 0. -1.
</event>
<event>
 5   0  0.5935451E-02  0.6023094E+03  0.7818609E-02  0.9900626E-01
        2   -1    0    0  501    0  0.00000000000E+00  0.00000000000E+00  0.15846537985E+03  0.15846537987E+03  0.25500000920E-02 0. -1.
       -2   -1    0    0    0  501  0.00000000000E+00  0.00000000000E+00 -0.57232793544E+03  0.57232793544E+03  0.25500000920E-02 0.  1.
    10030    2    1    2    0    0  0.00000000000E+00  0.00000000000E+00 -0.41386255559E+03  0.73079331531E+03  0.60230943441E+03 0.  0.
        3    1    3    3  502    0 -0.19782529100E+03  0.96483953677E+02  0.42464473474E+02  0.22415896321E+03  0.10100000352E+00 0. -1.
       -3    1    3    3    0  502  0.19782529100E+03 -0.96483953677E+02 -0.45632702906E+03  0.50663435210E+03  0.10100000352E+00 0.  1.
</event>
<event>
 5   0  0.5872632E-02  0.6231466E+03  0.7818609E-02  0.9858515E-01
       -2   -1    0    0    0  501  0.00000000000E+00  0.00000000000E+00  0.62461105627E+02  0.62461105679E+02  0.25500000920E-02 0.  1.
        2   -1    0    0  501    0  0.00000000000E+00  0.00000000000E+00 -0.15542138018E+04  0.15542138018E+04  0.25500000920E-02 0. -1.
    10030    2    1    2    0    0  0.00000000000E+00  0.00000000000E+00 -0.14917526962E+04  0.16166749075E+04  0.62314657180E+03 0.  0.
        1    1    3    3  502    0 -0.53156322038E+02 -0.29574876722E+03 -0.53217516827E+03  0.61114919425E+03  0.50400001928E-02 0.  1.
       -1    1    3    3    0  502  0.53156322038E+02  0.29574876722E+03 -0.95957752794E+03  0.10055257133E+04  0.50400001928E-02 0. -1.
</event>
<event>
 5   0  0.3651984E-02  0.5933726E+03  0.7818609E-02  0.9919252E-01
       -1   -1    0    0    0  501  0.00000000000E+00  0.00000000000E+00  0.96915899329E+02  0.96915899460E+02  0.50400001928E-02 0.  1.
        1   -1    0    0  501    0  0.00000000000E+00  0.00000000000E+00 -0.90823857282E+03  0.90823857283E+03  0.50400001928E-02 0. -1.
    10030    2    1    2    0    0  0.00000000000E+00  0.00000000000E+00 -0.81132267349E+03  0.10051544723E+04  0.59337259176E+03 0.  0.
        1    1    3    3  502    0  0.39849901344E+02  0.13579769055E+03 -0.84737391124E+03  0.85911092000E+03  0.50400001928E-02 0. -1.
       -1    1    3    3    0  502 -0.39849901344E+02 -0.13579769055E+03  0.36051237747E+02  0.14604355229E+03  0.50400001928E-02 0.  1.
</event>
<event>
 5   0  0.2388000E-02  0.5738227E+03  0.7818609E-02  0.9961255E-01
        3   -1    0    0  501    0  0.00000000000E+00  0.00000000000E+00  0.12763369011E+04  0.12763369051E+04  0.10100000352E+00 0.  1.
       -3   -1    0    0    0  501  0.00000000000E+00  0.00000000000E+00 -0.64495552328E+02  0.64495631411E+02  0.10100000352E+00 0. -1.
    10030    2    1    2    0    0  0.00000000000E+00  0.00000000000E+00  0.12118413488E+04  0.13408325365E+04  0.57382265236E+03 0.  0.
        4    1    3    3  502    0  0.89976301287E+02  0.66291639847E+02 -0.11535293908E+02  0.11236099062E+03  0.12699999809E+01 0. -1.
       -4    1    3    3    0  502 -0.89976301287E+02 -0.66291639847E+02  0.12233766427E+04  0.12284715459E+04  0.12699999809E+01 0.  1.
</event>
<event>
 5   0  0.3767635E-02  0.6172604E+03  0.7818609E-02  0.9870229E-01
        1   -1    0    0  501    0  0.00000000000E+00  0.00000000000E+00  0.78598554605E+03  0.78598554607E+03  0.50400001928E-02 0. -1.
       -1   -1    0    0    0  501  0.00000000000E+00  0.00000000000E+00 -0.12118873774E+03  0.12118873785E+03  0.50400001928E-02 0.  1.
    10030    2    1    2    0    0  0.00000000000E+00  0.00000000000E+00  0.66479680831E+03  0.90717428392E+03  0.61726038676E+03 0.  0.
        2    1    3    3  502    0  0.28609468669E+03 -0.11403412239E+03  0.36174216155E+03  0.47509087791E+03  0.25500000920E-02 0.  1.
       -2    1    3    3    0  502 -0.28609468669E+03  0.11403412239E+03  0.30305464676E+03  0.43208340601E+03  0.25500000920E-02 0. -1.
</event>
<event>
 5   0  0.3478183E-02  0.6012984E+03  0.7818609E-02  0.9902716E-01
       -1   -1    0    0    0  501  0.00000000000E+00  0.00000000000E+00  0.67511373529E+03  0.67511373531E+03  0.50400001928E-02 0. -1.
        1   -1    0    0  501    0  0.00000000000E+00  0.00000000000E+00 -0.13388846310E+03  0.13388846320E+03  0.50400001928E-02 0.  1.
    10030    2    1    2    0    0  0.00000000000E+00  0.00000000000E+00  0.54122527219E+03  0.80900219851E+03  0.60129839675E+03 0.  0.
        4    1    3    3  502    0 -0.27693619795E+03  0.90227546124E+02  0.17034765159E+03  0.33742347743E+03  0.12699999809E+01 0.  1.
       -4    1    3    3    0  502  0.27693619795E+03 -0.90227546124E+02  0.37087762060E+03  0.47157872108E+03  0.12699999809E+01 0. -1.
</event>
<event>
 5   0  0.3478183E-02  0.5988809E+03  0.7818609E-02  0.9907731E-01
        1   -1    0    0  501    0  0.00000000000E+00  0.00000000000E+00  0.61101578739E+03  0.61101578741E+03  0.50400001928E-02 0.  1.
       -1   -1    0    0    0  501  0.00000000000E+00  0.00000000000E+00 -0.14674673640E+03  0.14674673648E+03  0.50400001928E-02 0. -1.
    10030    2    1    2    0    0  0.00000000000E+00  0.00000000000E+00  0.46426905100E+03  0.75776252390E+03  0.59888086538E+03 0.  0.
        4    1    3    3  502    0  0.18595893769E+03 -0.20404248565E+03  0.37887030562E+03  0.46878394153E+03  0.12699999809E+01 0.  1.
       -4    1    3    3    0  502 -0.18595893769E+03  0.20404248565E+03  0.85398745372E+02  0.28897858237E+03  0.12699999809E+01 0. -1.
</event>
<event>
 5   0  0.3651984E-02  0.5057666E+03  0.7818609E-02  0.1012285E+00
       -1   -1    0    0    0  501  0.00000000000E+00  0.00000000000E+00  0.16224743109E+03  0.16224743116E+03  0.50400001928E-02 0.  1.
        1   -1    0    0  501    0  0.00000000000E+00  0.00000000000E+00 -0.39415089518E+03  0.39415089521E+03  0.50400001928E-02 0. -1.
    10030    2    1    2    0    0  0.00000000000E+00  0.00000000000E+00 -0.23190346409E+03  0.55639832638E+03  0.50576662695E+03 0.  0.
        1    1    3    3  502    0  0.13904836577E+03  0.52038648086E+02 -0.34115854752E+03  0.37206400456E+03  0.50400001928E-02 0. -1.
       -1    1    3    3    0  502 -0.13904836577E+03 -0.52038648086E+02  0.10925508343E+03  0.18433432182E+03  0.50400001928E-02 0.  1.
</event>
<event>
 5   0  0.5999117E-02  0.6040138E+03  0.7818609E-02  0.9897114E-01
       -2   -1    0    0    0  501  0.00000000000E+00  0.00000000000E+00  0.30228868686E+03  0.30228868687E+03  0.25500000920E-02 0.  1.
        2   -1    0    0  501    0  0.00000000000E+00  0.00000000000E+00 -0.30172535055E+03  0.30172535056E+03  0.25500000920E-02 0. -1.
    10030    2    1    2    0    0  0.00000000000E+00  0.00000000000E+00  0.56333631447E+00  0.60401403744E+03  0.60401377474E+03 0.  0.
        5    1    3    3  502    0 -0.13492933865E+03  0.63649946780E+01 -0.26979182902E+03  0.30175513350E+03  0.46999998093E+01 0. -1.
       -5    1    3    3    0  502  0.13492933865E+03 -0.63649946780E+01  0.27035516534E+03  0.30225890394E+03  0.46999998093E+01 0.  1.
</event>
<event>
 5   0  0.5755078E-02  0.5998637E+03  0.7818609E-02  0.9905689E-01
        2   -1    0    0  501    0  0.00000000000E+00  0.00000000000E+00  0.12360634388E+03  0.12360634390E+03  0.25500000920E-02 0. -1.
       -2   -1    0    0    0  501  0.00000000000E+00  0.00000000000E+00 -0.72778711711E+03  0.72778711712E+03  0.25500000920E-02 0.  1.
    10030    2    1    2    0    0  0.00000000000E+00  0.00000000000E+00 -0.60418077324E+03  0.85139346102E+03  0.59986366677E+03 0.  0.
        2    1    3    3  502    0 -0.16509733962E+03 -0.24890480211E+03 -0.34091764221E+03  0.45325000920E+03  0.25500000920E-02 0. -1.
       -2    1    3    3    0  502  0.16509733962E+03  0.24890480211E+03 -0.26326313103E+03  0.39814345182E+03  0.25500000920E-02 0.  1.
</event>
<event>
 5   0  0.3767635E-02  0.6032958E+03  0.7818609E-02  0.9898592E-01
        1   -1    0    0  501    0  0.00000000000E+00  0.00000000000E+00  0.15496886375E+04  0.15496886375E+04  0.50400001928E-02 0. -1.
       -1   -1    0    0    0  501  0.00000000000E+00  0.00000000000E+00 -0.58715962464E+02  0.58715962681E+02  0.50400001928E-02 0.  1.
    10030    2    1    2    0    0  0.00000000000E+00  0.00000000000E+00  0.14909726750E+04  0.16084046002E+04  0.60329581484E+03 0.  0.
        2    1    3    3  502    0 -0.46105167335E+02 -0.37401887156E+02 -0.42986601877E+02  0.73296900107E+02  0.25500000920E-02 0.  1.
       -2    1    3    3    0  502  0.46105167335E+02  0.37401887156E+02  0.15339592769E+04  0.15351077001E+04  0.25500000920E-02 0. -1.
</event>
<event>
 5   0  0.3478183E-02  0.5956318E+03  0.7818609E-02  0.9914510E-01
        1   -1    0    0  501    0  0.00000000000E+00  0.00000000000E+00  0.34801926142E+03  0.34801926146E+03  0.50400001928E-02 0. -1.
       -1   -1    0    0    0  501  0.00000000000E+00  0.00000000000E+00 -0.25485464194E+03  0.25485464199E+03  0.50400001928E-02 0.  1.
    10030    2    1    2    0    0  0.00000000000E+00  0.00000000000E+00  0.93164619476E+02  0.60287390345E+03  0.59563184698E+03 0.  0.
        4    1    3    3  502    0  0.74887734935E+02 -0.23131270181E+03 -0.12749417843E+03  0.27453618577E+03  0.12699999809E+01 0.  1.
       -4    1    3    3    0  502 -0.74887734935E+02  0.23131270181E+03  0.22065879790E+03  0.32833771769E+03  0.12699999809E+01 0. -1.
</event>
<event>
 5   0  0.3651984E-02  0.5970751E+03  0.7818609E-02  0.9911493E-01
        1   -1    0    0  501    0  0.00000000000E+00  0.00000000000E+00  0.58990832316E+03  0.58990832318E+03  0.50400001928E-02 0.  1.
       -1   -1    0    0    0  501  0.00000000000E+00  0.00000000000E+00 -0.15108224054E+03  0.15108224062E+03  0.50400001928E-02 0. -1.
    10030    2    1    2    0    0  0.00000000000E+00  0.00000000000E+00  0.43882608262E+03  0.74099056381E+03  0.59707510823E+03 0.  0.
        1    1    3    3  502    0 -0.29055978711E+03 -0.44638781578E+02  0.28398332449E+03  0.40873480317E+03  0.50400001928E-02 0.  1.
       -1    1    3    3    0  502  0.29055978711E+03  0.44638781578E+02  0.15484275813E+03  0.33225576064E+03  0.50400001928E-02 0. -1.
</event>
<event>
 5   0  0.3651984E-02  0.6072754E+03  0.7818609E-02  0.9890426E-01
       -1   -1    0    0    0  501  0.00000000000E+00  0.00000000000E+00  0.65097146729E+02  0.65097146924E+02  0.50400001928E-02 0.  1.
        1   -1    0    0  501    0  0.00000000000E+00  0.00000000000E+00 -0.14162808327E+04  0.14162808327E+04  0.50400001928E-02 0. -1.
    10030    2    1    2    0    0  0.00000000000E+00  0.00000000000E+00 -0.13511836859E+04  0.14813779796E+04  0.60727536201E+03 0.  0.
        1    1    3    3  502    0 -0.11744965644E+03  0.25323157393E+03 -0.96704661042E+03  0.10065285881E+04  0.50400001928E-02 0. -1.
       -1    1    3    3    0  502  0.11744965644E+03 -0.25323157393E+03 -0.38413707551E+03  0.47484939153E+03  0.50400001928E-02 0.  1.
</event>
<event>
 5   0  0.2388000E-02  0.5878442E+03  0.7818609E-02  0.9930951E-01
       -3   -1    0    0    0  501  0.00000000000E+00  0.00000000000E+00  0.72041463743E+03  0.72041464451E+03  0.10100000352E+00 0.  1.
        3   -1    0    0  501    0  0.00000000000E+00  0.00000000000E+00 -0.11991730822E+03  0.11991735075E+03  0.10100000352E+00 0. -1.
    10030    2    1    2    0    0  0.00000000000E+00  0.00000000000E+00  0.60049732922E+03  0.84033199526E+03  0.58784421394E+03 0.  0.
        5    1    3    3  502    0 -0.20690443819E+03  0.91416412031E+02  0.32041410523E+02  0.22850634328E+03  0.46999998093E+01 0. -1.
       -5    1    3    3    0  502  0.20690443819E+03 -0.91416412031E+02  0.56845591869E+03  0.61182565199E+03  0.46999998093E+01 0.  1.
</event>
<event>
 5   0  0.3767635E-02  0.6040760E+03  0.7818609E-02  0.9896986E-01
        1   -1    0    0  501    0  0.00000000000E+00  0.00000000000E+00  0.16558354480E+04  0.16558354480E+04  0.50400001928E-02 0. -1.
       -1   -1    0    0    0  501  0.00000000000E+00  0.00000000000E+00 -0.55094208532E+02  0.55094208762E+02  0.50400001928E-02 0.  1.
    10030    2    1    2    0    0  0.00000000000E+00  0.00000000000E+00  0.16007412394E+04  0.17109296568E+04  0.60407596764E+03 0.  0.
        2    1    3    3  502    0 -0.74717546940E+02 -0.11767322602E+03  0.41453268783E+02  0.14542377193E+03  0.25500000920E-02 0.  1.
       -2    1    3    3    0  502  0.74717546940E+02  0.11767322602E+03  0.15592879707E+04  0.15655058848E+04  0.25500000920E-02 0. -1.
</event>
<event>
 5   0  0.3478183E-02  0.6055054E+03  0.7818609E-02  0.9894049E-01
        1   -1    0    0  501    0  0.00000000000E+00  0.00000000000E+00  0.58268384499E+03  0.58268384501E+03  0.50400001928E-02 0. -1.
       -1   -1    0    0    0  501  0.00000000000E+00  0.00000000000E+00 -0.15730522052E+03  0.15730522060E+03  0.50400001928E-02 0.  1.
    10030    2    1    2    0    0  0.00000000000E+00  0.00000000000E+00  0.42537862447E+03  0.73998906561E+03  0.60550544428E+03 0.  0.
        4    1    3    3  502    0 -0.15091110435E+03 -0.33395259198E+02  0.53083072349E+03  0.55287636470E+03  0.12699999809E+01 0. -1.
       -4    1    3    3    0  502  0.15091110435E+03  0.33395259198E+02 -0.10545209901E+03  0.18711270090E+03  0.12699999809E+01 0.  1.
</event>
<event>
 5   0  0.3640827E-02  0.5969973E+03  0.7818609E-02  0.9911655E-01
       -1   -1    0    0    0  501  0.00000000000E+00  0.00000000000E+00  0.39776010268E+02  0.39776010588E+02  0.50400001928E-02 0.  1.
        1   -1    0    0  501    0  0.00000000000E+00  0.00000000000E+00 -0.22400799483E+04  0.22400799483E+04  0.50400001928E-02 0. -1.
    10030    2    1    2    0    0  0.00000000000E+00  0.00000000000E+00 -0.22003039381E+04  0.22798559589E+04  0.59699729781E+03 0.  0.
        3    1    3    3  502    0  0.16081918977E+03 -0.46758510429E+02 -0.15655632502E+03  0.22925763499E+03  0.10100000352E+00 0.  1.
       -3    1    3    3    0  502 -0.16081918977E+03  0.46758510429E+02 -0.20437476130E+04  0.20505983239E+04  0.10100000352E+00 0. -1.
</event>
<event>
 5   0  0.5755078E-02  0.5989789E+03  0.7818609E-02  0.9907527E-01
       -2   -1    0    0    0  501  0.00000000000E+00  0.00000000000E+00  0.61543350984E+02  0.61543351037E+02  0.25500000920E-02 0.  1.
        2   -1    0    0  501    0  0.00000000000E+00  0.00000000000E+00 -0.14574106205E+04  0.14574106205E+04  0.25500000920E-02 0. -1.
    10030    2    1    2    0    0  0.00000000000E+00  0.00000000000E+00 -0.13958672695E+04  0.15189539716E+04  0.59897890910E+03 0.  0.
        2    1    3    3  502    0 -0.15791044704E+03  0.12102898040E+03 -0.12656039631E+04  0.12811467968E+04  0.25500000920E-02 0. -1.
       -2    1    3    3    0  502  0.15791044704E+03 -0.12102898040E+03 -0.13026330641E+03  0.23780717479E+03  0.25500000920E-02 0.  1.
</event>
<event>
 5   0  0.3703280E-02  0.5982361E+03  0.7818609E-02  0.9909072E-01
       -1   -1    0    0    0  501  0.00000000000E+00  0.00000000000E+00  0.36820692924E+03  0.36820692927E+03  0.50400001928E-02 0.  1.
        1   -1    0    0  501    0  0.00000000000E+00  0.00000000000E+00 -0.24299272618E+03  0.24299272623E+03  0.50400001928E-02 0. -1.
    10030    2    1    2    0    0  0.00000000000E+00  0.00000000000E+00  0.12521420306E+03  0.61119965551E+03  0.59823609239E+03 0.  0.
        5    1    3    3  502    0  0.16213329744E+03  0.11367558178E+03 -0.16639319593E+03  0.25868538746E+03  0.46999998093E+01 0. -1.
       -5    1    3    3    0  502 -0.16213329744E+03 -0.11367558178E+03  0.29160739899E+03  0.35251426805E+03  0.46999998093E+01 0.  1.
</event>
<event>
 5   0  0.5872632E-02  0.5997194E+03  0.7818609E-02  0.9905988E-01
       -2   -1    0    0    0  501  0.00000000000E+00  0.00000000000E+00  0.15005756035E+03  0.15005756037E+03  0.25500000920E-02 0. -1.
        2   -1    0    0  501    0  0.00000000000E+00  0.00000000000E+00 -0.59920905380E+03  0.59920905380E+03  0.25500000920E-02 0.  1.
    10030    2    1    2    0    0  0.00000000000E+00  0.00000000000E+00 -0.44915149345E+03  0.74926661417E+03  0.59971943027E+03 0.  0.
        1    1    3    3  502    0  0.38307532437E+02  0.18979649165E+03 -0.51063781281E+03  0.54611459528E+03  0.50400001928E-02 0.  1.
       -1    1    3    3    0  502 -0.38307532437E+02 -0.18979649165E+03  0.61486319361E+02  0.20315201889E+03  0.50400001928E-02 0. -1.
</event>
<event>
 5   0  0.3640827E-02  0.6026035E+03  0.7818609E-02  0.9900019E-01
        1   -1    0    0  501    0  0.00000000000E+00  0.00000000000E+00  0.91538916491E+03  0.91538916492E+03  0.50400001928E-02 0. -1.
       -1   -1    0    0    0  501  0.00000000000E+00  0.00000000000E+00 -0.99173932625E+02  0.99173932754E+02  0.50400001928E-02 0.  1.
    10030    2    1    2    0    0  0.00000000000E+00  0.00000000000E+00  0.81621523228E+03  0.10145630977E+04  0.60260349630E+03 0.  0.
        3    1    3    3  502    0 -0.18893300911E+03 -0.20845288604E+03  0.22650576903E+03  0.36118300242E+03  0.10100000352E+00 0.  1.
       -3    1    3    3    0  502  0.18893300911E+03  0.20845288604E+03  0.58970946325E+03  0.65338009526E+03  0.10100000352E+00 0. -1.
</event>
<event>
 5   0  0.5872632E-02  0.5924904E+03  0.7818609E-02  0.9921110E-01
       -2   -1    0    0    0  501  0.00000000000E+00  0.00000000000E+00  0.15126456627E+03  0.15126456629E+03  0.25500000920E-02 0.  1.
        2   -1    0    0  501    0  0.00000000000E+00  0.00000000000E+00 -0.58018365991E+03  0.58018365992E+03  0.25500000920E-02 0. -1.
    10030    2    1    2    0    0  0.00000000000E+00  0.00000000000E+00 -0.42891909364E+03  0.73144822621E+03  0.59249043767E+03 0.  0.
        1    1    3    3  502    0  0.23542112992E+03  0.39775327135E+02 -0.43096432547E+03  0.49268188004E+03  0.50400001928E-02 0. -1.
       -1    1    3    3    0  502 -0.23542112992E+03 -0.39775327135E+02  0.20452318313E+01  0.23876634617E+03  0.50400001928E-02 0.  1.
</event>
<event>
 5   0  0.3651984E-02  0.5865961E+03  0.7818609E-02  0.9933612E-01
       -1   -1    0    0    0  501  0.00000000000E+00  0.00000000000E+00  0.61429561605E+02  0.61429561812E+02  0.50400001928E-02 0. -1.
        1   -1    0    0  501    0  0.00000000000E+00  0.00000000000E+00 -0.14003639570E+04  0.14003639570E+04  0.50400001928E-02 0.  1.
    10030    2    1    2    0    0  0.00000000000E+00  0.00000000000E+00 -0.13389343954E+04  0.14617935188E+04  0.58659609315E+03 0.  0.
        1    1    3    3  502    0 -0.56926737878E+02 -0.35249751536E+02 -0.13810634833E+04  0.13826856271E+04  0.50400001928E-02 0.  1.
       -1    1    3    3    0  502  0.56926737878E+02  0.35249751536E+02  0.42129087864E+02  0.79107891759E+02  0.50400001928E-02 0. -1.
</event>
<event>
 5   0  0.5999117E-02  0.5847935E+03  0.7818609E-02  0.9937467E-01
       -2   -1    0    0    0  501  0.00000000000E+00  0.00000000000E+00  0.93576796519E+02  0.93576796553E+02  0.25500000920E-02 0.  1.
        2   -1    0    0  501    0  0.00000000000E+00  0.00000000000E+00 -0.91364391856E+03  0.91364391856E+03  0.25500000920E-02 0. -1.
    10030    2    1    2    0    0  0.00000000000E+00  0.00000000000E+00 -0.82006712204E+03  0.10072207151E+04  0.58479353990E+03 0.  0.
        5    1    3    3  502    0 -0.10155396653E+03  0.12049750698E+03 -0.83416941525E+03  0.84893672358E+03  0.46999998093E+01 0. -1.
       -5    1    3    3    0  502  0.10155396653E+03 -0.12049750698E+03  0.14102293204E+02  0.15828399154E+03  0.46999998093E+01 0.  1.
</event>
<event>
 5   0  0.3767635E-02  0.6027396E+03  0.7818609E-02  0.9899739E-01
        1   -1    0    0  501    0  0.00000000000E+00  0.00000000000E+00  0.92537677086E+03  0.92537677087E+03  0.50400001928E-02 0.  1.
       -1   -1    0    0    0  501  0.00000000000E+00  0.00000000000E+00 -0.98147852100E+02  0.98147852230E+02  0.50400001928E-02 0. -1.
    10030    2    1    2    0    0  0.00000000000E+00  0.00000000000E+00  0.82722891876E+03  0.10235246231E+04  0.60273955409E+03 0.  0.
        2    1    3    3  502    0  0.68335949125E+02 -0.13251013181E+03  0.85836332627E+03  0.87121543654E+03  0.25500000920E-02 0.  1.
       -2    1    3    3    0  502 -0.68335949125E+02  0.13251013181E+03 -0.31134407511E+02  0.15230918656E+03  0.25500000920E-02 0. -1.
</event>
<event>
 5   0  0.5935451E-02  0.5965639E+03  0.7818609E-02  0.9912561E-01
        2   -1    0    0  501    0  0.00000000000E+00  0.00000000000E+00  0.15788254913E+03  0.15788254915E+03  0.25500000920E-02 0.  1.
       -2   -1    0    0    0  501  0.00000000000E+00  0.00000000000E+00 -0.56353358418E+03  0.56353358419E+03  0.25500000920E-02 0. -1.
    10030    2    1    2    0    0  0.00000000000E+00  0.00000000000E+00 -0.40565103505E+03  0.72141613334E+03  0.59656389030E+03 0.  0.
        3    1    3    3  502    0  0.19149500971E+03  0.48788710504E+02  0.67366431252E+02  0.20877960456E+03  0.10100000352E+00 0.  1.
       -3    1    3    3    0  502 -0.19149500971E+03 -0.48788710504E+02 -0.47301746630E+03  0.51263652879E+03  0.10100000352E+00 0. -1.
</event>
<event>
 5   0  0.5755078E-02  0.6000618E+03  0.7818609E-02  0.9905278E-01
       -2   -1    0    0    0  501  0.00000000000E+00  0.00000000000E+00  0.13152794664E+03  0.13152794667E+03  0.25500000920E-02 0.  1.
        2   -1    0    0  501    0  0.00000000000E+00  0.00000000000E+00 -0.68440628174E+03  0.68440628174E+03  0.25500000920E-02 0. -1.
    10030    2    1    2    0    0  0.00000000000E+00  0.00000000000E+00 -0.55287833509E+03  0.81593422841E+03  0.60006183988E+03 0.  0.
        2    1    3    3  502    0 -0.44529780436E+02  0.72550418642E+02 -0.66764119700E+03  0.67304623357E+03  0.25500000920E-02 0. -1.
       -2    1    3    3    0  502  0.44529780436E+02 -0.72550418642E+02  0.11476286190E+03  0.14288799484E+03  0.25500000920E-02 0.  1.
</event>
<event>
 5   0  0.2388000E-02  0.5982114E+03  0.7818609E-02  0.9909124E-01
        4   -1    0    0  501    0  0.00000000000E+00  0.00000000000E+00  0.16934802223E+03  0.16935278425E+03  0.12699999809E+01 0. -1.
       -4   -1    0    0    0  501  0.00000000000E+00  0.00000000000E+00 -0.52827319940E+03  0.52827472598E+03  0.12699999809E+01 0.  1.
    10030    2    1    2    0    0  0.00000000000E+00  0.00000000000E+00 -0.35892517717E+03  0.69762751022E+03  0.59821138422E+03 0.  0.
        4    1    3    3  502    0 -0.27352340386E+03  0.46955005279E+02 -0.49377479191E+02  0.28188574517E+03  0.12699999809E+01 0. -1.
       -4    1    3    3    0  502  0.27352340386E+03 -0.46955005279E+02 -0.30954769798E+03  0.41574176505E+03  0.12699999809E+01 0.  1.
</event>
<event>
 5   0  0.5999117E-02  0.6000852E+03  0.7818609E-02  0.9905229E-01
       -2   -1    0    0    0  501  0.00000000000E+00  0.00000000000E+00  0.84682338959E+02  0.84682338997E+02  0.25500000920E-02 0. -1.
        2   -1    0    0  501    0  0.00000000000E+00  0.00000000000E+00 -0.10630973593E+04  0.10630973593E+04  0.25500000920E-02 0.  1.
    10030    2    1    2    0    0  0.00000000000E+00  0.00000000000E+00 -0.97841502030E+03  0.11477796983E+04  0.60008523044E+03 0.  0.
        5    1    3    3  502    0 -0.14206052711E+03  0.22053336680E+03 -0.21079827870E+03  0.33656227289E+03  0.46999998093E+01 0. -1.
       -5    1    3    3    0  502  0.14206052711E+03 -0.22053336680E+03 -0.76761674160E+03  0.81121742537E+03  0.46999998093E+01 0.  1.
</event>
<event>
 5   0  0.5999117E-02  0.5899755E+03  0.7818609E-02  0.9926425E-01
       -2   -1    0    0    0  501  0.00000000000E+00  0.00000000000E+00  0.76560259793E+02  0.76560259836E+02  0.25500000920E-02 0.  1.
        2   -1    0    0  501    0  0.00000000000E+00  0.00000000000E+00 -0.11365919466E+04  0.11365919466E+04  0.25500000920E-02 0. -1.
    10030    2    1    2    0    0  0.00000000000E+00  0.00000000000E+00 -0.10600316868E+04  0.12131522064E+04  0.58997550707E+03 0.  0.
        5    1    3    3  502    0  0.15842320690E+03  0.79033483818E+02 -0.44928803002E+02  0.18271532882E+03  0.46999998093E+01 0.  1.
       -5    1    3    3    0  502 -0.15842320690E+03 -0.79033483818E+02 -0.10151028838E+04  0.10304368776E+04  0.46999998093E+01 0. -1.
</event>
<event>
 5   0  0.5935451E-02  0.5996998E+03  0.7818609E-02  0.9906029E-01
        2   -1    0    0  501    0  0.00000000000E+00  0.00000000000E+00  0.95323021722E+03  0.95323021723E+03  0.25500000920E-02 0. -1.
       -2   -1    0    0    0  501  0.00000000000E+00  0.00000000000E+00 -0.94321341523E+02  0.94321341558E+02  0.25500000920E-02 0.  1.
    10030    2    1    2    0    0  0.00000000000E+00  0.00000000000E+00  0.85890887570E+03  0.10475515588E+04  0.59969976785E+03 0.  0.
        3    1    3    3  502    0  0.28871492204E+03 -0.23115704745E+02  0.56497791797E+03  0.63489424317E+03  0.10100000352E+00 0. -1.
       -3    1    3    3    0  502 -0.28871492204E+03  0.23115704745E+02  0.29393095773E+03  0.41265731562E+03  0.10100000352E+00 0.  1.
</event>
<event>
 5   0  0.5872632E-02  0.5983784E+03  0.7818609E-02  0.9908776E-01
        2   -1    0    0  501    0  0.00000000000E+00  0.00000000000E+00  0.69574607935E+03  0.69574607935E+03  0.25500000920E-02 0. -1.
       -2   -1    0    0    0  501  0.00000000000E+00  0.00000000000E+00 -0.12865927903E+03  0.12865927906E+03  0.25500000920E-02 0.  1.
    10030    2    1    2    0    0  0.00000000000E+00  0.00000000000E+00  0.56708680032E+03  0.82440535841E+03  0.59837843868E+03 0.  0.
        1    1    3    3  502    0 -0.17002084761E+03  0.14383256865E+03  0.55881175517E+03  0.60155255312E+03  0.50400001928E-02 0. -1.
       -1    1    3    3    0  502  0.17002084761E+03 -0.14383256865E+03  0.82750451452E+01  0.22285280528E+03  0.50400001928E-02 0.  1.
</event>
<event>
 5   0  0.3703280E-02  0.6021858E+03  0.7818609E-02  0.9900882E-01
       -1   -1    0    0    0  501  0.00000000000E+00  0.00000000000E+00  0.14552110794E+03  0.14552110803E+03  0.50400001928E-02 0. -1.
        1   -1    0    0  501    0  0.00000000000E+00  0.00000000000E+00 -0.62298132413E+03  0.62298132415E+03  0.50400001928E-02 0.  1.
    10030    2    1    2    0    0  0.00000000000E+00  0.00000000000E+00 -0.47746021619E+03  0.76850243218E+03  0.60218579377E+03 0.  0.
        5    1    3    3  502    0  0.13298897112E+03 -0.66736760709E+02 -0.57272829934E+03  0.59175979631E+03  0.46999998093E+01 0.  1.
       -5    1    3    3    0  502 -0.13298897112E+03  0.66736760709E+02  0.95268083149E+02  0.17674263587E+03  0.46999998093E+01 0. -1.
</event>
<event>
 5   0  0.3651984E-02  0.6018589E+03  0.7818609E-02  0.9901557E-01
        1   -1    0    0  501    0  0.00000000000E+00  0.00000000000E+00  0.24869475928E+03  0.24869475934E+03  0.50400001928E-02 0.  1.
       -1   -1    0    0    0  501  0.00000000000E+00  0.00000000000E+00 -0.36413525778E+03  0.36413525781E+03  0.50400001928E-02 0. -1.
    10030    2    1    2    0    0  0.00000000000E+00  0.00000000000E+00 -0.11544049849E+03  0.61283001715E+03  0.60185888813E+03 0.  0.
        1    1    3    3  502    0 -0.38707358761E+02  0.17237261489E+03 -0.30577538342E+03  0.35314184561E+03  0.50400001928E-02 0. -1.
       -1    1    3    3    0  502  0.38707358761E+02 -0.17237261489E+03  0.19033488493E+03  0.25968817154E+03  0.50400001928E-02 0.  1.
</event>
<event>
 5   0  0.2388000E-02  0.5902872E+03  0.7818609E-02  0.9925764E-01
       -3   -1    0    0    0  501  0.00000000000E+00  0.00000000000E+00  0.26985968961E+03  0.26985970851E+03  0.10100000352E+00 0. -1.
        3   -1    0    0  501    0  0.00000000000E+00  0.00000000000E+00 -0.32279637230E+03  0.32279638810E+03  0.10100000352E+00 0.  1.
    10030    2    1    2    0    0  0.00000000000E+00  0.00000000000E+00 -0.52936682690E+02  0.59265609660E+03  0.59028718135E+03 0.  0.
        2    1    3    3  502    0 -0.27793808077E+03 -0.12489233138E+02 -0.12537348036E+03  0.30516236215E+03  0.25500000920E-02 0.  1.
       -2    1    3    3    0  502  0.27793808077E+03  0.12489233138E+02  0.72436797668E+02  0.28749373446E+03  0.25500000920E-02 0. -1.
</event>
<event>
 5   0  0.5755078E-02  0.6126735E+03  0.7818609E-02  0.9879456E-01
        2   -1    0    0  501    0  0.00000000000E+00  0.00000000000E+00  0.68231745915E+03  0.68231745916E+03  0.25500000920E-02 0. -1.
       -2   -1    0    0    0  501  0.00000000000E+00  0.00000000000E+00 -0.13753454220E+03  0.13753454222E+03  0.25500000920E-02 0.  1.
    10030    2    1    2    0    0  0.00000000000E+00  0.00000000000E+00  0.54478291695E+03  0.81985200138E+03  0.61267354893E+03 0.  0.
        2    1    3    3  502    0 -0.85036815282E+02  0.29429600240E+03  0.27117793384E+03  0.40911962650E+03  0.25500000920E-02 0.  1.
       -2    1    3    3    0  502  0.85036815282E+02 -0.29429600240E+03  0.27360498311E+03  0.41073237487E+03  0.25500000920E-02 0. -1.
</event>
<event>
 5   0  0.2388000E-02  0.6217017E+03  0.7818609E-02  0.9861377E-01
       -4   -1    0    0    0  501  0.00000000000E+00  0.00000000000E+00  0.26324569888E+03  0.26324876235E+03  0.12699999809E+01 0. -1.
        4   -1    0    0  501    0  0.00000000000E+00  0.00000000000E+00 -0.36705856983E+03  0.36706076689E+03  0.12699999809E+01 0.  1.
    10030    2    1    2    0    0  0.00000000000E+00  0.00000000000E+00 -0.10381287095E+03  0.63030952924E+03  0.62170168930E+03 0.  0.
        5    1    3    3  502    0  0.15569504515E+03  0.77878232841E+02 -0.31295975293E+03  0.35815061523E+03  0.46999998093E+01 0.  1.
       -5    1    3    3    0  502 -0.15569504515E+03 -0.77878232841E+02  0.20914688198E+03  0.27215891401E+03  0.46999998093E+01 0. -1.
</event>
<event>
 5   0  0.5872632E-02  0.5970787E+03  0.7818609E-02  0.9911485E-01
        2   -1    0    0  501    0  0.00000000000E+00  0.00000000000E+00  0.16316941748E+04  0.16316941748E+04  0.25500000920E-02 0.  1.
       -2   -1    0    0    0  501  0.00000000000E+00  0.00000000000E+00 -0.54621600956E+02  0.54621601016E+02  0.25500000920E-02 0. -1.
    10030    2    1    2    0    0  0.00000000000E+00  0.00000000000E+00  0.15770725738E+04  0.16863157758E+04  0.59707871558E+03 0.  0.
        1    1    3    3  502    0  0.28273409306E+03  0.68140955528E+02  0.97891835521E+03  0.10212065919E+04  0.50400001928E-02 0.  1.
       -1    1    3    3    0  502 -0.28273409306E+03 -0.68140955528E+02  0.59815421862E+03  0.66510918388E+03  0.50400001928E-02 0. -1.
</event>
<event>
 5   0  0.5999117E-02  0.5945278E+03  0.7818609E-02  0.9916825E-01
       -2   -1    0    0    0  501  0.00000000000E+00  0.00000000000E+00  0.11571969932E+03  0.11571969935E+03  0.25500000920E-02 0.  1.
        2   -1    0    0  501    0  0.00000000000E+00  0.00000000000E+00 -0.76361965160E+03  0.76361965160E+03  0.25500000920E-02 0. -1.
    10030    2    1    2    0    0  0.00000000000E+00  0.00000000000E+00 -0.64789995228E+03  0.87933935095E+03  0.59452783447E+03 0.  0.
        5    1    3    3  502    0  0.15904706362E+03 -0.22938998879E+03 -0.47498757006E+03  0.55095464161E+03  0.46999998093E+01 0. -1.
       -5    1    3    3    0  502 -0.15904706362E+03  0.22938998879E+03 -0.17291238222E+03  0.32838470934E+03  0.46999998093E+01 0.  1.
</event>
<event>
 5   0  0.2388000E-02  0.6026499E+03  0.7818609E-02  0.9899924E-01
        3   -1    0    0  501    0  0.00000000000E+00  0.00000000000E+00  0.17772415962E+03  0.17772418831E+03  0.10100000352E+00 0. -1.
       -3   -1    0    0    0  501  0.00000000000E+00  0.00000000000E+00 -0.51088555286E+03  0.51088556284E+03  0.10100000352E+00 0.  1.
    10030    2    1    2    0    0  0.00000000000E+00  0.00000000000E+00 -0.33316139324E+03  0.68860975116E+03  0.60264987799E+03 0.  0.
        4    1    3    3  502    0  0.27805461596E+03  0.62930010079E+02 -0.27807151980E+03  0.39824607801E+03  0.12699999809E+01 0.  1.
       -4    1    3    3    0  502 -0.27805461596E+03 -0.62930010079E+02 -0.55089873444E+02  0.29036367315E+03  0.12699999809E+01 0. -1.
</event>
<event>
 5   0  0.3640827E-02  0.6040724E+03  0.7818609E-02  0.9896993E-01
       -1   -1    0    0    0  501  0.00000000000E+00  0.00000000000E+00  0.14886483635E+03  0.14886483643E+03  0.50400001928E-02 0.  1.
        1   -1    0    0  501    0  0.00000000000E+00  0.00000000000E+00 -0.61280998859E+03  0.61280998861E+03  0.50400001928E-02 0. -1.
    10030    2    1    2    0    0  0.00000000000E+00  0.00000000000E+00 -0.46394515225E+03  0.76167482505E+03  0.60407237548E+03 0.  0.
        3    1    3    3  502    0 -0.20397293527E+03 -0.29878643396E+02  0.46364216250E+02  0.21129917748E+03  0.10100000352E+00 0.  1.
       -3    1    3    3    0  502  0.20397293527E+03  0.29878643396E+02 -0.51030936850E+03  0.55037564756E+03  0.10100000352E+00 0. -1.
</event>
<event>
 5   0  0.3703280E-02  0.5636727E+03  0.7818609E-02  0.9983779E-01
       -1   -1    0    0    0  501  0.00000000000E+00  0.00000000000E+00  0.27742341154E+03  0.27742341159E+03  0.50400001928E-02 0. -1.
        1   -1    0    0  501    0  0.00000000000E+00  0.00000000000E+00 -0.28631946300E+03  0.28631946304E+03  0.50400001928E-02 0.  1.
    10030    2    1    2    0    0  0.00000000000E+00  0.00000000000E+00 -0.88960514526E+01  0.56374287463E+03  0.56367267893E+03 0.  0.
        5    1    3    3  502    0  0.20899600403E+03 -0.18397085165E+03 -0.47870345022E+02  0.28255665606E+03  0.46999998093E+01 0.  1.
       -5    1    3    3    0  502 -0.20899600403E+03  0.18397085165E+03  0.38974293570E+02  0.28118621857E+03  0.46999998093E+01 0. -1.
</event>
<event>
 5   0  0.5872632E-02  0.5924890E+03  0.7818609E-02  0.9921113E-01
       -2   -1    0    0    0  501  0.00000000000E+00  0.00000000000E+00  0.32451023017E+03  0.32451023018E+03  0.25500000920E-02 0. -1.
        2   -1    0    0  501    0  0.00000000000E+00  0.00000000000E+00 -0.27044079785E+03  0.27044079786E+03  0.25500000920E-02 0.  1.
    10030    2    1    2    0    0  0.00000000000E+00  0.00000000000E+00  0.54069432317E+02  0.59495102804E+03  0.59248900602E+03 0.  0.
        1    1    3    3  502    0 -0.26880140483E+03 -0.50047205277E+02 -0.87464925063E+02  0.28706973218E+03  0.50400001928E-02 0. -1.
       -1    1    3    3    0  502  0.26880140483E+03  0.50047205277E+02  0.14153435738E+03  0.30788129586E+03  0.50400001928E-02 0.  1.
</event>
<event>
 5   0  0.6007360E-02  0.5992291E+03  0.7818609E-02  0.9907007E-01
        2   -1    0    0  501    0  0.00000000000E+00  0.00000000000E+00  0.46794637332E+03  0.46794637333E+03  0.25500000920E-02 0.  1.
       -2   -1    0    0    0  501  0.00000000000E+00  0.00000000000E+00 -0.19183582614E+03  0.19183582616E+03  0.25500000920E-02 0. -1.
    10030    2    1    2    0    0  0.00000000000E+00  0.00000000000E+00  0.27611054718E+03  0.65978219948E+03  0.59922910184E+03 0.  0.
        4    1    3    3  502    0  0.77849254361E+02 -0.28743025796E+03  0.17441677134E+03  0.34510792894E+03  0.12699999809E+01 0.  1.
       -4    1    3    3    0  502 -0.77849254361E+02  0.28743025796E+03  0.10169377584E+03  0.31467427054E+03  0.12699999809E+01 0. -1.
</event>
<event>
 5   0  0.2388000E-02  0.5981338E+03  0.7818609E-02  0.9909285E-01
       -4   -1    0    0    0  501  0.00000000000E+00  0.00000000000E+00  0.37763357524E+03  0.37763571077E+03  0.12699999809E+01 0.  1.
        4   -1    0    0  501    0  0.00000000000E+00  0.00000000000E+00 -0.23684150910E+03  0.23684491409E+03  0.12699999809E+01 0. -1.
    10030    2    1    2    0    0  0.00000000000E+00  0.00000000000E+00  0.14079206615E+03  0.61448062487E+03  0.59813379143E+03 0.  0.
        4    1    3    3  502    0  0.47942758456E+02  0.26139034024E+03 -0.70524164635E+02  0.27495215721E+03  0.12699999809E+01 0. -1.
       -4    1    3    3    0  502 -0.47942758456E+02 -0.26139034024E+03  0.21131623078E+03  0.33952846766E+03  0.12699999809E+01 0.  1.
</event>
<event>
 5   0  0.3767635E-02  0.5984248E+03  0.7818609E-02  0.9908680E-01
        1   -1    0    0  501    0  0.00000000000E+00  0.00000000000E+00  0.86596784675E+03  0.86596784677E+03  0.50400001928E-02 0.  1.
       -1   -1    0    0    0  501  0.00000000000E+00  0.00000000000E+00 -0.10338495361E+03  0.10338495373E+03  0.50400001928E-02 0. -1.
    10030    2    1    2    0    0  0.00000000000E+00  0.00000000000E+00  0.76258289314E+03  0.96935280049E+03  0.59842475125E+03 0.  0.
        2    1    3    3  502    0 -0.24584093279E+03  0.16770779228E+03  0.43159468495E+03  0.52424959696E+03  0.25500000920E-02 0.  1.
       -2    1    3    3    0  502  0.24584093279E+03 -0.16770779228E+03  0.33098820819E+03  0.44510320353E+03  0.25500000920E-02 0. -1.
</event>
<event>
 5   0  0.5935451E-02  0.5966180E+03  0.7818609E-02  0.9912448E-01
       -2   -1    0    0    0  501  0.00000000000E+00  0.00000000000E+00  0.31574766620E+03  0.31574766621E+03  0.25500000920E-02 0. -1.
        2   -1    0    0  501    0  0.00000000000E+00  0.00000000000E+00 -0.28183349684E+03  0.28183349685E+03  0.25500000920E-02 0.  1.
    10030    2    1    2    0    0  0.00000000000E+00  0.00000000000E+00  0.33914169362E+02  0.59758116306E+03  0.59661803155E+03 0.  0.
        3    1    3    3  502    0  0.11897558508E+03 -0.25706259662E+03  0.11065964468E+03  0.30410842735E+03  0.10100000352E+00 0.  1.
       -3    1    3    3    0  502 -0.11897558508E+03  0.25706259662E+03 -0.76745475321E+02  0.29347273571E+03  0.10100000352E+00 0. -1.
</event>
<event>
 5   0  0.3478183E-02  0.5893798E+03  0.7818609E-02  0.9927688E-01
       -1   -1    0    0    0  501  0.00000000000E+00  0.00000000000E+00  0.20014614767E+03  0.20014614773E+03  0.50400001928E-02 0. -1.
        1   -1    0    0  501    0  0.00000000000E+00  0.00000000000E+00 -0.43389357982E+03  0.43389357985E+03  0.50400001928E-02 0.  1.
    10030    2    1    2    0    0  0.00000000000E+00  0.00000000000E+00 -0.23374743215E+03  0.63403972758E+03  0.58937977070E+03 0.  0.
        4    1    3    3  502    0 -0.11778062357E+03 -0.23025338150E+03 -0.26882708549E+03  0.37303955524E+03  0.12699999809E+01 0.  1.
       -4    1    3    3    0  502  0.11778062357E+03  0.23025338150E+03  0.35079653336E+02  0.26100017234E+03  0.12699999809E+01 0. -1.
</event>
<event>
 5   0  0.5935451E-02  0.6008136E+03  0.7818609E-02  0.9903720E-01
        2   -1    0    0  501    0  0.00000000000E+00  0.00000000000E+00  0.25854812982E+03  0.25854812984E+03  0.25500000920E-02 0.  1.
       -2   -1    0    0    0  501  0.00000000000E+00  0.00000000000E+00 -0.34904233708E+03  0.34904233709E+03  0.25500000920E-02 0. -1.
    10030    2    1    2    0    0  0.00000000000E+00  0.00000000000E+00 -0.90494207252E+02  0.60759046692E+03  0.60081359335E+03 0.  0.
        3    1    3    3  502    0  0.17960090890E+03  0.18492704249E+03  0.11073185280E+03  0.28056380904E+03  0.10100000352E+00 0.  1.
       -3    1    3    3    0  502 -0.17960090890E+03 -0.18492704249E+03 -0.20122606005E+03  0.32702665788E+03  0.10100000352E+00 0. -1.
</event>
<event>
 5   0  0.3767635E-02  0.6071550E+03  0.7818609E-02  0.9890672E-01
       -1   -1    0    0    0  501  0.00000000000E+00  0.00000000000E+00  0.21798368608E+03  0.21798368614E+03  0.50400001928E-02 0.  1.
        1   -1    0    0  501    0  0.00000000000E+00  0.00000000000E+00 -0.42278071569E+03  0.42278071572E+03  0.50400001928E-02 0. -1.
    10030    2    1    2    0    0  0.00000000000E+00  0.00000000000E+00 -0.20479702961E+03  0.64076440186E+03  0.60715500110E+03 0.  0.
        2    1    3    3  502    0 -0.81493968335E+02 -0.19971346201E+02 -0.41030051363E+03  0.41879187317E+03  0.25500000920E-02 0. -1.
       -2    1    3    3    0  502  0.81493968335E+02  0.19971346201E+02  0.20550348402E+03  0.22197252869E+03  0.25500000920E-02 0.  1.
</event>
<event>
 5   0  0.5872632E-02  0.5911703E+03  0.7818609E-02  0.9923896E-01
        2   -1    0    0  501    0  0.00000000000E+00  0.00000000000E+00  0.82851581608E+03  0.82851581609E+03  0.25500000920E-02 0. -1.
       -2   -1    0    0    0  501  0.00000000000E+00  0.00000000000E+00 -0.10545432569E+03  0.10545432572E+03  0.25500000920E-02 0.  1.
    10030    2    1    2    0    0  0.00000000000E+00  0.00000000000E+00  0.72306149040E+03  0.93397014180E+03  0.59117028586E+03 0.  0.
        1    1    3    3  502    0  0.49528322977E+02 -0.16817980255E+03 -0.14441227136E+02  0.17591489371E+03  0.50400001928E-02 0.  1.
       -1    1    3    3    0  502 -0.49528322977E+02  0.16817980255E+03  0.73750271753E+03  0.75805524809E+03  0.50400001928E-02 0. -1.
</event>
<event>
 5   0  0.5755078E-02  0.5982970E+03  0.7818609E-02  0.9908946E-01
       -2   -1    0    0    0  501  0.00000000000E+00  0.00000000000E+00  0.16625793140E+03  0.16625793142E+03  0.25500000920E-02 0.  1.
        2   -1    0    0  501    0  0.00000000000E+00  0.00000000000E+00 -0.53825892514E+03  0.53825892515E+03  0.25500000920E-02 0. -1.
    10030    2    1    2    0    0  0.00000000000E+00  0.00000000000E+00 -0.37200099374E+03  0.70451685656E+03  0.59829696793E+03 0.  0.
        2    1    3    3  502    0  0.63152284422E+02  0.27863244336E+03 -0.81567059042E+02  0.29711518750E+03  0.25500000920E-02 0.  1.
       -2    1    3    3    0  502 -0.63152284422E+02 -0.27863244336E+03 -0.29043393470E+03  0.40740166906E+03  0.25500000920E-02 0. -1.
</event>
<event>
 5   0  0.3703280E-02  0.5956710E+03  0.7818609E-02  0.9914428E-01
       -1   -1    0    0    0  501  0.00000000000E+00  0.00000000000E+00  0.19038488520E+03  0.19038488526E+03  0.50400001928E-02 0.  1.
        1   -1    0    0  501    0  0.00000000000E+00  0.00000000000E+00 -0.46592977582E+03  0.46592977584E+03  0.50400001928E-02 0. -1.
    10030    2    1    2    0    0  0.00000000000E+00  0.00000000000E+00 -0.27554489062E+03  0.65631466111E+03  0.59567100621E+03 0.  0.
        5    1    3    3  502    0 -0.14369828073E+03  0.86999446907E+02 -0.40870459068E+03  0.44190455088E+03  0.46999998093E+01 0. -1.
       -5    1    3    3    0  502  0.14369828073E+03 -0.86999446907E+02  0.13315970006E+03  0.21441011022E+03  0.46999998093E+01 0.  1.
</event>
<event>
 5   0  0.3478183E-02  0.6156325E+03  0.7818609E-02  0.9873494E-01
        1   -1    0    0  501    0  0.00000000000E+00  0.00000000000E+00  0.13991796571E+04  0.13991796571E+04  0.50400001928E-02 0.  1.
       -1   -1    0    0    0  501  0.00000000000E+00  0.00000000000E+00 -0.67718846327E+02  0.67718846515E+02  0.50400001928E-02 0. -1.
    10030    2    1    2    0    0  0.00000000000E+00  0.00000000000E+00  0.13314608108E+04  0.14668985036E+04  0.61563246285E+03 0.  0.
        4    1    3    3  502    0  0.77736859228E+02 -0.36118349824E+02  0.13701613181E+04  0.13728405606E+04  0.12699999809E+01 0.  1.
       -4    1    3    3    0  502 -0.77736859228E+02  0.36118349824E+02 -0.38700507291E+02  0.94057942999E+02  0.12699999809E+01 0. -1.
</event>
<event>
 5   0  0.2388000E-02  0.6112146E+03  0.7818609E-02  0.9882409E-01
       -3   -1    0    0    0  501  0.00000000000E+00  0.00000000000E+00  0.21377086851E+03  0.21377089237E+03  0.10100000352E+00 0.  1.
        3   -1    0    0  501    0  0.00000000000E+00  0.00000000000E+00 -0.43689681075E+03  0.43689682242E+03  0.10100000352E+00 0. -1.
    10030    2    1    2    0    0  0.00000000000E+00  0.00000000000E+00 -0.22312594224E+03  0.65066771479E+03  0.61121460141E+03 0.  0.
        2    1    3    3  502    0 -0.16006817005E+02  0.66193871336E+02 -0.42871626870E+03  0.43409156390E+03  0.25500000920E-02 0. -1.
       -2    1    3    3    0  502  0.16006817005E+02 -0.66193871336E+02  0.20559032646E+03  0.21657615089E+03  0.25500000920E-02 0.  1.
</event>
<event>
 5   0  0.6007360E-02  0.5975842E+03  0.7818609E-02  0.9910431E-01
        2   -1    0    0  501    0  0.00000000000E+00  0.00000000000E+00  0.21299784192E+03  0.21299784194E+03  0.25500000920E-02 0.  1.
       -2   -1    0    0    0  501  0.00000000000E+00  0.00000000000E+00 -0.41914371363E+03  0.41914371364E+03  0.25500000920E-02 0. -1.
    10030    2    1    2    0    0  0.00000000000E+00  0.00000000000E+00 -0.20614587171E+03  0.63214155557E+03  0.59758415797E+03 0.  0.
        4    1    3    3  502    0  0.16158271780E+03 -0.75026453269E+02 -0.35681322989E+03  0.39881729815E+03  0.12699999809E+01 0. -1.
       -4    1    3    3    0  502 -0.16158271780E+03  0.75026453269E+02  0.15066735818E+03  0.23332425742E+03  0.12699999809E+01 0.  1.
</event>
<event>
 5   0  0.5999117E-02  0.5984561E+03  0.7818609E-02  0.9908614E-01
       -2   -1    0    0    0  501  0.00000000000E+00  0.00000000000E+00  0.47615589708E+02  0.47615589777E+02  0.25500000920E-02 0. -1.
        2   -1    0    0  501    0  0.00000000000E+00  0.00000000000E+00 -0.18804222189E+04  0.18804222189E+04  0.25500000920E-02 0.  1.
    10030    2    1    2    0    0  0.00000000000E+00  0.00000000000E+00 -0.18328066292E+04  0.19280378087E+04  0.59845605661E+03 0.  0.
        5    1    3    3  502    0  0.40190260605E+02 -0.23596680983E+03 -0.14946913827E+04  0.15137437075E+04  0.46999998093E+01 0.  1.
       -5    1    3    3    0  502 -0.40190260605E+02  0.23596680983E+03 -0.33811524649E+03  0.41429410121E+03  0.46999998093E+01 0. -1.
</event>
<event>
 5   0  0.3478183E-02  0.6000488E+03  0.7818609E-02  0.9905305E-01
       -1   -1    0    0    0  501  0.00000000000E+00  0.00000000000E+00  0.43633922375E+02  0.43633922666E+02  0.50400001928E-02 0. -1.
        1   -1    0    0  501    0  0.00000000000E+00  0.00000000000E+00 -0.20629507999E+04  0.20629507999E+04  0.50400001928E-02 0.  1.
    10030    2    1    2    0    0  0.00000000000E+00  0.00000000000E+00 -0.20193168775E+04  0.21065847225E+04  0.60004878261E+03 0.  0.
        4    1    3    3  502    0 -0.11207937897E+03 -0.95497653323E+02 -0.19273624651E+04  0.19329793774E+04  0.12699999809E+01 0.  1.
       -4    1    3    3    0  502  0.11207937897E+03  0.95497653323E+02 -0.91954412421E+02  0.17360534509E+03  0.12699999809E+01 0. -1.
</event>
<event>
 5   0  0.6007360E-02  0.6003792E+03  0.7818609E-02  0.9904620E-01
        2   -1    0    0  501    0  0.00000000000E+00  0.00000000000E+00  0.40748171369E+03  0.40748171369E+03  0.25500000920E-02 0. -1.
       -2   -1    0    0    0  501  0.00000000000E+00  0.00000000000E+00 -0.22114805713E+03  0.22114805715E+03  0.25500000920E-02 0.  1.
    10030    2    1    2    0    0  0.00000000000E+00  0.00000000000E+00  0.18633365655E+03  0.62862977084E+03  0.60037917787E+03 0.  0.
        4    1    3    3  502    0  0.25165156108E+02  0.25982792394E+03 -0.62024680747E+02  0.26831419840E+03  0.12699999809E+01 0.  1.
       -4    1    3    3    0  502 -0.25165156108E+02 -0.25982792394E+03  0.24835833730E+03  0.36031557245E+03  0.12699999809E+01 0. -1.
</event>
<event>
 5   0  0.2388000E-02  0.6087402E+03  0.7818609E-02  0.9887437E-01
        3   -1    0    0  501    0  0.00000000000E+00  0.00000000000E+00  0.57501459701E+03  0.57501460588E+03  0.10100000352E+00 0. -1.
       -3   -1    0    0    0  501  0.00000000000E+00  0.00000000000E+00 -0.16111094717E+03  0.16111097883E+03  0.10100000352E+00 0.  1.
    10030    2    1    2    0    0  0.00000000000E+00  0.00000000000E+00  0.41390364984E+03  0.73612558471E+03  0.60874021152E+03 0.  0.
        2    1    3    3  502    0 -0.81329288158E+02  0.27863545663E+03  0.96193909854E+02  0.30578659079E+03  0.25500000920E-02 0.  1.
       -2    1    3    3    0  502  0.81329288158E+02 -0.27863545663E+03  0.31770973998E+03  0.43033899392E+03  0.25500000920E-02 0. -1.
</event>
<event>
 5   0  0.3640827E-02  0.5845707E+03  0.7818609E-02  0.9937944E-01
       -1   -1    0    0    0  501  0.00000000000E+00  0.00000000000E+00  0.76544325850E+02  0.76544326016E+02  0.50400001928E-02 0. -1.
        1   -1    0    0  501    0  0.00000000000E+00  0.00000000000E+00 -0.11160949289E+04  0.11160949289E+04  0.50400001928E-02 0.  1.
    10030    2    1    2    0    0  0.00000000000E+00  0.00000000000E+00 -0.10395506031E+04  0.11926392550E+04  0.58457072806E+03 0.  0.
        3    1    3    3  502    0  0.19707767480E+02  0.17290295072E+03 -0.99888236853E+03  0.10139279180E+04  0.10100000352E+00 0.  1.
       -3    1    3    3    0  502 -0.19707767480E+02 -0.17290295072E+03 -0.40668234542E+02  0.17871133699E+03  0.10100000352E+00 0. -1.
</event>
<event>
 5   0  0.3767635E-02  0.5818315E+03  0.7818609E-02  0.9943834E-01
        1   -1    0    0  501    0  0.00000000000E+00  0.00000000000E+00  0.22234199543E+03  0.22234199549E+03  0.50400001928E-02 0.  1.
       -1   -1    0    0    0  501  0.00000000000E+00  0.00000000000E+00 -0.38063873915E+03  0.38063873918E+03  0.50400001928E-02 0. -1.
    10030    2    1    2    0    0  0.00000000000E+00  0.00000000000E+00 -0.15829674372E+03  0.60298073467E+03  0.58183151110E+03 0.  0.
        2    1    3    3  502    0  0.10605804217E+03 -0.76821405575E+02 -0.34836421989E+03  0.37216591243E+03  0.25500000920E-02 0. -1.
       -2    1    3    3    0  502 -0.10605804217E+03  0.76821405575E+02  0.19006747617E+03  0.23081482225E+03  0.25500000920E-02 0.  1.
</event>
<event>
 5   0  0.3767635E-02  0.5423152E+03  0.7818609E-02  0.1003288E+00
       -1   -1    0    0    0  501  0.00000000000E+00  0.00000000000E+00  0.24112044746E+03  0.24112044751E+03  0.50400001928E-02 0.  1.
        1   -1    0    0  501    0  0.00000000000E+00  0.00000000000E+00 -0.30493660736E+03  0.30493660740E+03  0.50400001928E-02 0. -1.
    10030    2    1    2    0    0  0.00000000000E+00  0.00000000000E+00 -0.63816159901E+02  0.54605705491E+03  0.54231522655E+03 0.  0.
        2    1    3    3  502    0  0.39990213354E+02  0.16037161060E+03  0.18453597349E+03  0.24773331663E+03  0.25500000920E-02 0.  1.
       -2    1    3    3    0  502 -0.39990213354E+02 -0.16037161060E+03 -0.24835213340E+03  0.29832373828E+03  0.25500000920E-02 0. -1.
</event>
<event>
 5   0  0.3651984E-02  0.5991536E+03  0.7818609E-02  0.9907164E-01
       -1   -1    0    0    0  501  0.00000000000E+00  0.00000000000E+00  0.23161895180E+03  0.23161895186E+03  0.50400001928E-02 0. -1.
        1   -1    0    0  501    0  0.00000000000E+00  0.00000000000E+00 -0.38747372031E+03  0.38747372034E+03  0.50400001928E-02 0.  1.
    10030    2    1    2    0    0  0.00000000000E+00  0.00000000000E+00 -0.15585476851E+03  0.61909267220E+03  0.59915359291E+03 0.  0.
        1    1    3    3  502    0  0.14911213512E+03 -0.41710312071E+02  0.18706798032E+03  0.24283452855E+03  0.50400001928E-02 0. -1.
       -1    1    3    3    0  502 -0.14911213512E+03  0.41710312071E+02 -0.34292274883E+03  0.37625814365E+03  0.50400001928E-02 0.  1.
</event>
<event>
 5   0  0.3703280E-02  0.6003104E+03  0.7818609E-02  0.9904762E-01
       -1   -1    0    0    0  501  0.00000000000E+00  0.00000000000E+00  0.36766275448E+03  0.36766275451E+03  0.50400001928E-02 0.  1.
        1   -1    0    0  501    0  0.00000000000E+00  0.00000000000E+00 -0.24504290406E+03  0.24504290411E+03  0.50400001928E-02 0. -1.
    10030    2    1    2    0    0  0.00000000000E+00  0.00000000000E+00  0.12261985042E+03  0.61270565862E+03  0.60031041669E+03 0.  0.
        5    1    3    3  502    0 -0.29084043768E+03  0.69539914255E+02  0.35346531709E+02  0.30115681491E+03  0.46999998093E+01 0. -1.
       -5    1    3    3    0  502  0.29084043768E+03 -0.69539914255E+02  0.87273318714E+02  0.31154884372E+03  0.46999998093E+01 0.  1.
</event>
<event>
 5   0  0.3767635E-02  0.6361739E+03  0.7818609E-02  0.9833074E-01
        1   -1    0    0  501    0  0.00000000000E+00  0.00000000000E+00  0.22876367847E+04  0.22876367848E+04  0.50400001928E-02 0. -1.
       -1   -1    0    0    0  501  0.00000000000E+00  0.00000000000E+00 -0.44228742664E+02  0.44228742951E+02  0.50400001928E-02 0.  1.
    10030    2    1    2    0    0  0.00000000000E+00  0.00000000000E+00  0.22434080421E+04  0.23318655277E+04  0.63617387247E+03 0.  0.
        2    1    3    3  502    0  0.25212688647E+03 -0.15988687830E+03  0.71937953035E+03  0.77887013643E+03  0.25500000920E-02 0.  1.
       -2    1    3    3    0  502 -0.25212688647E+03  0.15988687830E+03  0.15240285117E+04  0.15529953913E+04  0.25500000920E-02 0. -1.
</event>
<event>
 5   0  0.6007360E-02  0.6014669E+03  0.7818609E-02  0.9902367E-01
        2   -1    0    0  501    0  0.00000000000E+00  0.00000000000E+00  0.54707535150E+03  0.54707535151E+03  0.25500000920E-02 0. -1.
       -2   -1    0    0    0  501  0.00000000000E+00  0.00000000000E+00 -0.16531655985E+03  0.16531655986E+03  0.25500000920E-02 0.  1.
    10030    2    1    2    0    0  0.00000000000E+00  0.00000000000E+00  0.38175879166E+03  0.71239191138E+03  0.60146692377E+03 0.  0.
        4    1    3    3  502    0 -0.33003954370E+02 -0.10197657500E+03 -0.14192168342E+03  0.17785347896E+03  0.12699999809E+01 0.  1.
       -4    1    3    3    0  502  0.33003954370E+02  0.10197657500E+03  0.52368047508E+03  0.53453843242E+03  0.12699999809E+01 0. -1.
</event>
<event>
 5   0  0.6007360E-02  0.6013591E+03  0.7818609E-02  0.9902590E-01
        2   -1    0    0  501    0  0.00000000000E+00  0.00000000000E+00  0.12215884186E+04  0.12215884186E+04  0.25500000920E-02 0. -1.
       -2   -1    0    0    0  501  0.00000000000E+00  0.00000000000E+00 -0.74008714845E+02  0.74008714889E+02  0.25500000920E-02 0.  1.
    10030    2    1    2    0    0  0.00000000000E+00  0.00000000000E+00  0.11475797037E+04  0.12955971335E+04  0.60135909059E+03 0.  0.
        4    1    3    3  502    0 -0.12593399983E+03  0.69205296664E+02  0.47632354187E+01  0.14378124603E+03  0.12699999809E+01 0.  1.
       -4    1    3    3    0  502  0.12593399983E+03 -0.69205296664E+02  0.11428164683E+04  0.11518158874E+04  0.12699999809E+01 0. -1.
</event>
<event>
 5   0  0.5872632E-02  0.5997419E+03  0.7818609E-02  0.9905942E-01
       -2   -1    0    0    0  501  0.00000000000E+00  0.00000000000E+00  0.19278170406E+03  0.19278170408E+03  0.25500000920E-02 0.  1.
        2   -1    0    0  501    0  0.00000000000E+00  0.00000000000E+00 -0.46644768630E+03  0.46644768630E+03  0.25500000920E-02 0. -1.
    10030    2    1    2    0    0  0.00000000000E+00  0.00000000000E+00 -0.27366598223E+03  0.65922939038E+03  0.59974187724E+03 0.  0.
        1    1    3    3  502    0 -0.13081625208E+03  0.64542381904E+02  0.15115433769E+03  0.21006247808E+03  0.50400001928E-02 0.  1.
       -1    1    3    3    0  502  0.13081625208E+03 -0.64542381904E+02 -0.42482031992E+03  0.44916691230E+03  0.50400001928E-02 0. -1.
</event>
<event>
 5   0  0.3478183E-02  0.5999963E+03  0.7818609E-02  0.9905414E-01
        1   -1    0    0  501    0  0.00000000000E+00  0.00000000000E+00  0.88888898352E+03  0.88888898353E+03  0.50400001928E-02 0.  1.
       -1   -1    0    0    0  501  0.00000000000E+00  0.00000000000E+00 -0.10124874842E+03  0.10124874855E+03  0.50400001928E-02 0. -1.
    10030    2    1    2    0    0  0.00000000000E+00  0.00000000000E+00  0.78764023510E+03  0.99013773208E+03  0.59999632377E+03 0.  0.
        4    1    3    3  502    0 -0.26980799957E+03 -0.85099229041E+02  0.55850584107E+03  0.62607397552E+03  0.12699999809E+01 0.  1.
       -4    1    3    3    0  502  0.26980799957E+03  0.85099229041E+02  0.22913439402E+03  0.36406375655E+03  0.12699999809E+01 0. -1.
</event>
<event>
 5   0  0.3478183E-02  0.5666717E+03  0.7818609E-02  0.9977071E-01
       -1   -1    0    0    0  501  0.00000000000E+00  0.00000000000E+00  0.65982995369E+03  0.65982995371E+03  0.50400001928E-02 0.  1.
        1   -1    0    0  501    0  0.00000000000E+00  0.00000000000E+00 -0.12166652432E+03  0.12166652442E+03  0.50400001928E-02 0. -1.
    10030    2    1    2    0    0  0.00000000000E+00  0.00000000000E+00  0.53816342937E+03  0.78149647813E+03  0.56667174680E+03 0.  0.
        4    1    3    3  502    0  0.12649066912E+03  0.12760190636E+03 -0.33049489902E+02  0.18269104402E+03  0.12699999809E+01 0. -1.
       -4    1    3    3    0  502 -0.12649066912E+03 -0.12760190636E+03  0.57121291927E+03  0.59880543411E+03  0.12699999809E+01 0.  1.
</event>
<event>
 5   0  0.5999117E-02  0.5995947E+03  0.7818609E-02  0.9906247E-01
       -2   -1    0    0    0  501  0.00000000000E+00  0.00000000000E+00  0.13550741464E+03  0.13550741466E+03  0.25500000920E-02 0. -1.
        2   -1    0    0  501    0  0.00000000000E+00  0.00000000000E+00 -0.66327335525E+03  0.66327335525E+03  0.25500000920E-02 0.  1.
    10030    2    1    2    0    0  0.00000000000E+00  0.00000000000E+00 -0.52776594061E+03  0.79878076992E+03  0.59959472172E+03 0.  0.
        5    1    3    3  502    0 -0.98860383803E+02 -0.11154233095E+03  0.82595117911E+02  0.17046732995E+03  0.46999998093E+01 0. -1.
       -5    1    3    3    0  502  0.98860383803E+02  0.11154233095E+03 -0.61036105852E+03  0.62831343997E+03  0.46999998093E+01 0.  1.
</event>
<event>
 5   0  0.3703280E-02  0.6023986E+03  0.7818609E-02  0.9900442E-01
       -1   -1    0    0    0  501  0.00000000000E+00  0.00000000000E+00  0.20637851876E+03  0.20637851882E+03  0.50400001928E-02 0.  1.
        1   -1    0    0  501    0  0.00000000000E+00  0.00000000000E+00 -0.43958556080E+03  0.43958556083E+03  0.50400001928E-02 0. -1.
    10030    2    1    2    0    0  0.00000000000E+00  0.00000000000E+00 -0.23320704204E+03  0.64596407965E+03  0.60239859540E+03 0.  0.
        5    1    3    3  502    0 -0.28675977669E+03  0.87986227130E+02 -0.14550013341E+03  0.33341434359E+03  0.46999998093E+01 0. -1.
       -5    1    3    3    0  502  0.28675977669E+03 -0.87986227130E+02 -0.87706908629E+02  0.31254973606E+03  0.46999998093E+01 0.  1.
</event>
<event>
 5   0  0.3703280E-02  0.5873465E+03  0.7818609E-02  0.9932011E-01
        1   -1    0    0  501    0  0.00000000000E+00  0.00000000000E+00  0.96142678442E+03  0.96142678443E+03  0.50400001928E-02 0.  1.
       -1   -1    0    0    0  501  0.00000000000E+00  0.00000000000E+00 -0.89704162627E+02  0.89704162768E+02  0.50400001928E-02 0. -1.
    10030    2    1    2    0    0  0.00000000000E+00  0.00000000000E+00  0.87172262179E+03  0.10511309472E+04  0.58734652363E+03 0.  0.
        5    1    3    3  502    0  0.14439111623E+02  0.99023044577E+02  0.92990147348E+03  0.93528225241E+03  0.46999998093E+01 0.  1.
       -5    1    3    3    0  502 -0.14439111623E+02 -0.99023044577E+02 -0.58178851688E+02  0.11584869479E+03  0.46999998093E+01 0. -1.
</event>
<event>
 5   0  0.5755078E-02  0.5940217E+03  0.7818609E-02  0.9917887E-01
        2   -1    0    0  501    0  0.00000000000E+00  0.00000000000E+00  0.30983067362E+03  0.30983067363E+03  0.25500000920E-02 0.  1.
       -2   -1    0    0    0  501  0.00000000000E+00  0.00000000000E+00 -0.28472148326E+03  0.28472148328E+03  0.25500000920E-02 0. -1.
    10030    2    1    2    0    0  0.00000000000E+00  0.00000000000E+00  0.25109190351E+02  0.59455215690E+03  0.59402171327E+03 0.  0.
        2    1    3    3  502    0 -0.21431943199E+03  0.27745139458E+02 -0.19137433805E+03  0.28866372991E+03  0.25500000920E-02 0. -1.
       -2    1    3    3    0  502  0.21431943199E+03 -0.27745139458E+02  0.21648352840E+03  0.30588842699E+03  0.25500000920E-02 0.  1.
</event>
<event>
 5   0  0.3640827E-02  0.5917181E+03  0.7818609E-02  0.9922739E-01
        1   -1    0    0  501    0  0.00000000000E+00  0.00000000000E+00  0.10528871065E+03  0.10528871077E+03  0.50400001928E-02 0.  1.
       -1   -1    0    0    0  501  0.00000000000E+00  0.00000000000E+00 -0.83135763111E+03  0.83135763113E+03  0.50400001928E-02 0. -1.
    10030    2    1    2    0    0  0.00000000000E+00  0.00000000000E+00 -0.72606892046E+03  0.93664634190E+03  0.59171808536E+03 0.  0.
        3    1    3    3  502    0 -0.17850535556E+03  0.15219327820E+03 -0.77643680223E+02  0.24709412614E+03  0.10100000352E+00 0.  1.
       -3    1    3    3    0  502  0.17850535556E+03 -0.15219327820E+03 -0.64842524023E+03  0.68955221576E+03  0.10100000352E+00 0. -1.
</event>
<event>
 5   0  0.5935451E-02  0.6274776E+03  0.7818609E-02  0.9849983E-01
        2   -1    0    0  501    0  0.00000000000E+00  0.00000000000E+00  0.13831180620E+04  0.13831180620E+04  0.25500000920E-02 0. -1.
       -2   -1    0    0    0  501  0.00000000000E+00  0.00000000000E+00 -0.71166759932E+02  0.71166759978E+02  0.25500000920E-02 0.  1.
    10030    2    1    2    0    0  0.00000000000E+00  0.00000000000E+00  0.13119513021E+04  0.14542848220E+04  0.62747758881E+03 0.  0.
        3    1    3    3  502    0 -0.12639391317E+03  0.21902394353E+03  0.22558079556E+03  0.33887108854E+03  0.10100000352E+00 0.  1.
       -3    1    3    3    0  502  0.12639391317E+03 -0.21902394353E+03  0.10863705065E+04  0.11154137335E+04  0.10100000352E+00 0. -1.
</event>
<event>
 5   0  0.2388000E-02  0.6054705E+03  0.7818609E-02  0.9894121E-01
       -3   -1    0    0    0  501  0.00000000000E+00  0.00000000000E+00  0.41576471473E+03  0.41576472700E+03  0.10100000352E+00 0. -1.
        3   -1    0    0  501    0  0.00000000000E+00  0.00000000000E+00 -0.22043388109E+03  0.22043390423E+03  0.10100000352E+00 0.  1.
    10030    2    1    2    0    0  0.00000000000E+00  0.00000000000E+00  0.19533083364E+03  0.63619863122E+03  0.60547053091E+03 0.  0.
        2    1    3    3  502    0  0.18210766097E+03 -0.24004106538E+03  0.12858192053E+03  0.32759154987E+03  0.25500000920E-02 0. -1.
       -2    1    3    3    0  502 -0.18210766097E+03  0.24004106538E+03  0.66748913106E+02  0.30860708135E+03  0.25500000920E-02 0.  1.
</event>
<event>
 5   0  0.6007360E-02  0.5907700E+03  0.7818609E-02  0.9924743E-01
       -2   -1    0    0    0  501  0.00000000000E+00  0.00000000000E+00  0.13673727041E+03  0.13673727044E+03  0.25500000920E-02 0.  1.
        2   -1    0    0  501    0  0.00000000000E+00  0.00000000000E+00 -0.63810183385E+03  0.63810183386E+03  0.25500000920E-02 0. -1.
    10030    2    1    2    0    0  0.00000000000E+00  0.00000000000E+00 -0.50136456344E+03  0.77483910429E+03  0.59077001622E+03 0.  0.
        4    1    3    3  502    0  0.21922924967E+03  0.80337008340E+02 -0.48798380546E+03  0.54096701018E+03  0.12699999809E+01 0. -1.
       -4    1    3    3    0  502 -0.21922924967E+03 -0.80337008340E+02 -0.13380757985E+02  0.23387209411E+03  0.12699999809E+01 0.  1.
</event>
<event>
 5   0  0.6007360E-02  0.6032546E+03  0.7818609E-02  0.9898677E-01
       -2   -1    0    0    0  501  0.00000000000E+00  0.00000000000E+00  0.21493859218E+03  0.21493859220E+03  0.25500000920E-02 0. -1.
        2   -1    0    0  501    0  0.00000000000E+00  0.00000000000E+00 -0.42327914519E+03  0.42327914519E+03  0.25500000920E-02 0.  1.
    10030    2    1    2    0    0  0.00000000000E+00  0.00000000000E+00 -0.20834055301E+03  0.63821773739E+03  0.60325458497E+03 0.  0.
        4    1    3    3  502    0  0.19500027580E+03  0.65079936275E+02 -0.33768167423E+03  0.39533660554E+03  0.12699999809E+01 0.  1.
       -4    1    3    3    0  502 -0.19500027580E+03 -0.65079936275E+02  0.12934112122E+03  0.24288113185E+03  0.12699999809E+01 0. -1.
</event>
<event>
 5   0  0.3767635E-02  0.5748048E+03  0.7818609E-02  0.9959102E-01
       -1   -1    0    0    0  501  0.00000000000E+00  0.00000000000E+00  0.14945903000E+03  0.14945903009E+03  0.50400001928E-02 0. -1.
        1   -1    0    0  501    0  0.00000000000E+00  0.00000000000E+00 -0.55266077563E+03  0.55266077565E+03  0.50400001928E-02 0.  1.
    10030    2    1    2    0    0  0.00000000000E+00  0.00000000000E+00 -0.40320174563E+03  0.70211980574E+03  0.57480481377E+03 0.  0.
        2    1    3    3  502    0 -0.25039788534E+03 -0.11303654779E+03 -0.30469789424E+03  0.41026475462E+03  0.25500000920E-02 0.  1.
       -2    1    3    3    0  502  0.25039788534E+03  0.11303654779E+03 -0.98503851386E+02  0.29185505112E+03  0.25500000920E-02 0. -1.
</event>
<event>
 5   0  0.5872632E-02  0.6010301E+03  0.7818609E-02  0.9903271E-01
       -2   -1    0    0    0  501  0.00000000000E+00  0.00000000000E+00  0.35938183932E+03  0.35938183933E+03  0.25500000920E-02 0.  1.
        2   -1    0    0  501    0  0.00000000000E+00  0.00000000000E+00 -0.25129067169E+03  0.25129067170E+03  0.25500000920E-02 0. -1.
    10030    2    1    2    0    0  0.00000000000E+00  0.00000000000E+00  0.10809116763E+03  0.61067251103E+03  0.60103012837E+03 0.  0.
        1    1    3    3  502    0  0.10278487772E+03  0.27345112802E+03 -0.17576830194E+02  0.29265883805E+03  0.50400001928E-02 0.  1.
       -1    1    3    3    0  502 -0.10278487772E+03 -0.27345112802E+03  0.12566799782E+03  0.31801367298E+03  0.50400001928E-02 0. -1.
</event>
<event>
 5   0  0.3651984E-02  0.5995083E+03  0.7818609E-02  0.9906427E-01
        1   -1    0    0  501    0  0.00000000000E+00  0.00000000000E+00  0.15520725336E+04  0.15520725336E+04  0.50400001928E-02 0.  1.
       -1   -1    0    0    0  501  0.00000000000E+00  0.00000000000E+00 -0.57891981793E+02  0.57891982013E+02  0.50400001928E-02 0. -1.
    10030    2    1    2    0    0  0.00000000000E+00  0.00000000000E+00  0.14941805518E+04  0.16099645156E+04  0.59950831533E+03 0.  0.
        1    1    3    3  502    0 -0.26219576723E+02 -0.16358622601E+03  0.76233951859E+02  0.18237196875E+03  0.50400001928E-02 0. -1.
       -1    1    3    3    0  502  0.26219576723E+02  0.16358622601E+03  0.14179465999E+04  0.14275925468E+04  0.50400001928E-02 0.  1.
</event>
<event>
 5   0  0.3703280E-02  0.6015262E+03  0.7818609E-02  0.9902245E-01
       -1   -1    0    0    0  501  0.00000000000E+00  0.00000000000E+00  0.36923913872E+03  0.36923913875E+03  0.50400001928E-02 0.  1.
        1   -1    0    0  501    0  0.00000000000E+00  0.00000000000E+00 -0.24498605363E+03  0.24498605368E+03  0.50400001928E-02 0. -1.
    10030    2    1    2    0    0  0.00000000000E+00  0.00000000000E+00  0.12425308509E+03  0.61422519243E+03  0.60152619050E+03 0.  0.
        5    1    3    3  502    0 -0.10759783645E+03  0.59135668763E+02 -0.21819041536E+03  0.25040660751E+03  0.46999998093E+01 0. -1.
       -5    1    3    3    0  502  0.10759783645E+03 -0.59135668763E+02  0.34244350046E+03  0.36381858492E+03  0.46999998093E+01 0.  1.
</event>
<event>
 5   0  0.5872632E-02  0.5992254E+03  0.7818609E-02  0.9907014E-01
        2   -1    0    0  501    0  0.00000000000E+00  0.00000000000E+00  0.54834481449E+03  0.54834481449E+03  0.25500000920E-02 0. -1.
       -2   -1    0    0    0  501  0.00000000000E+00  0.00000000000E+00 -0.16370677232E+03  0.16370677234E+03  0.25500000920E-02 0.  1.
    10030    2    1    2    0    0  0.00000000000E+00  0.00000000000E+00  0.38463804217E+03  0.71205158683E+03  0.59922536564E+03 0.  0.
        1    1    3    3  502    0  0.14232680537E+03 -0.19063190056E+03  0.40873837255E+03  0.47293181143E+03  0.50400001928E-02 0. -1.
       -1    1    3    3    0  502 -0.14232680537E+03  0.19063190056E+03 -0.24100330384E+02  0.23911977540E+03  0.50400001928E-02 0.  1.
</event>
<event>
 5   0  0.3703280E-02  0.6003501E+03  0.7818609E-02  0.9904680E-01
       -1   -1    0    0    0  501  0.00000000000E+00  0.00000000000E+00  0.10312367900E+03  0.10312367913E+03  0.50400001928E-02 0. -1.
        1   -1    0    0  501    0  0.00000000000E+00  0.00000000000E+00 -0.87375712599E+03  0.87375712601E+03  0.50400001928E-02 0.  1.
    10030    2    1    2    0    0  0.00000000000E+00  0.00000000000E+00 -0.77063344699E+03  0.97688080513E+03  0.60035006273E+03 0.  0.
        5    1    3    3  502    0  0.23557636045E+02 -0.11577366445E+03  0.63634455577E+02  0.13427560289E+03  0.46999998093E+01 0. -1.
       -5    1    3    3    0  502 -0.23557636045E+02  0.11577366445E+03 -0.83426790257E+03  0.84260520224E+03  0.46999998093E+01 0.  1.
</event>
<event>
 5   0  0.3640827E-02  0.6031204E+03  0.7818609E-02  0.9898953E-01
        1   -1    0    0  501    0  0.00000000000E+00  0.00000000000E+00  0.55392179393E+03  0.55392179396E+03  0.50400001928E-02 0. -1.
       -1   -1    0    0    0  501  0.00000000000E+00  0.00000000000E+00 -0.16417218917E+03  0.16417218925E+03  0.50400001928E-02 0.  1.
    10030    2    1    2    0    0  0.00000000000E+00  0.00000000000E+00  0.38974960476E+03  0.71809398320E+03  0.60312039785E+03 0.  0.
        3    1    3    3  502    0 -0.15789150383E+02 -0.24778051891E+03  0.39865738341E+03  0.46965114965E+03  0.10100000352E+00 0. -1.
       -3    1    3    3    0  502  0.15789150383E+02  0.24778051891E+03 -0.89077786441E+01  0.24844283355E+03  0.10100000352E+00 0.  1.
</event>
<event>
 5   0  0.3478183E-02  0.5959397E+03  0.7818609E-02  0.9913866E-01
       -1   -1    0    0    0  501  0.00000000000E+00  0.00000000000E+00  0.18492858657E+03  0.18492858664E+03  0.50400001928E-02 0.  1.
        1   -1    0    0  501    0  0.00000000000E+00  0.00000000000E+00 -0.48010981420E+03  0.48010981423E+03  0.50400001928E-02 0. -1.
    10030    2    1    2    0    0  0.00000000000E+00  0.00000000000E+00 -0.29518122764E+03  0.66503840087E+03  0.59593969282E+03 0.  0.
        4    1    3    3  502    0 -0.17052511995E+03 -0.18350951829E+03 -0.32763529599E+03  0.41243309750E+03  0.12699999809E+01 0. -1.
       -4    1    3    3    0  502  0.17052511995E+03  0.18350951829E+03  0.32454068353E+02  0.25260530337E+03  0.12699999809E+01 0.  1.
</event>
<event>
 5   0  0.5999117E-02  0.6012048E+03  0.7818609E-02  0.9902910E-01
       -2   -1    0    0    0  501  0.00000000000E+00  0.00000000000E+00  0.86834203629E+02  0.86834203667E+02  0.25500000920E-02 0.  1.
        2   -1    0    0  501    0  0.00000000000E+00  0.00000000000E+00 -0.10406244600E+04  0.10406244600E+04  0.25500000920E-02 0. -1.
    10030    2    1    2    0    0  0.00000000000E+00  0.00000000000E+00 -0.95379025633E+03  0.11274586636E+04  0.60120477803E+03 0.  0.
        5    1    3    3  502    0  0.26406761511E+03 -0.66122310344E+01 -0.20796779083E+03  0.33622629131E+03  0.46999998093E+01 0.  1.
       -5    1    3    3    0  502 -0.26406761511E+03  0.66122310344E+01 -0.74582246550E+03  0.79123237231E+03  0.46999998093E+01 0. -1.
</event>
<event>
 5   0  0.5872632E-02  0.5851210E+03  0.7818609E-02  0.9936765E-01
       -2   -1    0    0    0  501  0.00000000000E+00  0.00000000000E+00  0.28092133478E+03  0.28092133479E+03  0.25500000920E-02 0. -1.
        2   -1    0    0  501    0  0.00000000000E+00  0.00000000000E+00 -0.30468185224E+03  0.30468185226E+03  0.25500000920E-02 0.  1.
    10030    2    1    2    0    0  0.00000000000E+00  0.00000000000E+00 -0.23760517467E+02  0.58560318704E+03  0.58512095372E+03 0.  0.
        1    1    3    3  502    0 -0.27577709858E+02 -0.27238934004E+03  0.91331597682E+02  0.28861383094E+03  0.50400001928E-02 0. -1.
       -1    1    3    3    0  502  0.27577709858E+02  0.27238934004E+03 -0.11509211515E+03  0.29698935611E+03  0.50400001928E-02 0.  1.
</event>
<event>
 5   0  0.3767635E-02  0.6083022E+03  0.7818609E-02  0.9888330E-01
       -1   -1    0    0    0  501  0.00000000000E+00  0.00000000000E+00  0.80582919496E+02  0.80582919654E+02  0.50400001928E-02 0.  1.
        1   -1    0    0  501    0  0.00000000000E+00  0.00000000000E+00 -0.11479838400E+04  0.11479838400E+04  0.50400001928E-02 0. -1.
    10030    2    1    2    0    0  0.00000000000E+00  0.00000000000E+00 -0.10674009205E+04  0.12285667596E+04  0.60830219287E+03 0.  0.
        2    1    3    3  502    0  0.11687985283E+03  0.18405332271E+03 -0.10540111734E+03  0.24216919941E+03  0.25500000920E-02 0.  1.
       -2    1    3    3    0  502 -0.11687985283E+03 -0.18405332271E+03 -0.96199980314E+03  0.98639756024E+03  0.25500000920E-02 0. -1.
</event>
<event>
 5   0  0.3703280E-02  0.5938861E+03  0.7818609E-02  0.9918172E-01
        1   -1    0    0  501    0  0.00000000000E+00  0.00000000000E+00  0.61629727700E+03  0.61629727702E+03  0.50400001928E-02 0.  1.
       -1   -1    0    0    0  501  0.00000000000E+00  0.00000000000E+00 -0.14307245866E+03  0.14307245874E+03  0.50400001928E-02 0. -1.
    10030    2    1    2    0    0  0.00000000000E+00  0.00000000000E+00  0.47322481835E+03  0.75936973577E+03  0.59388607233E+03 0.  0.
        5    1    3    3  502    0  0.29299150140E+02 -0.14148086519E+02  0.61396334377E+03  0.61484281410E+03  0.46999998093E+01 0.  1.
       -5    1    3    3    0  502 -0.29299150140E+02  0.14148086519E+02 -0.14073852543E+03  0.14452692167E+03  0.46999998093E+01 0. -1.
</event>
<event>
 5   0  0.5935451E-02  0.6013264E+03  0.7818609E-02  0.9902658E-01
        2   -1    0    0  501    0  0.00000000000E+00  0.00000000000E+00  0.12660587208E+04  0.12660587208E+04  0.25500000920E-02 0. -1.
       -2   -1    0    0    0  501  0.00000000000E+00  0.00000000000E+00 -0.71401389606E+02  0.71401389651E+02  0.25500000920E-02 0.  1.
    10030    2    1    2    0    0  0.00000000000E+00  0.00000000000E+00  0.11946573312E+04  0.13374601104E+04  0.60132637400E+03 0.  0.
        3    1    3    3  502    0  0.20302225808E+03  0.12331979932E+03  0.18737521929E+03  0.30254800146E+03  0.10100000352E+00 0.  1.
       -3    1    3    3    0  502 -0.20302225808E+03 -0.12331979932E+03  0.10072821119E+04  0.10349121090E+04  0.10100000352E+00 0. -1.
</event>
<event>
 5   0  0.5872632E-02  0.5412062E+03  0.7818609E-02  0.1003550E+00
       -2   -1    0    0    0  501  0.00000000000E+00  0.00000000000E+00  0.69416284220E+02  0.69416284267E+02  0.25500000920E-02 0. -1.
        2   -1    0    0  501    0  0.00000000000E+00  0.00000000000E+00 -0.10548827325E+04  0.10548827325E+04  0.25500000920E-02 0.  1.
    10030    2    1    2    0    0  0.00000000000E+00  0.00000000000E+00 -0.98546644825E+03  0.11242990167E+04  0.54120620692E+03 0.  0.
        1    1    3    3  502    0 -0.18949587326E+03  0.18223067064E+03 -0.62590276513E+03  0.67887478575E+03  0.50400001928E-02 0.  1.
       -1    1    3    3    0  502  0.18949587326E+03 -0.18223067064E+03 -0.35956368312E+03  0.44542423099E+03  0.50400001928E-02 0. -1.
</event>
<event>
 5   0  0.2388000E-02  0.5999467E+03  0.7818609E-02  0.9905517E-01
       -3   -1    0    0    0  501  0.00000000000E+00  0.00000000000E+00  0.21284219227E+03  0.21284221624E+03  0.10100000352E+00 0. -1.
        3   -1    0    0  501    0  0.00000000000E+00  0.00000000000E+00 -0.42277329662E+03  0.42277330868E+03  0.10100000352E+00 0.  1.
    10030    2    1    2    0    0  0.00000000000E+00  0.00000000000E+00 -0.20993110435E+03  0.63561552492E+03  0.59994668675E+03 0.  0.
        4    1    3    3  502    0  0.59955120255E+02 -0.28148959559E+03 -0.19455913734E+03  0.34739873300E+03  0.12699999809E+01 0. -1.
       -4    1    3    3    0  502 -0.59955120255E+02  0.28148959559E+03 -0.15371967010E+02  0.28821679191E+03  0.12699999809E+01 0.  1.
</event>
<event>
 5   0  0.3703280E-02  0.6268315E+03  0.7818609E-02  0.9851252E-01
        1   -1    0    0  501    0  0.00000000000E+00  0.00000000000E+00  0.44586904273E+03  0.44586904276E+03  0.50400001928E-02 0.  1.
       -1   -1    0    0    0  501  0.00000000000E+00  0.00000000000E+00 -0.22031001781E+03  0.22031001787E+03  0.50400001928E-02 0. -1.
    10030    2    1    2    0    0  0.00000000000E+00  0.00000000000E+00  0.22555902492E+03  0.66617906063E+03  0.62683145031E+03 0.  0.
        5    1    3    3  502    0  0.93689746547E+02 -0.10579818276E+03 -0.18448588467E+03  0.23243957435E+03  0.46999998093E+01 0. -1.
       -5    1    3    3    0  502 -0.93689746547E+02  0.10579818276E+03  0.41004490958E+03  0.43373948628E+03  0.46999998093E+01 0.  1.
</event>
<event>
 5   0  0.3767635E-02  0.6018908E+03  0.7818609E-02  0.9901491E-01
       -1   -1    0    0    0  501  0.00000000000E+00  0.00000000000E+00  0.10511045356E+04  0.10511045356E+04  0.50400001928E-02 0.  1.
        1   -1    0    0  501    0  0.00000000000E+00  0.00000000000E+00 -0.86164722947E+02  0.86164723095E+02  0.50400001928E-02 0. -1.
    10030    2    1    2    0    0  0.00000000000E+00  0.00000000000E+00  0.96493981266E+03  0.11372692587E+04  0.60189079139E+03 0.  0.
        2    1    3    3  502    0 -0.24754766779E+03 -0.47011520221E+02  0.79339480356E+03  0.83244534066E+03  0.25500000920E-02 0.  1.
       -2    1    3    3    0  502  0.24754766779E+03  0.47011520221E+02  0.17154500910E+03  0.30482391805E+03  0.25500000920E-02 0. -1.
</event>
<event>
 5   0  0.3703280E-02  0.5981721E+03  0.7818609E-02  0.9909206E-01
        1   -1    0    0  501    0  0.00000000000E+00  0.00000000000E+00  0.61126170267E+03  0.61126170269E+03  0.50400001928E-02 0.  1.
       -1   -1    0    0    0  501  0.00000000000E+00  0.00000000000E+00 -0.14634070874E+03  0.14634070882E+03  0.50400001928E-02 0. -1.
    10030    2    1    2    0    0  0.00000000000E+00  0.00000000000E+00  0.46492099393E+03  0.75760241151E+03  0.59817211848E+03 0.  0.
        5    1    3    3  502    0 -0.64986852072E+02 -0.22203112858E+03  0.47246448450E+03  0.52608544183E+03  0.46999998093E+01 0.  1.
       -5    1    3    3    0  502  0.64986852072E+02  0.22203112858E+03 -0.75434905636E+01  0.23151696968E+03  0.46999998093E+01 0. -1.
</event>
<event>
 5   0  0.3767635E-02  0.6670740E+03  0.7818609E-02  0.9775258E-01
       -1   -1    0    0    0  501  0.00000000000E+00  0.00000000000E+00  0.14609200675E+03  0.14609200684E+03  0.50400001928E-02 0. -1.
        1   -1    0    0  501    0  0.00000000000E+00  0.00000000000E+00 -0.76148541181E+03  0.76148541182E+03  0.50400001928E-02 0.  1.
    10030    2    1    2    0    0  0.00000000000E+00  0.00000000000E+00 -0.61539340506E+03  0.90757741866E+03  0.66707400480E+03 0.  0.
        2    1    3    3  502    0 -0.23464476321E+03  0.52967617849E+02  0.66522087284E+01  0.24064078069E+03  0.25500000920E-02 0. -1.
       -2    1    3    3    0  502  0.23464476321E+03 -0.52967617849E+02 -0.62204561379E+03  0.66693663798E+03  0.25500000920E-02 0.  1.
</event>
<event>
 5   0  0.3703280E-02  0.6008574E+03  0.7818609E-02  0.9903629E-01
        1   -1    0    0  501    0  0.00000000000E+00  0.00000000000E+00  0.96738257848E+03  0.96738257849E+03  0.50400001928E-02 0.  1.
       -1   -1    0    0    0  501  0.00000000000E+00  0.00000000000E+00 -0.93300619131E+02  0.93300619267E+02  0.50400001928E-02 0. -1.
    10030    2    1    2    0    0  0.00000000000E+00  0.00000000000E+00  0.87408195935E+03  0.10606831978E+04  0.60085736606E+03 0.  0.
        5    1    3    3  502    0  0.28133888947E+03  0.38516274755E+02  0.26407722438E+03  0.38780658141E+03  0.46999998093E+01 0. -1.
       -5    1    3    3    0  502 -0.28133888947E+03 -0.38516274755E+02  0.61000473497E+03  0.67287661635E+03  0.46999998093E+01 0.  1.
</event>
<event>
 5   0  0.2388000E-02  0.6163196E+03  0.7818609E-02  0.9872115E-01
        4   -1    0    0  501    0  0.00000000000E+00  0.00000000000E+00  0.14094054539E+03  0.14094626719E+03  0.12699999809E+01 0. -1.
       -4   -1    0    0    0  501  0.00000000000E+00  0.00000000000E+00 -0.67375677486E+03  0.67375797181E+03  0.12699999809E+01 0.  1.
    10030    2    1    2    0    0  0.00000000000E+00  0.00000000000E+00 -0.53281622947E+03  0.81470423900E+03  0.61631961080E+03 0.  0.
        4    1    3    3  502    0 -0.19274918099E+03 -0.10361999958E+02 -0.58393941607E+03  0.61501745695E+03  0.12699999809E+01 0.  1.
       -4    1    3    3    0  502  0.19274918099E+03  0.10361999958E+02  0.51123186602E+02  0.19968678205E+03  0.12699999809E+01 0. -1.
</event>
<event>
 5   0  0.5935451E-02  0.5987211E+03  0.7818609E-02  0.9908063E-01
        2   -1    0    0  501    0  0.00000000000E+00  0.00000000000E+00  0.11760515360E+04  0.11760515360E+04  0.25500000920E-02 0.  1.
       -2   -1    0    0    0  501  0.00000000000E+00  0.00000000000E+00 -0.76201369199E+02  0.76201369242E+02  0.25500000920E-02 0. -1.
    10030    2    1    2    0    0  0.00000000000E+00  0.00000000000E+00  0.10998501668E+04  0.12522529052E+04  0.59872109474E+03 0.  0.
        3    1    3    3  502    0  0.53864601952E+02 -0.15838554103E+03  0.10691568913E+04  0.10821662735E+04  0.10100000352E+00 0.  1.
       -3    1    3    3    0  502 -0.53864601952E+02  0.15838554103E+03  0.30693275471E+02  0.17008663178E+03  0.10100000352E+00 0. -1.
</event>
<event>
 5   0  0.5755078E-02  0.6025347E+03  0.7818609E-02  0.9900161E-01
       -2   -1    0    0    0  501  0.00000000000E+00  0.00000000000E+00  0.73609952387E+03  0.73609952387E+03  0.25500000920E-02 0.  1.
        2   -1    0    0  501    0  0.00000000000E+00  0.00000000000E+00 -0.12330127030E+03  0.12330127033E+03  0.25500000920E-02 0. -1.
    10030    2    1    2    0    0  0.00000000000E+00  0.00000000000E+00  0.61279825357E+03  0.85940079420E+03  0.60253466746E+03 0.  0.
        2    1    3    3  502    0 -0.86183810664E+02  0.17326925747E+03  0.63572563844E+03  0.66452763086E+03  0.25500000920E-02 0.  1.
       -2    1    3    3    0  502  0.86183810664E+02 -0.17326925747E+03 -0.22927384869E+02  0.19487316334E+03  0.25500000920E-02 0. -1.
</event>
<event>
 5   0  0.5872632E-02  0.5975366E+03  0.7818609E-02  0.9910530E-01
       -2   -1    0    0    0  501  0.00000000000E+00  0.00000000000E+00  0.34777328890E+03  0.34777328891E+03  0.25500000920E-02 0.  1.
        2   -1    0    0  501    0  0.00000000000E+00  0.00000000000E+00 -0.25666861703E+03  0.25666861704E+03  0.25500000920E-02 0. -1.
    10030    2    1    2    0    0  0.00000000000E+00  0.00000000000E+00  0.91104671873E+02  0.60444190596E+03  0.59753657331E+03 0.  0.
        1    1    3    3  502    0  0.37573938557E+02  0.44915447398E+02 -0.25080655161E+03  0.25755217846E+03  0.50400001928E-02 0. -1.
       -1    1    3    3    0  502 -0.37573938557E+02 -0.44915447398E+02  0.34191122348E+03  0.34688972750E+03  0.50400001928E-02 0.  1.
</event>
<event>
 5   0  0.3767635E-02  0.5995939E+03  0.7818609E-02  0.9906249E-01
       -1   -1    0    0    0  501  0.00000000000E+00  0.00000000000E+00  0.11961004784E+03  0.11961004795E+03  0.50400001928E-02 0. -1.
        1   -1    0    0  501    0  0.00000000000E+00  0.00000000000E+00 -0.75142688520E+03  0.75142688522E+03  0.50400001928E-02 0.  1.
    10030    2    1    2    0    0  0.00000000000E+00  0.00000000000E+00 -0.63181683736E+03  0.87103693316E+03  0.59959388170E+03 0.  0.
        2    1    3    3  502    0  0.23884433549E+03 -0.13740817593E+03 -0.14432490949E+03  0.31105835933E+03  0.25500000920E-02 0. -1.
       -2    1    3    3    0  502 -0.23884433549E+03  0.13740817593E+03 -0.48749192787E+03  0.55997857383E+03  0.25500000920E-02 0.  1.
</event>
<event>
 5   0  0.6007360E-02  0.6015041E+03  0.7818609E-02  0.9902290E-01
       -2   -1    0    0    0  501  0.00000000000E+00  0.00000000000E+00  0.40578415499E+02  0.40578415579E+02  0.25500000920E-02 0.  1.
        2   -1    0    0  501    0  0.00000000000E+00  0.00000000000E+00 -0.22290621229E+04  0.22290621229E+04  0.25500000920E-02 0. -1.
    10030    2    1    2    0    0  0.00000000000E+00  0.00000000000E+00 -0.21884837074E+04  0.22696405385E+04  0.60150414492E+03 0.  0.
        4    1    3    3  502    0 -0.16141554831E+03  0.20580882285E+03 -0.16543914235E+04  0.16749402515E+04  0.12699999809E+01 0. -1.
       -4    1    3    3    0  502  0.16141554831E+03 -0.20580882285E+03 -0.53409228389E+03  0.59470028704E+03  0.12699999809E+01 0.  1.
</event>
<event>
 5   0  0.3478183E-02  0.6030226E+03  0.7818609E-02  0.9899155E-01
       -1   -1    0    0    0  501  0.00000000000E+00  0.00000000000E+00  0.34999136689E+03  0.34999136692E+03  0.50400001928E-02 0. -1.
        1   -1    0    0  501    0  0.00000000000E+00  0.00000000000E+00 -0.25974657335E+03  0.25974657340E+03  0.50400001928E-02 0.  1.
    10030    2    1    2    0    0  0.00000000000E+00  0.00000000000E+00  0.90244793538E+02  0.60973794032E+03  0.60302258092E+03 0.  0.
        4    1    3    3  502    0  0.15918328220E+03  0.13064132356E+03  0.26780427113E+03  0.33782719442E+03  0.12699999809E+01 0. -1.
       -4    1    3    3    0  502 -0.15918328220E+03 -0.13064132356E+03 -0.17755947759E+03  0.27191074590E+03  0.12699999809E+01 0.  1.
</event>
<event>
 5   0  0.3767635E-02  0.5994268E+03  0.7818609E-02  0.9906596E-01
        1   -1    0    0  501    0  0.00000000000E+00  0.00000000000E+00  0.52168889824E+03  0.52168889827E+03  0.50400001928E-02 0.  1.
       -1   -1    0    0    0  501  0.00000000000E+00  0.00000000000E+00 -0.17218712448E+03  0.17218712456E+03  0.50400001928E-02 0. -1.
    10030    2    1    2    0    0  0.00000000000E+00  0.00000000000E+00  0.34950177376E+03  0.69387602282E+03  0.59942676382E+03 0.  0.
        2    1    3    3  502    0  0.17196668780E+03  0.85678963976E+02 -0.91526236770E+02  0.21281559766E+03  0.25500000920E-02 0. -1.
       -2    1    3    3    0  502 -0.17196668780E+03 -0.85678963976E+02  0.44102801053E+03  0.48106042517E+03  0.25500000920E-02 0.  1.
</event>
<event>
 5   0  0.5935451E-02  0.6044083E+03  0.7818609E-02  0.9896302E-01
       -2   -1    0    0    0  501  0.00000000000E+00  0.00000000000E+00  0.15982595001E+03  0.15982595003E+03  0.25500000920E-02 0.  1.
        2   -1    0    0  501    0  0.00000000000E+00  0.00000000000E+00 -0.57141751491E+03  0.57141751492E+03  0.25500000920E-02 0. -1.
    10030    2    1    2    0    0  0.00000000000E+00  0.00000000000E+00 -0.41159156490E+03  0.73124346495E+03  0.60440829639E+03 0.  0.
        3    1    3    3  502    0  0.24201747954E+03  0.14146134665E+03 -0.69218951055E+02  0.28874737468E+03  0.10100000352E+00 0.  1.
       -3    1    3    3    0  502 -0.24201747954E+03 -0.14146134665E+03 -0.34237261384E+03  0.44249609027E+03  0.10100000352E+00 0. -1.
</event>
<event>
 5   0  0.3640827E-02  0.6035754E+03  0.7818609E-02  0.9898016E-01
       -1   -1    0    0    0  501  0.00000000000E+00  0.00000000000E+00  0.12590530023E+03  0.12590530033E+03  0.50400001928E-02 0. -1.
        1   -1    0    0  501    0  0.00000000000E+00  0.00000000000E+00 -0.72336769529E+03  0.72336769531E+03  0.50400001928E-02 0.  1.
    10030    2    1    2    0    0  0.00000000000E+00  0.00000000000E+00 -0.59746239506E+03  0.84927299564E+03  0.60357543656E+03 0.  0.
        3    1    3    3  502    0 -0.30002960522E+03  0.32520635119E+02 -0.29968653866E+03  0.42530857900E+03  0.10100000352E+00 0. -1.
       -3    1    3    3    0  502  0.30002960522E+03 -0.32520635119E+02 -0.29777585640E+03  0.42396441664E+03  0.10100000352E+00 0.  1.
</event>
<event>
 5   0  0.5935451E-02  0.6008318E+03  0.7818609E-02  0.9903682E-01
       -2   -1    0    0    0  501  0.00000000000E+00  0.00000000000E+00  0.18088604579E+03  0.18088604581E+03  0.25500000920E-02 0.  1.
        2   -1    0    0  501    0  0.00000000000E+00  0.00000000000E+00 -0.49893137169E+03  0.49893137170E+03  0.25500000920E-02 0. -1.
    10030    2    1    2    0    0  0.00000000000E+00  0.00000000000E+00 -0.31804532590E+03  0.67981741751E+03  0.60083183323E+03 0.  0.
        3    1    3    3  502    0 -0.20008669694E+03  0.18986008045E+02  0.93611330988E+02  0.22171659001E+03  0.10100000352E+00 0. -1.
       -3    1    3    3    0  502  0.20008669694E+03 -0.18986008045E+02 -0.41165665689E+03  0.45810082750E+03  0.10100000352E+00 0.  1.
</event>
<event>
 5   0  0.2388000E-02  0.6034320E+03  0.7818609E-02  0.9898311E-01
        3   -1    0    0  501    0  0.00000000000E+00  0.00000000000E+00  0.10185778573E+03  0.10185783580E+03  0.10100000352E+00 0. -1.
       -3   -1    0    0    0  501  0.00000000000E+00  0.00000000000E+00 -0.89372186481E+03  0.89372187051E+03  0.10100000352E+00 0.  1.
    10030    2    1    2    0    0  0.00000000000E+00  0.00000000000E+00 -0.79186407908E+03  0.99557970632E+03  0.60343204414E+03 0.  0.
        4    1    3    3  502    0  0.66817924121E+02  0.29231840844E+03 -0.45105467756E+03  0.54163329102E+03  0.12699999809E+01 0. -1.
       -4    1    3    3    0  502 -0.66817924121E+02 -0.29231840844E+03 -0.34080940152E+03  0.45394641530E+03  0.12699999809E+01 0.  1.
</event>
<event>
 5   0  0.3478183E-02  0.6015693E+03  0.7818609E-02  0.9902156E-01
       -1   -1    0    0    0  501  0.00000000000E+00  0.00000000000E+00  0.75404502764E+02  0.75404502932E+02  0.50400001928E-02 0. -1.
        1   -1    0    0  501    0  0.00000000000E+00  0.00000000000E+00 -0.11998142693E+04  0.11998142693E+04  0.50400001928E-02 0.  1.
    10030    2    1    2    0    0  0.00000000000E+00  0.00000000000E+00 -0.11244097665E+04  0.12752187722E+04  0.60156927614E+03 0.  0.
        4    1    3    3  502    0 -0.13977084886E+03  0.26632798761E+03 -0.55835495781E+03  0.63421475778E+03  0.12699999809E+01 0. -1.
       -4    1    3    3    0  502  0.13977084886E+03 -0.26632798761E+03 -0.56605480871E+03  0.64100401445E+03  0.12699999809E+01 0.  1.
</event>
<event>
 5   0  0.3703280E-02  0.5978553E+03  0.7818609E-02  0.9909866E-01
       -1   -1    0    0    0  501  0.00000000000E+00  0.00000000000E+00  0.61748414364E+02  0.61748414569E+02  0.50400001928E-02 0. -1.
        1   -1    0    0  501    0  0.00000000000E+00  0.00000000000E+00 -0.14471261182E+04  0.14471261182E+04  0.50400001928E-02 0.  1.
    10030    2    1    2    0    0  0.00000000000E+00  0.00000000000E+00 -0.13853777039E+04  0.15088745328E+04  0.59785531141E+03 0.  0.
        5    1    3    3  502    0 -0.10784399338E+03  0.19160900342E+03 -0.18170995024E+03  0.28528044643E+03  0.46999998093E+01 0. -1.
       -5    1    3    3    0  502  0.10784399338E+03 -0.19160900342E+03 -0.12036677536E+04  0.12235940864E+04  0.46999998093E+01 0.  1.
</event>
<event>
 5   0  0.5999117E-02  0.5946835E+03  0.7818609E-02  0.9916498E-01
       -2   -1    0    0    0  501  0.00000000000E+00  0.00000000000E+00  0.17224387878E+03  0.17224387879E+03  0.25500000920E-02 0. -1.
        2   -1    0    0  501    0  0.00000000000E+00  0.00000000000E+00 -0.51329608176E+03  0.51329608176E+03  0.25500000920E-02 0.  1.
    10030    2    1    2    0    0  0.00000000000E+00  0.00000000000E+00 -0.34105220298E+03  0.68553996056E+03  0.59468347241E+03 0.  0.
        5    1    3    3  502    0 -0.20786106521E+03  0.17898757049E+03 -0.38346545379E+02  0.27701140836E+03  0.46999998093E+01 0. -1.
       -5    1    3    3    0  502  0.20786106521E+03 -0.17898757049E+03 -0.30270565760E+03  0.40852855220E+03  0.46999998093E+01 0.  1.
</event>
<event>
 5   0  0.3651984E-02  0.6040112E+03  0.7818609E-02  0.9897119E-01
       -1   -1    0    0    0  501  0.00000000000E+00  0.00000000000E+00  0.12750650855E+03  0.12750650865E+03  0.50400001928E-02 0.  1.
        1   -1    0    0  501    0  0.00000000000E+00  0.00000000000E+00 -0.71531549213E+03  0.71531549214E+03  0.50400001928E-02 0. -1.
    10030    2    1    2    0    0  0.00000000000E+00  0.00000000000E+00 -0.58780898357E+03  0.84282200080E+03  0.60401119514E+03 0.  0.
        1    1    3    3  502    0 -0.27599878848E+03  0.11893588577E+02 -0.46417791264E+03  0.54016471867E+03  0.50400001928E-02 0. -1.
       -1    1    3    3    0  502  0.27599878848E+03 -0.11893588577E+02 -0.12363107094E+03  0.30265728212E+03  0.50400001928E-02 0.  1.
</event>
<event>
 5   0  0.5999117E-02  0.6053180E+03  0.7818609E-02  0.9894434E-01
       -2   -1    0    0    0  501  0.00000000000E+00  0.00000000000E+00  0.11027468613E+03  0.11027468616E+03  0.25500000920E-02 0.  1.
        2   -1    0    0  501    0  0.00000000000E+00  0.00000000000E+00 -0.83067529594E+03  0.83067529595E+03  0.25500000920E-02 0. -1.
    10030    2    1    2    0    0  0.00000000000E+00  0.00000000000E+00 -0.72040060981E+03  0.94094998211E+03  0.60531795795E+03 0.  0.
        5    1    3    3  502    0  0.11521027840E+03  0.21945159722E+03 -0.63010591700E+03  0.67711739633E+03  0.46999998093E+01 0. -1.
       -5    1    3    3    0  502 -0.11521027840E+03 -0.21945159722E+03 -0.90294692813E+02  0.26383258578E+03  0.46999998093E+01 0.  1.
</event>
<event>
 5   0  0.3767635E-02  0.5985412E+03  0.7818609E-02  0.9908437E-01
        1   -1    0    0  501    0  0.00000000000E+00  0.00000000000E+00  0.69875249098E+03  0.69875249100E+03  0.50400001928E-02 0. -1.
       -1   -1    0    0    0  501  0.00000000000E+00  0.00000000000E+00 -0.12817539769E+03  0.12817539779E+03  0.50400001928E-02 0.  1.
    10030    2    1    2    0    0  0.00000000000E+00  0.00000000000E+00  0.57057709329E+03  0.82692788879E+03  0.59854115470E+03 0.  0.
        2    1    3    3  502    0 -0.28802968758E+03 -0.50922899059E+01  0.39732244363E+03  0.49076690655E+03  0.25500000920E-02 0.  1.
       -2    1    3    3    0  502  0.28802968758E+03  0.50922899059E+01  0.17325464966E+03  0.33616098224E+03  0.25500000920E-02 0. -1.
</event>
<event>
 5   0  0.3651984E-02  0.5862548E+03  0.7818609E-02  0.9934340E-01
       -1   -1    0    0    0  501  0.00000000000E+00  0.00000000000E+00  0.27769068810E+03  0.27769068814E+03  0.50400001928E-02 0.  1.
        1   -1    0    0  501    0  0.00000000000E+00  0.00000000000E+00 -0.30942226530E+03  0.30942226534E+03  0.50400001928E-02 0. -1.
    10030    2    1    2    0    0  0.00000000000E+00  0.00000000000E+00 -0.31731577200E+02  0.58711295348E+03  0.58625483124E+03 0.  0.
        1    1    3    3  502    0  0.28404003736E+03 -0.13680561075E+02  0.55356388673E+02  0.28970714587E+03  0.50400001928E-02 0. -1.
       -1    1    3    3    0  502 -0.28404003736E+03  0.13680561075E+02 -0.87087965872E+02  0.29740580761E+03  0.50400001928E-02 0.  1.
</event>
<event>
 5   0  0.2388000E-02  0.5983368E+03  0.7818609E-02  0.9908863E-01
       -3   -1    0    0    0  501  0.00000000000E+00  0.00000000000E+00  0.10182027854E+04  0.10182027904E+04  0.10100000352E+00 0. -1.
        3   -1    0    0  501    0  0.00000000000E+00  0.00000000000E+00 -0.87901646025E+02  0.87901704050E+02  0.10100000352E+00 0.  1.
    10030    2    1    2    0    0  0.00000000000E+00  0.00000000000E+00  0.93030113941E+03  0.11061044945E+04  0.59833681381E+03 0.  0.
        4    1    3    3  502    0  0.10664217078E+03 -0.22566478144E+03  0.77005142785E+03  0.80949240923E+03  0.12699999809E+01 0. -1.
       -4    1    3    3    0  502 -0.10664217078E+03  0.22566478144E+03  0.16024971156E+03  0.29661208526E+03  0.12699999809E+01 0.  1.
</event>
<event>
 5   0  0.3703280E-02  0.6059904E+03  0.7818609E-02  0.9893055E-01
       -1   -1    0    0    0  501  0.00000000000E+00  0.00000000000E+00  0.89158057556E+02  0.89158057698E+02  0.50400001928E-02 0. -1.
        1   -1    0    0  501    0  0.00000000000E+00  0.00000000000E+00 -0.10297004138E+04  0.10297004138E+04  0.50400001928E-02 0.  1.
    10030    2    1    2    0    0  0.00000000000E+00  0.00000000000E+00 -0.94054235622E+03  0.11188584715E+04  0.60599039215E+03 0.  0.
        5    1    3    3  502    0  0.87914353738E+02 -0.27024206887E+03 -0.27641273528E+03  0.39646664374E+03  0.46999998093E+01 0. -1.
       -5    1    3    3    0  502 -0.87914353738E+02  0.27024206887E+03 -0.66412962095E+03  0.72239182775E+03  0.46999998093E+01 0.  1.
</event>
<event>
 5   0  0.5755078E-02  0.5959452E+03  0.7818609E-02  0.9913854E-01
        2   -1    0    0  501    0  0.00000000000E+00  0.00000000000E+00  0.19589953244E+03  0.19589953245E+03  0.25500000920E-02 0.  1.
       -2   -1    0    0    0  501  0.00000000000E+00  0.00000000000E+00 -0.45323066340E+03  0.45323066340E+03  0.25500000920E-02 0. -1.
    10030    2    1    2    0    0  0.00000000000E+00  0.00000000000E+00 -0.25733113096E+03  0.64913019586E+03  0.59594521578E+03 0.  0.
        2    1    3    3  502    0 -0.74760047076E+02  0.12252394727E+03 -0.41309507379E+03  0.43731993127E+03  0.25500000920E-02 0. -1.
       -2    1    3    3    0  502  0.74760047076E+02 -0.12252394727E+03  0.15576394283E+03  0.21181026459E+03  0.25500000920E-02 0.  1.
</event>
<event>
 5   0  0.5872632E-02  0.6014862E+03  0.7818609E-02  0.9902328E-01
       -2   -1    0    0    0  501  0.00000000000E+00  0.00000000000E+00  0.24980520642E+03  0.24980520643E+03  0.25500000920E-02 0. -1.
        2   -1    0    0  501    0  0.00000000000E+00  0.00000000000E+00 -0.36206772344E+03  0.36206772345E+03  0.25500000920E-02 0.  1.
    10030    2    1    2    0    0  0.00000000000E+00  0.00000000000E+00 -0.11226251702E+03  0.61187292988E+03  0.60148616742E+03 0.  0.
        1    1    3    3  502    0  0.27013791682E+02 -0.13841768988E+03  0.21408175837E+03  0.25635951534E+03  0.50400001928E-02 0. -1.
       -1    1    3    3    0  502 -0.27013791682E+02  0.13841768988E+03 -0.32634427539E+03  0.35551341454E+03  0.50400001928E-02 0.  1.
</event>
<event>
 5   0  0.3478183E-02  0.5992678E+03  0.7818609E-02  0.9906926E-01
        1   -1    0    0  501    0  0.00000000000E+00  0.00000000000E+00  0.55890604310E+03  0.55890604312E+03  0.50400001928E-02 0.  1.
       -1   -1    0    0    0  501  0.00000000000E+00  0.00000000000E+00 -0.16063608491E+03  0.16063608499E+03  0.50400001928E-02 0. -1.
    10030    2    1    2    0    0  0.00000000000E+00  0.00000000000E+00  0.39826995818E+03  0.71954212811E+03  0.59926781537E+03 0.  0.
        4    1    3    3  502    0  0.84965361916E+02  0.14693070223E+03  0.49561631926E+03  0.52387488277E+03  0.12699999809E+01 0.  1.
       -4    1    3    3    0  502 -0.84965361916E+02 -0.14693070223E+03 -0.97346361080E+02  0.19566724534E+03  0.12699999809E+01 0. -1.
</event>
<event>
 5   0  0.3640827E-02  0.6021899E+03  0.7818609E-02  0.9900873E-01
       -1   -1    0    0    0  501  0.00000000000E+00  0.00000000000E+00  0.76826913035E+02  0.76826913201E+02  0.50400001928E-02 0.  1.
        1   -1    0    0  501    0  0.00000000000E+00  0.00000000000E+00 -0.11800313039E+04  0.11800313039E+04  0.50400001928E-02 0. -1.
    10030    2    1    2    0    0  0.00000000000E+00  0.00000000000E+00 -0.11032043908E+04  0.12568582171E+04  0.60218987860E+03 0.  0.
        3    1    3    3  502    0  0.20139302961E+03 -0.13573917189E+03 -0.92305483665E+03  0.95447080460E+03  0.10100000352E+00 0. -1.
       -3    1    3    3    0  502 -0.20139302961E+03  0.13573917189E+03 -0.18014955419E+03  0.30238741249E+03  0.10100000352E+00 0.  1.
</event>
<event>
 5   0  0.3651984E-02  0.6062481E+03  0.7818609E-02  0.9892527E-01
       -1   -1    0    0    0  501  0.00000000000E+00  0.00000000000E+00  0.47360618241E+03  0.47360618243E+03  0.50400001928E-02 0. -1.
        1   -1    0    0  501    0  0.00000000000E+00  0.00000000000E+00 -0.19400969178E+03  0.19400969184E+03  0.50400001928E-02 0.  1.
    10030    2    1    2    0    0  0.00000000000E+00  0.00000000000E+00  0.27959649063E+03  0.66761587428E+03  0.60624809939E+03 0.  0.
        1    1    3    3  502    0 -0.12949612104E+02 -0.97867471660E+02 -0.17581086383E+03  0.20163133271E+03  0.50400001928E-02 0.  1.
       -1    1    3    3    0  502  0.12949612104E+02  0.97867471660E+02  0.45540735446E+03  0.46598454157E+03  0.50400001928E-02 0. -1.
</event>
<event>
 5   0  0.3767635E-02  0.6109590E+03  0.7818609E-02  0.9882927E-01
        1   -1    0    0  501    0  0.00000000000E+00  0.00000000000E+00  0.21162130925E+04  0.21162130925E+04  0.50400001928E-02 0. -1.
       -1   -1    0    0    0  501  0.00000000000E+00  0.00000000000E+00 -0.44096568587E+02  0.44096568875E+02  0.50400001928E-02 0.  1.
    10030    2    1    2    0    0  0.00000000000E+00  0.00000000000E+00  0.20721165239E+04  0.21603096614E+04  0.61095903659E+03 0.  0.
        2    1    3    3  502    0 -0.13565950921E+03  0.13258288945E+03  0.18938147541E+03  0.26804303432E+03  0.25500000920E-02 0.  1.
       -2    1    3    3    0  502  0.13565950921E+03 -0.13258288945E+03  0.18827350485E+04  0.18922666271E+04  0.25500000920E-02 0. -1.
</event>
<event>
 5   0  0.5872632E-02  0.5640303E+03  0.7818609E-02  0.9982976E-01
       -2   -1    0    0    0  501  0.00000000000E+00  0.00000000000E+00  0.19498614733E+03  0.19498614735E+03  0.25500000920E-02 0. -1.
        2   -1    0    0  501    0  0.00000000000E+00  0.00000000000E+00 -0.40788815094E+03  0.40788815095E+03  0.25500000920E-02 0.  1.
    10030    2    1    2    0    0  0.00000000000E+00  0.00000000000E+00 -0.21290200361E+03  0.60287429830E+03  0.56403027969E+03 0.  0.
        1    1    3    3  502    0  0.17857487625E+03 -0.53883804580E+02 -0.33253653221E+03  0.38127810861E+03  0.50400001928E-02 0.  1.
       -1    1    3    3    0  502 -0.17857487625E+03  0.53883804580E+02  0.11963452860E+03  0.22159618969E+03  0.50400001928E-02 0. -1.
</event>
<event>
 5   0  0.5935451E-02  0.5877194E+03  0.7818609E-02  0.9931217E-01
       -2   -1    0    0    0  501  0.00000000000E+00  0.00000000000E+00  0.13910834445E+03  0.13910834447E+03  0.25500000920E-02 0.  1.
        2   -1    0    0  501    0  0.00000000000E+00  0.00000000000E+00 -0.62076445922E+03  0.62076445923E+03  0.25500000920E-02 0. -1.
    10030    2    1    2    0    0  0.00000000000E+00  0.00000000000E+00 -0.48165611477E+03  0.75987280370E+03  0.58771937598E+03 0.  0.
        3    1    3    3  502    0  0.18424037487E+03  0.22871241157E+03 -0.22792326881E+03  0.37175651924E+03  0.10100000352E+00 0.  1.
       -3    1    3    3    0  502 -0.18424037487E+03 -0.22871241157E+03 -0.25373284597E+03  0.38811628445E+03  0.10100000352E+00 0. -1.
</event>
<event>
 5   0  0.3640827E-02  0.5999086E+03  0.7818609E-02  0.9905596E-01
        1   -1    0    0  501    0  0.00000000000E+00  0.00000000000E+00  0.18140617198E+03  0.18140617205E+03  0.50400001928E-02 0.  1.
       -1   -1    0    0    0  501  0.00000000000E+00  0.00000000000E+00 -0.49597306815E+03  0.49597306818E+03  0.50400001928E-02 0. -1.
    10030    2    1    2    0    0  0.00000000000E+00  0.00000000000E+00 -0.31456689617E+03  0.67737924023E+03  0.59990857880E+03 0.  0.
        3    1    3    3  502    0  0.14089868108E+03  0.26251801264E+03 -0.19646989002E+03  0.35688733962E+03  0.10100000352E+00 0.  1.
       -3    1    3    3    0  502 -0.14089868108E+03 -0.26251801264E+03 -0.11809700615E+03  0.32049190061E+03  0.10100000352E+00 0. -1.
</event>
<event>
 5   0  0.6007360E-02  0.6565719E+03  0.7818609E-02  0.9794525E-01
       -2   -1    0    0    0  501  0.00000000000E+00  0.00000000000E+00  0.16674941717E+03  0.16674941719E+03  0.25500000920E-02 0. -1.
        2   -1    0    0  501    0  0.00000000000E+00  0.00000000000E+00 -0.64630911587E+03  0.64630911588E+03  0.25500000920E-02 0.  1.
    10030    2    1    2    0    0  0.00000000000E+00  0.00000000000E+00 -0.47955969870E+03  0.81305853307E+03  0.65657191044E+03 0.  0.
        4    1    3    3  502    0  0.31098396847E+03 -0.86647773789E+02 -0.16598492753E+03  0.36300340827E+03  0.12699999809E+01 0.  1.
       -4    1    3    3    0  502 -0.31098396847E+03  0.86647773789E+02 -0.31357477117E+03  0.45005512480E+03  0.12699999809E+01 0. -1.
</event>
<event>
 5   0  0.3640827E-02  0.5890896E+03  0.7818609E-02  0.9928304E-01
       -1   -1    0    0    0  501  0.00000000000E+00  0.00000000000E+00  0.24637254627E+03  0.24637254632E+03  0.50400001928E-02 0. -1.
        1   -1    0    0  501    0  0.00000000000E+00  0.00000000000E+00 -0.35213594263E+03  0.35213594267E+03  0.50400001928E-02 0.  1.
    10030    2    1    2    0    0  0.00000000000E+00  0.00000000000E+00 -0.10576339636E+03  0.59850848899E+03  0.58908956482E+03 0.  0.
        3    1    3    3  502    0 -0.11640329073E+03  0.55566614125E+02 -0.32191596365E+03  0.34679572164E+03  0.10100000352E+00 0.  1.
       -3    1    3    3    0  502  0.11640329073E+03 -0.55566614125E+02  0.21615256729E+03  0.25171276734E+03  0.10100000352E+00 0. -1.
</event>
<event>
 5   0  0.3640827E-02  0.6010298E+03  0.7818609E-02  0.9903272E-01
        1   -1    0    0  501    0  0.00000000000E+00  0.00000000000E+00  0.33599223004E+03  0.33599223007E+03  0.50400001928E-02 0.  1.
       -1   -1    0    0    0  501  0.00000000000E+00  0.00000000000E+00 -0.26878362334E+03  0.26878362339E+03  0.50400001928E-02 0. -1.
    10030    2    1    2    0    0  0.00000000000E+00  0.00000000000E+00  0.67208606698E+02  0.60477585346E+03  0.60102981300E+03 0.  0.
        3    1    3    3  502    0 -0.28641657255E+03  0.21653223916E+02  0.12250588058E+03  0.31226753932E+03  0.10100000352E+00 0.  1.
       -3    1    3    3    0  502  0.28641657255E+03 -0.21653223916E+02 -0.55297273886E+02  0.29250831413E+03  0.10100000352E+00 0. -1.
</event>
<event>
 5   0  0.5935451E-02  0.5995223E+03  0.7818609E-02  0.9906398E-01
        2   -1    0    0  501    0  0.00000000000E+00  0.00000000000E+00  0.99694690484E+03  0.99694690485E+03  0.25500000920E-02 0. -1.
       -2   -1    0    0    0  501  0.00000000000E+00  0.00000000000E+00 -0.90131940943E+02  0.90131940979E+02  0.25500000920E-02 0.  1.
    10030    2    1    2    0    0  0.00000000000E+00  0.00000000000E+00  0.90681496390E+03  0.10870788458E+04  0.59952234178E+03 0.  0.
        3    1    3    3  502    0 -0.24772475151E+03  0.75764953096E+02  0.17992118245E+03  0.31540374558E+03  0.10100000352E+00 0.  1.
       -3    1    3    3    0  502  0.24772475151E+03 -0.75764953096E+02  0.72689378145E+03  0.77167510024E+03  0.10100000352E+00 0. -1.
</event>
<event>
 5   0  0.3478183E-02  0.5994147E+03  0.7818609E-02  0.9906621E-01
       -1   -1    0    0    0  501  0.00000000000E+00  0.00000000000E+00  0.52596045203E+02  0.52596045445E+02  0.50400001928E-02 0.  1.
        1   -1    0    0  501    0  0.00000000000E+00  0.00000000000E+00 -0.17078185553E+04  0.17078185553E+04  0.50400001928E-02 0. -1.
    10030    2    1    2    0    0  0.00000000000E+00  0.00000000000E+00 -0.16552225101E+04  0.17604146007E+04  0.59941472171E+03 0.  0.
        4    1    3    3  502    0 -0.61214793713E+02  0.19427656771E+03 -0.14732745220E+04  0.14872895030E+04  0.12699999809E+01 0. -1.
       -4    1    3    3    0  502  0.61214793713E+02 -0.19427656771E+03 -0.18194798807E+03  0.27312509770E+03  0.12699999809E+01 0.  1.
</event>
<event>
 5   0  0.3640827E-02  0.6091557E+03  0.7818609E-02  0.9886591E-01
       -1   -1    0    0    0  501  0.00000000000E+00  0.00000000000E+00  0.14356880913E+03  0.14356880922E+03  0.50400001928E-02 0.  1.
        1   -1    0    0  501    0  0.00000000000E+00  0.00000000000E+00 -0.64615471645E+03  0.64615471647E+03  0.50400001928E-02 0. -1.
    10030    2    1    2    0    0  0.00000000000E+00  0.00000000000E+00 -0.50258590732E+03  0.78972352569E+03  0.60915568846E+03 0.  0.
        3    1    3    3  502    0  0.23819622253E+03 -0.75488488322E+02 -0.25507919179E+02  0.25117049277E+03  0.10100000352E+00 0.  1.
       -3    1    3    3    0  502 -0.23819622253E+03  0.75488488322E+02 -0.47707798814E+03  0.53855303292E+03  0.10100000352E+00 0. -1.
</event>
<event>
 5   0  0.5755078E-02  0.6037170E+03  0.7818609E-02  0.9897724E-01
       -2   -1    0    0    0  501  0.00000000000E+00  0.00000000000E+00  0.31283821820E+03  0.31283821821E+03  0.25500000920E-02 0.  1.
        2   -1    0    0  501    0  0.00000000000E+00  0.00000000000E+00 -0.29126415007E+03  0.29126415008E+03  0.25500000920E-02 0. -1.
    10030    2    1    2    0    0  0.00000000000E+00  0.00000000000E+00  0.21574068136E+02  0.60410236829E+03  0.60371701232E+03 0.  0.
        2    1    3    3  502    0  0.13599749283E+03 -0.14203022346E+03 -0.21838023186E+03  0.29386702453E+03  0.25500000920E-02 0. -1.
       -2    1    3    3    0  502 -0.13599749283E+03  0.14203022346E+03  0.23995429999E+03  0.31023534377E+03  0.25500000920E-02 0.  1.
</event>
<event>
 5   0  0.3478183E-02  0.6058139E+03  0.7818609E-02  0.9893417E-01
       -1   -1    0    0    0  501  0.00000000000E+00  0.00000000000E+00  0.58880292971E+03  0.58880292974E+03  0.50400001928E-02 0. -1.
        1   -1    0    0  501    0  0.00000000000E+00  0.00000000000E+00 -0.15582906486E+03  0.15582906494E+03  0.50400001928E-02 0.  1.
    10030    2    1    2    0    0  0.00000000000E+00  0.00000000000E+00  0.43297386485E+03  0.74463199468E+03  0.60581386568E+03 0.  0.
        4    1    3    3  502    0  0.19302177042E+03 -0.13310392011E+03 -0.19229726719E+02  0.23525614274E+03  0.12699999809E+01 0.  1.
       -4    1    3    3    0  502 -0.19302177042E+03  0.13310392011E+03  0.45220359157E+03  0.50937585194E+03  0.12699999809E+01 0. -1.
</event>
<event>
 5   0  0.5872632E-02  0.5931603E+03  0.7818609E-02  0.9919699E-01
        2   -1    0    0  501    0  0.00000000000E+00  0.00000000000E+00  0.71944909509E+03  0.71944909509E+03  0.25500000920E-02 0.  1.
       -2   -1    0    0    0  501  0.00000000000E+00  0.00000000000E+00 -0.12225991327E+03  0.12225991330E+03  0.25500000920E-02 0. -1.
    10030    2    1    2    0    0  0.00000000000E+00  0.00000000000E+00  0.59718918181E+03  0.84170900839E+03  0.59316029530E+03 0.  0.
        1    1    3    3  502    0  0.79306727280E+02  0.17063679458E+03 -0.26709814876E+02  0.19005232673E+03  0.50400001928E-02 0. -1.
       -1    1    3    3    0  502 -0.79306727280E+02 -0.17063679458E+03  0.62389899669E+03  0.65165668166E+03  0.50400001928E-02 0.  1.
</event>
<event>
 5   0  0.2388000E-02  0.5971177E+03  0.7818609E-02  0.9911404E-01
       -4   -1    0    0    0  501  0.00000000000E+00  0.00000000000E+00  0.75017179630E+02  0.75027929064E+02  0.12699999809E+01 0.  1.
        4   -1    0    0  501    0  0.00000000000E+00  0.00000000000E+00 -0.11881300820E+04  0.11881307607E+04  0.12699999809E+01 0. -1.
    10030    2    1    2    0    0  0.00000000000E+00  0.00000000000E+00 -0.11131129023E+04  0.12631586898E+04  0.59711769546E+03 0.  0.
        1    1    3    3  502    0 -0.13578061748E+03 -0.11351630389E+03 -0.47907145387E+02  0.18335054387E+03  0.50400001928E-02 0.  1.
       -1    1    3    3    0  502  0.13578061748E+03  0.11351630389E+03 -0.10652057569E+04  0.10798081459E+04  0.50400001928E-02 0. -1.
</event>
<event>
 5   0  0.3478183E-02  0.6015160E+03  0.7818609E-02  0.9902266E-01
       -1   -1    0    0    0  501  0.00000000000E+00  0.00000000000E+00  0.26027102349E+03  0.26027102354E+03  0.50400001928E-02 0.  1.
        1   -1    0    0  501    0  0.00000000000E+00  0.00000000000E+00 -0.34754299416E+03  0.34754299420E+03  0.50400001928E-02 0. -1.
    10030    2    1    2    0    0  0.00000000000E+00  0.00000000000E+00 -0.87271970673E+02  0.60781401774E+03  0.60151598756E+03 0.  0.
        4    1    3    3  502    0 -0.24273739711E+03  0.43099966998E+02  0.13043113927E+03  0.27891386861E+03  0.12699999809E+01 0.  1.
       -4    1    3    3    0  502  0.24273739711E+03 -0.43099966998E+02 -0.21770310995E+03  0.32890014912E+03  0.12699999809E+01 0. -1.
</event>
<event>
 5   0  0.5935451E-02  0.6024299E+03  0.7818609E-02  0.9900378E-01
        2   -1    0    0  501    0  0.00000000000E+00  0.00000000000E+00  0.98791569647E+03  0.98791569647E+03  0.25500000920E-02 0. -1.
       -2   -1    0    0    0  501  0.00000000000E+00  0.00000000000E+00 -0.91840280710E+02  0.91840280746E+02  0.25500000920E-02 0.  1.
    10030    2    1    2    0    0  0.00000000000E+00  0.00000000000E+00  0.89607541575E+03  0.10797559772E+04  0.60242992921E+03 0.  0.
        3    1    3    3  502    0  0.23228630303E+03 -0.17000902727E+03  0.60704565304E+03  0.67183661035E+03  0.10100000352E+00 0. -1.
       -3    1    3    3    0  502 -0.23228630303E+03  0.17000902727E+03  0.28902976271E+03  0.40791936686E+03  0.10100000352E+00 0.  1.
</event>
<event>
 5   0  0.3640827E-02  0.6067257E+03  0.7818609E-02  0.9891550E-01
       -1   -1    0    0    0  501  0.00000000000E+00  0.00000000000E+00  0.10946186263E+03  0.10946186275E+03  0.50400001928E-02 0.  1.
        1   -1    0    0  501    0  0.00000000000E+00  0.00000000000E+00 -0.84074057229E+03  0.84074057230E+03  0.50400001928E-02 0. -1.
    10030    2    1    2    0    0  0.00000000000E+00  0.00000000000E+00 -0.73127870965E+03  0.95020243505E+03  0.60672573407E+03 0.  0.
        3    1    3    3  502    0  0.14342058403E+03  0.26266242502E+03 -0.44344243320E+03  0.53497870538E+03  0.10100000352E+00 0. -1.
       -3    1    3    3    0  502 -0.14342058403E+03 -0.26266242502E+03 -0.28783627645E+03  0.41522372968E+03  0.10100000352E+00 0.  1.
</event>
<event>
 5   0  0.5755078E-02  0.6019024E+03  0.7818609E-02  0.9901467E-01
       -2   -1    0    0    0  501  0.00000000000E+00  0.00000000000E+00  0.10049478870E+03  0.10049478873E+03  0.25500000920E-02 0.  1.
        2   -1    0    0  501    0  0.00000000000E+00  0.00000000000E+00 -0.90125694275E+03  0.90125694276E+03  0.25500000920E-02 0. -1.
    10030    2    1    2    0    0  0.00000000000E+00  0.00000000000E+00 -0.80076215405E+03  0.10017517315E+04  0.60190240419E+03 0.  0.
        2    1    3    3  502    0  0.17803248697E+03  0.22770409938E+03 -0.53989450027E+03  0.61239757896E+03  0.25500000920E-02 0. -1.
       -2    1    3    3    0  502 -0.17803248697E+03 -0.22770409938E+03 -0.26086765378E+03  0.38935415252E+03  0.25500000920E-02 0.  1.
</event>
<event>
 5   0  0.5935451E-02  0.6026058E+03  0.7818609E-02  0.9900015E-01
       -2   -1    0    0    0  501  0.00000000000E+00  0.00000000000E+00  0.12972632193E+03  0.12972632195E+03  0.25500000920E-02 0. -1.
        2   -1    0    0  501    0  0.00000000000E+00  0.00000000000E+00 -0.69980728170E+03  0.69980728170E+03  0.25500000920E-02 0.  1.
    10030    2    1    2    0    0  0.00000000000E+00  0.00000000000E+00 -0.57008095977E+03  0.82953360365E+03  0.60260575744E+03 0.  0.
        3    1    3    3  502    0 -0.77176546623E+02 -0.26474233784E+03 -0.11791981873E+03  0.29991635274E+03  0.10100000352E+00 0.  1.
       -3    1    3    3    0  502  0.77176546623E+02  0.26474233784E+03 -0.45216114104E+03  0.52961725091E+03  0.10100000352E+00 0. -1.
</event>
<event>
 5   0  0.5755078E-02  0.6040451E+03  0.7818609E-02  0.9897049E-01
       -2   -1    0    0    0  501  0.00000000000E+00  0.00000000000E+00  0.18176654031E+03  0.18176654033E+03  0.25500000920E-02 0. -1.
        2   -1    0    0  501    0  0.00000000000E+00  0.00000000000E+00 -0.50183943313E+03  0.50183943314E+03  0.25500000920E-02 0.  1.
    10030    2    1    2    0    0  0.00000000000E+00  0.00000000000E+00 -0.32007289282E+03  0.68360597347E+03  0.60404508957E+03 0.  0.
        2    1    3    3  502    0  0.11994969396E+03  0.15164923478E+03 -0.42261396957E+03  0.46474507719E+03  0.25500000920E-02 0.  1.
       -2    1    3    3    0  502 -0.11994969396E+03 -0.15164923478E+03  0.10254107675E+03  0.21886089627E+03  0.25500000920E-02 0. -1.
</event>
<event>
 5   0  0.5755078E-02  0.6058373E+03  0.7818609E-02  0.9893369E-01
       -2   -1    0    0    0  501  0.00000000000E+00  0.00000000000E+00  0.75516842051E+02  0.75516842094E+02  0.25500000920E-02 0.  1.
        2   -1    0    0  501    0  0.00000000000E+00  0.00000000000E+00 -0.12150894190E+04  0.12150894190E+04  0.25500000920E-02 0. -1.
    10030    2    1    2    0    0  0.00000000000E+00  0.00000000000E+00 -0.11395725770E+04  0.12906062611E+04  0.60583732392E+03 0.  0.
        2    1    3    3  502    0 -0.79052102876E+02  0.69015761745E+02 -0.11751296185E+04  0.11798059292E+04  0.25500000920E-02 0. -1.
       -2    1    3    3    0  502  0.79052102876E+02 -0.69015761745E+02  0.35557041535E+02  0.11080033189E+03  0.25500000920E-02 0.  1.
</event>
<event>
 5   0  0.3703280E-02  0.6007663E+03  0.7818609E-02  0.9903818E-01
       -1   -1    0    0    0  501  0.00000000000E+00  0.00000000000E+00  0.14576903901E+03  0.14576903910E+03  0.50400001928E-02 0.  1.
        1   -1    0    0  501    0  0.00000000000E+00  0.00000000000E+00 -0.61899307018E+03  0.61899307020E+03  0.50400001928E-02 0. -1.
    10030    2    1    2    0    0  0.00000000000E+00  0.00000000000E+00 -0.47322403117E+03  0.76476210930E+03  0.60076626083E+03 0.  0.
        5    1    3    3  502    0  0.25915656611E+03 -0.13402293396E+03 -0.14584894479E+03  0.32621814370E+03  0.46999998093E+01 0.  1.
       -5    1    3    3    0  502 -0.25915656611E+03  0.13402293396E+03 -0.32737508638E+03  0.43854396560E+03  0.46999998093E+01 0. -1.
</event>
<event>
 5   0  0.3478183E-02  0.6009658E+03  0.7818609E-02  0.9903404E-01
        1   -1    0    0  501    0  0.00000000000E+00  0.00000000000E+00  0.38355617784E+03  0.38355617787E+03  0.50400001928E-02 0.  1.
       -1   -1    0    0    0  501  0.00000000000E+00  0.00000000000E+00 -0.23540223911E+03  0.23540223916E+03  0.50400001928E-02 0. -1.
    10030    2    1    2    0    0  0.00000000000E+00  0.00000000000E+00  0.14815393873E+03  0.61895841703E+03  0.60096583302E+03 0.  0.
        4    1    3    3  502    0 -0.23799073943E+03 -0.46732401245E+02 -0.10861716300E+03  0.26574952564E+03  0.12699999809E+01 0.  1.
       -4    1    3    3    0  502  0.23799073943E+03  0.46732401245E+02  0.25677110172E+03  0.35320889139E+03  0.12699999809E+01 0. -1.
</event>
<event>
 5   0  0.5755078E-02  0.6008577E+03  0.7818609E-02  0.9903628E-01
        2   -1    0    0  501    0  0.00000000000E+00  0.00000000000E+00  0.16455877633E+04  0.16455877633E+04  0.25500000920E-02 0.  1.
       -2   -1    0    0    0  501  0.00000000000E+00  0.00000000000E+00 -0.54848184387E+02  0.54848184446E+02  0.25500000920E-02 0. -1.
    10030    2    1    2    0    0  0.00000000000E+00  0.00000000000E+00  0.15907395790E+04  0.17004359478E+04  0.60085772399E+03 0.  0.
        2    1    3    3  502    0 -0.17346147756E+03 -0.20619462602E+03  0.41936755620E+03  0.49847192017E+03  0.25500000920E-02 0.  1.
       -2    1    3    3    0  502  0.17346147756E+03  0.20619462602E+03  0.11713720228E+04  0.12019640276E+04  0.25500000920E-02 0. -1.
</event>
<event>
 5   0  0.5755078E-02  0.6044370E+03  0.7818609E-02  0.9896243E-01
       -2   -1    0    0    0  501  0.00000000000E+00  0.00000000000E+00  0.41233106882E+03  0.41233106883E+03  0.25500000920E-02 0. -1.
        2   -1    0    0  501    0  0.00000000000E+00  0.00000000000E+00 -0.22151137440E+03  0.22151137441E+03  0.25500000920E-02 0.  1.
    10030    2    1    2    0    0  0.00000000000E+00  0.00000000000E+00  0.19081969443E+03  0.63384244325E+03  0.60443700009E+03 0.  0.
        2    1    3    3  502    0 -0.29733592259E+03 -0.52634978190E+02  0.82273239782E+02  0.31296641638E+03  0.25500000920E-02 0.  1.
       -2    1    3    3    0  502  0.29733592259E+03  0.52634978190E+02  0.10854645464E+03  0.32087602686E+03  0.25500000920E-02 0. -1.
</event>
<event>
 5   0  0.3703280E-02  0.6012568E+03  0.7818609E-02  0.9902802E-01
        1   -1    0    0  501    0  0.00000000000E+00  0.00000000000E+00  0.53027311281E+03  0.53027311284E+03  0.50400001928E-02 0. -1.
       -1   -1    0    0    0  501  0.00000000000E+00  0.00000000000E+00 -0.17043564803E+03  0.17043564810E+03  0.50400001928E-02 0.  1.
    10030    2    1    2    0    0  0.00000000000E+00  0.00000000000E+00  0.35983746478E+03  0.70070876094E+03  0.60125682250E+03 0.  0.
        5    1    3    3  502    0  0.98026296400E+02 -0.70960141310E+02  0.50058745818E+03  0.51502853292E+03  0.46999998093E+01 0. -1.
       -5    1    3    3    0  502 -0.98026296400E+02  0.70960141310E+02 -0.14074999339E+03  0.18568022802E+03  0.46999998093E+01 0.  1.
</event>
<event>
 5   0  0.5935451E-02  0.6075308E+03  0.7818609E-02  0.9889904E-01
       -2   -1    0    0    0  501  0.00000000000E+00  0.00000000000E+00  0.94107899631E+03  0.94107899631E+03  0.25500000920E-02 0. -1.
        2   -1    0    0  501    0  0.00000000000E+00  0.00000000000E+00 -0.98050663473E+02  0.98050663506E+02  0.25500000920E-02 0.  1.
    10030    2    1    2    0    0  0.00000000000E+00  0.00000000000E+00  0.84302833283E+03  0.10391296598E+04  0.60753080576E+03 0.  0.
        3    1    3    3  502    0 -0.10023864399E+03  0.16340872567E+03  0.18482909241E+02  0.19259238176E+03  0.10100000352E+00 0.  1.
       -3    1    3    3    0  502  0.10023864399E+03 -0.16340872567E+03  0.82454542359E+03  0.84653727806E+03  0.10100000352E+00 0. -1.
</event>
<event>
 5   0  0.2388000E-02  0.6063593E+03  0.7818609E-02  0.9892300E-01
       -4   -1    0    0    0  501  0.00000000000E+00  0.00000000000E+00  0.14132698771E+03  0.14133269386E+03  0.12699999809E+01 0. -1.
        4   -1    0    0  501    0  0.00000000000E+00  0.00000000000E+00 -0.65037225523E+03  0.65037349521E+03  0.12699999809E+01 0.  1.
    10030    2    1    2    0    0  0.00000000000E+00  0.00000000000E+00 -0.50904526752E+03  0.79170618907E+03  0.60635930390E+03 0.  0.
        4    1    3    3  502    0 -0.55408287279E+02  0.81759757242E+02  0.11973297028E+03  0.15521705214E+03  0.12699999809E+01 0. -1.
       -4    1    3    3    0  502  0.55408287279E+02 -0.81759757242E+02 -0.62877823780E+03  0.63648913693E+03  0.12699999809E+01 0.  1.
</event>
<event>
 5   0  0.3478183E-02  0.5992768E+03  0.7818609E-02  0.9906908E-01
       -1   -1    0    0    0  501  0.00000000000E+00  0.00000000000E+00  0.32052142626E+03  0.32052142630E+03  0.50400001928E-02 0.  1.
        1   -1    0    0  501    0  0.00000000000E+00  0.00000000000E+00 -0.28011596877E+03  0.28011596881E+03  0.50400001928E-02 0. -1.
    10030    2    1    2    0    0  0.00000000000E+00  0.00000000000E+00  0.40405457493E+02  0.60063739511E+03  0.59927679699E+03 0.  0.
        4    1    3    3  502    0  0.73605770040E+02 -0.28987921757E+03  0.18914161877E+01  0.29908687788E+03  0.12699999809E+01 0. -1.
       -4    1    3    3    0  502 -0.73605770040E+02  0.28987921757E+03  0.38514041305E+02  0.30155051723E+03  0.12699999809E+01 0.  1.
</event>
<event>
 5   0  0.5755078E-02  0.5818240E+03  0.7818609E-02  0.9943850E-01
        2   -1    0    0  501    0  0.00000000000E+00  0.00000000000E+00  0.32360882015E+03  0.32360882016E+03  0.25500000920E-02 0.  1.
       -2   -1    0    0    0  501  0.00000000000E+00  0.00000000000E+00 -0.26151882427E+03  0.26151882428E+03  0.25500000920E-02 0. -1.
    10030    2    1    2    0    0  0.00000000000E+00  0.00000000000E+00  0.62089995878E+02  0.58512764445E+03  0.58182402211E+03 0.  0.
        2    1    3    3  502    0 -0.94612847159E+01 -0.13438363368E+03 -0.22825874740E+03  0.26504817050E+03  0.25500000920E-02 0. -1.
       -2    1    3    3    0  502  0.94612847159E+01  0.13438363368E+03  0.29034874328E+03  0.32007947395E+03  0.25500000920E-02 0.  1.
</event>
<event>
 5   0  0.5999117E-02  0.5989078E+03  0.7818609E-02  0.9907675E-01
       -2   -1    0    0    0  501  0.00000000000E+00  0.00000000000E+00  0.46714640809E+03  0.46714640810E+03  0.25500000920E-02 0.  1.
        2   -1    0    0  501    0  0.00000000000E+00  0.00000000000E+00 -0.19195830199E+03  0.19195830201E+03  0.25500000920E-02 0. -1.
    10030    2    1    2    0    0  0.00000000000E+00  0.00000000000E+00  0.27518810610E+03  0.65910471011E+03  0.59890777683E+03 0.  0.
        5    1    3    3  502    0 -0.18886505044E+03  0.94358802150E+02  0.37124724944E+03  0.42710677943E+03  0.46999998093E+01 0.  1.
       -5    1    3    3    0  502  0.18886505044E+03 -0.94358802150E+02 -0.96059143340E+02  0.23199793068E+03  0.46999998093E+01 0. -1.
</event>
<event>
 5   0  0.2388000E-02  0.6113833E+03  0.7818609E-02  0.9882067E-01
        4   -1    0    0  501    0  0.00000000000E+00  0.00000000000E+00  0.27522591191E+03  0.27522884204E+03  0.12699999809E+01 0.  1.
       -4   -1    0    0    0  501  0.00000000000E+00  0.00000000000E+00 -0.33952378505E+03  0.33952616028E+03  0.12699999809E+01 0. -1.
    10030    2    1    2    0    0  0.00000000000E+00  0.00000000000E+00 -0.64297873135E+02  0.61475500231E+03  0.61138326472E+03 0.  0.
        4    1    3    3  502    0  0.13197074451E+03  0.88279335350E+02 -0.29481022928E+03  0.33484952239E+03  0.12699999809E+01 0. -1.
       -4    1    3    3    0  502 -0.13197074451E+03 -0.88279335350E+02  0.23051235615E+03  0.27990547992E+03  0.12699999809E+01 0.  1.
</event>
<event>
 5   0  0.3703280E-02  0.6015192E+03  0.7818609E-02  0.9902259E-01
       -1   -1    0    0    0  501  0.00000000000E+00  0.00000000000E+00  0.19222124791E+03  0.19222124798E+03  0.50400001928E-02 0. -1.
        1   -1    0    0  501    0  0.00000000000E+00  0.00000000000E+00 -0.47058448002E+03  0.47058448004E+03  0.50400001928E-02 0.  1.
    10030    2    1    2    0    0  0.00000000000E+00  0.00000000000E+00 -0.27836323210E+03  0.66280572802E+03  0.60151919680E+03 0.  0.
        5    1    3    3  502    0 -0.19026527700E+03  0.23172219353E+03 -0.11361891385E+03  0.32066711429E+03  0.46999998093E+01 0.  1.
       -5    1    3    3    0  502  0.19026527700E+03 -0.23172219353E+03 -0.16474431826E+03  0.34213861373E+03  0.46999998093E+01 0. -1.
</event>
<event>
 5   0  0.6007360E-02  0.6090851E+03  0.7818609E-02  0.9886735E-01
       -2   -1    0    0    0  501  0.00000000000E+00  0.00000000000E+00  0.55238115179E+03  0.55238115179E+03  0.25500000920E-02 0. -1.
        2   -1    0    0  501    0  0.00000000000E+00  0.00000000000E+00 -0.16790246453E+03  0.16790246455E+03  0.25500000920E-02 0.  1.
    10030    2    1    2    0    0  0.00000000000E+00  0.00000000000E+00  0.38447868725E+03  0.72028361634E+03  0.60908507371E+03 0.  0.
        4    1    3    3  502    0 -0.29651030218E+03  0.56421966781E+02  0.14430896960E+03  0.33455715392E+03  0.12699999809E+01 0. -1.
       -4    1    3    3    0  502  0.29651030218E+03 -0.56421966781E+02  0.24016971765E+03  0.38572646242E+03  0.12699999809E+01 0.  1.
</event>
<event>
 5   0  0.3640827E-02  0.5779657E+03  0.7818609E-02  0.9952205E-01
       -1   -1    0    0    0  501  0.00000000000E+00  0.00000000000E+00  0.55184074092E+02  0.55184074322E+02  0.50400001928E-02 0. -1.
        1   -1    0    0  501    0  0.00000000000E+00  0.00000000000E+00 -0.15133186494E+04  0.15133186494E+04  0.50400001928E-02 0.  1.
    10030    2    1    2    0    0  0.00000000000E+00  0.00000000000E+00 -0.14581345753E+04  0.15685027237E+04  0.57796570368E+03 0.  0.
        3    1    3    3  502    0 -0.27170861597E+03 -0.81224814419E+02 -0.57825928597E+03  0.64405500889E+03  0.10100000352E+00 0. -1.
       -3    1    3    3    0  502  0.27170861597E+03  0.81224814419E+02 -0.87987528932E+03  0.92444771481E+03  0.10100000352E+00 0.  1.
</event>
<event>
 5   0  0.3767635E-02  0.5988911E+03  0.7818609E-02  0.9907709E-01
        1   -1    0    0  501    0  0.00000000000E+00  0.00000000000E+00  0.17791772868E+03  0.17791772875E+03  0.50400001928E-02 0.  1.
       -1   -1    0    0    0  501  0.00000000000E+00  0.00000000000E+00 -0.50398365481E+03  0.50398365483E+03  0.50400001928E-02 0. -1.
    10030    2    1    2    0    0  0.00000000000E+00  0.00000000000E+00 -0.32606592613E+03  0.68190138359E+03  0.59889106585E+03 0.  0.
        2    1    3    3  502    0  0.23415587683E+03  0.15959072796E+03 -0.52820468002E+02  0.28825019853E+03  0.25500000920E-02 0.  1.
       -2    1    3    3    0  502 -0.23415587683E+03 -0.15959072796E+03 -0.27324545812E+03  0.39365118506E+03  0.25500000920E-02 0. -1.
</event>
<event>
 5   0  0.5755078E-02  0.5996213E+03  0.7818609E-02  0.9906192E-01
        2   -1    0    0  501    0  0.00000000000E+00  0.00000000000E+00  0.18850398464E+04  0.18850398464E+04  0.25500000920E-02 0.  1.
       -2   -1    0    0    0  501  0.00000000000E+00  0.00000000000E+00 -0.47684100309E+02  0.47684100377E+02  0.25500000920E-02 0. -1.
    10030    2    1    2    0    0  0.00000000000E+00  0.00000000000E+00  0.18373557461E+04  0.19327239468E+04  0.59962131113E+03 0.  0.
        2    1    3    3  502    0  0.10359406972E+03 -0.19784255262E+03  0.27392476268E+03  0.35342351722E+03  0.25500000920E-02 0. -1.
       -2    1    3    3    0  502 -0.10359406972E+03  0.19784255262E+03  0.15634309834E+04  0.15793004295E+04  0.25500000920E-02 0.  1.
</event>
<event>
 5   0  0.5935451E-02  0.6098817E+03  0.7818609E-02  0.9885114E-01
       -2   -1    0    0    0  501  0.00000000000E+00  0.00000000000E+00  0.54354217528E+02  0.54354217588E+02  0.25500000920E-02 0.  1.
        2   -1    0    0  501    0  0.00000000000E+00  0.00000000000E+00 -0.17107951717E+04  0.17107951717E+04  0.25500000920E-02 0. -1.
    10030    2    1    2    0    0  0.00000000000E+00  0.00000000000E+00 -0.16564409542E+04  0.17651493893E+04  0.60988173596E+03 0.  0.
        3    1    3    3  502    0 -0.21664717930E+03  0.13357153767E+03 -0.13143471404E+04  0.13387627765E+04  0.10100000352E+00 0. -1.
       -3    1    3    3    0  502  0.21664717930E+03 -0.13357153767E+03 -0.34209381378E+03  0.42638661283E+03  0.10100000352E+00 0.  1.
</event>
<event>
 5   0  0.3478183E-02  0.5732466E+03  0.7818609E-02  0.9962520E-01
       -1   -1    0    0    0  501  0.00000000000E+00  0.00000000000E+00  0.11862754941E+03  0.11862754951E+03  0.50400001928E-02 0. -1.
        1   -1    0    0  501    0  0.00000000000E+00  0.00000000000E+00 -0.69252807657E+03  0.69252807659E+03  0.50400001928E-02 0.  1.
    10030    2    1    2    0    0  0.00000000000E+00  0.00000000000E+00 -0.57390052716E+03  0.81115562610E+03  0.57324657407E+03 0.  0.
        4    1    3    3  502    0  0.86258932659E+02  0.22998879471E+03 -0.49595145055E+03  0.55344819392E+03  0.12699999809E+01 0.  1.
       -4    1    3    3    0  502 -0.86258932659E+02 -0.22998879471E+03 -0.77949076611E+02  0.25770743218E+03  0.12699999809E+01 0. -1.
</event>
<event>
 5   0  0.5935451E-02  0.6104008E+03  0.7818609E-02  0.9884060E-01
       -2   -1    0    0    0  501  0.00000000000E+00  0.00000000000E+00  0.10750567769E+03  0.10750567772E+03  0.25500000920E-02 0.  1.
        2   -1    0    0  501    0  0.00000000000E+00  0.00000000000E+00 -0.86644046189E+03  0.86644046189E+03  0.25500000920E-02 0. -1.
    10030    2    1    2    0    0  0.00000000000E+00  0.00000000000E+00 -0.75893478420E+03  0.97394613961E+03  0.61040075049E+03 0.  0.
        3    1    3    3  502    0 -0.88786399868E+02 -0.17440333162E+03 -0.57880073542E+01  0.19578829922E+03  0.10100000352E+00 0.  1.
       -3    1    3    3    0  502  0.88786399868E+02  0.17440333162E+03 -0.75314677685E+03  0.77815784039E+03  0.10100000352E+00 0. -1.
</event>
<event>
 5   0  0.2388000E-02  0.6010488E+03  0.7818609E-02  0.9903233E-01
        3   -1    0    0  501    0  0.00000000000E+00  0.00000000000E+00  0.18150314328E+03  0.18150317138E+03  0.10100000352E+00 0. -1.
       -3   -1    0    0    0  501  0.00000000000E+00  0.00000000000E+00 -0.49759408455E+03  0.49759409480E+03  0.10100000352E+00 0.  1.
    10030    2    1    2    0    0  0.00000000000E+00  0.00000000000E+00 -0.31609094128E+03  0.67909726619E+03  0.60104876157E+03 0.  0.
        1    1    3    3  502    0  0.18409258460E+03  0.93044635794E+01 -0.42622396885E+03  0.46437433649E+03  0.50400001928E-02 0.  1.
       -1    1    3    3    0  502 -0.18409258460E+03 -0.93044635794E+01  0.11013302758E+03  0.21472292969E+03  0.50400001928E-02 0. -1.
</event>
<event>
 5   0  0.3651984E-02  0.6059539E+03  0.7818609E-02  0.9893130E-01
        1   -1    0    0  501    0  0.00000000000E+00  0.00000000000E+00  0.14026735226E+04  0.14026735226E+04  0.50400001928E-02 0.  1.
       -1   -1    0    0    0  501  0.00000000000E+00  0.00000000000E+00 -0.65442897486E+02  0.65442897680E+02  0.50400001928E-02 0. -1.
    10030    2    1    2    0    0  0.00000000000E+00  0.00000000000E+00  0.13372306251E+04  0.14681164203E+04  0.60595385863E+03 0.  0.
        1    1    3    3  502    0  0.18645252695E+03  0.12411331904E+02  0.12464280607E+04  0.12603576860E+04  0.50400001928E-02 0.  1.
       -1    1    3    3    0  502 -0.18645252695E+03 -0.12411331904E+02  0.90802564384E+02  0.20775873433E+03  0.50400001928E-02 0. -1.
</event>
<event>
 5   0  0.5755078E-02  0.6102557E+03  0.7818609E-02  0.9884354E-01
        2   -1    0    0  501    0  0.00000000000E+00  0.00000000000E+00  0.10419962442E+04  0.10419962442E+04  0.25500000920E-02 0.  1.
       -2   -1    0    0    0  501  0.00000000000E+00  0.00000000000E+00 -0.89350629148E+02  0.89350629185E+02  0.25500000920E-02 0. -1.
    10030    2    1    2    0    0  0.00000000000E+00  0.00000000000E+00  0.95264561501E+03  0.11313468733E+04  0.61025574969E+03 0.  0.
        2    1    3    3  502    0  0.69627804575E+02  0.25204689303E+02 -0.72440181374E+02  0.10358999670E+03  0.25500000920E-02 0. -1.
       -2    1    3    3    0  502 -0.69627804575E+02 -0.25204689303E+02  0.10250857964E+04  0.10277568766E+04  0.25500000920E-02 0.  1.
</event>
<event>
 5   0  0.5935451E-02  0.5979059E+03  0.7818609E-02  0.9909760E-01
       -2   -1    0    0    0  501  0.00000000000E+00  0.00000000000E+00  0.22459008903E+03  0.22459008904E+03  0.25500000920E-02 0.  1.
        2   -1    0    0  501    0  0.00000000000E+00  0.00000000000E+00 -0.39793772261E+03  0.39793772262E+03  0.25500000920E-02 0. -1.
    10030    2    1    2    0    0  0.00000000000E+00  0.00000000000E+00 -0.17334763358E+03  0.62252781166E+03  0.59790590750E+03 0.  0.
        3    1    3    3  502    0 -0.43274789268E+02  0.77244048197E+01  0.22120668933E+03  0.22553222258E+03  0.10100000352E+00 0.  1.
       -3    1    3    3    0  502  0.43274789268E+02 -0.77244048197E+01 -0.39455432292E+03  0.39699558908E+03  0.10100000352E+00 0. -1.
</event>
<event>
 5   0  0.5872632E-02  0.5988935E+03  0.7818609E-02  0.9907704E-01
        2   -1    0    0  501    0  0.00000000000E+00  0.00000000000E+00  0.52952696153E+03  0.52952696153E+03  0.25500000920E-02 0. -1.
       -2   -1    0    0    0  501  0.00000000000E+00  0.00000000000E+00 -0.16933670961E+03  0.16933670963E+03  0.25500000920E-02 0.  1.
    10030    2    1    2    0    0  0.00000000000E+00  0.00000000000E+00  0.36019025191E+03  0.69886367117E+03  0.59889349078E+03 0.  0.
        1    1    3    3  502    0  0.61596889778E+02 -0.93659874400E+02  0.50411802742E+03  0.51643134538E+03  0.50400001928E-02 0. -1.
       -1    1    3    3    0  502 -0.61596889778E+02  0.93659874400E+02 -0.14392777550E+03  0.18243232578E+03  0.50400001928E-02 0.  1.
</event>
<event>
 5   0  0.3478183E-02  0.6075741E+03  0.7818609E-02  0.9889816E-01
       -1   -1    0    0    0  501  0.00000000000E+00  0.00000000000E+00  0.54790423208E+02  0.54790423440E+02  0.50400001928E-02 0. -1.
        1   -1    0    0  501    0  0.00000000000E+00  0.00000000000E+00 -0.16843558390E+04  0.16843558390E+04  0.50400001928E-02 0.  1.
    10030    2    1    2    0    0  0.00000000000E+00  0.00000000000E+00 -0.16295654158E+04  0.17391462624E+04  0.60757409246E+03 0.  0.
        4    1    3    3  502    0  0.84423334275E+02 -0.15031766849E+03 -0.98815617225E+02  0.19871799098E+03  0.12699999809E+01 0. -1.
       -4    1    3    3    0  502 -0.84423334275E+02  0.15031766849E+03 -0.15307497985E+04  0.15404282714E+04  0.12699999809E+01 0.  1.
</event>
<event>
 5   0  0.5935451E-02  0.5907615E+03  0.7818609E-02  0.9924760E-01
       -2   -1    0    0    0  501  0.00000000000E+00  0.00000000000E+00  0.82949502218E+02  0.82949502257E+02  0.25500000920E-02 0. -1.
        2   -1    0    0  501    0  0.00000000000E+00  0.00000000000E+00 -0.10518423689E+04  0.10518423689E+04  0.25500000920E-02 0.  1.
    10030    2    1    2    0    0  0.00000000000E+00  0.00000000000E+00 -0.96889286672E+03  0.11347918712E+04  0.59076154560E+03 0.  0.
        3    1    3    3  502    0  0.26799869501E+03 -0.26503462431E+02 -0.25135960172E+03  0.36838484446E+03  0.10100000352E+00 0. -1.
       -3    1    3    3    0  502 -0.26799869501E+03  0.26503462431E+02 -0.71753326500E+03  0.76640702674E+03  0.10100000352E+00 0.  1.
</event>
<event>
 5   0  0.3478183E-02  0.6007836E+03  0.7818609E-02  0.9903782E-01
        1   -1    0    0  501    0  0.00000000000E+00  0.00000000000E+00  0.59833546351E+03  0.59833546353E+03  0.50400001928E-02 0. -1.
       -1   -1    0    0    0  501  0.00000000000E+00  0.00000000000E+00 -0.15081046246E+03  0.15081046255E+03  0.50400001928E-02 0.  1.
    10030    2    1    2    0    0  0.00000000000E+00  0.00000000000E+00  0.44752500104E+03  0.74914592608E+03  0.60078364825E+03 0.  0.
        4    1    3    3  502    0 -0.13838062481E+02 -0.41823845520E+02 -0.14675713777E+03  0.15323183878E+03  0.12699999809E+01 0.  1.
       -4    1    3    3    0  502  0.13838062481E+02  0.41823845520E+02  0.59428213882E+03  0.59591408730E+03  0.12699999809E+01 0. -1.
</event>
<event>
 5   0  0.5999117E-02  0.5749393E+03  0.7818609E-02  0.9958808E-01
       -2   -1    0    0    0  501  0.00000000000E+00  0.00000000000E+00  0.13511555411E+03  0.13511555413E+03  0.25500000920E-02 0. -1.
        2   -1    0    0  501    0  0.00000000000E+00  0.00000000000E+00 -0.61161567230E+03  0.61161567231E+03  0.25500000920E-02 0.  1.
    10030    2    1    2    0    0  0.00000000000E+00  0.00000000000E+00 -0.47650011819E+03  0.74673122644E+03  0.57493926801E+03 0.  0.
        5    1    3    3  502    0 -0.25349019830E+03 -0.45896182463E+02 -0.40383032592E+03  0.47902480346E+03  0.46999998093E+01 0.  1.
       -5    1    3    3    0  502  0.25349019830E+03  0.45896182463E+02 -0.72669792273E+02  0.26770642298E+03  0.46999998093E+01 0. -1.
</event>
<event>
 5   0  0.3478183E-02  0.6019949E+03  0.7818609E-02  0.9901276E-01
        1   -1    0    0  501    0  0.00000000000E+00  0.00000000000E+00  0.34372872940E+03  0.34372872943E+03  0.50400001928E-02 0.  1.
       -1   -1    0    0    0  501  0.00000000000E+00  0.00000000000E+00 -0.26357838549E+03  0.26357838554E+03  0.50400001928E-02 0. -1.
    10030    2    1    2    0    0  0.00000000000E+00  0.00000000000E+00  0.80150343905E+02  0.60730711498E+03  0.60199489555E+03 0.  0.
        4    1    3    3  502    0  0.19791450184E+03  0.22677097743E+03  0.38440869450E+02  0.30343786776E+03  0.12699999809E+01 0.  1.
       -4    1    3    3    0  502 -0.19791450184E+03 -0.22677097743E+03  0.41709474455E+02  0.30386924722E+03  0.12699999809E+01 0. -1.
</event>
<event>
 5   0  0.3640827E-02  0.6017676E+03  0.7818609E-02  0.9901746E-01
        1   -1    0    0  501    0  0.00000000000E+00  0.00000000000E+00  0.13251579713E+04  0.13251579713E+04  0.50400001928E-02 0.  1.
       -1   -1    0    0    0  501  0.00000000000E+00  0.00000000000E+00 -0.68317193118E+02  0.68317193303E+02  0.50400001928E-02 0. -1.
    10030    2    1    2    0    0  0.00000000000E+00  0.00000000000E+00  0.12568407782E+04  0.13934751646E+04  0.60176764011E+03 0.  0.
        3    1    3    3  502    0  0.18158238387E+03  0.23837716910E+03  0.69120899756E+03  0.75336958087E+03  0.10100000352E+00 0.  1.
       -3    1    3    3    0  502 -0.18158238387E+03 -0.23837716910E+03  0.56563178061E+03  0.64010558372E+03  0.10100000352E+00 0. -1.
</event>
<event>
 5   0  0.5872632E-02  0.5991614E+03  0.7818609E-02  0.9907147E-01
        2   -1    0    0  501    0  0.00000000000E+00  0.00000000000E+00  0.45777069965E+03  0.45777069966E+03  0.25500000920E-02 0. -1.
       -2   -1    0    0    0  501  0.00000000000E+00  0.00000000000E+00 -0.19605580970E+03  0.19605580971E+03  0.25500000920E-02 0.  1.
    10030    2    1    2    0    0  0.00000000000E+00  0.00000000000E+00  0.26171488996E+03  0.65382650937E+03  0.59916143128E+03 0.  0.
        1    1    3    3  502    0 -0.28587692451E+03  0.36349129862E+02  0.22019048991E+03  0.36267165189E+03  0.50400001928E-02 0. -1.
       -1    1    3    3    0  502  0.28587692451E+03 -0.36349129862E+02  0.41524400042E+02  0.29115485748E+03  0.50400001928E-02 0.  1.
</event>
<event>
 5   0  0.6007360E-02  0.5996975E+03  0.7818609E-02  0.9906034E-01
        2   -1    0    0  501    0  0.00000000000E+00  0.00000000000E+00  0.15443284011E+04  0.15443284011E+04  0.25500000920E-02 0. -1.
       -2   -1    0    0    0  501  0.00000000000E+00  0.00000000000E+00 -0.58219007621E+02  0.58219007677E+02  0.25500000920E-02 0.  1.
    10030    2    1    2    0    0  0.00000000000E+00  0.00000000000E+00  0.14861093935E+04  0.16025474088E+04  0.59969748040E+03 0.  0.
        4    1    3    3  502    0  0.31169993046E+00 -0.39147328458E+02 -0.51353072157E+02  0.64586077463E+02  0.12699999809E+01 0.  1.
       -4    1    3    3    0  502 -0.31169993046E+00  0.39147328458E+02  0.15374624657E+04  0.15379613313E+04  0.12699999809E+01 0. -1.
</event>
<event>
 5   0  0.5935451E-02  0.5615395E+03  0.7818609E-02  0.9988577E-01
       -2   -1    0    0    0  501  0.00000000000E+00  0.00000000000E+00  0.89488118016E+02  0.89488118053E+02  0.25500000920E-02 0.  1.
        2   -1    0    0  501    0  0.00000000000E+00  0.00000000000E+00 -0.88091738384E+03  0.88091738384E+03  0.25500000920E-02 0. -1.
    10030    2    1    2    0    0  0.00000000000E+00  0.00000000000E+00 -0.79142926582E+03  0.97040550189E+03  0.56153945125E+03 0.  0.
        3    1    3    3  502    0  0.13196497306E+03  0.59579416975E+02 -0.81142331005E+03  0.82424041356E+03  0.10100000352E+00 0. -1.
       -3    1    3    3    0  502 -0.13196497306E+03 -0.59579416975E+02  0.19994044234E+02  0.14616508833E+03  0.10100000352E+00 0.  1.
</event>
<event>
 5   0  0.3767635E-02  0.6174108E+03  0.7818609E-02  0.9869928E-01
        1   -1    0    0  501    0  0.00000000000E+00  0.00000000000E+00  0.19521419634E+03  0.19521419641E+03  0.50400001928E-02 0. -1.
       -1   -1    0    0    0  501  0.00000000000E+00  0.00000000000E+00 -0.48817673683E+03  0.48817673686E+03  0.50400001928E-02 0.  1.
    10030    2    1    2    0    0  0.00000000000E+00  0.00000000000E+00 -0.29296254049E+03  0.68339093327E+03  0.61741081748E+03 0.  0.
        2    1    3    3  502    0  0.29948938652E+03 -0.57752407692E+02 -0.93747550646E+02  0.31908907297E+03  0.25500000920E-02 0.  1.
       -2    1    3    3    0  502 -0.29948938652E+03  0.57752407692E+02 -0.19921498984E+03  0.36430186030E+03  0.25500000920E-02 0. -1.
</event>
<event>
 5   0  0.3767635E-02  0.5958377E+03  0.7818609E-02  0.9914079E-01
       -1   -1    0    0    0  501  0.00000000000E+00  0.00000000000E+00  0.29373505182E+03  0.29373505186E+03  0.50400001928E-02 0.  1.
        1   -1    0    0  501    0  0.00000000000E+00  0.00000000000E+00 -0.30216220650E+03  0.30216220655E+03  0.50400001928E-02 0. -1.
    10030    2    1    2    0    0  0.00000000000E+00  0.00000000000E+00 -0.84271546883E+01  0.59589725841E+03  0.59583766719E+03 0.  0.
        2    1    3    3  502    0  0.10432267893E+03  0.80450601256E+02  0.26302113849E+03  0.29416940677E+03  0.25500000920E-02 0.  1.
       -2    1    3    3    0  502 -0.10432267893E+03 -0.80450601256E+02 -0.27144829317E+03  0.30172785164E+03  0.25500000920E-02 0. -1.
</event>
<event>
 5   0  0.5999117E-02  0.6022741E+03  0.7818609E-02  0.9900699E-01
       -2   -1    0    0    0  501  0.00000000000E+00  0.00000000000E+00  0.95832426700E+02  0.95832426734E+02  0.25500000920E-02 0.  1.
        2   -1    0    0  501    0  0.00000000000E+00  0.00000000000E+00 -0.94627192718E+03  0.94627192719E+03  0.25500000920E-02 0. -1.
    10030    2    1    2    0    0  0.00000000000E+00  0.00000000000E+00 -0.85043950048E+03  0.10421043539E+04  0.60227414064E+03 0.  0.
        5    1    3    3  502    0  0.87753588141E+02 -0.10491139769E+03 -0.88935603925E+03  0.89982406511E+03  0.46999998093E+01 0. -1.
       -5    1    3    3    0  502 -0.87753588141E+02  0.10491139769E+03  0.38916538765E+02  0.14228028882E+03  0.46999998093E+01 0.  1.
</event>
<event>
 5   0  0.3651984E-02  0.6193641E+03  0.7818609E-02  0.9866027E-01
        1   -1    0    0  501    0  0.00000000000E+00  0.00000000000E+00  0.10689788730E+04  0.10689788730E+04  0.50400001928E-02 0. -1.
       -1   -1    0    0    0  501  0.00000000000E+00  0.00000000000E+00 -0.89714555121E+02  0.89714555262E+02  0.50400001928E-02 0.  1.
    10030    2    1    2    0    0  0.00000000000E+00  0.00000000000E+00  0.97926431792E+03  0.11586934283E+04  0.61936407425E+03 0.  0.
        1    1    3    3  502    0  0.54764794342E+02 -0.13162971285E+03  0.10039345068E+04  0.10140069319E+04  0.50400001928E-02 0. -1.
       -1    1    3    3    0  502 -0.54764794342E+02  0.13162971285E+03 -0.24670188858E+02  0.14468649642E+03  0.50400001928E-02 0.  1.
</event>
<event>
 5   0  0.5935451E-02  0.5991197E+03  0.7818609E-02  0.9907234E-01
        2   -1    0    0  501    0  0.00000000000E+00  0.00000000000E+00  0.95575601708E+03  0.95575601708E+03  0.25500000920E-02 0.  1.
       -2   -1    0    0    0  501  0.00000000000E+00  0.00000000000E+00 -0.93890169815E+02  0.93890169849E+02  0.25500000920E-02 0. -1.
    10030    2    1    2    0    0  0.00000000000E+00  0.00000000000E+00  0.86186584726E+03  0.10496461869E+04  0.59911967006E+03 0.  0.
        3    1    3    3  502    0 -0.26266793498E+03 -0.14155695735E+03  0.47739406584E+03  0.56297239767E+03  0.10100000352E+00 0.  1.
       -3    1    3    3    0  502  0.26266793498E+03  0.14155695735E+03  0.38447178142E+03  0.48667378926E+03  0.10100000352E+00 0. -1.
</event>
<event>
 5   0  0.2388000E-02  0.5939710E+03  0.7818609E-02  0.9917994E-01
       -4   -1    0    0    0  501  0.00000000000E+00  0.00000000000E+00  0.29174018559E+03  0.29174294985E+03  0.12699999809E+01 0. -1.
        4   -1    0    0  501    0  0.00000000000E+00  0.00000000000E+00 -0.30231960709E+03  0.30232227462E+03  0.12699999809E+01 0.  1.
    10030    2    1    2    0    0  0.00000000000E+00  0.00000000000E+00 -0.10579421500E+02  0.59406522446E+03  0.59397101508E+03 0.  0.
        1    1    3    3  502    0 -0.39514026461E+02  0.12458649248E+03 -0.27201016512E+03  0.30178250836E+03  0.50400001928E-02 0.  1.
       -1    1    3    3    0  502  0.39514026461E+02 -0.12458649248E+03  0.26143074362E+03  0.29228271610E+03  0.50400001928E-02 0. -1.
</event>
<event>
 5   0  0.3478183E-02  0.5898749E+03  0.7818609E-02  0.9926638E-01
        1   -1    0    0  501    0  0.00000000000E+00  0.00000000000E+00  0.13082050939E+03  0.13082050948E+03  0.50400001928E-02 0. -1.
       -1   -1    0    0    0  501  0.00000000000E+00  0.00000000000E+00 -0.66494228717E+03  0.66494228719E+03  0.50400001928E-02 0.  1.
    10030    2    1    2    0    0  0.00000000000E+00  0.00000000000E+00 -0.53412177779E+03  0.79576279668E+03  0.58987486391E+03 0.  0.
        4    1    3    3  502    0 -0.21354657123E+03  0.52927615760E+01  0.72826320132E+01  0.21374003143E+03  0.12699999809E+01 0. -1.
       -4    1    3    3    0  502  0.21354657123E+03 -0.52927615760E+01 -0.54140440980E+03  0.58202276524E+03  0.12699999809E+01 0.  1.
</event>
<event>
 5   0  0.3703280E-02  0.6043583E+03  0.7818609E-02  0.9896405E-01
       -1   -1    0    0    0  501  0.00000000000E+00  0.00000000000E+00  0.13312083075E+03  0.13312083084E+03  0.50400001928E-02 0. -1.
        1   -1    0    0  501    0  0.00000000000E+00  0.00000000000E+00 -0.68593504241E+03  0.68593504243E+03  0.50400001928E-02 0.  1.
    10030    2    1    2    0    0  0.00000000000E+00  0.00000000000E+00 -0.55281421167E+03  0.81905587327E+03  0.60435831335E+03 0.  0.
        5    1    3    3  502    0  0.14525576753E+03 -0.19627399415E+02 -0.63447419782E+03  0.65120201974E+03  0.46999998093E+01 0.  1.
       -5    1    3    3    0  502 -0.14525576753E+03  0.19627399415E+02  0.81659986159E+02  0.16785385353E+03  0.46999998093E+01 0. -1.
</event>
<event>
 5   0  0.6007360E-02  0.5988677E+03  0.7818609E-02  0.9907758E-01
       -2   -1    0    0    0  501  0.00000000000E+00  0.00000000000E+00  0.97878894542E+02  0.97878894575E+02  0.25500000920E-02 0. -1.
        2   -1    0    0  501    0  0.00000000000E+00  0.00000000000E+00 -0.91603635377E+03  0.91603635377E+03  0.25500000920E-02 0.  1.
    10030    2    1    2    0    0  0.00000000000E+00  0.00000000000E+00 -0.81815745922E+03  0.10139152483E+04  0.59886768383E+03 0.  0.
        4    1    3    3  502    0 -0.19130994027E+03 -0.10628129571E+03 -0.75507451579E+03  0.78615160393E+03  0.12699999809E+01 0.  1.
       -4    1    3    3    0  502  0.19130994027E+03  0.10628129571E+03 -0.63082943430E+02  0.22776364441E+03  0.12699999809E+01 0. -1.
</event>
<event>
 5   0  0.3703280E-02  0.6015957E+03  0.7818609E-02  0.9902101E-01
        1   -1    0    0  501    0  0.00000000000E+00  0.00000000000E+00  0.41373169490E+03  0.41373169493E+03  0.50400001928E-02 0. -1.
       -1   -1    0    0    0  501  0.00000000000E+00  0.00000000000E+00 -0.21869089304E+03  0.21869089310E+03  0.50400001928E-02 0.  1.
    10030    2    1    2    0    0  0.00000000000E+00  0.00000000000E+00  0.19504080186E+03  0.63242258803E+03  0.60159572428E+03 0.  0.
        5    1    3    3  502    0  0.26170960895E+03 -0.13455046524E+03  0.32195073687E+02  0.29606479001E+03  0.46999998093E+01 0.  1.
       -5    1    3    3    0  502 -0.26170960895E+03  0.13455046524E+03  0.16284572817E+03  0.33635779803E+03  0.46999998093E+01 0. -1.
</event>
<event>
 5   0  0.5755078E-02  0.6015190E+03  0.7818609E-02  0.9902260E-01
        2   -1    0    0  501    0  0.00000000000E+00  0.00000000000E+00  0.10175538312E+04  0.10175538312E+04  0.25500000920E-02 0. -1.
       -2   -1    0    0    0  501  0.00000000000E+00  0.00000000000E+00 -0.88895803615E+02  0.88895803651E+02  0.25500000920E-02 0.  1.
    10030    2    1    2    0    0  0.00000000000E+00  0.00000000000E+00  0.92865802756E+03  0.11064496348E+04  0.60151896251E+03 0.  0.
        2    1    3    3  502    0  0.10491558357E+03 -0.14622938745E+03  0.21084771457E+02  0.18120397630E+03  0.25500000920E-02 0.  1.
       -2    1    3    3    0  502 -0.10491558357E+03  0.14622938745E+03  0.90757325611E+03  0.92524565853E+03  0.25500000920E-02 0. -1.
</event>
<event>
 5   0  0.3767635E-02  0.6021180E+03  0.7818609E-02  0.9901022E-01
        1   -1    0    0  501    0  0.00000000000E+00  0.00000000000E+00  0.94403918333E+02  0.94403918468E+02  0.50400001928E-02 0.  1.
       -1   -1    0    0    0  501  0.00000000000E+00  0.00000000000E+00 -0.96009292173E+03  0.96009292174E+03  0.50400001928E-02 0. -1.
    10030    2    1    2    0    0  0.00000000000E+00  0.00000000000E+00 -0.86568900340E+03  0.10544968402E+04  0.60211804110E+03 0.  0.
        2    1    3    3  502    0  0.21537477851E+03 -0.20021310409E+03 -0.31982103576E+03  0.43446182478E+03  0.25500000920E-02 0. -1.
       -2    1    3    3    0  502 -0.21537477851E+03  0.20021310409E+03 -0.54586796763E+03  0.62003501543E+03  0.25500000920E-02 0.  1.
</event>
<event>
 5   0  0.3478183E-02  0.6010318E+03  0.7818609E-02  0.9903268E-01
        1   -1    0    0  501    0  0.00000000000E+00  0.00000000000E+00  0.62753039659E+03  0.62753039661E+03  0.50400001928E-02 0. -1.
       -1   -1    0    0    0  501  0.00000000000E+00  0.00000000000E+00 -0.14391306220E+03  0.14391306229E+03  0.50400001928E-02 0.  1.
    10030    2    1    2    0    0  0.00000000000E+00  0.00000000000E+00  0.48361733439E+03  0.77144345889E+03  0.60103184953E+03 0.  0.
        4    1    3    3  502    0  0.29531499739E+03  0.95970812100E+01  0.17144634565E+03  0.34161164206E+03  0.12699999809E+01 0.  1.
       -4    1    3    3    0  502 -0.29531499739E+03 -0.95970812100E+01  0.31217098874E+03  0.42983181683E+03  0.12699999809E+01 0. -1.
</event>
<event>
 5   0  0.5755078E-02  0.5971790E+03  0.7818609E-02  0.9911276E-01
       -2   -1    0    0    0  501  0.00000000000E+00  0.00000000000E+00  0.70363548845E+02  0.70363548891E+02  0.25500000920E-02 0.  1.
        2   -1    0    0  501    0  0.00000000000E+00  0.00000000000E+00 -0.12670719258E+04  0.12670719258E+04  0.25500000920E-02 0. -1.
    10030    2    1    2    0    0  0.00000000000E+00  0.00000000000E+00 -0.11967083770E+04  0.13374354747E+04  0.59717895935E+03 0.  0.
        2    1    3    3  502    0 -0.14862803919E+03  0.73437758907E+02 -0.11545315905E+04  0.11663732644E+04  0.25500000920E-02 0.  1.
       -2    1    3    3    0  502  0.14862803919E+03 -0.73437758907E+02 -0.42176786459E+02  0.17106221029E+03  0.25500000920E-02 0. -1.
</event>
<event>
 5   0  0.6007360E-02  0.6069675E+03  0.7818609E-02  0.9891055E-01
        2   -1    0    0  501    0  0.00000000000E+00  0.00000000000E+00  0.18319029093E+04  0.18319029093E+04  0.25500000920E-02 0.  1.
       -2   -1    0    0    0  501  0.00000000000E+00  0.00000000000E+00 -0.50276886567E+02  0.50276886632E+02  0.25500000920E-02 0. -1.
    10030    2    1    2    0    0  0.00000000000E+00  0.00000000000E+00  0.17816260228E+04  0.18821797960E+04  0.60696746152E+03 0.  0.
        4    1    3    3  502    0 -0.50929337303E+02 -0.25536480058E+03  0.40746365043E+03  0.48356304459E+03  0.12699999809E+01 0. -1.
       -4    1    3    3    0  502  0.50929337303E+02  0.25536480058E+03  0.13741623723E+04  0.13986167514E+04  0.12699999809E+01 0.  1.
</event>
<event>
 5   0  0.2388000E-02  0.5974999E+03  0.7818609E-02  0.9910607E-01
       -3   -1    0    0    0  501  0.00000000000E+00  0.00000000000E+00  0.12324788415E+03  0.12324792554E+03  0.10100000352E+00 0.  1.
        3   -1    0    0  501    0  0.00000000000E+00  0.00000000000E+00 -0.72416271614E+03  0.72416272318E+03  0.10100000352E+00 0. -1.
    10030    2    1    2    0    0  0.00000000000E+00  0.00000000000E+00 -0.60091483198E+03  0.84741064872E+03  0.59749993494E+03 0.  0.
        5    1    3    3  502    0 -0.13210211099E+03  0.11211225687E+03 -0.64556230977E+03  0.66842569644E+03  0.46999998093E+01 0. -1.
       -5    1    3    3    0  502  0.13210211099E+03 -0.11211225687E+03  0.44647477786E+02  0.17898495227E+03  0.46999998093E+01 0.  1.
</event>
<event>
 5   0  0.3767635E-02  0.6013948E+03  0.7818609E-02  0.9902517E-01
       -1   -1    0    0    0  501  0.00000000000E+00  0.00000000000E+00  0.20601246546E+03  0.20601246552E+03  0.50400001928E-02 0.  1.
        1   -1    0    0  501    0  0.00000000000E+00  0.00000000000E+00 -0.43890025185E+03  0.43890025188E+03  0.50400001928E-02 0. -1.
    10030    2    1    2    0    0  0.00000000000E+00  0.00000000000E+00 -0.23288778639E+03  0.64491271740E+03  0.60139478882E+03 0.  0.
        2    1    3    3  502    0 -0.16585936022E+03 -0.24875507776E+03 -0.82019464963E+02  0.31002517434E+03  0.25500000920E-02 0.  1.
       -2    1    3    3    0  502  0.16585936022E+03  0.24875507776E+03 -0.15086832143E+03  0.33488754307E+03  0.25500000920E-02 0. -1.
</event>
<event>
 5   0  0.3651984E-02  0.5990544E+03  0.7818609E-02  0.9907370E-01
        1   -1    0    0  501    0  0.00000000000E+00  0.00000000000E+00  0.20907567348E+04  0.20907567348E+04  0.50400001928E-02 0. -1.
       -1   -1    0    0    0  501  0.00000000000E+00  0.00000000000E+00 -0.42911032005E+02  0.42911032301E+02  0.50400001928E-02 0.  1.
    10030    2    1    2    0    0  0.00000000000E+00  0.00000000000E+00  0.20478457028E+04  0.21336677671E+04  0.59905435307E+03 0.  0.
        1    1    3    3  502    0  0.26443331538E+03 -0.47088306189E+02  0.14960933804E+04  0.15200123979E+04  0.50400001928E-02 0.  1.
       -1    1    3    3    0  502 -0.26443331538E+03  0.47088306189E+02  0.55175232241E+03  0.61365536922E+03  0.50400001928E-02 0. -1.
</event>
<event>
 5   0  0.3478183E-02  0.5772901E+03  0.7818609E-02  0.9953675E-01
        1   -1    0    0  501    0  0.00000000000E+00  0.00000000000E+00  0.34100075608E+03  0.34100075612E+03  0.50400001928E-02 0.  1.
       -1   -1    0    0    0  501  0.00000000000E+00  0.00000000000E+00 -0.24432776021E+03  0.24432776026E+03  0.50400001928E-02 0. -1.
    10030    2    1    2    0    0  0.00000000000E+00  0.00000000000E+00  0.96672995873E+02  0.58532851638E+03  0.57729005184E+03 0.  0.
        4    1    3    3  502    0  0.17177532171E+03  0.69958327429E+02 -0.17590685414E+03  0.25562817325E+03  0.12699999809E+01 0. -1.
       -4    1    3    3    0  502 -0.17177532171E+03 -0.69958327429E+02  0.27257985002E+03  0.32970034313E+03  0.12699999809E+01 0.  1.
</event>
<event>
 5   0  0.6007360E-02  0.6022288E+03  0.7818609E-02  0.9900793E-01
       -2   -1    0    0    0  501  0.00000000000E+00  0.00000000000E+00  0.12516033875E+03  0.12516033877E+03  0.25500000920E-02 0. -1.
        2   -1    0    0  501    0  0.00000000000E+00  0.00000000000E+00 -0.72442975843E+03  0.72442975844E+03  0.25500000920E-02 0.  1.
    10030    2    1    2    0    0  0.00000000000E+00  0.00000000000E+00 -0.59926941968E+03  0.84959009721E+03  0.60222877373E+03 0.  0.
        4    1    3    3  502    0  0.92417193027E+01 -0.25313962279E+03 -0.52930084294E+03  0.58679304123E+03  0.12699999809E+01 0.  1.
       -4    1    3    3    0  502 -0.92417193027E+01  0.25313962279E+03 -0.69968576745E+02  0.26279705598E+03  0.12699999809E+01 0. -1.
</event>
<event>
 5   0  0.3640827E-02  0.5983185E+03  0.7818609E-02  0.9908901E-01
        1   -1    0    0  501    0  0.00000000000E+00  0.00000000000E+00  0.79104206690E+02  0.79104206850E+02  0.50400001928E-02 0. -1.
       -1   -1    0    0    0  501  0.00000000000E+00  0.00000000000E+00 -0.11313717719E+04  0.11313717719E+04  0.50400001928E-02 0.  1.
    10030    2    1    2    0    0  0.00000000000E+00  0.00000000000E+00 -0.10522675652E+04  0.12104759787E+04  0.59831853251E+03 0.  0.
        3    1    3    3  502    0  0.11623660555E+03 -0.25054299288E+03 -0.75869266322E+03  0.80740157739E+03  0.10100000352E+00 0. -1.
       -3    1    3    3    0  502 -0.11623660555E+03  0.25054299288E+03 -0.29357490194E+03  0.40307440132E+03  0.10100000352E+00 0.  1.
</event>
<event>
 5   0  0.3651984E-02  0.5978983E+03  0.7818609E-02  0.9909776E-01
        1   -1    0    0  501    0  0.00000000000E+00  0.00000000000E+00  0.32869402126E+03  0.32869402130E+03  0.50400001928E-02 0.  1.
       -1   -1    0    0    0  501  0.00000000000E+00  0.00000000000E+00 -0.27189598030E+03  0.27189598035E+03  0.50400001928E-02 0. -1.
    10030    2    1    2    0    0  0.00000000000E+00  0.00000000000E+00  0.56798040959E+02  0.60059000165E+03  0.59789826277E+03 0.  0.
        1    1    3    3  502    0 -0.16703757435E+02 -0.43217652060E+02  0.32506538763E+03  0.32835085994E+03  0.50400001928E-02 0.  1.
       -1    1    3    3    0  502  0.16703757435E+02  0.43217652060E+02 -0.26826734667E+03  0.27223914171E+03  0.50400001928E-02 0. -1.
</event>
<event>
 5   0  0.3651984E-02  0.5994068E+03  0.7818609E-02  0.9906638E-01
       -1   -1    0    0    0  501  0.00000000000E+00  0.00000000000E+00  0.21619102360E+03  0.21619102366E+03  0.50400001928E-02 0. -1.
        1   -1    0    0  501    0  0.00000000000E+00  0.00000000000E+00 -0.41547576405E+03  0.41547576408E+03  0.50400001928E-02 0.  1.
    10030    2    1    2    0    0  0.00000000000E+00  0.00000000000E+00 -0.19928474045E+03  0.63166678774E+03  0.59940680923E+03 0.  0.
        1    1    3    3  502    0  0.16460661436E+02 -0.11660831490E+03  0.19078716233E+03  0.22420569532E+03  0.50400001928E-02 0. -1.
       -1    1    3    3    0  502 -0.16460661436E+02  0.11660831490E+03 -0.39007190277E+03  0.40746109242E+03  0.50400001928E-02 0.  1.
</event>
<event>
 5   0  0.6007360E-02  0.5985762E+03  0.7818609E-02  0.9908364E-01
        2   -1    0    0  501    0  0.00000000000E+00  0.00000000000E+00  0.57336740004E+03  0.57336740004E+03  0.25500000920E-02 0. -1.
       -2   -1    0    0    0  501  0.00000000000E+00  0.00000000000E+00 -0.15622333202E+03  0.15622333204E+03  0.25500000920E-02 0.  1.
    10030    2    1    2    0    0  0.00000000000E+00  0.00000000000E+00  0.41714406802E+03  0.72959073208E+03  0.59857619637E+03 0.  0.
        4    1    3    3  502    0  0.28787537843E+03 -0.78254935887E+02  0.17932700430E+03  0.34807449758E+03  0.12699999809E+01 0.  1.
       -4    1    3    3    0  502 -0.28787537843E+03  0.78254935887E+02  0.23781706372E+03  0.38151623450E+03  0.12699999809E+01 0. -1.
</event>
<event>
 5   0  0.5935451E-02  0.6024214E+03  0.7818609E-02  0.9900395E-01
       -2   -1    0    0    0  501  0.00000000000E+00  0.00000000000E+00  0.23502584472E+03  0.23502584474E+03  0.25500000920E-02 0.  1.
        2   -1    0    0  501    0  0.00000000000E+00  0.00000000000E+00 -0.38603359480E+03  0.38603359481E+03  0.25500000920E-02 0. -1.
    10030    2    1    2    0    0  0.00000000000E+00  0.00000000000E+00 -0.15100775007E+03  0.62105943954E+03  0.60242135326E+03 0.  0.
        3    1    3    3  502    0  0.20631866334E+03  0.79371340843E+01 -0.30160042610E+03  0.36550405766E+03  0.10100000352E+00 0. -1.
       -3    1    3    3    0  502 -0.20631866334E+03 -0.79371340843E+01  0.15059267602E+03  0.25555538189E+03  0.10100000352E+00 0.  1.
</event>
<event>
 5   0  0.2388000E-02  0.6070854E+03  0.7818609E-02  0.9890814E-01
       -3   -1    0    0    0  501  0.00000000000E+00  0.00000000000E+00  0.14760726785E+03  0.14760730240E+03  0.10100000352E+00 0. -1.
        3   -1    0    0  501    0  0.00000000000E+00  0.00000000000E+00 -0.62421150945E+03  0.62421151762E+03  0.10100000352E+00 0.  1.
    10030    2    1    2    0    0  0.00000000000E+00  0.00000000000E+00 -0.47660424160E+03  0.77181882002E+03  0.60708540406E+03 0.  0.
        1    1    3    3  502    0 -0.17086029763E+03 -0.24145546850E+03 -0.15166172283E+03  0.33240827724E+03  0.50400001928E-02 0. -1.
       -1    1    3    3    0  502  0.17086029763E+03  0.24145546850E+03 -0.32494251877E+03  0.43941054278E+03  0.50400001928E-02 0.  1.
</event>
<event>
 5   0  0.5999117E-02  0.5862179E+03  0.7818609E-02  0.9934419E-01
        2   -1    0    0  501    0  0.00000000000E+00  0.00000000000E+00  0.13306902215E+04  0.13306902215E+04  0.25500000920E-02 0. -1.
       -2   -1    0    0    0  501  0.00000000000E+00  0.00000000000E+00 -0.64562626764E+02  0.64562626814E+02  0.25500000920E-02 0.  1.
    10030    2    1    2    0    0  0.00000000000E+00  0.00000000000E+00  0.12661275948E+04  0.13952528483E+04  0.58621789856E+03 0.  0.
        5    1    3    3  502    0 -0.13128354801E+03 -0.12713897452E+03  0.87762430078E+02  0.20279058891E+03  0.46999998093E+01 0.  1.
       -5    1    3    3    0  502  0.13128354801E+03  0.12713897452E+03  0.11783651647E+04  0.11924622594E+04  0.46999998093E+01 0. -1.
</event>
<event>
 5   0  0.5935451E-02  0.6028904E+03  0.7818609E-02  0.9899427E-01
        2   -1    0    0  501    0  0.00000000000E+00  0.00000000000E+00  0.18774170246E+04  0.18774170246E+04  0.25500000920E-02 0. -1.
       -2   -1    0    0    0  501  0.00000000000E+00  0.00000000000E+00 -0.48401191407E+02  0.48401191474E+02  0.25500000920E-02 0.  1.
    10030    2    1    2    0    0  0.00000000000E+00  0.00000000000E+00  0.18290158332E+04  0.19258182161E+04  0.60289044054E+03 0.  0.
        3    1    3    3  502    0 -0.15800099460E+02  0.66268356643E+02  0.18525044458E+04  0.18537566912E+04  0.10100000352E+00 0. -1.
       -3    1    3    3    0  502  0.15800099460E+02 -0.66268356643E+02 -0.23488612659E+02  0.72061524830E+02  0.10100000352E+00 0.  1.
</event>
<event>
 5   0  0.3640827E-02  0.5995679E+03  0.7818609E-02  0.9906303E-01
       -1   -1    0    0    0  501  0.00000000000E+00  0.00000000000E+00  0.36903564780E+03  0.36903564783E+03  0.50400001928E-02 0. -1.
        1   -1    0    0  501    0  0.00000000000E+00  0.00000000000E+00 -0.24352773251E+03  0.24352773256E+03  0.50400001928E-02 0.  1.
    10030    2    1    2    0    0  0.00000000000E+00  0.00000000000E+00  0.12550791528E+03  0.61256338039E+03  0.59956789290E+03 0.  0.
        3    1    3    3  502    0  0.26964309941E+03  0.11854014545E+03  0.57665076036E+01  0.29460554977E+03  0.10100000352E+00 0. -1.
       -3    1    3    3    0  502 -0.26964309941E+03 -0.11854014545E+03  0.11974140768E+03  0.31795783063E+03  0.10100000352E+00 0.  1.
</event>
<event>
 5   0  0.5999117E-02  0.5963314E+03  0.7818609E-02  0.9913047E-01
       -2   -1    0    0    0  501  0.00000000000E+00  0.00000000000E+00  0.72980382988E+03  0.72980382988E+03  0.25500000920E-02 0.  1.
        2   -1    0    0  501    0  0.00000000000E+00  0.00000000000E+00 -0.12181737056E+03  0.12181737059E+03  0.25500000920E-02 0. -1.
    10030    2    1    2    0    0  0.00000000000E+00  0.00000000000E+00  0.60798645931E+03  0.85162120047E+03  0.59633139645E+03 0.  0.
        5    1    3    3  502    0  0.27202856125E+03 -0.30348539310E+02  0.47272753583E+03  0.54627281198E+03  0.46999998093E+01 0.  1.
       -5    1    3    3    0  502 -0.27202856125E+03  0.30348539310E+02  0.13525892348E+03  0.30534838849E+03  0.46999998093E+01 0. -1.
</event>
<event>
 5   0  0.5755078E-02  0.6031402E+03  0.7818609E-02  0.9898913E-01
        2   -1    0    0  501    0  0.00000000000E+00  0.00000000000E+00  0.96835490025E+03  0.96835490025E+03  0.25500000920E-02 0.  1.
       -2   -1    0    0    0  501  0.00000000000E+00  0.00000000000E+00 -0.93916511124E+02  0.93916511159E+02  0.25500000920E-02 0. -1.
    10030    2    1    2    0    0  0.00000000000E+00  0.00000000000E+00  0.87443838912E+03  0.10622714114E+04  0.60314016209E+03 0.  0.
        2    1    3    3  502    0 -0.16095292835E+02  0.51243369555E+02  0.95986266787E+03  0.96136428192E+03  0.25500000920E-02 0.  1.
       -2    1    3    3    0  502  0.16095292835E+02 -0.51243369555E+02 -0.85424278750E+02  0.10090712949E+03  0.25500000920E-02 0. -1.
</event>
<event>
 5   0  0.5999117E-02  0.6062068E+03  0.7818609E-02  0.9892612E-01
       -2   -1    0    0    0  501  0.00000000000E+00  0.00000000000E+00  0.24326063173E+03  0.24326063175E+03  0.25500000920E-02 0.  1.
        2   -1    0    0  501    0  0.00000000000E+00  0.00000000000E+00 -0.37766761889E+03  0.37766761890E+03  0.25500000920E-02 0. -1.
    10030    2    1    2    0    0  0.00000000000E+00  0.00000000000E+00 -0.13440698716E+03  0.62092825065E+03  0.60620677516E+03 0.  0.
        5    1    3    3  502    0 -0.59422201373E+02  0.27692621234E+03 -0.17766701006E+03  0.33437521074E+03  0.46999998093E+01 0. -1.
       -5    1    3    3    0  502  0.59422201373E+02 -0.27692621234E+03  0.43260022907E+02  0.28655303990E+03  0.46999998093E+01 0.  1.
</event>
<event>
 5   0  0.3651984E-02  0.5942479E+03  0.7818609E-02  0.9917412E-01
        1   -1    0    0  501    0  0.00000000000E+00  0.00000000000E+00  0.35579214283E+03  0.35579214286E+03  0.50400001928E-02 0. -1.
       -1   -1    0    0    0  501  0.00000000000E+00  0.00000000000E+00 -0.24812983895E+03  0.24812983900E+03  0.50400001928E-02 0.  1.
    10030    2    1    2    0    0  0.00000000000E+00  0.00000000000E+00  0.10766230388E+03  0.60392198187E+03  0.59424791839E+03 0.  0.
        1    1    3    3  502    0  0.18275600987E+03 -0.12658978520E+03 -0.14650204021E+03  0.26624721721E+03  0.50400001928E-02 0.  1.
       -1    1    3    3    0  502 -0.18275600987E+03  0.12658978520E+03  0.25416434409E+03  0.33767476466E+03  0.50400001928E-02 0. -1.
</event>
<event>
 5   0  0.2388000E-02  0.6027998E+03  0.7818609E-02  0.9899614E-01
        3   -1    0    0  501    0  0.00000000000E+00  0.00000000000E+00  0.19485887424E+04  0.19485887451E+04  0.10100000352E+00 0.  1.
       -3   -1    0    0    0  501  0.00000000000E+00  0.00000000000E+00 -0.46619272100E+02  0.46619381508E+02  0.10100000352E+00 0. -1.
    10030    2    1    2    0    0  0.00000000000E+00  0.00000000000E+00  0.19019694703E+04  0.19952081266E+04  0.60279980276E+03 0.  0.
        3    1    3    3  502    0  0.28847725395E+03 -0.75985527678E+02  0.80866034942E+03  0.86193068016E+03  0.10100000352E+00 0. -1.
       -3    1    3    3    0  502 -0.28847725395E+03  0.75985527678E+02  0.10933091209E+04  0.11332774464E+04  0.10100000352E+00 0.  1.
</event>
<event>
 5   0  0.5755078E-02  0.5936233E+03  0.7818609E-02  0.9918725E-01
       -2   -1    0    0    0  501  0.00000000000E+00  0.00000000000E+00  0.94797820336E+02  0.94797820370E+02  0.25500000920E-02 0. -1.
        2   -1    0    0  501    0  0.00000000000E+00  0.00000000000E+00 -0.92931627451E+03  0.92931627451E+03  0.25500000920E-02 0.  1.
    10030    2    1    2    0    0  0.00000000000E+00  0.00000000000E+00 -0.83451845417E+03  0.10241140949E+04  0.59362330563E+03 0.  0.
        2    1    3    3  502    0 -0.12207888652E+03  0.78155639598E+02  0.29580780359E+02  0.14794114069E+03  0.25500000920E-02 0. -1.
       -2    1    3    3    0  502  0.12207888652E+03 -0.78155639598E+02 -0.86409923453E+03  0.87617295419E+03  0.25500000920E-02 0.  1.
</event>
<event>
 5   0  0.3703280E-02  0.6074018E+03  0.7818609E-02  0.9890168E-01
        1   -1    0    0  501    0  0.00000000000E+00  0.00000000000E+00  0.11304517031E+04  0.11304517031E+04  0.50400001928E-02 0. -1.
       -1   -1    0    0    0  501  0.00000000000E+00  0.00000000000E+00 -0.81590592047E+02  0.81590592203E+02  0.50400001928E-02 0.  1.
    10030    2    1    2    0    0  0.00000000000E+00  0.00000000000E+00  0.10488611110E+04  0.12120422953E+04  0.60740175777E+03 0.  0.
        5    1    3    3  502    0 -0.20021541456E+03 -0.81813117474E+02  0.99101337420E+02  0.23795538131E+03  0.46999998093E+01 0.  1.
       -5    1    3    3    0  502  0.20021541456E+03  0.81813117474E+02  0.94975977361E+03  0.97408691398E+03  0.46999998093E+01 0. -1.
</event>
<event>
 5   0  0.3640827E-02  0.6032671E+03  0.7818609E-02  0.9898651E-01
       -1   -1    0    0    0  501  0.00000000000E+00  0.00000000000E+00  0.64794075768E+02  0.64794075964E+02  0.50400001928E-02 0. -1.
        1   -1    0    0  501    0  0.00000000000E+00  0.00000000000E+00 -0.14041839765E+04  0.14041839765E+04  0.50400001928E-02 0.  1.
    10030    2    1    2    0    0  0.00000000000E+00  0.00000000000E+00 -0.13393899007E+04  0.14689780525E+04  0.60326711535E+03 0.  0.
        3    1    3    3  502    0  0.18578631010E+03  0.23160002181E+03 -0.79918011142E+03  0.85255145523E+03  0.10100000352E+00 0.  1.
       -3    1    3    3    0  502 -0.18578631010E+03 -0.23160002181E+03 -0.54020978932E+03  0.61642659725E+03  0.10100000352E+00 0. -1.
</event>
<event>
 5   0  0.6007360E-02  0.5987974E+03  0.7818609E-02  0.9907904E-01
       -2   -1    0    0    0  501  0.00000000000E+00  0.00000000000E+00  0.10016730581E+03  0.10016730584E+03  0.25500000920E-02 0. -1.
        2   -1    0    0  501    0  0.00000000000E+00  0.00000000000E+00 -0.89489867909E+03  0.89489867910E+03  0.25500000920E-02 0.  1.
    10030    2    1    2    0    0  0.00000000000E+00  0.00000000000E+00 -0.79473137328E+03  0.99506598494E+03  0.59879742710E+03 0.  0.
        4    1    3    3  502    0 -0.22765958715E+03 -0.10533531852E+03 -0.66897073495E+03  0.71445634861E+03  0.12699999809E+01 0.  1.
       -4    1    3    3    0  502  0.22765958715E+03  0.10533531852E+03 -0.12576063834E+03  0.28060963633E+03  0.12699999809E+01 0. -1.
</event>
<event>
 5   0  0.3640827E-02  0.5945487E+03  0.7818609E-02  0.9916781E-01
       -1   -1    0    0    0  501  0.00000000000E+00  0.00000000000E+00  0.71465883647E+03  0.71465883649E+03  0.50400001928E-02 0. -1.
        1   -1    0    0  501    0  0.00000000000E+00  0.00000000000E+00 -0.12365627251E+03  0.12365627261E+03  0.50400001928E-02 0.  1.
    10030    2    1    2    0    0  0.00000000000E+00  0.00000000000E+00  0.59100256396E+03  0.83831510910E+03  0.59454872932E+03 0.  0.
        3    1    3    3  502    0 -0.84248976232E+02  0.24208602807E+03  0.83210441807E+02  0.26949494023E+03  0.10100000352E+00 0.  1.
       -3    1    3    3    0  502  0.84248976232E+02 -0.24208602807E+03  0.50779212216E+03  0.56882016887E+03  0.10100000352E+00 0. -1.
</event>
<event>
 5   0  0.3478183E-02  0.5977916E+03  0.7818609E-02  0.9909998E-01
       -1   -1    0    0    0  501  0.00000000000E+00  0.00000000000E+00  0.16230640689E+03  0.16230640697E+03  0.50400001928E-02 0. -1.
        1   -1    0    0  501    0  0.00000000000E+00  0.00000000000E+00 -0.55043233936E+03  0.55043233938E+03  0.50400001928E-02 0.  1.
    10030    2    1    2    0    0  0.00000000000E+00  0.00000000000E+00 -0.38812593247E+03  0.71273874635E+03  0.59779158667E+03 0.  0.
        4    1    3    3  502    0 -0.20067546436E+03  0.21751712406E+03 -0.24397892965E+03  0.38355139456E+03  0.12699999809E+01 0. -1.
       -4    1    3    3    0  502  0.20067546436E+03 -0.21751712406E+03 -0.14414700282E+03  0.32918735179E+03  0.12699999809E+01 0.  1.
</event>
<event>
 5   0  0.3640827E-02  0.6012374E+03  0.7818609E-02  0.9902842E-01
        1   -1    0    0  501    0  0.00000000000E+00  0.00000000000E+00  0.11867267546E+04  0.11867267546E+04  0.50400001928E-02 0.  1.
       -1   -1    0    0    0  501  0.00000000000E+00  0.00000000000E+00 -0.76151979405E+02  0.76151979572E+02  0.50400001928E-02 0. -1.
    10030    2    1    2    0    0  0.00000000000E+00  0.00000000000E+00  0.11105747752E+04  0.12628787342E+04  0.60123736241E+03 0.  0.
        3    1    3    3  502    0 -0.76456852527E+02 -0.25218869067E+03  0.85914285293E+03  0.89864967476E+03  0.10100000352E+00 0.  1.
       -3    1    3    3    0  502  0.76456852527E+02  0.25218869067E+03  0.25143192228E+03  0.36422905944E+03  0.10100000352E+00 0. -1.
</event>
<event>
 5   0  0.5999117E-02  0.6015541E+03  0.7818609E-02  0.9902187E-01
       -2   -1    0    0    0  501  0.00000000000E+00  0.00000000000E+00  0.10309908195E+04  0.10309908195E+04  0.25500000920E-02 0.  1.
        2   -1    0    0  501    0  0.00000000000E+00  0.00000000000E+00 -0.87747475271E+02  0.87747475309E+02  0.25500000920E-02 0. -1.
    10030    2    1    2    0    0  0.00000000000E+00  0.00000000000E+00  0.94324334423E+03  0.11187382948E+04  0.60155412545E+03 0.  0.
        5    1    3    3  502    0 -0.38204283016E+02 -0.95214315019E+02 -0.54129140155E+02  0.11609214804E+03  0.46999998093E+01 0. -1.
       -5    1    3    3    0  502  0.38204283016E+02  0.95214315019E+02  0.99737248439E+03  0.10026461468E+04  0.46999998093E+01 0.  1.
</event>
<event>
 5   0  0.3478183E-02  0.6024122E+03  0.7818609E-02  0.9900414E-01
       -1   -1    0    0    0  501  0.00000000000E+00  0.00000000000E+00  0.46460584126E+02  0.46460584399E+02  0.50400001928E-02 0.  1.
        1   -1    0    0  501    0  0.00000000000E+00  0.00000000000E+00 -0.19527328861E+04  0.19527328861E+04  0.50400001928E-02 0. -1.
    10030    2    1    2    0    0  0.00000000000E+00  0.00000000000E+00 -0.19062723019E+04  0.19991934705E+04  0.60241218715E+03 0.  0.
        4    1    3    3  502    0 -0.18196237928E+03  0.43034812527E+02 -0.16947717395E+03  0.25236170064E+03  0.12699999809E+01 0.  1.
       -4    1    3    3    0  502  0.18196237928E+03 -0.43034812527E+02 -0.17367951280E+04  0.17468317698E+04  0.12699999809E+01 0. -1.
</event>
<event>
 5   0  0.3703280E-02  0.5972959E+03  0.7818609E-02  0.9911032E-01
       -1   -1    0    0    0  501  0.00000000000E+00  0.00000000000E+00  0.14768615861E+03  0.14768615869E+03  0.50400001928E-02 0. -1.
        1   -1    0    0  501    0  0.00000000000E+00  0.00000000000E+00 -0.60391983304E+03  0.60391983306E+03  0.50400001928E-02 0.  1.
    10030    2    1    2    0    0  0.00000000000E+00  0.00000000000E+00 -0.45623367443E+03  0.75160599176E+03  0.59729590754E+03 0.  0.
        5    1    3    3  502    0 -0.29022901689E+03  0.49645380096E+02 -0.29066778985E+03  0.41377215960E+03  0.46999998093E+01 0.  1.
       -5    1    3    3    0  502  0.29022901689E+03 -0.49645380096E+02 -0.16556588459E+03  0.33783383215E+03  0.46999998093E+01 0. -1.
</event>
<event>
 5   0  0.5999117E-02  0.6017901E+03  0.7818609E-02  0.9901699E-01
       -2   -1    0    0    0  501  0.00000000000E+00  0.00000000000E+00  0.35422253738E+03  0.35422253739E+03  0.25500000920E-02 0. -1.
        2   -1    0    0  501    0  0.00000000000E+00  0.00000000000E+00 -0.25559592620E+03  0.25559592621E+03  0.25500000920E-02 0.  1.
    10030    2    1    2    0    0  0.00000000000E+00  0.00000000000E+00  0.98626611178E+02  0.60981846360E+03  0.60179012132E+03 0.  0.
        5    1    3    3  502    0  0.26882078154E+03  0.13475339965E+03  0.59067531581E+02  0.30648679351E+03  0.46999998093E+01 0.  1.
       -5    1    3    3    0  502 -0.26882078154E+03 -0.13475339965E+03  0.39559079598E+02  0.30333167010E+03  0.46999998093E+01 0. -1.
</event>
<event>
 5   0  0.3703280E-02  0.6008133E+03  0.7818609E-02  0.9903720E-01
        1   -1    0    0  501    0  0.00000000000E+00  0.00000000000E+00  0.37383169521E+03  0.37383169524E+03  0.50400001928E-02 0.  1.
       -1   -1    0    0    0  501  0.00000000000E+00  0.00000000000E+00 -0.24140315248E+03  0.24140315254E+03  0.50400001928E-02 0. -1.
    10030    2    1    2    0    0  0.00000000000E+00  0.00000000000E+00  0.13242854273E+03  0.61523484778E+03  0.60081328131E+03 0.  0.
        5    1    3    3  502    0 -0.16731927122E+02 -0.80222520048E+02 -0.22969693462E+03  0.24392290150E+03  0.46999998093E+01 0. -1.
       -5    1    3    3    0  502  0.16731927122E+02  0.80222520048E+02  0.36212547734E+03  0.37131194628E+03  0.46999998093E+01 0.  1.
</event>
<event>
 5   0  0.6007360E-02  0.5961543E+03  0.7818609E-02  0.9913417E-01
        2   -1    0    0  501    0  0.00000000000E+00  0.00000000000E+00  0.41519000921E+03  0.41519000921E+03  0.25500000920E-02 0. -1.
       -2   -1    0    0    0  501  0.00000000000E+00  0.00000000000E+00 -0.21399836229E+03  0.21399836231E+03  0.25500000920E-02 0.  1.
    10030    2    1    2    0    0  0.00000000000E+00  0.00000000000E+00  0.20119164691E+03  0.62918837152E+03  0.59615428211E+03 0.  0.
        4    1    3    3  502    0 -0.16007888398E+03 -0.20330752944E+03  0.25674390466E+03  0.36452468518E+03  0.12699999809E+01 0. -1.
       -4    1    3    3    0  502  0.16007888398E+03  0.20330752944E+03 -0.55552257752E+02  0.26466368634E+03  0.12699999809E+01 0.  1.
</event>
<event>
 5   0  0.3767635E-02  0.6010629E+03  0.7818609E-02  0.9903203E-01
       -1   -1    0    0    0  501  0.00000000000E+00  0.00000000000E+00  0.88353484927E+02  0.88353485071E+02  0.50400001928E-02 0. -1.
        1   -1    0    0  501    0  0.00000000000E+00  0.00000000000E+00 -0.10222478637E+04  0.10222478637E+04  0.50400001928E-02 0.  1.
    10030    2    1    2    0    0  0.00000000000E+00  0.00000000000E+00 -0.93389437881E+03  0.11106013488E+04  0.60106292951E+03 0.  0.
        2    1    3    3  502    0 -0.12350324969E+03 -0.20316774678E+02 -0.97179777738E+03  0.97982485381E+03  0.25500000920E-02 0.  1.
       -2    1    3    3    0  502  0.12350324969E+03  0.20316774678E+02  0.37903398571E+02  0.13077649501E+03  0.25500000920E-02 0. -1.
</event>
<event>
 5   0  0.3767635E-02  0.6017008E+03  0.7818609E-02  0.9901884E-01
       -1   -1    0    0    0  501  0.00000000000E+00  0.00000000000E+00  0.19445144856E+03  0.19445144862E+03  0.50400001928E-02 0.  1.
        1   -1    0    0  501    0  0.00000000000E+00  0.00000000000E+00 -0.46546826355E+03  0.46546826358E+03  0.50400001928E-02 0. -1.
    10030    2    1    2    0    0  0.00000000000E+00  0.00000000000E+00 -0.27101681499E+03  0.65991971220E+03  0.60170084971E+03 0.  0.
        2    1    3    3  502    0  0.20809950552E+03 -0.10155335968E+03 -0.34616713430E+03  0.41647349728E+03  0.25500000920E-02 0. -1.
       -2    1    3    3    0  502 -0.20809950552E+03  0.10155335968E+03  0.75150319313E+02  0.24344621492E+03  0.25500000920E-02 0.  1.
</event>
<event>
 5   0  0.3651984E-02  0.5990773E+03  0.7818609E-02  0.9907322E-01
        1   -1    0    0  501    0  0.00000000000E+00  0.00000000000E+00  0.61189267858E+03  0.61189267860E+03  0.50400001928E-02 0. -1.
       -1   -1    0    0    0  501  0.00000000000E+00  0.00000000000E+00 -0.14663256764E+03  0.14663256773E+03  0.50400001928E-02 0.  1.
    10030    2    1    2    0    0  0.00000000000E+00  0.00000000000E+00  0.46526011094E+03  0.75852524633E+03  0.59907727255E+03 0.  0.
        1    1    3    3  502    0 -0.20048734244E+03  0.15424617750E+03  0.43575373841E+03  0.50385352863E+03  0.50400001928E-02 0. -1.
       -1    1    3    3    0  502  0.20048734244E+03 -0.15424617750E+03  0.29506372524E+02  0.25467171770E+03  0.50400001928E-02 0.  1.
</event>
<event>
 5   0  0.5935451E-02  0.6024286E+03  0.7818609E-02  0.9900380E-01
        2   -1    0    0  501    0  0.00000000000E+00  0.00000000000E+00  0.94292436488E+03  0.94292436488E+03  0.25500000920E-02 0. -1.
       -2   -1    0    0    0  501  0.00000000000E+00  0.00000000000E+00 -0.96221989743E+02  0.96221989777E+02  0.25500000920E-02 0.  1.
    10030    2    1    2    0    0  0.00000000000E+00  0.00000000000E+00  0.84670237514E+03  0.10391463547E+04  0.60242861348E+03 0.  0.
        3    1    3    3  502    0 -0.28980271178E+03  0.24857894078E+02  0.28833740142E+03  0.40956317451E+03  0.10100000352E+00 0.  1.
       -3    1    3    3    0  502  0.28980271178E+03 -0.24857894078E+02  0.55836497372E+03  0.62958318016E+03  0.10100000352E+00 0. -1.
</event>
<event>
 5   0  0.3767635E-02  0.5989229E+03  0.7818609E-02  0.9907643E-01
       -1   -1    0    0    0  501  0.00000000000E+00  0.00000000000E+00  0.98122526225E+02  0.98122526354E+02  0.50400001928E-02 0. -1.
        1   -1    0    0  501    0  0.00000000000E+00  0.00000000000E+00 -0.91393043549E+03  0.91393043550E+03  0.50400001928E-02 0.  1.
    10030    2    1    2    0    0  0.00000000000E+00  0.00000000000E+00 -0.81580790926E+03  0.10120529619E+04  0.59892291055E+03 0.  0.
        2    1    3    3  502    0  0.13606098026E+03 -0.17670624316E+03 -0.74560584962E+03  0.77824531462E+03  0.25500000920E-02 0.  1.
       -2    1    3    3    0  502 -0.13606098026E+03  0.17670624316E+03 -0.70202059637E+02  0.23380764724E+03  0.25500000920E-02 0. -1.
</event>
<event>
 5   0  0.2388000E-02  0.5948026E+03  0.7818609E-02  0.9916248E-01
        3   -1    0    0  501    0  0.00000000000E+00  0.00000000000E+00  0.31345380415E+03  0.31345382042E+03  0.10100000352E+00 0. -1.
       -3   -1    0    0    0  501  0.00000000000E+00  0.00000000000E+00 -0.28217081051E+03  0.28217082859E+03  0.10100000352E+00 0.  1.
    10030    2    1    2    0    0  0.00000000000E+00  0.00000000000E+00  0.31282993636E+02  0.59562464901E+03  0.59480256961E+03 0.  0.
        4    1    3    3  502    0  0.17060566385E+03  0.13689774613E+03  0.21741098540E+03  0.30840952467E+03  0.12699999809E+01 0. -1.
       -4    1    3    3    0  502 -0.17060566385E+03 -0.13689774613E+03 -0.18612799177E+03  0.28721512434E+03  0.12699999809E+01 0.  1.
</event>
<event>
 5   0  0.3767635E-02  0.5971163E+03  0.7818609E-02  0.9911407E-01
       -1   -1    0    0    0  501  0.00000000000E+00  0.00000000000E+00  0.48603501786E+02  0.48603502048E+02  0.50400001928E-02 0.  1.
        1   -1    0    0  501    0  0.00000000000E+00  0.00000000000E+00 -0.18339621253E+04  0.18339621253E+04  0.50400001928E-02 0. -1.
    10030    2    1    2    0    0  0.00000000000E+00  0.00000000000E+00 -0.17853586236E+04  0.18825656274E+04  0.59711634273E+03 0.  0.
        2    1    3    3  502    0  0.24331048180E+03  0.14483666554E+03 -0.11911000283E+04  0.12242944612E+04  0.25500000920E-02 0. -1.
       -2    1    3    3    0  502 -0.24331048180E+03 -0.14483666554E+03 -0.59425859524E+03  0.65827116621E+03  0.25500000920E-02 0.  1.
</event>
<event>
 5   0  0.5999117E-02  0.6073643E+03  0.7818609E-02  0.9890244E-01
       -2   -1    0    0    0  501  0.00000000000E+00  0.00000000000E+00  0.71514606258E+02  0.71514606304E+02  0.25500000920E-02 0.  1.
        2   -1    0    0  501    0  0.00000000000E+00  0.00000000000E+00 -0.12895664779E+04  0.12895664779E+04  0.25500000920E-02 0. -1.
    10030    2    1    2    0    0  0.00000000000E+00  0.00000000000E+00 -0.12180518716E+04  0.13610810842E+04  0.60736426942E+03 0.  0.
        5    1    3    3  502    0 -0.23723750329E+03  0.18560886968E+03 -0.52315101824E+03  0.60368979066E+03  0.46999998093E+01 0.  1.
       -5    1    3    3    0  502  0.23723750329E+03 -0.18560886968E+03 -0.69490085339E+03  0.75739129353E+03  0.46999998093E+01 0. -1.
</event>
<event>
 5   0  0.6007360E-02  0.5942429E+03  0.7818609E-02  0.9917423E-01
        2   -1    0    0  501    0  0.00000000000E+00  0.00000000000E+00  0.14415977027E+04  0.14415977027E+04  0.25500000920E-02 0. -1.
       -2   -1    0    0    0  501  0.00000000000E+00  0.00000000000E+00 -0.61238419665E+02  0.61238419718E+02  0.25500000920E-02 0.  1.
    10030    2    1    2    0    0  0.00000000000E+00  0.00000000000E+00  0.13803592830E+04  0.15028361224E+04  0.59424293062E+03 0.  0.
        4    1    3    3  502    0  0.14075746301E+03 -0.19189408529E+02  0.13501385112E+04  0.13575921733E+04  0.12699999809E+01 0. -1.
       -4    1    3    3    0  502 -0.14075746301E+03  0.19189408529E+02  0.30220771831E+02  0.14524394907E+03  0.12699999809E+01 0.  1.
</event>
<event>
 5   0  0.3767635E-02  0.5245281E+03  0.7818609E-02  0.1007568E+00
       -1   -1    0    0    0  501  0.00000000000E+00  0.00000000000E+00  0.98647232547E+02  0.98647232676E+02  0.50400001928E-02 0.  1.
        1   -1    0    0  501    0  0.00000000000E+00  0.00000000000E+00 -0.69725658945E+03  0.69725658947E+03  0.50400001928E-02 0. -1.
    10030    2    1    2    0    0  0.00000000000E+00  0.00000000000E+00 -0.59860935690E+03  0.79590382215E+03  0.52452810404E+03 0.  0.
        2    1    3    3  502    0  0.16011383767E+03  0.91531592253E+00  0.15874733096E+02  0.16090147909E+03  0.25500000920E-02 0.  1.
       -2    1    3    3    0  502 -0.16011383767E+03 -0.91531592253E+00 -0.61448409000E+03  0.63500234305E+03  0.25500000920E-02 0. -1.
</event>
<event>
 5   0  0.3651984E-02  0.5989200E+03  0.7818609E-02  0.9907649E-01
       -1   -1    0    0    0  501  0.00000000000E+00  0.00000000000E+00  0.38750242888E+02  0.38750243216E+02  0.50400001928E-02 0.  1.
        1   -1    0    0  501    0  0.00000000000E+00  0.00000000000E+00 -0.23142124902E+04  0.23142124902E+04  0.50400001928E-02 0. -1.
    10030    2    1    2    0    0  0.00000000000E+00  0.00000000000E+00 -0.22754622473E+04  0.23529627334E+04  0.59892001630E+03 0.  0.
        1    1    3    3  502    0  0.95221268206E+02 -0.14883425812E+03 -0.20876064370E+04  0.20950702524E+04  0.50400001928E-02 0. -1.
       -1    1    3    3    0  502 -0.95221268206E+02  0.14883425812E+03 -0.18785581025E+03  0.25789248104E+03  0.50400001928E-02 0.  1.
</event>
<event>
 5   0  0.3640827E-02  0.5974517E+03  0.7818609E-02  0.9910707E-01
        1   -1    0    0  501    0  0.00000000000E+00  0.00000000000E+00  0.71828414781E+03  0.71828414782E+03  0.50400001928E-02 0. -1.
       -1   -1    0    0    0  501  0.00000000000E+00  0.00000000000E+00 -0.12423655440E+03  0.12423655450E+03  0.50400001928E-02 0.  1.
    10030    2    1    2    0    0  0.00000000000E+00  0.00000000000E+00  0.59404759341E+03  0.84252070232E+03  0.59745174751E+03 0.  0.
        3    1    3    3  502    0  0.53949167032E+02  0.16728905557E+03 -0.43591907657E+02  0.18109777843E+03  0.10100000352E+00 0.  1.
       -3    1    3    3    0  502 -0.53949167032E+02 -0.16728905557E+03  0.63763950107E+03  0.66142292390E+03  0.10100000352E+00 0. -1.
</event>
<event>
 5   0  0.5755078E-02  0.6097432E+03  0.7818609E-02  0.9885396E-01
       -2   -1    0    0    0  501  0.00000000000E+00  0.00000000000E+00  0.46248874710E+02  0.46248874780E+02  0.25500000920E-02 0. -1.
        2   -1    0    0  501    0  0.00000000000E+00  0.00000000000E+00 -0.20097068012E+04  0.20097068012E+04  0.25500000920E-02 0.  1.
    10030    2    1    2    0    0  0.00000000000E+00  0.00000000000E+00 -0.19634579265E+04  0.20559556760E+04  0.60974315290E+03 0.  0.
        2    1    3    3  502    0  0.45873429658E+01 -0.24353926592E+03 -0.15999283861E+04  0.16183643775E+04  0.25500000920E-02 0.  1.
       -2    1    3    3    0  502 -0.45873429658E+01  0.24353926592E+03 -0.36352954047E+03  0.43759129854E+03  0.25500000920E-02 0. -1.
</event>
<event>
 5   0  0.3651984E-02  0.5980666E+03  0.7818609E-02  0.9909425E-01
        1   -1    0    0  501    0  0.00000000000E+00  0.00000000000E+00  0.31578329444E+03  0.31578329449E+03  0.50400001928E-02 0.  1.
       -1   -1    0    0    0  501  0.00000000000E+00  0.00000000000E+00 -0.28317178811E+03  0.28317178816E+03  0.50400001928E-02 0. -1.
    10030    2    1    2    0    0  0.00000000000E+00  0.00000000000E+00  0.32611506334E+02  0.59895508264E+03  0.59806661893E+03 0.  0.
        1    1    3    3  502    0 -0.14636242296E+03  0.26055093430E+03  0.26912611687E+02  0.30005505647E+03  0.50400001928E-02 0.  1.
       -1    1    3    3    0  502  0.14636242296E+03 -0.26055093430E+03  0.56988946470E+01  0.29890002617E+03  0.50400001928E-02 0. -1.
</event>
<event>
 5   0  0.5999117E-02  0.5868100E+03  0.7818609E-02  0.9933155E-01
       -2   -1    0    0    0  501  0.00000000000E+00  0.00000000000E+00  0.14704173515E+03  0.14704173517E+03  0.25500000920E-02 0.  1.
        2   -1    0    0  501    0  0.00000000000E+00  0.00000000000E+00 -0.58545613022E+03  0.58545613023E+03  0.25500000920E-02 0. -1.
    10030    2    1    2    0    0  0.00000000000E+00  0.00000000000E+00 -0.43841439507E+03  0.73249786540E+03  0.58680997010E+03 0.  0.
        5    1    3    3  502    0 -0.27811761770E+03  0.74338969714E+02 -0.28969532161E+03  0.40843746285E+03  0.46999998093E+01 0. -1.
       -5    1    3    3    0  502  0.27811761770E+03 -0.74338969714E+02 -0.14871907346E+03  0.32406040255E+03  0.46999998093E+01 0.  1.
</event>
<event>
 5   0  0.3651984E-02  0.6023533E+03  0.7818609E-02  0.9900536E-01
        1   -1    0    0  501    0  0.00000000000E+00  0.00000000000E+00  0.72052829647E+02  0.72052829823E+02  0.50400001928E-02 0.  1.
       -1   -1    0    0    0  501  0.00000000000E+00  0.00000000000E+00 -0.12589010474E+04  0.12589010474E+04  0.50400001928E-02 0. -1.
    10030    2    1    2    0    0  0.00000000000E+00  0.00000000000E+00 -0.11868482178E+04  0.13309538773E+04  0.60235332766E+03 0.  0.
        1    1    3    3  502    0 -0.46504443387E+02  0.83685745266E+02 -0.12243826377E+04  0.12281200311E+04  0.50400001928E-02 0. -1.
       -1    1    3    3    0  502  0.46504443387E+02 -0.83685745266E+02  0.37534419921E+02  0.10283384618E+03  0.50400001928E-02 0.  1.
</event>
<event>
 5   0  0.5755078E-02  0.6070493E+03  0.7818609E-02  0.9890888E-01
       -2   -1    0    0    0  501  0.00000000000E+00  0.00000000000E+00  0.11618820488E+03  0.11618820491E+03  0.25500000920E-02 0. -1.
        2   -1    0    0  501    0  0.00000000000E+00  0.00000000000E+00 -0.79291370177E+03  0.79291370178E+03  0.25500000920E-02 0.  1.
    10030    2    1    2    0    0  0.00000000000E+00  0.00000000000E+00 -0.67672549689E+03  0.90910190669E+03  0.60704932140E+03 0.  0.
        2    1    3    3  502    0 -0.13912750364E+03 -0.17195291002E+03 -0.27086980973E+02  0.22284068317E+03  0.25500000920E-02 0. -1.
       -2    1    3    3    0  502  0.13912750364E+03  0.17195291002E+03 -0.64963851592E+03  0.68626122352E+03  0.25500000920E-02 0.  1.
</event>
<event>
 5   0  0.3703280E-02  0.5999759E+03  0.7818609E-02  0.9905456E-01
       -1   -1    0    0    0  501  0.00000000000E+00  0.00000000000E+00  0.55382484114E+02  0.55382484343E+02  0.50400001928E-02 0. -1.
        1   -1    0    0  501    0  0.00000000000E+00  0.00000000000E+00 -0.16249322077E+04  0.16249322077E+04  0.50400001928E-02 0.  1.
    10030    2    1    2    0    0  0.00000000000E+00  0.00000000000E+00 -0.15695497236E+04  0.16803146921E+04  0.59997594079E+03 0.  0.
        5    1    3    3  502    0 -0.28926296496E+02 -0.30393154262E+01  0.51320644107E+02  0.59176571183E+02  0.46999998093E+01 0. -1.
       -5    1    3    3    0  502  0.28926296496E+02  0.30393154262E+01 -0.16208703677E+04  0.16211381209E+04  0.46999998093E+01 0.  1.
</event>
<event>
 5   0  0.5999117E-02  0.6662176E+03  0.7818609E-02  0.9776815E-01
       -2   -1    0    0    0  501  0.00000000000E+00  0.00000000000E+00  0.13998207674E+03  0.13998207676E+03  0.25500000920E-02 0. -1.
        2   -1    0    0  501    0  0.00000000000E+00  0.00000000000E+00 -0.79268343988E+03  0.79268343989E+03  0.25500000920E-02 0.  1.
    10030    2    1    2    0    0  0.00000000000E+00  0.00000000000E+00 -0.65270136314E+03  0.93266551665E+03  0.66621760447E+03 0.  0.
        5    1    3    3  502    0  0.15095887175E+03 -0.15363257395E+03  0.29322120824E+02  0.21742452830E+03  0.46999998093E+01 0. -1.
       -5    1    3    3    0  502 -0.15095887175E+03  0.15363257395E+03 -0.68202348397E+03  0.71524098835E+03  0.46999998093E+01 0.  1.
</event>
<event>
 5   0  0.3651984E-02  0.5972406E+03  0.7818609E-02  0.9911148E-01
       -1   -1    0    0    0  501  0.00000000000E+00  0.00000000000E+00  0.47155018054E+03  0.47155018057E+03  0.50400001928E-02 0. -1.
        1   -1    0    0  501    0  0.00000000000E+00  0.00000000000E+00 -0.18910834417E+03  0.18910834423E+03  0.50400001928E-02 0.  1.
    10030    2    1    2    0    0  0.00000000000E+00  0.00000000000E+00  0.28244183638E+03  0.66065852480E+03  0.59724056749E+03 0.  0.
        1    1    3    3  502    0  0.22073674126E+03  0.42239045384E+02  0.35873532700E+03  0.42332006893E+03  0.50400001928E-02 0. -1.
       -1    1    3    3    0  502 -0.22073674126E+03 -0.42239045384E+02 -0.76293490628E+02  0.23733845587E+03  0.50400001928E-02 0.  1.
</event>
<event>
 5   0  0.3767635E-02  0.5774255E+03  0.7818609E-02  0.9953380E-01
        1   -1    0    0  501    0  0.00000000000E+00  0.00000000000E+00  0.32424292625E+03  0.32424292629E+03  0.50400001928E-02 0. -1.
       -1   -1    0    0    0  501  0.00000000000E+00  0.00000000000E+00 -0.25707597464E+03  0.25707597469E+03  0.50400001928E-02 0.  1.
    10030    2    1    2    0    0  0.00000000000E+00  0.00000000000E+00  0.67166951611E+02  0.58131890097E+03  0.57742554952E+03 0.  0.
        2    1    3    3  502    0 -0.26684199952E+03  0.11382738844E+02 -0.76795403328E+02  0.27790601546E+03  0.25500000920E-02 0.  1.
       -2    1    3    3    0  502  0.26684199952E+03 -0.11382738844E+02  0.14396235494E+03  0.30341288551E+03  0.25500000920E-02 0. -1.
</event>
<event>
 5   0  0.5935451E-02  0.5973492E+03  0.7818609E-02  0.9910921E-01
       -2   -1    0    0    0  501  0.00000000000E+00  0.00000000000E+00  0.38268070453E+03  0.38268070454E+03  0.25500000920E-02 0.  1.
        2   -1    0    0  501    0  0.00000000000E+00  0.00000000000E+00 -0.23310953039E+03  0.23310953040E+03  0.25500000920E-02 0. -1.
    10030    2    1    2    0    0  0.00000000000E+00  0.00000000000E+00  0.14957117414E+03  0.61579023494E+03  0.59734920885E+03 0.  0.
        3    1    3    3  502    0 -0.19906684854E+03  0.18756385790E+03  0.19848456707E+03  0.33794074117E+03  0.10100000352E+00 0.  1.
       -3    1    3    3    0  502  0.19906684854E+03 -0.18756385790E+03 -0.48913392933E+02  0.27784949377E+03  0.10100000352E+00 0. -1.
</event>
<event>
 5   0  0.3640827E-02  0.6045989E+03  0.7818609E-02  0.9895910E-01
       -1   -1    0    0    0  501  0.00000000000E+00  0.00000000000E+00  0.80071537800E+02  0.80071537959E+02  0.50400001928E-02 0.  1.
        1   -1    0    0  501    0  0.00000000000E+00  0.00000000000E+00 -0.11412914683E+04  0.11412914683E+04  0.50400001928E-02 0. -1.
    10030    2    1    2    0    0  0.00000000000E+00  0.00000000000E+00 -0.10612199305E+04  0.12213630063E+04  0.60459891846E+03 0.  0.
        3    1    3    3  502    0  0.29339841563E+03  0.31567875457E+02 -0.39805258624E+03  0.49550482608E+03  0.10100000352E+00 0.  1.
       -3    1    3    3    0  502 -0.29339841563E+03 -0.31567875457E+02 -0.66316734427E+03  0.72585818020E+03  0.10100000352E+00 0. -1.
</event>
<event>
 5   0  0.5872632E-02  0.6009701E+03  0.7818609E-02  0.9903395E-01
        2   -1    0    0  501    0  0.00000000000E+00  0.00000000000E+00  0.97893518078E+03  0.97893518079E+03  0.25500000920E-02 0. -1.
       -2   -1    0    0    0  501  0.00000000000E+00  0.00000000000E+00 -0.92234159135E+02  0.92234159171E+02  0.25500000920E-02 0.  1.
    10030    2    1    2    0    0  0.00000000000E+00  0.00000000000E+00  0.88670102165E+03  0.10711693400E+04  0.60097009333E+03 0.  0.
        1    1    3    3  502    0 -0.12325599599E+03  0.24466330820E+03  0.66338196350E+03  0.71772404478E+03  0.50400001928E-02 0. -1.
       -1    1    3    3    0  502  0.12325599599E+03 -0.24466330820E+03  0.22331905815E+03  0.35344529518E+03  0.50400001928E-02 0.  1.
</event>
<event>
 5   0  0.3651984E-02  0.6011822E+03  0.7818609E-02  0.9902956E-01
       -1   -1    0    0    0  501  0.00000000000E+00  0.00000000000E+00  0.63964587141E+02  0.63964587340E+02  0.50400001928E-02 0.  1.
        1   -1    0    0  501    0  0.00000000000E+00  0.00000000000E+00 -0.14125786695E+04  0.14125786695E+04  0.50400001928E-02 0. -1.
    10030    2    1    2    0    0  0.00000000000E+00  0.00000000000E+00 -0.13486140824E+04  0.14765432569E+04  0.60118220717E+03 0.  0.
        1    1    3    3  502    0  0.80057867665E+02 -0.14493116235E+02 -0.13850218765E+04  0.13874094244E+04  0.50400001928E-02 0. -1.
       -1    1    3    3    0  502 -0.80057867665E+02  0.14493116235E+02  0.36407794095E+02  0.89133832463E+02  0.50400001928E-02 0.  1.
</event>
<event>
 5   0  0.5755078E-02  0.6099829E+03  0.7818609E-02  0.9884908E-01
        2   -1    0    0  501    0  0.00000000000E+00  0.00000000000E+00  0.45386430599E+03  0.45386430599E+03  0.25500000920E-02 0.  1.
       -2   -1    0    0    0  501  0.00000000000E+00  0.00000000000E+00 -0.20495065890E+03  0.20495065892E+03  0.25500000920E-02 0. -1.
    10030    2    1    2    0    0  0.00000000000E+00  0.00000000000E+00  0.24891364708E+03  0.65881496491E+03  0.60998291311E+03 0.  0.
        2    1    3    3  502    0  0.26145571677E+03 -0.13789230678E+03  0.20561493491E+03  0.36007066190E+03  0.25500000920E-02 0.  1.
       -2    1    3    3    0  502 -0.26145571677E+03  0.13789230678E+03  0.43298712173E+02  0.29874430301E+03  0.25500000920E-02 0. -1.
</event>
<event>
 5   0  0.3640827E-02  0.6120108E+03  0.7818609E-02  0.9880796E-01
       -1   -1    0    0    0  501  0.00000000000E+00  0.00000000000E+00  0.15626896744E+03  0.15626896752E+03  0.50400001928E-02 0. -1.
        1   -1    0    0  501    0  0.00000000000E+00  0.00000000000E+00 -0.59921879242E+03  0.59921879244E+03  0.50400001928E-02 0.  1.
    10030    2    1    2    0    0  0.00000000000E+00  0.00000000000E+00 -0.44294982498E+03  0.75548775997E+03  0.61201079076E+03 0.  0.
        3    1    3    3  502    0  0.25090817604E+03  0.17512914119E+03 -0.21682928362E+03  0.37502010257E+03  0.10100000352E+00 0. -1.
       -3    1    3    3    0  502 -0.25090817604E+03 -0.17512914119E+03 -0.22612054135E+03  0.38046765739E+03  0.10100000352E+00 0.  1.
</event>
<event>
 5   0  0.6007360E-02  0.5938617E+03  0.7818609E-02  0.9918224E-01
       -2   -1    0    0    0  501  0.00000000000E+00  0.00000000000E+00  0.10593390778E+03  0.10593390781E+03  0.25500000920E-02 0.  1.
        2   -1    0    0  501    0  0.00000000000E+00  0.00000000000E+00 -0.83229187913E+03  0.83229187914E+03  0.25500000920E-02 0. -1.
    10030    2    1    2    0    0  0.00000000000E+00  0.00000000000E+00 -0.72635797135E+03  0.93822578695E+03  0.59386170507E+03 0.  0.
        4    1    3    3  502    0  0.21489004959E+03 -0.64747982460E+02 -0.67032620940E+03  0.70690089444E+03  0.12699999809E+01 0.  1.
       -4    1    3    3    0  502 -0.21489004959E+03  0.64747982460E+02 -0.56031761949E+02  0.23132489251E+03  0.12699999809E+01 0. -1.
</event>
<event>
 5   0  0.5872632E-02  0.6084699E+03  0.7818609E-02  0.9887988E-01
        2   -1    0    0  501    0  0.00000000000E+00  0.00000000000E+00  0.17965592972E+03  0.17965592974E+03  0.25500000920E-02 0.  1.
       -2   -1    0    0    0  501  0.00000000000E+00  0.00000000000E+00 -0.51520088009E+03  0.51520088009E+03  0.25500000920E-02 0. -1.
    10030    2    1    2    0    0  0.00000000000E+00  0.00000000000E+00 -0.33554495037E+03  0.69485680983E+03  0.60846986158E+03 0.  0.
        1    1    3    3  502    0 -0.58983446205E+02 -0.14203745644E+03  0.13199345213E+03  0.20267204392E+03  0.50400001928E-02 0.  1.
       -1    1    3    3    0  502  0.58983446205E+02  0.14203745644E+03 -0.46753840250E+03  0.49218476591E+03  0.50400001928E-02 0. -1.
</event>
<event>
 5   0  0.3640827E-02  0.5977591E+03  0.7818609E-02  0.9910066E-01
        1   -1    0    0  501    0  0.00000000000E+00  0.00000000000E+00  0.95566290209E+03  0.95566290210E+03  0.50400001928E-02 0. -1.
       -1   -1    0    0    0  501  0.00000000000E+00  0.00000000000E+00 -0.93473321130E+02  0.93473321266E+02  0.50400001928E-02 0.  1.
    10030    2    1    2    0    0  0.00000000000E+00  0.00000000000E+00  0.86218958096E+03  0.10491362234E+04  0.59775910003E+03 0.  0.
        3    1    3    3  502    0  0.19895481308E+03  0.17477766146E+03  0.67428265440E+03  0.72442208472E+03  0.10100000352E+00 0. -1.
       -3    1    3    3    0  502 -0.19895481308E+03 -0.17477766146E+03  0.18790692656E+03  0.32471413865E+03  0.10100000352E+00 0.  1.
</event>
<event>
 5   0  0.3703280E-02  0.6028596E+03  0.7818609E-02  0.9899491E-01
       -1   -1    0    0    0  501  0.00000000000E+00  0.00000000000E+00  0.10514599181E+03  0.10514599193E+03  0.50400001928E-02 0.  1.
        1   -1    0    0  501    0  0.00000000000E+00  0.00000000000E+00 -0.86413108328E+03  0.86413108329E+03  0.50400001928E-02 0. -1.
    10030    2    1    2    0    0  0.00000000000E+00  0.00000000000E+00 -0.75898509146E+03  0.96927707522E+03  0.60285958522E+03 0.  0.
        5    1    3    3  502    0  0.19283955743E+01 -0.91459459470E+02  0.82226583714E+02  0.12309286130E+03  0.46999998093E+01 0.  1.
       -5    1    3    3    0  502 -0.19283955743E+01  0.91459459470E+02 -0.84121167518E+03  0.84618421392E+03  0.46999998093E+01 0. -1.
</event>
<event>
 5   0  0.3640827E-02  0.5950601E+03  0.7818609E-02  0.9915708E-01
        1   -1    0    0  501    0  0.00000000000E+00  0.00000000000E+00  0.19418805461E+03  0.19418805467E+03  0.50400001928E-02 0.  1.
       -1   -1    0    0    0  501  0.00000000000E+00  0.00000000000E+00 -0.45586799788E+03  0.45586799791E+03  0.50400001928E-02 0. -1.
    10030    2    1    2    0    0  0.00000000000E+00  0.00000000000E+00 -0.26167994328E+03  0.65005605258E+03  0.59506006317E+03 0.  0.
        3    1    3    3  502    0 -0.31524347138E+02 -0.24537260858E+03  0.49732306757E+02  0.25233868915E+03  0.10100000352E+00 0.  1.
       -3    1    3    3    0  502  0.31524347138E+02  0.24537260858E+03 -0.31141225004E+03  0.39771736344E+03  0.10100000352E+00 0. -1.
</event>
<event>
 5   0  0.3703280E-02  0.5825939E+03  0.7818609E-02  0.9942191E-01
       -1   -1    0    0    0  501  0.00000000000E+00  0.00000000000E+00  0.47924038760E+03  0.47924038762E+03  0.50400001928E-02 0. -1.
        1   -1    0    0  501    0  0.00000000000E+00  0.00000000000E+00 -0.17705918968E+03  0.17705918975E+03  0.50400001928E-02 0.  1.
    10030    2    1    2    0    0  0.00000000000E+00  0.00000000000E+00  0.30218119792E+03  0.65629957737E+03  0.58259390563E+03 0.  0.
        5    1    3    3  502    0  0.63922122723E+02  0.18780142319E+03  0.39132172967E+03  0.43875984141E+03  0.46999998093E+01 0. -1.
       -5    1    3    3    0  502 -0.63922122723E+02 -0.18780142319E+03 -0.89140531744E+02  0.21753973596E+03  0.46999998093E+01 0.  1.
</event>
<event>
 5   0  0.5755078E-02  0.6070015E+03  0.7818609E-02  0.9890986E-01
       -2   -1    0    0    0  501  0.00000000000E+00  0.00000000000E+00  0.20999815833E+03  0.20999815835E+03  0.25500000920E-02 0.  1.
        2   -1    0    0  501    0  0.00000000000E+00  0.00000000000E+00 -0.43863573701E+03  0.43863573702E+03  0.25500000920E-02 0. -1.
    10030    2    1    2    0    0  0.00000000000E+00  0.00000000000E+00 -0.22863757868E+03  0.64863389537E+03  0.60700147268E+03 0.  0.
        2    1    3    3  502    0  0.22491513138E+01  0.19956244118E+03 -0.35865506220E+03  0.41044327289E+03  0.25500000920E-02 0. -1.
       -2    1    3    3    0  502 -0.22491513138E+01 -0.19956244118E+03  0.13001748352E+03  0.23819062248E+03  0.25500000920E-02 0.  1.
</event>
<event>
 5   0  0.3651984E-02  0.6040174E+03  0.7818609E-02  0.9897106E-01
       -1   -1    0    0    0  501  0.00000000000E+00  0.00000000000E+00  0.93412860060E+02  0.93412860196E+02  0.50400001928E-02 0.  1.
        1   -1    0    0  501    0  0.00000000000E+00  0.00000000000E+00 -0.97641014573E+03  0.97641014574E+03  0.50400001928E-02 0. -1.
    10030    2    1    2    0    0  0.00000000000E+00  0.00000000000E+00 -0.88299728567E+03  0.10698230059E+04  0.60401743148E+03 0.  0.
        1    1    3    3  502    0 -0.22693079490E+03  0.86659417120E+02 -0.75933435816E+03  0.79724281605E+03  0.50400001928E-02 0. -1.
       -1    1    3    3    0  502  0.22693079490E+03 -0.86659417120E+02 -0.12366292751E+03  0.27258018988E+03  0.50400001928E-02 0.  1.
</event>
<event>
 5   0  0.5872632E-02  0.5957196E+03  0.7818609E-02  0.9914326E-01
       -2   -1    0    0    0  501  0.00000000000E+00  0.00000000000E+00  0.57541854988E+02  0.57541855044E+02  0.25500000920E-02 0.  1.
        2   -1    0    0  501    0  0.00000000000E+00  0.00000000000E+00 -0.15418422818E+04  0.15418422818E+04  0.25500000920E-02 0. -1.
    10030    2    1    2    0    0  0.00000000000E+00  0.00000000000E+00 -0.14843004268E+04  0.15993841368E+04  0.59571961538E+03 0.  0.
        1    1    3    3  502    0 -0.15354622025E+03 -0.87207893482E+02 -0.98142144535E+02  0.20202361000E+03  0.50400001928E-02 0.  1.
       -1    1    3    3    0  502  0.15354622025E+03  0.87207893482E+02 -0.13861582822E+04  0.13973605268E+04  0.50400001928E-02 0. -1.
</event>
<event>
 5   0  0.6007360E-02  0.5304113E+03  0.7818609E-02  0.1006132E+00
       -2   -1    0    0    0  501  0.00000000000E+00  0.00000000000E+00  0.23464850316E+03  0.23464850318E+03  0.25500000920E-02 0.  1.
        2   -1    0    0  501    0  0.00000000000E+00  0.00000000000E+00 -0.29974214353E+03  0.29974214354E+03  0.25500000920E-02 0. -1.
    10030    2    1    2    0    0  0.00000000000E+00  0.00000000000E+00 -0.65093640367E+02  0.53439064672E+03  0.53041133216E+03 0.  0.
        4    1    3    3  502    0  0.16250610307E+03  0.75028042339E+02 -0.22970601879E+03  0.29121110666E+03  0.12699999809E+01 0. -1.
       -4    1    3    3    0  502 -0.16250610307E+03 -0.75028042339E+02  0.16461237842E+03  0.24317954006E+03  0.12699999809E+01 0.  1.
</event>
<event>
 5   0  0.3640827E-02  0.6255211E+03  0.7818609E-02  0.9853828E-01
        1   -1    0    0  501    0  0.00000000000E+00  0.00000000000E+00  0.29009231162E+03  0.29009231167E+03  0.50400001928E-02 0. -1.
       -1   -1    0    0    0  501  0.00000000000E+00  0.00000000000E+00 -0.33720015481E+03  0.33720015484E+03  0.50400001928E-02 0.  1.
    10030    2    1    2    0    0  0.00000000000E+00  0.00000000000E+00 -0.47107843184E+02  0.62729246651E+03  0.62552113446E+03 0.  0.
        3    1    3    3  502    0 -0.48678553908E+02 -0.12829228472E+03  0.25829470875E+03  0.29248021933E+03  0.10100000352E+00 0. -1.
       -3    1    3    3    0  502  0.48678553908E+02  0.12829228472E+03 -0.30540255194E+03  0.33481224718E+03  0.10100000352E+00 0.  1.
</event>
<event>
 5   0  0.5935451E-02  0.5970971E+03  0.7818609E-02  0.9911447E-01
       -2   -1    0    0    0  501  0.00000000000E+00  0.00000000000E+00  0.12591449342E+03  0.12591449345E+03  0.25500000920E-02 0.  1.
        2   -1    0    0  501    0  0.00000000000E+00  0.00000000000E+00 -0.70787109349E+03  0.70787109350E+03  0.25500000920E-02 0. -1.
    10030    2    1    2    0    0  0.00000000000E+00  0.00000000000E+00 -0.58195660007E+03  0.83378558695E+03  0.59709707806E+03 0.  0.
        3    1    3    3  502    0  0.26373971969E+03 -0.11905867303E+03 -0.39356954326E+03  0.48849831417E+03  0.10100000352E+00 0. -1.
       -3    1    3    3    0  502 -0.26373971969E+03  0.11905867303E+03 -0.18838705681E+03  0.34528727278E+03  0.10100000352E+00 0.  1.
</event>
<event>
 5   0  0.5935451E-02  0.5987412E+03  0.7818609E-02  0.9908021E-01
       -2   -1    0    0    0  501  0.00000000000E+00  0.00000000000E+00  0.32030213687E+03  0.32030213688E+03  0.25500000920E-02 0.  1.
        2   -1    0    0  501    0  0.00000000000E+00  0.00000000000E+00 -0.27980689942E+03  0.27980689944E+03  0.25500000920E-02 0. -1.
    10030    2    1    2    0    0  0.00000000000E+00  0.00000000000E+00  0.40495237449E+02  0.60010903632E+03  0.59874117214E+03 0.  0.
        3    1    3    3  502    0  0.29359491802E+03  0.47018172128E+02  0.55170486786E+02  0.30241110629E+03  0.10100000352E+00 0.  1.
       -3    1    3    3    0  502 -0.29359491802E+03 -0.47018172128E+02 -0.14675249337E+02  0.29769793002E+03  0.10100000352E+00 0. -1.
</event>
<event>
 5   0  0.3767635E-02  0.5822221E+03  0.7818609E-02  0.9942992E-01
        1   -1    0    0  501    0  0.00000000000E+00  0.00000000000E+00  0.53438240110E+03  0.53438240113E+03  0.50400001928E-02 0.  1.
       -1   -1    0    0    0  501  0.00000000000E+00  0.00000000000E+00 -0.15858613392E+03  0.15858613400E+03  0.50400001928E-02 0. -1.
    10030    2    1    2    0    0  0.00000000000E+00  0.00000000000E+00  0.37579626719E+03  0.69296853512E+03  0.58222208498E+03 0.  0.
        2    1    3    3  502    0 -0.40996882471E+02  0.27843049164E+03  0.27649795912E+03  0.39453188014E+03  0.25500000920E-02 0.  1.
       -2    1    3    3    0  502  0.40996882471E+02 -0.27843049164E+03  0.99298308073E+02  0.29843665498E+03  0.25500000920E-02 0. -1.
</event>
<event>
 5   0  0.3640827E-02  0.6032331E+03  0.7818609E-02  0.9898721E-01
        1   -1    0    0  501    0  0.00000000000E+00  0.00000000000E+00  0.14540324361E+03  0.14540324370E+03  0.50400001928E-02 0. -1.
       -1   -1    0    0    0  501  0.00000000000E+00  0.00000000000E+00 -0.62565689060E+03  0.62565689062E+03  0.50400001928E-02 0.  1.
    10030    2    1    2    0    0  0.00000000000E+00  0.00000000000E+00 -0.48025364699E+03  0.77106013432E+03  0.60323309366E+03 0.  0.
        3    1    3    3  502    0 -0.25031087343E+02  0.13350435884E+03 -0.58434964444E+03  0.59992873437E+03  0.10100000352E+00 0.  1.
       -3    1    3    3    0  502  0.25031087343E+02 -0.13350435884E+03  0.10409599744E+03  0.17113139995E+03  0.10100000352E+00 0. -1.
</event>
<event>
 5   0  0.3478183E-02  0.6028132E+03  0.7818609E-02  0.9899587E-01
        1   -1    0    0  501    0  0.00000000000E+00  0.00000000000E+00  0.11553290214E+04  0.11553290214E+04  0.50400001928E-02 0.  1.
       -1   -1    0    0    0  501  0.00000000000E+00  0.00000000000E+00 -0.78632091390E+02  0.78632091551E+02  0.50400001928E-02 0. -1.
    10030    2    1    2    0    0  0.00000000000E+00  0.00000000000E+00  0.10766969300E+04  0.12339611129E+04  0.60281319594E+03 0.  0.
        4    1    3    3  502    0 -0.86382593968E+02  0.14391478002E+03  0.10507987230E+04  0.10641207571E+04  0.12699999809E+01 0.  1.
       -4    1    3    3    0  502  0.86382593968E+02 -0.14391478002E+03  0.25898206948E+02  0.16984035584E+03  0.12699999809E+01 0. -1.
</event>
<event>
 5   0  0.5999117E-02  0.5874476E+03  0.7818609E-02  0.9931796E-01
        2   -1    0    0  501    0  0.00000000000E+00  0.00000000000E+00  0.20720425589E+03  0.20720425591E+03  0.25500000920E-02 0.  1.
       -2   -1    0    0    0  501  0.00000000000E+00  0.00000000000E+00 -0.41637018991E+03  0.41637018991E+03  0.25500000920E-02 0. -1.
    10030    2    1    2    0    0  0.00000000000E+00  0.00000000000E+00 -0.20916593401E+03  0.62357444582E+03  0.58744761599E+03 0.  0.
        5    1    3    3  502    0 -0.29162600970E+03  0.88148866133E+01 -0.68929375434E+02  0.29982791824E+03  0.46999998093E+01 0.  1.
       -5    1    3    3    0  502  0.29162600970E+03 -0.88148866133E+01 -0.14023655858E+03  0.32374652758E+03  0.46999998093E+01 0. -1.
</event>
<event>
 5   0  0.5935451E-02  0.6046312E+03  0.7818609E-02  0.9895844E-01
       -2   -1    0    0    0  501  0.00000000000E+00  0.00000000000E+00  0.29767684444E+03  0.29767684445E+03  0.25500000920E-02 0.  1.
        2   -1    0    0  501    0  0.00000000000E+00  0.00000000000E+00 -0.30702663991E+03  0.30702663992E+03  0.25500000920E-02 0. -1.
    10030    2    1    2    0    0  0.00000000000E+00  0.00000000000E+00 -0.93497954716E+01  0.60470348437E+03  0.60463119779E+03 0.  0.
        3    1    3    3  502    0 -0.22599676733E+01 -0.45210997615E+02  0.29426813035E+03  0.29772954926E+03  0.10100000352E+00 0.  1.
       -3    1    3    3    0  502  0.22599676733E+01  0.45210997615E+02 -0.30361792582E+03  0.30697393512E+03  0.10100000352E+00 0. -1.
</event>
<event>
 5   0  0.6007360E-02  0.5994667E+03  0.7818609E-02  0.9906513E-01
       -2   -1    0    0    0  501  0.00000000000E+00  0.00000000000E+00  0.98803273354E+02  0.98803273387E+02  0.25500000920E-02 0. -1.
        2   -1    0    0  501    0  0.00000000000E+00  0.00000000000E+00 -0.90928241177E+03  0.90928241177E+03  0.25500000920E-02 0.  1.
    10030    2    1    2    0    0  0.00000000000E+00  0.00000000000E+00 -0.81047913842E+03  0.10080856852E+04  0.59946669200E+03 0.  0.
        4    1    3    3  502    0 -0.17012952023E+03  0.19104307736E+03 -0.66790335565E+03  0.71521885912E+03  0.12699999809E+01 0.  1.
       -4    1    3    3    0  502  0.17012952023E+03 -0.19104307736E+03 -0.14257578277E+03  0.29286682604E+03  0.12699999809E+01 0. -1.
</event>
<event>
 5   0  0.5935451E-02  0.5827376E+03  0.7818609E-02  0.9941882E-01
        2   -1    0    0  501    0  0.00000000000E+00  0.00000000000E+00  0.48955065965E+03  0.48955065966E+03  0.25500000920E-02 0. -1.
       -2   -1    0    0    0  501  0.00000000000E+00  0.00000000000E+00 -0.17341572489E+03  0.17341572491E+03  0.25500000920E-02 0.  1.
    10030    2    1    2    0    0  0.00000000000E+00  0.00000000000E+00  0.31613493476E+03  0.66296638457E+03  0.58273761685E+03 0.  0.
        3    1    3    3  502    0 -0.26643675295E+02 -0.28854704536E+03  0.19269636819E+03  0.34799595304E+03  0.10100000352E+00 0. -1.
       -3    1    3    3    0  502  0.26643675295E+02  0.28854704536E+03  0.12343856657E+03  0.31497043153E+03  0.10100000352E+00 0.  1.
</event>
<event>
 5   0  0.3703280E-02  0.5990305E+03  0.7818609E-02  0.9907419E-01
        1   -1    0    0  501    0  0.00000000000E+00  0.00000000000E+00  0.24968755410E+03  0.24968755415E+03  0.50400001928E-02 0. -1.
       -1   -1    0    0    0  501  0.00000000000E+00  0.00000000000E+00 -0.35928660434E+03  0.35928660438E+03  0.50400001928E-02 0.  1.
    10030    2    1    2    0    0  0.00000000000E+00  0.00000000000E+00 -0.10959905024E+03  0.60897415853E+03  0.59903052839E+03 0.  0.
        5    1    3    3  502    0  0.58759221534E+02 -0.86639832394E+02 -0.34004256775E+03  0.35582319283E+03  0.46999998093E+01 0.  1.
       -5    1    3    3    0  502 -0.58759221534E+02  0.86639832394E+02  0.23044351751E+03  0.25315096570E+03  0.46999998093E+01 0. -1.
</event>
<event>
 5   0  0.3478183E-02  0.5991694E+03  0.7818609E-02  0.9907131E-01
        1   -1    0    0  501    0  0.00000000000E+00  0.00000000000E+00  0.11478595227E+03  0.11478595238E+03  0.50400001928E-02 0.  1.
       -1   -1    0    0    0  501  0.00000000000E+00  0.00000000000E+00 -0.78189864009E+03  0.78189864011E+03  0.50400001928E-02 0. -1.
    10030    2    1    2    0    0  0.00000000000E+00  0.00000000000E+00 -0.66711268782E+03  0.89668459249E+03  0.59916935849E+03 0.  0.
        4    1    3    3  502    0  0.16643382110E+02  0.25236396298E+03 -0.93246282281E+02  0.26955714429E+03  0.12699999809E+01 0. -1.
       -4    1    3    3    0  502 -0.16643382110E+02 -0.25236396298E+03 -0.57386640554E+03  0.62712744820E+03  0.12699999809E+01 0.  1.
</event>
<event>
 5   0  0.3703280E-02  0.5982609E+03  0.7818609E-02  0.9909021E-01
       -1   -1    0    0    0  501  0.00000000000E+00  0.00000000000E+00  0.16767659844E+03  0.16767659851E+03  0.50400001928E-02 0. -1.
        1   -1    0    0  501    0  0.00000000000E+00  0.00000000000E+00 -0.53364056760E+03  0.53364056763E+03  0.50400001928E-02 0.  1.
    10030    2    1    2    0    0  0.00000000000E+00  0.00000000000E+00 -0.36596396916E+03  0.70131716614E+03  0.59826093036E+03 0.  0.
        5    1    3    3  502    0 -0.41011238007E+02  0.21779586463E+03  0.52464219446E+02  0.22779715673E+03  0.46999998093E+01 0. -1.
       -5    1    3    3    0  502  0.41011238007E+02 -0.21779586463E+03 -0.41842818861E+03  0.47352000941E+03  0.46999998093E+01 0.  1.
</event>
<event>
 5   0  0.3478183E-02  0.5787618E+03  0.7818609E-02  0.9950475E-01
        1   -1    0    0  501    0  0.00000000000E+00  0.00000000000E+00  0.17241632710E+04  0.17241632710E+04  0.50400001928E-02 0. -1.
       -1   -1    0    0    0  501  0.00000000000E+00  0.00000000000E+00 -0.48569238195E+02  0.48569238457E+02  0.50400001928E-02 0.  1.
    10030    2    1    2    0    0  0.00000000000E+00  0.00000000000E+00  0.16755940328E+04  0.17727325095E+04  0.57876177080E+03 0.  0.
        4    1    3    3  502    0 -0.27122719406E+03 -0.10085619252E+03  0.83204908579E+03  0.88093328717E+03  0.12699999809E+01 0.  1.
       -4    1    3    3    0  502  0.27122719406E+03  0.10085619252E+03  0.84354494701E+03  0.89179922230E+03  0.12699999809E+01 0. -1.
</event>
<event>
 5   0  0.5935451E-02  0.5918030E+03  0.7818609E-02  0.9922560E-01
       -2   -1    0    0    0  501  0.00000000000E+00  0.00000000000E+00  0.12147820699E+03  0.12147820702E+03  0.25500000920E-02 0. -1.
        2   -1    0    0  501    0  0.00000000000E+00  0.00000000000E+00 -0.72076874872E+03  0.72076874872E+03  0.25500000920E-02 0.  1.
    10030    2    1    2    0    0  0.00000000000E+00  0.00000000000E+00 -0.59929054173E+03  0.84224695574E+03  0.59180299176E+03 0.  0.
        3    1    3    3  502    0 -0.17429991204E+02 -0.17985618423E+03 -0.63312600342E+03  0.65840762299E+03  0.10100000352E+00 0.  1.
       -3    1    3    3    0  502  0.17429991204E+02  0.17985618423E+03  0.33835461698E+02  0.18383933275E+03  0.10100000352E+00 0. -1.
</event>
<event>
 5   0  0.3640827E-02  0.6106145E+03  0.7818609E-02  0.9883626E-01
       -1   -1    0    0    0  501  0.00000000000E+00  0.00000000000E+00  0.76722924293E+02  0.76722924459E+02  0.50400001928E-02 0.  1.
        1   -1    0    0  501    0  0.00000000000E+00  0.00000000000E+00 -0.12149239561E+04  0.12149239561E+04  0.50400001928E-02 0. -1.
    10030    2    1    2    0    0  0.00000000000E+00  0.00000000000E+00 -0.11382010318E+04  0.12916468806E+04  0.61061450628E+03 0.  0.
        3    1    3    3  502    0  0.17716341908E+03  0.23168093235E+03 -0.37813971849E+03  0.47754851939E+03  0.10100000352E+00 0.  1.
       -3    1    3    3    0  502 -0.17716341908E+03 -0.23168093235E+03 -0.76006131333E+03  0.81409836119E+03  0.10100000352E+00 0. -1.
</event>
<event>
 5   0  0.5999117E-02  0.6045735E+03  0.7818609E-02  0.9895963E-01
        2   -1    0    0  501    0  0.00000000000E+00  0.00000000000E+00  0.74225176396E+03  0.74225176396E+03  0.25500000920E-02 0.  1.
       -2   -1    0    0    0  501  0.00000000000E+00  0.00000000000E+00 -0.12310820419E+03  0.12310820422E+03  0.25500000920E-02 0. -1.
    10030    2    1    2    0    0  0.00000000000E+00  0.00000000000E+00  0.61914355977E+03  0.86535996818E+03  0.60457350829E+03 0.  0.
        5    1    3    3  502    0  0.28479074003E+03 -0.71060157892E+02  0.41278714471E+03  0.50652801352E+03  0.46999998093E+01 0. -1.
       -5    1    3    3    0  502 -0.28479074003E+03  0.71060157892E+02  0.20635641506E+03  0.35883195465E+03  0.46999998093E+01 0.  1.
</event>
<event>
 5   0  0.5935451E-02  0.6044487E+03  0.7818609E-02  0.9896219E-01
        2   -1    0    0  501    0  0.00000000000E+00  0.00000000000E+00  0.12661521506E+03  0.12661521508E+03  0.25500000920E-02 0.  1.
       -2   -1    0    0    0  501  0.00000000000E+00  0.00000000000E+00 -0.72139478920E+03  0.72139478921E+03  0.25500000920E-02 0. -1.
    10030    2    1    2    0    0  0.00000000000E+00  0.00000000000E+00 -0.59477957415E+03  0.84801000429E+03  0.60444869555E+03 0.  0.
        3    1    3    3  502    0  0.16635545268E+02  0.75555942640E+02 -0.70726696363E+03  0.71148577630E+03  0.10100000352E+00 0. -1.
       -3    1    3    3    0  502 -0.16635545268E+02 -0.75555942640E+02  0.11248738948E+03  0.13652422799E+03  0.10100000352E+00 0.  1.
</event>
<event>
 5   0  0.3640827E-02  0.5161569E+03  0.7818609E-02  0.1009646E+00
        1   -1    0    0  501    0  0.00000000000E+00  0.00000000000E+00  0.33344475674E+03  0.33344475678E+03  0.50400001928E-02 0. -1.
       -1   -1    0    0    0  501  0.00000000000E+00  0.00000000000E+00 -0.19974669764E+03  0.19974669770E+03  0.50400001928E-02 0.  1.
    10030    2    1    2    0    0  0.00000000000E+00  0.00000000000E+00  0.13369805910E+03  0.53319145448E+03  0.51615691037E+03 0.  0.
        3    1    3    3  502    0  0.17857775520E+03  0.37352297557E+02  0.25540885756E+03  0.31387721087E+03  0.10100000352E+00 0. -1.
       -3    1    3    3    0  502 -0.17857775520E+03 -0.37352297557E+02 -0.12171079846E+03  0.21931424360E+03  0.10100000352E+00 0.  1.
</event>
<event>
 5   0  0.6007360E-02  0.6033847E+03  0.7818609E-02  0.9898409E-01
       -2   -1    0    0    0  501  0.00000000000E+00  0.00000000000E+00  0.83265638672E+02  0.83265638711E+02  0.25500000920E-02 0.  1.
        2   -1    0    0  501    0  0.00000000000E+00  0.00000000000E+00 -0.10931072244E+04  0.10931072244E+04  0.25500000920E-02 0. -1.
    10030    2    1    2    0    0  0.00000000000E+00  0.00000000000E+00 -0.10098415858E+04  0.11763728632E+04  0.60338469057E+03 0.  0.
        4    1    3    3  502    0  0.38180461183E+02 -0.29536309757E+03 -0.41102358032E+03  0.50758162251E+03  0.12699999809E+01 0.  1.
       -4    1    3    3    0  502 -0.38180461183E+02  0.29536309757E+03 -0.59881800544E+03  0.66879124065E+03  0.12699999809E+01 0. -1.
</event>
<event>
 5   0  0.5999117E-02  0.5663216E+03  0.7818609E-02  0.9977852E-01
        2   -1    0    0  501    0  0.00000000000E+00  0.00000000000E+00  0.62592784792E+03  0.62592784793E+03  0.25500000920E-02 0.  1.
       -2   -1    0    0    0  501  0.00000000000E+00  0.00000000000E+00 -0.12809790239E+03  0.12809790241E+03  0.25500000920E-02 0. -1.
    10030    2    1    2    0    0  0.00000000000E+00  0.00000000000E+00  0.49782994554E+03  0.75402575034E+03  0.56632162020E+03 0.  0.
        5    1    3    3  502    0 -0.24494658689E+03  0.11457202527E+03  0.13726103465E+03  0.30329566603E+03  0.46999998093E+01 0.  1.
       -5    1    3    3    0  502  0.24494658689E+03 -0.11457202527E+03  0.36056891089E+03  0.45073008431E+03  0.46999998093E+01 0. -1.
</event>
<event>
 5   0  0.3767635E-02  0.5953399E+03  0.7818609E-02  0.9915122E-01
        1   -1    0    0  501    0  0.00000000000E+00  0.00000000000E+00  0.14124749136E+04  0.14124749136E+04  0.50400001928E-02 0. -1.
       -1   -1    0    0    0  501  0.00000000000E+00  0.00000000000E+00 -0.62732005864E+02  0.62732006067E+02  0.50400001928E-02 0.  1.
    10030    2    1    2    0    0  0.00000000000E+00  0.00000000000E+00  0.13497429077E+04  0.14752069196E+04  0.59533985157E+03 0.  0.
        2    1    3    3  502    0  0.18752224978E+03 -0.17632956746E+03  0.30441829714E+03  0.39865675733E+03  0.25500000920E-02 0.  1.
       -2    1    3    3    0  502 -0.18752224978E+03  0.17632956746E+03  0.10453246106E+04  0.10765501623E+04  0.25500000920E-02 0. -1.
</event>
<event>
 5   0  0.3478183E-02  0.5994028E+03  0.7818609E-02  0.9906646E-01
       -1   -1    0    0    0  501  0.00000000000E+00  0.00000000000E+00  0.61852859048E+02  0.61852859253E+02  0.50400001928E-02 0. -1.
        1   -1    0    0  501    0  0.00000000000E+00  0.00000000000E+00 -0.14521711240E+04  0.14521711240E+04  0.50400001928E-02 0.  1.
    10030    2    1    2    0    0  0.00000000000E+00  0.00000000000E+00 -0.13903182649E+04  0.15140239832E+04  0.59940282284E+03 0.  0.
        4    1    3    3  502    0  0.85775066847E+02 -0.28387936164E+03 -0.58580049068E+03  0.65658867021E+03  0.12699999809E+01 0. -1.
       -4    1    3    3    0  502 -0.85775066847E+02  0.28387936164E+03 -0.80451777424E+03  0.85743531302E+03  0.12699999809E+01 0.  1.
</event>
<event>
 5   0  0.3640827E-02  0.5977483E+03  0.7818609E-02  0.9910089E-01
        1   -1    0    0  501    0  0.00000000000E+00  0.00000000000E+00  0.37457623329E+03  0.37457623332E+03  0.50400001928E-02 0.  1.
       -1   -1    0    0    0  501  0.00000000000E+00  0.00000000000E+00 -0.23847148412E+03  0.23847148417E+03  0.50400001928E-02 0. -1.
    10030    2    1    2    0    0  0.00000000000E+00  0.00000000000E+00  0.13610474917E+03  0.61304771749E+03  0.59774827576E+03 0.  0.
        3    1    3    3  502    0 -0.38478583480E+02 -0.27456672197E+03  0.18252576256E+03  0.33193847381E+03  0.10100000352E+00 0. -1.
       -3    1    3    3    0  502  0.38478583480E+02  0.27456672197E+03 -0.46421013390E+02  0.28110924368E+03  0.10100000352E+00 0.  1.
</event>
<event>
 5   0  0.3703280E-02  0.5985285E+03  0.7818609E-02  0.9908464E-01
        1   -1    0    0  501    0  0.00000000000E+00  0.00000000000E+00  0.97085643825E+03  0.97085643826E+03  0.50400001928E-02 0.  1.
       -1   -1    0    0    0  501  0.00000000000E+00  0.00000000000E+00 -0.92247500277E+02  0.92247500415E+02  0.50400001928E-02 0. -1.
    10030    2    1    2    0    0  0.00000000000E+00  0.00000000000E+00  0.87860893797E+03  0.10631039387E+04  0.59852846093E+03 0.  0.
        5    1    3    3  502    0  0.13373880422E+02  0.12189053037E+03 -0.45505419134E+02  0.13087778742E+03  0.46999998093E+01 0. -1.
       -5    1    3    3    0  502 -0.13373880422E+02 -0.12189053037E+03  0.92411435710E+03  0.93222615125E+03  0.46999998093E+01 0.  1.
</event>
<event>
 5   0  0.5872632E-02  0.6022175E+03  0.7818609E-02  0.9900816E-01
        2   -1    0    0  501    0  0.00000000000E+00  0.00000000000E+00  0.48307945011E+03  0.48307945012E+03  0.25500000920E-02 0. -1.
       -2   -1    0    0    0  501  0.00000000000E+00  0.00000000000E+00 -0.18768442131E+03  0.18768442132E+03  0.25500000920E-02 0.  1.
    10030    2    1    2    0    0  0.00000000000E+00  0.00000000000E+00  0.29539502880E+03  0.67076387144E+03  0.60221752564E+03 0.  0.
        1    1    3    3  502    0 -0.13346762369E+03  0.11948793159E+03 -0.12187420524E+03  0.21666632017E+03  0.50400001928E-02 0.  1.
       -1    1    3    3    0  502  0.13346762369E+03 -0.11948793159E+03  0.41726923404E+03  0.45409755127E+03  0.50400001928E-02 0. -1.
</event>
<event>
 5   0  0.3651984E-02  0.5981835E+03  0.7818609E-02  0.9909182E-01
       -1   -1    0    0    0  501  0.00000000000E+00  0.00000000000E+00  0.27191711005E+03  0.27191711009E+03  0.50400001928E-02 0.  1.
        1   -1    0    0  501    0  0.00000000000E+00  0.00000000000E+00 -0.32898217588E+03  0.32898217592E+03  0.50400001928E-02 0. -1.
    10030    2    1    2    0    0  0.00000000000E+00  0.00000000000E+00 -0.57065065837E+02  0.60089928602E+03  0.59818352552E+03 0.  0.
        1    1    3    3  502    0 -0.20848302591E+03  0.75936632347E+02  0.17293807379E+03  0.28131676383E+03  0.50400001928E-02 0.  1.
       -1    1    3    3    0  502  0.20848302591E+03 -0.75936632347E+02 -0.23000313962E+03  0.31958252218E+03  0.50400001928E-02 0. -1.
</event>
<event>
 5   0  0.5872632E-02  0.5947423E+03  0.7818609E-02  0.9916374E-01
       -2   -1    0    0    0  501  0.00000000000E+00  0.00000000000E+00  0.98925710471E+02  0.98925710504E+02  0.25500000920E-02 0. -1.
        2   -1    0    0  501    0  0.00000000000E+00  0.00000000000E+00 -0.89389917671E+03  0.89389917672E+03  0.25500000920E-02 0.  1.
    10030    2    1    2    0    0  0.00000000000E+00  0.00000000000E+00 -0.79497346624E+03  0.99282488722E+03  0.59474233468E+03 0.  0.
        1    1    3    3  502    0 -0.40867779798E+02 -0.14617447988E+03  0.29395057865E+02  0.15460020520E+03  0.50400001928E-02 0. -1.
       -1    1    3    3    0  502  0.40867779798E+02  0.14617447988E+03 -0.82436852411E+03  0.83822468202E+03  0.50400001928E-02 0.  1.
</event>
<event>
 5   0  0.3640827E-02  0.5931003E+03  0.7818609E-02  0.9919825E-01
        1   -1    0    0  501    0  0.00000000000E+00  0.00000000000E+00  0.69862167829E+03  0.69862167831E+03  0.50400001928E-02 0.  1.
       -1   -1    0    0    0  501  0.00000000000E+00  0.00000000000E+00 -0.12587929094E+03  0.12587929104E+03  0.50400001928E-02 0. -1.
    10030    2    1    2    0    0  0.00000000000E+00  0.00000000000E+00  0.57274238735E+03  0.82450096935E+03  0.59310033401E+03 0.  0.
        3    1    3    3  502    0 -0.14142393851E+03 -0.15696798958E+03 -0.29088940152E+01  0.21130109323E+03  0.10100000352E+00 0. -1.
       -3    1    3    3    0  502  0.14142393851E+03  0.15696798958E+03  0.57565128136E+03  0.61319987612E+03  0.10100000352E+00 0.  1.
</event>
<event>
 5   0  0.3767635E-02  0.6050346E+03  0.7818609E-02  0.9895016E-01
       -1   -1    0    0    0  501  0.00000000000E+00  0.00000000000E+00  0.65498231725E+03  0.65498231727E+03  0.50400001928E-02 0.  1.
        1   -1    0    0  501    0  0.00000000000E+00  0.00000000000E+00 -0.13972392928E+03  0.13972392937E+03  0.50400001928E-02 0. -1.
    10030    2    1    2    0    0  0.00000000000E+00  0.00000000000E+00  0.51525838797E+03  0.79470624664E+03  0.60503455445E+03 0.  0.
        2    1    3    3  502    0 -0.96826620879E+02  0.17200825461E+03 -0.43485031797E+02  0.20212170136E+03  0.25500000920E-02 0. -1.
       -2    1    3    3    0  502  0.96826620879E+02 -0.17200825461E+03  0.55874341976E+03  0.59258454528E+03  0.25500000920E-02 0.  1.
</event>
<event>
 5   0  0.3703280E-02  0.6028263E+03  0.7818609E-02  0.9899560E-01
        1   -1    0    0  501    0  0.00000000000E+00  0.00000000000E+00  0.34370291860E+03  0.34370291864E+03  0.50400001928E-02 0.  1.
       -1   -1    0    0    0  501  0.00000000000E+00  0.00000000000E+00 -0.26432674299E+03  0.26432674304E+03  0.50400001928E-02 0. -1.
    10030    2    1    2    0    0  0.00000000000E+00  0.00000000000E+00  0.79376175606E+02  0.60802966168E+03  0.60282625377E+03 0.  0.
        5    1    3    3  502    0 -0.85633891981E+02 -0.27910884105E+03 -0.35742960485E+02  0.29416756760E+03  0.46999998093E+01 0. -1.
       -5    1    3    3    0  502  0.85633891981E+02  0.27910884105E+03  0.11511913609E+03  0.31386209408E+03  0.46999998093E+01 0.  1.
</event>
<event>
 5   0  0.5999117E-02  0.5961771E+03  0.7818609E-02  0.9913369E-01
       -2   -1    0    0    0  501  0.00000000000E+00  0.00000000000E+00  0.17741532925E+03  0.17741532927E+03  0.25500000920E-02 0.  1.
        2   -1    0    0  501    0  0.00000000000E+00  0.00000000000E+00 -0.50084054610E+03  0.50084054611E+03  0.25500000920E-02 0. -1.
    10030    2    1    2    0    0  0.00000000000E+00  0.00000000000E+00 -0.32342521685E+03  0.67825587538E+03  0.59617712267E+03 0.  0.
        5    1    3    3  502    0 -0.11315029025E+03 -0.13551430092E+03 -0.43491477907E+03  0.46940395076E+03  0.46999998093E+01 0. -1.
       -5    1    3    3    0  502  0.11315029025E+03  0.13551430092E+03  0.11148956222E+03  0.20885192463E+03  0.46999998093E+01 0.  1.
</event>
<event>
 5   0  0.5999117E-02  0.5905319E+03  0.7818609E-02  0.9925246E-01
        2   -1    0    0  501    0  0.00000000000E+00  0.00000000000E+00  0.16987389160E+04  0.16987389160E+04  0.25500000920E-02 0.  1.
       -2   -1    0    0    0  501  0.00000000000E+00  0.00000000000E+00 -0.51321595702E+02  0.51321595765E+02  0.25500000920E-02 0. -1.
    10030    2    1    2    0    0  0.00000000000E+00  0.00000000000E+00  0.16474173203E+04  0.17500605117E+04  0.59053193616E+03 0.  0.
        5    1    3    3  502    0  0.24333108000E+03 -0.15135337797E+03  0.10341412123E+04  0.10731206813E+04  0.46999998093E+01 0. -1.
       -5    1    3    3    0  502 -0.24333108000E+03  0.15135337797E+03  0.61327610792E+03  0.67693983046E+03  0.46999998093E+01 0.  1.
</event>
<event>
 5   0  0.5999117E-02  0.5881548E+03  0.7818609E-02  0.9930290E-01
        2   -1    0    0  501    0  0.00000000000E+00  0.00000000000E+00  0.20855455799E+03  0.20855455800E+03  0.25500000920E-02 0.  1.
       -2   -1    0    0    0  501  0.00000000000E+00  0.00000000000E+00 -0.41467100840E+03  0.41467100840E+03  0.25500000920E-02 0. -1.
    10030    2    1    2    0    0  0.00000000000E+00  0.00000000000E+00 -0.20611645041E+03  0.62322556641E+03  0.58815483973E+03 0.  0.
        5    1    3    3  502    0  0.17804317001E+03 -0.23327054690E+03 -0.83378771087E+02  0.30510429022E+03  0.46999998093E+01 0.  1.
       -5    1    3    3    0  502 -0.17804317001E+03  0.23327054690E+03 -0.12273767932E+03  0.31812127619E+03  0.46999998093E+01 0. -1.
</event>
<event>
 5   0  0.3478183E-02  0.5986694E+03  0.7818609E-02  0.9908171E-01
       -1   -1    0    0    0  501  0.00000000000E+00  0.00000000000E+00  0.77220212514E+02  0.77220212678E+02  0.50400001928E-02 0. -1.
        1   -1    0    0  501    0  0.00000000000E+00  0.00000000000E+00 -0.11603342171E+04  0.11603342171E+04  0.50400001928E-02 0.  1.
    10030    2    1    2    0    0  0.00000000000E+00  0.00000000000E+00 -0.10831140045E+04  0.12375544297E+04  0.59866937432E+03 0.  0.
        4    1    3    3  502    0  0.12096122206E+03  0.26838560635E+00  0.24441253476E+02  0.12341262919E+03  0.12699999809E+01 0. -1.
       -4    1    3    3    0  502 -0.12096122206E+03 -0.26838560635E+00 -0.11075552580E+04  0.11141418006E+04  0.12699999809E+01 0.  1.
</event>
<event>
 5   0  0.5755078E-02  0.6046862E+03  0.7818609E-02  0.9895731E-01
        2   -1    0    0  501    0  0.00000000000E+00  0.00000000000E+00  0.17429208891E+04  0.17429208891E+04  0.25500000920E-02 0. -1.
       -2   -1    0    0    0  501  0.00000000000E+00  0.00000000000E+00 -0.52447214236E+02  0.52447214298E+02  0.25500000920E-02 0.  1.
    10030    2    1    2    0    0  0.00000000000E+00  0.00000000000E+00  0.16904736749E+04  0.17953681034E+04  0.60468618415E+03 0.  0.
        2    1    3    3  502    0  0.28413710146E+03  0.10132229314E+03  0.78502606490E+03  0.84099109513E+03  0.25500000920E-02 0.  1.
       -2    1    3    3    0  502 -0.28413710146E+03 -0.10132229314E+03  0.90544761000E+03  0.95437700830E+03  0.25500000920E-02 0. -1.
</event>
<event>
 5   0  0.5935451E-02  0.5999470E+03  0.7818609E-02  0.9905516E-01
        2   -1    0    0  501    0  0.00000000000E+00  0.00000000000E+00  0.30910852103E+03  0.30910852104E+03  0.25500000920E-02 0.  1.
       -2   -1    0    0    0  501  0.00000000000E+00  0.00000000000E+00 -0.29110843548E+03  0.29110843549E+03  0.25500000920E-02 0. -1.
    10030    2    1    2    0    0  0.00000000000E+00  0.00000000000E+00  0.18000085549E+02  0.60021695653E+03  0.59994699085E+03 0.  0.
        3    1    3    3  502    0 -0.12459371905E+03 -0.60570416697E+02 -0.25718681258E+03  0.29212572117E+03  0.10100000352E+00 0. -1.
       -3    1    3    3    0  502  0.12459371905E+03  0.60570416697E+02  0.27518689813E+03  0.30809123536E+03  0.10100000352E+00 0.  1.
</event>
<event>
 5   0  0.3651984E-02  0.5976006E+03  0.7818609E-02  0.9910397E-01
        1   -1    0    0  501    0  0.00000000000E+00  0.00000000000E+00  0.81209288940E+03  0.81209288942E+03  0.50400001928E-02 0. -1.
       -1   -1    0    0    0  501  0.00000000000E+00  0.00000000000E+00 -0.10994016054E+03  0.10994016066E+03  0.50400001928E-02 0.  1.
    10030    2    1    2    0    0  0.00000000000E+00  0.00000000000E+00  0.70215272886E+03  0.92203305007E+03  0.59760061143E+03 0.  0.
        1    1    3    3  502    0 -0.21539205013E+03 -0.45996384393E+02  0.66261910431E+03  0.69826462037E+03  0.50400001928E-02 0. -1.
       -1    1    3    3    0  502  0.21539205013E+03  0.45996384393E+02  0.39533624549E+02  0.22376842970E+03  0.50400001928E-02 0.  1.
</event>
<event>
 5   0  0.5935451E-02  0.5542740E+03  0.7818609E-02  0.1000509E+00
        2   -1    0    0  501    0  0.00000000000E+00  0.00000000000E+00  0.68141513944E+03  0.68141513945E+03  0.25500000920E-02 0.  1.
       -2   -1    0    0    0  501  0.00000000000E+00  0.00000000000E+00 -0.11271385418E+03  0.11271385421E+03  0.25500000920E-02 0. -1.
    10030    2    1    2    0    0  0.00000000000E+00  0.00000000000E+00  0.56870128526E+03  0.79412899366E+03  0.55427403575E+03 0.  0.
        3    1    3    3  502    0 -0.23513302290E+03 -0.99084675352E+02  0.12937904174E+03  0.28608435468E+03  0.10100000352E+00 0. -1.
       -3    1    3    3    0  502  0.23513302290E+03  0.99084675352E+02  0.43932224352E+03  0.50804463898E+03  0.10100000352E+00 0.  1.
</event>
<event>
 5   0  0.3478183E-02  0.5910537E+03  0.7818609E-02  0.9924143E-01
       -1   -1    0    0    0  501  0.00000000000E+00  0.00000000000E+00  0.87880220281E+02  0.87880220426E+02  0.50400001928E-02 0. -1.
        1   -1    0    0  501    0  0.00000000000E+00  0.00000000000E+00 -0.99380847794E+03  0.99380847796E+03  0.50400001928E-02 0.  1.
    10030    2    1    2    0    0  0.00000000000E+00  0.00000000000E+00 -0.90592825766E+03  0.10816886984E+04  0.59105366269E+03 0.  0.
        4    1    3    3  502    0 -0.27450145169E+03 -0.61568573538E+02 -0.61861375759E+03  0.67957805306E+03  0.12699999809E+01 0.  1.
       -4    1    3    3    0  502  0.27450145169E+03  0.61568573538E+02 -0.28731450007E+03  0.40211064532E+03  0.12699999809E+01 0. -1.
</event>
<event>
 5   0  0.5999117E-02  0.5977836E+03  0.7818609E-02  0.9910015E-01
        2   -1    0    0  501    0  0.00000000000E+00  0.00000000000E+00  0.56316138213E+03  0.56316138214E+03  0.25500000920E-02 0.  1.
       -2   -1    0    0    0  501  0.00000000000E+00  0.00000000000E+00 -0.15863359688E+03  0.15863359690E+03  0.25500000920E-02 0. -1.
    10030    2    1    2    0    0  0.00000000000E+00  0.00000000000E+00  0.40452778525E+03  0.72179497904E+03  0.59778362534E+03 0.  0.
        5    1    3    3  502    0 -0.92560528197E+02  0.15815360503E+03  0.48732027738E+03  0.52065646727E+03  0.46999998093E+01 0.  1.
       -5    1    3    3    0  502  0.92560528197E+02 -0.15815360503E+03 -0.82792492132E+02  0.20113851177E+03  0.46999998093E+01 0. -1.
</event>
<event>
 5   0  0.3640827E-02  0.5980629E+03  0.7818609E-02  0.9909433E-01
        1   -1    0    0  501    0  0.00000000000E+00  0.00000000000E+00  0.10020623395E+04  0.10020623395E+04  0.50400001928E-02 0.  1.
       -1   -1    0    0    0  501  0.00000000000E+00  0.00000000000E+00 -0.89235786389E+02  0.89235786531E+02  0.50400001928E-02 0. -1.
    10030    2    1    2    0    0  0.00000000000E+00  0.00000000000E+00  0.91282655315E+03  0.10912981261E+04  0.59806294306E+03 0.  0.
        3    1    3    3  502    0 -0.89981945201E+02  0.13659454254E+03 -0.36875051272E+00  0.16356945220E+03  0.10100000352E+00 0. -1.
       -3    1    3    3    0  502  0.89981945201E+02 -0.13659454254E+03  0.91319530366E+03  0.92772867388E+03  0.10100000352E+00 0.  1.
</event>
<event>
 5   0  0.5755078E-02  0.6059477E+03  0.7818609E-02  0.9893143E-01
       -2   -1    0    0    0  501  0.00000000000E+00  0.00000000000E+00  0.41747620774E+03  0.41747620775E+03  0.25500000920E-02 0. -1.
        2   -1    0    0  501    0  0.00000000000E+00  0.00000000000E+00 -0.21987638124E+03  0.21987638126E+03  0.25500000920E-02 0.  1.
    10030    2    1    2    0    0  0.00000000000E+00  0.00000000000E+00  0.19759982650E+03  0.63735258901E+03  0.60594771332E+03 0.  0.
        2    1    3    3  502    0 -0.19601544805E+03  0.16397267444E+03 -0.72373739180E+02  0.26560695015E+03  0.25500000920E-02 0.  1.
       -2    1    3    3    0  502  0.19601544805E+03 -0.16397267444E+03  0.26997356568E+03  0.37174563886E+03  0.25500000920E-02 0. -1.
</event>
<event>
 5   0  0.3703280E-02  0.6007064E+03  0.7818609E-02  0.9903942E-01
        1   -1    0    0  501    0  0.00000000000E+00  0.00000000000E+00  0.34755033073E+03  0.34755033076E+03  0.50400001928E-02 0. -1.
       -1   -1    0    0    0  501  0.00000000000E+00  0.00000000000E+00 -0.25956540247E+03  0.25956540252E+03  0.50400001928E-02 0.  1.
    10030    2    1    2    0    0  0.00000000000E+00  0.00000000000E+00  0.87984928255E+02  0.60711573329E+03  0.60070638918E+03 0.  0.
        5    1    3    3  502    0  0.12776979601E+03  0.23960105080E+03  0.17364278081E+03  0.32234715703E+03  0.46999998093E+01 0. -1.
       -5    1    3    3    0  502 -0.12776979601E+03 -0.23960105080E+03 -0.85657852558E+02  0.28476857626E+03  0.46999998093E+01 0.  1.
</event>
<event>
 5   0  0.3767635E-02  0.6041245E+03  0.7818609E-02  0.9896886E-01
        1   -1    0    0  501    0  0.00000000000E+00  0.00000000000E+00  0.29902156722E+03  0.29902156726E+03  0.50400001928E-02 0. -1.
       -1   -1    0    0    0  501  0.00000000000E+00  0.00000000000E+00 -0.30513381185E+03  0.30513381190E+03  0.50400001928E-02 0.  1.
    10030    2    1    2    0    0  0.00000000000E+00  0.00000000000E+00 -0.61122446362E+01  0.60415537916E+03  0.60412445955E+03 0.  0.
        2    1    3    3  502    0  0.12509681805E+03 -0.15844445235E+03  0.22165013132E+03  0.29980433468E+03  0.25500000920E-02 0. -1.
       -2    1    3    3    0  502 -0.12509681805E+03  0.15844445235E+03 -0.22776237596E+03  0.30435104448E+03  0.25500000920E-02 0.  1.
</event>
<event>
 5   0  0.3703280E-02  0.5992127E+03  0.7818609E-02  0.9907041E-01
       -1   -1    0    0    0  501  0.00000000000E+00  0.00000000000E+00  0.95639457948E+02  0.95639458081E+02  0.50400001928E-02 0. -1.
        1   -1    0    0  501    0  0.00000000000E+00  0.00000000000E+00 -0.93856628494E+03  0.93856628495E+03  0.50400001928E-02 0.  1.
    10030    2    1    2    0    0  0.00000000000E+00  0.00000000000E+00 -0.84292682699E+03  0.10342057430E+04  0.59921271954E+03 0.  0.
        5    1    3    3  502    0  0.81397094593E+02  0.24877942254E+03 -0.67291347301E+03  0.72204661916E+03  0.46999998093E+01 0.  1.
       -5    1    3    3    0  502 -0.81397094593E+02 -0.24877942254E+03 -0.17001335398E+03  0.31215912387E+03  0.46999998093E+01 0. -1.
</event>
<event>
 5   0  0.5999117E-02  0.6010094E+03  0.7818609E-02  0.9903314E-01
        2   -1    0    0  501    0  0.00000000000E+00  0.00000000000E+00  0.90955543142E+03  0.90955543142E+03  0.25500000920E-02 0.  1.
       -2   -1    0    0    0  501  0.00000000000E+00  0.00000000000E+00 -0.99282636080E+02  0.99282636113E+02  0.25500000920E-02 0. -1.
    10030    2    1    2    0    0  0.00000000000E+00  0.00000000000E+00  0.81027279534E+03  0.10088380675E+04  0.60100935404E+03 0.  0.
        5    1    3    3  502    0  0.25040654976E+03 -0.14930750019E+03  0.28310978524E+03  0.40641039637E+03  0.46999998093E+01 0. -1.
       -5    1    3    3    0  502 -0.25040654976E+03  0.14930750019E+03  0.52716301010E+03  0.60242767117E+03  0.46999998093E+01 0.  1.
</event>
<event>
 5   0  0.3703280E-02  0.6054722E+03  0.7818609E-02  0.9894118E-01
       -1   -1    0    0    0  501  0.00000000000E+00  0.00000000000E+00  0.12019064665E+03  0.12019064676E+03  0.50400001928E-02 0.  1.
        1   -1    0    0  501    0  0.00000000000E+00  0.00000000000E+00 -0.76253138291E+03  0.76253138292E+03  0.50400001928E-02 0. -1.
    10030    2    1    2    0    0  0.00000000000E+00  0.00000000000E+00 -0.64234073625E+03  0.88272202968E+03  0.60547217957E+03 0.  0.
        5    1    3    3  502    0  0.21425246331E+03 -0.51520506571E+02 -0.62372931202E+03  0.66152764516E+03  0.46999998093E+01 0.  1.
       -5    1    3    3    0  502 -0.21425246331E+03  0.51520506571E+02 -0.18611424232E+02  0.22119438452E+03  0.46999998093E+01 0. -1.
</event>
<event>
 5   0  0.5872632E-02  0.6273381E+03  0.7818609E-02  0.9850257E-01
       -2   -1    0    0    0  501  0.00000000000E+00  0.00000000000E+00  0.12263100876E+03  0.12263100879E+03  0.25500000920E-02 0.  1.
        2   -1    0    0  501    0  0.00000000000E+00  0.00000000000E+00 -0.80231141636E+03  0.80231141636E+03  0.25500000920E-02 0. -1.
    10030    2    1    2    0    0  0.00000000000E+00  0.00000000000E+00 -0.67968040760E+03  0.92494242515E+03  0.62733805351E+03 0.  0.
        1    1    3    3  502    0 -0.12372592459E+03  0.11820827685E+03 -0.72743144438E+03  0.74728696458E+03  0.50400001928E-02 0. -1.
       -1    1    3    3    0  502  0.12372592459E+03 -0.11820827685E+03  0.47751036782E+02  0.17765546057E+03  0.50400001928E-02 0.  1.
</event>
<event>
 5   0  0.5999117E-02  0.5970900E+03  0.7818609E-02  0.9911462E-01
       -2   -1    0    0    0  501  0.00000000000E+00  0.00000000000E+00  0.22831584057E+03  0.22831584059E+03  0.25500000920E-02 0. -1.
        2   -1    0    0  501    0  0.00000000000E+00  0.00000000000E+00 -0.39037636299E+03  0.39037636300E+03  0.25500000920E-02 0.  1.
    10030    2    1    2    0    0  0.00000000000E+00  0.00000000000E+00 -0.16206052242E+03  0.61869220359E+03  0.59708996797E+03 0.  0.
        5    1    3    3  502    0  0.12752631011E+03 -0.16564395838E+02 -0.36016408722E+03  0.38246254549E+03  0.46999998093E+01 0.  1.
       -5    1    3    3    0  502 -0.12752631011E+03  0.16564395838E+02  0.19810356480E+03  0.23622965810E+03  0.46999998093E+01 0. -1.
</event>
<event>
 5   0  0.5999117E-02  0.5886012E+03  0.7818609E-02  0.9929341E-01
       -2   -1    0    0    0  501  0.00000000000E+00  0.00000000000E+00  0.20302349537E+03  0.20302349538E+03  0.25500000920E-02 0. -1.
        2   -1    0    0  501    0  0.00000000000E+00  0.00000000000E+00 -0.42661483743E+03  0.42661483744E+03  0.25500000920E-02 0.  1.
    10030    2    1    2    0    0  0.00000000000E+00  0.00000000000E+00 -0.22359134207E+03  0.62963833282E+03  0.58860117390E+03 0.  0.
        5    1    3    3  502    0  0.43789118026E+02  0.17868050122E+03 -0.35747409237E+03  0.40206221545E+03  0.46999998093E+01 0.  1.
       -5    1    3    3    0  502 -0.43789118026E+02 -0.17868050122E+03  0.13388275031E+03  0.22757611738E+03  0.46999998093E+01 0. -1.
</event>
<event>
 5   0  0.3640827E-02  0.5991112E+03  0.7818609E-02  0.9907252E-01
       -1   -1    0    0    0  501  0.00000000000E+00  0.00000000000E+00  0.28878498794E+03  0.28878498799E+03  0.50400001928E-02 0. -1.
        1   -1    0    0  501    0  0.00000000000E+00  0.00000000000E+00 -0.31072789645E+03  0.31072789649E+03  0.50400001928E-02 0.  1.
    10030    2    1    2    0    0  0.00000000000E+00  0.00000000000E+00 -0.21942908506E+02  0.59951288448E+03  0.59911118118E+03 0.  0.
        3    1    3    3  502    0  0.25759362490E+02  0.22627841754E+03  0.18375623425E+03  0.29262916948E+03  0.10100000352E+00 0.  1.
       -3    1    3    3    0  502 -0.25759362490E+02 -0.22627841754E+03 -0.20569914276E+03  0.30688371500E+03  0.10100000352E+00 0. -1.
</event>
<event>
 5   0  0.3703280E-02  0.5863932E+03  0.7818609E-02  0.9934045E-01
        1   -1    0    0  501    0  0.00000000000E+00  0.00000000000E+00  0.56860900247E+03  0.56860900249E+03  0.50400001928E-02 0.  1.
       -1   -1    0    0    0  501  0.00000000000E+00  0.00000000000E+00 -0.15118338846E+03  0.15118338855E+03  0.50400001928E-02 0. -1.
    10030    2    1    2    0    0  0.00000000000E+00  0.00000000000E+00  0.41742561401E+03  0.71979239104E+03  0.58639316416E+03 0.  0.
        5    1    3    3  502    0 -0.57167937812E+02  0.17492804041E+03 -0.71397739703E+02  0.19745308220E+03  0.46999998093E+01 0. -1.
       -5    1    3    3    0  502  0.57167937812E+02 -0.17492804041E+03  0.48882335371E+03  0.52233930885E+03  0.46999998093E+01 0.  1.
</event>
<event>
 5   0  0.5999117E-02  0.6077483E+03  0.7818609E-02  0.9889460E-01
       -2   -1    0    0    0  501  0.00000000000E+00  0.00000000000E+00  0.12980536684E+03  0.12980536686E+03  0.25500000920E-02 0.  1.
        2   -1    0    0  501    0  0.00000000000E+00  0.00000000000E+00 -0.71136897593E+03  0.71136897593E+03  0.25500000920E-02 0. -1.
    10030    2    1    2    0    0  0.00000000000E+00  0.00000000000E+00 -0.58156360909E+03  0.84117434279E+03  0.60774833900E+03 0.  0.
        5    1    3    3  502    0 -0.50045065482E+02  0.89494091850E+02 -0.68664831541E+03  0.69427782631E+03  0.46999998093E+01 0. -1.
       -5    1    3    3    0  502  0.50045065482E+02 -0.89494091850E+02  0.10508470632E+03  0.14689651648E+03  0.46999998093E+01 0.  1.
</event>
<event>
 5   0  0.3767635E-02  0.5982340E+03  0.7818609E-02  0.9909077E-01
        1   -1    0    0  501    0  0.00000000000E+00  0.00000000000E+00  0.91186505692E+03  0.91186505693E+03  0.50400001928E-02 0.  1.
       -1   -1    0    0    0  501  0.00000000000E+00  0.00000000000E+00 -0.98118657261E+02  0.98118657391E+02  0.50400001928E-02 0. -1.
    10030    2    1    2    0    0  0.00000000000E+00  0.00000000000E+00  0.81374639966E+03  0.10099837143E+04  0.59823398453E+03 0.  0.
        2    1    3    3  502    0 -0.19504404707E+03 -0.23402554252E+02  0.78769482401E+03  0.81182079033E+03  0.25500000920E-02 0.  1.
       -2    1    3    3    0  502  0.19504404707E+03  0.23402554252E+02  0.26051575650E+02  0.19816292399E+03  0.25500000920E-02 0. -1.
</event>
<event>
 5   0  0.5872632E-02  0.5973349E+03  0.7818609E-02  0.9910951E-01
        2   -1    0    0  501    0  0.00000000000E+00  0.00000000000E+00  0.10188018183E+04  0.10188018183E+04  0.25500000920E-02 0.  1.
       -2   -1    0    0    0  501  0.00000000000E+00  0.00000000000E+00 -0.87556030066E+02  0.87556030104E+02  0.25500000920E-02 0. -1.
    10030    2    1    2    0    0  0.00000000000E+00  0.00000000000E+00  0.93124578822E+03  0.11063578484E+04  0.59733488984E+03 0.  0.
        1    1    3    3  502    0 -0.47345246041E+02 -0.13509677955E+03  0.95111953470E+03  0.96183214829E+03  0.50400001928E-02 0.  1.
       -1    1    3    3    0  502  0.47345246041E+02  0.13509677955E+03 -0.19873746479E+02  0.14452570011E+03  0.50400001928E-02 0. -1.
</event>
<event>
 5   0  0.3703280E-02  0.6108721E+03  0.7818609E-02  0.9883103E-01
       -1   -1    0    0    0  501  0.00000000000E+00  0.00000000000E+00  0.96079273726E+02  0.96079273859E+02  0.50400001928E-02 0.  1.
        1   -1    0    0  501    0  0.00000000000E+00  0.00000000000E+00 -0.97098121705E+03  0.97098121706E+03  0.50400001928E-02 0. -1.
    10030    2    1    2    0    0  0.00000000000E+00  0.00000000000E+00 -0.87490194332E+03  0.10670604909E+04  0.61087206587E+03 0.  0.
        5    1    3    3  502    0  0.27188458162E+03 -0.13540465215E+03 -0.38184305151E+03  0.48793631914E+03  0.46999998093E+01 0.  1.
       -5    1    3    3    0  502 -0.27188458162E+03  0.13540465215E+03 -0.49305889181E+03  0.57912417178E+03  0.46999998093E+01 0. -1.
</event>
<event>
 5   0  0.3651984E-02  0.6060768E+03  0.7818609E-02  0.9892878E-01
       -1   -1    0    0    0  501  0.00000000000E+00  0.00000000000E+00  0.79265580929E+02  0.79265581089E+02  0.50400001928E-02 0.  1.
        1   -1    0    0  501    0  0.00000000000E+00  0.00000000000E+00 -0.11585391571E+04  0.11585391571E+04  0.50400001928E-02 0. -1.
    10030    2    1    2    0    0  0.00000000000E+00  0.00000000000E+00 -0.10792735762E+04  0.12378047382E+04  0.60607682491E+03 0.  0.
        1    1    3    3  502    0 -0.13596424133E+03  0.60284755449E+02 -0.40254427651E+00  0.14873025491E+03  0.50400001928E-02 0.  1.
       -1    1    3    3    0  502  0.13596424133E+03 -0.60284755449E+02 -0.10788710319E+04  0.10890744833E+04  0.50400001928E-02 0. -1.
</event>
<event>
 5   0  0.3651984E-02  0.6060666E+03  0.7818609E-02  0.9892899E-01
        1   -1    0    0  501    0  0.00000000000E+00  0.00000000000E+00  0.42950110830E+03  0.42950110833E+03  0.50400001928E-02 0. -1.
       -1   -1    0    0    0  501  0.00000000000E+00  0.00000000000E+00 -0.21380430899E+03  0.21380430905E+03  0.50400001928E-02 0.  1.
    10030    2    1    2    0    0  0.00000000000E+00  0.00000000000E+00  0.21569679930E+03  0.64330541738E+03  0.60606662241E+03 0.  0.
        1    1    3    3  502    0  0.63136392469E+02 -0.95483962418E+02  0.40566943798E+03  0.42151047920E+03  0.50400001928E-02 0. -1.
       -1    1    3    3    0  502 -0.63136392469E+02  0.95483962418E+02 -0.18997263868E+03  0.22179493819E+03  0.50400001928E-02 0.  1.
</event>
<event>
 5   0  0.3767635E-02  0.6021045E+03  0.7818609E-02  0.9901049E-01
       -1   -1    0    0    0  501  0.00000000000E+00  0.00000000000E+00  0.34984437117E+03  0.34984437121E+03  0.50400001928E-02 0. -1.
        1   -1    0    0  501    0  0.00000000000E+00  0.00000000000E+00 -0.25906507648E+03  0.25906507653E+03  0.50400001928E-02 0.  1.
    10030    2    1    2    0    0  0.00000000000E+00  0.00000000000E+00  0.90779294696E+02  0.60890944774E+03  0.60210450521E+03 0.  0.
        2    1    3    3  502    0  0.11149039002E+03  0.24240788175E+03 -0.95616346359E+02  0.28343283842E+03  0.25500000920E-02 0.  1.
       -2    1    3    3    0  502 -0.11149039002E+03 -0.24240788175E+03  0.18639564105E+03  0.32547660931E+03  0.25500000920E-02 0. -1.
</event>
<event>
 5   0  0.6007360E-02  0.5744812E+03  0.7818609E-02  0.9959811E-01
       -2   -1    0    0    0  501  0.00000000000E+00  0.00000000000E+00  0.26219706704E+03  0.26219706705E+03  0.25500000920E-02 0. -1.
        2   -1    0    0  501    0  0.00000000000E+00  0.00000000000E+00 -0.31467610411E+03  0.31467610412E+03  0.25500000920E-02 0.  1.
    10030    2    1    2    0    0  0.00000000000E+00  0.00000000000E+00 -0.52479037075E+02  0.57687317117E+03  0.57448116269E+03 0.  0.
        4    1    3    3  502    0  0.10902544818E+02  0.49607377919E+02 -0.31012814520E+03  0.31426236933E+03  0.12699999809E+01 0.  1.
       -4    1    3    3    0  502 -0.10902544818E+02 -0.49607377919E+02  0.25764910813E+03  0.26261080185E+03  0.12699999809E+01 0. -1.
</event>
<event>
 5   0  0.5872632E-02  0.5994100E+03  0.7818609E-02  0.9906631E-01
        2   -1    0    0  501    0  0.00000000000E+00  0.00000000000E+00  0.61346860151E+03  0.61346860152E+03  0.25500000920E-02 0.  1.
       -2   -1    0    0    0  501  0.00000000000E+00  0.00000000000E+00 -0.14641839727E+03  0.14641839729E+03  0.25500000920E-02 0. -1.
    10030    2    1    2    0    0  0.00000000000E+00  0.00000000000E+00  0.46705020424E+03  0.75988699880E+03  0.59941000798E+03 0.  0.
        1    1    3    3  502    0 -0.51535036939E+02 -0.33246099077E+02  0.60542885034E+03  0.60852712018E+03  0.50400001928E-02 0.  1.
       -1    1    3    3    0  502  0.51535036939E+02  0.33246099077E+02 -0.13837864610E+03  0.15135987863E+03  0.50400001928E-02 0. -1.
</event>
<event>
 5   0  0.3478183E-02  0.6043566E+03  0.7818609E-02  0.9896408E-01
       -1   -1    0    0    0  501  0.00000000000E+00  0.00000000000E+00  0.40747813385E+03  0.40747813388E+03  0.50400001928E-02 0.  1.
        1   -1    0    0  501    0  0.00000000000E+00  0.00000000000E+00 -0.22408989425E+03  0.22408989430E+03  0.50400001928E-02 0. -1.
    10030    2    1    2    0    0  0.00000000000E+00  0.00000000000E+00  0.18338823960E+03  0.63156802818E+03  0.60435662303E+03 0.  0.
        4    1    3    3  502    0  0.64125024136E+01  0.27387856960E+03  0.22494829259E+03  0.35447699264E+03  0.12699999809E+01 0.  1.
       -4    1    3    3    0  502 -0.64125024136E+01 -0.27387856960E+03 -0.41560052987E+02  0.27709103554E+03  0.12699999809E+01 0. -1.
</event>
<event>
 5   0  0.5999117E-02  0.6175050E+03  0.7818609E-02  0.9869740E-01
        2   -1    0    0  501    0  0.00000000000E+00  0.00000000000E+00  0.12953427452E+04  0.12953427452E+04  0.25500000920E-02 0.  1.
       -2   -1    0    0    0  501  0.00000000000E+00  0.00000000000E+00 -0.73592955853E+02  0.73592955897E+02  0.25500000920E-02 0. -1.
    10030    2    1    2    0    0  0.00000000000E+00  0.00000000000E+00  0.12217497894E+04  0.13689357011E+04  0.61750498458E+03 0.  0.
        5    1    3    3  502    0 -0.10973977259E+03 -0.31823205463E+02 -0.24912328236E+02  0.11703951550E+03  0.46999998093E+01 0. -1.
       -5    1    3    3    0  502  0.10973977259E+03  0.31823205463E+02  0.12466621176E+04  0.12518961856E+04  0.46999998093E+01 0.  1.
</event>
<event>
 5   0  0.5935451E-02  0.5974824E+03  0.7818609E-02  0.9910643E-01
        2   -1    0    0  501    0  0.00000000000E+00  0.00000000000E+00  0.12835689196E+04  0.12835689196E+04  0.25500000920E-02 0.  1.
       -2   -1    0    0    0  501  0.00000000000E+00  0.00000000000E+00 -0.69529806229E+02  0.69529806276E+02  0.25500000920E-02 0. -1.
    10030    2    1    2    0    0  0.00000000000E+00  0.00000000000E+00  0.12140391134E+04  0.13530987259E+04  0.59748237897E+03 0.  0.
        3    1    3    3  502    0  0.25505388936E+02 -0.25020927846E+03  0.97212352072E+03  0.10041311456E+04  0.10100000352E+00 0.  1.
       -3    1    3    3    0  502 -0.25505388936E+02  0.25020927846E+03  0.24191559263E+03  0.34896758023E+03  0.10100000352E+00 0. -1.
</event>
<event>
 5   0  0.6007360E-02  0.5993984E+03  0.7818609E-02  0.9906655E-01
        2   -1    0    0  501    0  0.00000000000E+00  0.00000000000E+00  0.35809639732E+03  0.35809639733E+03  0.25500000920E-02 0.  1.
       -2   -1    0    0    0  501  0.00000000000E+00  0.00000000000E+00 -0.25082523978E+03  0.25082523979E+03  0.25500000920E-02 0. -1.
    10030    2    1    2    0    0  0.00000000000E+00  0.00000000000E+00  0.10727115754E+03  0.60892163712E+03  0.59939841417E+03 0.  0.
        4    1    3    3  502    0 -0.25959653300E+03 -0.11026856570E+03 -0.49307940125E+02  0.28632569285E+03  0.12699999809E+01 0. -1.
       -4    1    3    3    0  502  0.25959653300E+03  0.11026856570E+03  0.15657909766E+03  0.32259594426E+03  0.12699999809E+01 0.  1.
</event>
<event>
 5   0  0.5755078E-02  0.6031348E+03  0.7818609E-02  0.9898924E-01
       -2   -1    0    0    0  501  0.00000000000E+00  0.00000000000E+00  0.62534667973E+03  0.62534667973E+03  0.25500000920E-02 0.  1.
        2   -1    0    0  501    0  0.00000000000E+00  0.00000000000E+00 -0.14542799130E+03  0.14542799133E+03  0.25500000920E-02 0. -1.
    10030    2    1    2    0    0  0.00000000000E+00  0.00000000000E+00  0.47991868842E+03  0.77077467106E+03  0.60313484897E+03 0.  0.
        2    1    3    3  502    0 -0.94011703475E+02 -0.18679947709E+03  0.51763197671E+03  0.55827870133E+03  0.25500000920E-02 0.  1.
       -2    1    3    3    0  502  0.94011703475E+02  0.18679947709E+03 -0.37713288290E+02  0.21249596973E+03  0.25500000920E-02 0. -1.
</event>
<event>
 5   0  0.5755078E-02  0.5979454E+03  0.7818609E-02  0.9909678E-01
        2   -1    0    0  501    0  0.00000000000E+00  0.00000000000E+00  0.27931219977E+03  0.27931219978E+03  0.25500000920E-02 0.  1.
       -2   -1    0    0    0  501  0.00000000000E+00  0.00000000000E+00 -0.32001706307E+03  0.32001706308E+03  0.25500000920E-02 0. -1.
    10030    2    1    2    0    0  0.00000000000E+00  0.00000000000E+00 -0.40704863309E+02  0.59932926286E+03  0.59794538164E+03 0.  0.
        2    1    3    3  502    0 -0.16550601163E+03  0.11445867809E+03  0.20127385718E+03  0.28461235825E+03  0.25500000920E-02 0.  1.
       -2    1    3    3    0  502  0.16550601163E+03 -0.11445867809E+03 -0.24197872049E+03  0.31471690462E+03  0.25500000920E-02 0. -1.
</event>
<event>
 5   0  0.5755078E-02  0.6020519E+03  0.7818609E-02  0.9901158E-01
        2   -1    0    0  501    0  0.00000000000E+00  0.00000000000E+00  0.46408866297E+03  0.46408866298E+03  0.25500000920E-02 0. -1.
       -2   -1    0    0    0  501  0.00000000000E+00  0.00000000000E+00 -0.19525713915E+03  0.19525713917E+03  0.25500000920E-02 0.  1.
    10030    2    1    2    0    0  0.00000000000E+00  0.00000000000E+00  0.26883152382E+03  0.65934580215E+03  0.60205190691E+03 0.  0.
        2    1    3    3  502    0  0.15672286130E+03 -0.86796347632E+02  0.39934814308E+03  0.43769235840E+03  0.25500000920E-02 0. -1.
       -2    1    3    3    0  502 -0.15672286130E+03  0.86796347632E+02 -0.13051661926E+03  0.22165344375E+03  0.25500000920E-02 0.  1.
</event>
<event>
 5   0  0.5935451E-02  0.5999167E+03  0.7818609E-02  0.9905579E-01
        2   -1    0    0  501    0  0.00000000000E+00  0.00000000000E+00  0.58139364335E+03  0.58139364336E+03  0.25500000920E-02 0.  1.
       -2   -1    0    0    0  501  0.00000000000E+00  0.00000000000E+00 -0.15475749845E+03  0.15475749847E+03  0.25500000920E-02 0. -1.
    10030    2    1    2    0    0  0.00000000000E+00  0.00000000000E+00  0.42663614490E+03  0.73615114183E+03  0.59991674713E+03 0.  0.
        3    1    3    3  502    0 -0.29383985971E+03 -0.84285461353E+01  0.14008119872E+03  0.32563116555E+03  0.10100000352E+00 0. -1.
       -3    1    3    3    0  502  0.29383985971E+03  0.84285461353E+01  0.28655494618E+03  0.41051997628E+03  0.10100000352E+00 0.  1.
</event>
<event>
 5   0  0.6007360E-02  0.6015098E+03  0.7818609E-02  0.9902279E-01
        2   -1    0    0  501    0  0.00000000000E+00  0.00000000000E+00  0.40041425388E+03  0.40041425389E+03  0.25500000920E-02 0. -1.
       -2   -1    0    0    0  501  0.00000000000E+00  0.00000000000E+00 -0.22589983153E+03  0.22589983154E+03  0.25500000920E-02 0.  1.
    10030    2    1    2    0    0  0.00000000000E+00  0.00000000000E+00  0.17451442235E+03  0.62631408543E+03  0.60150980874E+03 0.  0.
        4    1    3    3  502    0  0.24004005131E+03  0.17569636892E+03  0.13339538688E+03  0.32601285623E+03  0.12699999809E+01 0. -1.
       -4    1    3    3    0  502 -0.24004005131E+03 -0.17569636892E+03  0.41119035469E+02  0.30030122921E+03  0.12699999809E+01 0.  1.
</event>
<event>
 5   0  0.5872632E-02  0.6155381E+03  0.7818609E-02  0.9873684E-01
        2   -1    0    0  501    0  0.00000000000E+00  0.00000000000E+00  0.12665126149E+04  0.12665126149E+04  0.25500000920E-02 0. -1.
       -2   -1    0    0    0  501  0.00000000000E+00  0.00000000000E+00 -0.74789446079E+02  0.74789446122E+02  0.25500000920E-02 0.  1.
    10030    2    1    2    0    0  0.00000000000E+00  0.00000000000E+00  0.11917231689E+04  0.13413020611E+04  0.61553806366E+03 0.  0.
        1    1    3    3  502    0 -0.20221051907E+03  0.22368964101E+03  0.73011132807E+03  0.78992955440E+03  0.50400001928E-02 0. -1.
       -1    1    3    3    0  502  0.20221051907E+03 -0.22368964101E+03  0.46161184078E+03  0.55137250665E+03  0.50400001928E-02 0.  1.
</event>
<event>
 5   0  0.3478183E-02  0.6267507E+03  0.7818609E-02  0.9851410E-01
        1   -1    0    0  501    0  0.00000000000E+00  0.00000000000E+00  0.83452543879E+03  0.83452543880E+03  0.50400001928E-02 0.  1.
       -1   -1    0    0    0  501  0.00000000000E+00  0.00000000000E+00 -0.11767659482E+03  0.11767659492E+03  0.50400001928E-02 0. -1.
    10030    2    1    2    0    0  0.00000000000E+00  0.00000000000E+00  0.71684884397E+03  0.95220203373E+03  0.62675070637E+03 0.  0.
        4    1    3    3  502    0 -0.29733352004E+02  0.24359854227E+03  0.65449914394E+03  0.69899575416E+03  0.12699999809E+01 0.  1.
       -4    1    3    3    0  502  0.29733352004E+02 -0.24359854227E+03  0.62349700026E+02  0.25320627956E+03  0.12699999809E+01 0. -1.
</event>
<event>
 5   0  0.3640827E-02  0.6157388E+03  0.7818609E-02  0.9873280E-01
        1   -1    0    0  501    0  0.00000000000E+00  0.00000000000E+00  0.71480577823E+03  0.71480577824E+03  0.50400001928E-02 0. -1.
       -1   -1    0    0    0  501  0.00000000000E+00  0.00000000000E+00 -0.13260046733E+03  0.13260046742E+03  0.50400001928E-02 0.  1.
    10030    2    1    2    0    0  0.00000000000E+00  0.00000000000E+00  0.58220531090E+03  0.84740624567E+03  0.61573884168E+03 0.  0.
        3    1    3    3  502    0  0.53167563660E+02 -0.10627581154E+03  0.68197075587E+03  0.69224667569E+03  0.10100000352E+00 0. -1.
       -3    1    3    3    0  502 -0.53167563660E+02  0.10627581154E+03 -0.99765444967E+02  0.15515956998E+03  0.10100000352E+00 0.  1.
</event>
<event>
 5   0  0.3478183E-02  0.5949155E+03  0.7818609E-02  0.9916011E-01
       -1   -1    0    0    0  501  0.00000000000E+00  0.00000000000E+00  0.12418501012E+03  0.12418501022E+03  0.50400001928E-02 0.  1.
        1   -1    0    0  501    0  0.00000000000E+00  0.00000000000E+00 -0.71249425628E+03  0.71249425630E+03  0.50400001928E-02 0. -1.
    10030    2    1    2    0    0  0.00000000000E+00  0.00000000000E+00 -0.58830924617E+03  0.83667926652E+03  0.59491547794E+03 0.  0.
        4    1    3    3  502    0  0.17786375535E+03  0.65341445982E+02 -0.61662602462E+03  0.64508471317E+03  0.12699999809E+01 0. -1.
       -4    1    3    3    0  502 -0.17786375535E+03 -0.65341445982E+02  0.28316778451E+02  0.19159455335E+03  0.12699999809E+01 0.  1.
</event>
<event>
 5   0  0.6007360E-02  0.6014280E+03  0.7818609E-02  0.9902448E-01
        2   -1    0    0  501    0  0.00000000000E+00  0.00000000000E+00  0.19627101272E+03  0.19627101273E+03  0.25500000920E-02 0. -1.
       -2   -1    0    0    0  501  0.00000000000E+00  0.00000000000E+00 -0.46073495349E+03  0.46073495350E+03  0.25500000920E-02 0.  1.
    10030    2    1    2    0    0  0.00000000000E+00  0.00000000000E+00 -0.26446394077E+03  0.65700596623E+03  0.60142802038E+03 0.  0.
        4    1    3    3  502    0 -0.46195280829E+02  0.16210215830E+03  0.13981142955E+03  0.21899763110E+03  0.12699999809E+01 0. -1.
       -4    1    3    3    0  502  0.46195280829E+02 -0.16210215830E+03 -0.40427537032E+03  0.43800833513E+03  0.12699999809E+01 0.  1.
</event>
<event>
 5   0  0.5755078E-02  0.6525417E+03  0.7818609E-02  0.9802022E-01
       -2   -1    0    0    0  501  0.00000000000E+00  0.00000000000E+00  0.19064377536E+03  0.19064377537E+03  0.25500000920E-02 0. -1.
        2   -1    0    0  501    0  0.00000000000E+00  0.00000000000E+00 -0.55838523555E+03  0.55838523555E+03  0.25500000920E-02 0.  1.
    10030    2    1    2    0    0  0.00000000000E+00  0.00000000000E+00 -0.36774146019E+03  0.74902901093E+03  0.65254170569E+03 0.  0.
        2    1    3    3  502    0 -0.46368251407E+02 -0.41493372738E+02  0.18377009602E+03  0.19401846025E+03  0.25500000920E-02 0. -1.
       -2    1    3    3    0  502  0.46368251407E+02  0.41493372738E+02 -0.55151155621E+03  0.55501055068E+03  0.25500000920E-02 0.  1.
</event>
<event>
 5   0  0.5755078E-02  0.6047984E+03  0.7818609E-02  0.9895501E-01
        2   -1    0    0  501    0  0.00000000000E+00  0.00000000000E+00  0.77844890213E+03  0.77844890214E+03  0.25500000920E-02 0. -1.
       -2   -1    0    0    0  501  0.00000000000E+00  0.00000000000E+00 -0.11747114094E+03  0.11747114097E+03  0.25500000920E-02 0.  1.
    10030    2    1    2    0    0  0.00000000000E+00  0.00000000000E+00  0.66097776119E+03  0.89592004311E+03  0.60479841506E+03 0.  0.
        2    1    3    3  502    0  0.22316813889E+03  0.63999593534E+02  0.43452806390E+02  0.23619507314E+03  0.25500000920E-02 0.  1.
       -2    1    3    3    0  502 -0.22316813889E+03 -0.63999593534E+02  0.61752495480E+03  0.65972496996E+03  0.25500000920E-02 0. -1.
</event>
<event>
 5   0  0.5872632E-02  0.5998021E+03  0.7818609E-02  0.9905817E-01
        2   -1    0    0  501    0  0.00000000000E+00  0.00000000000E+00  0.39115378688E+03  0.39115378689E+03  0.25500000920E-02 0. -1.
       -2   -1    0    0    0  501  0.00000000000E+00  0.00000000000E+00 -0.22993679617E+03  0.22993679619E+03  0.25500000920E-02 0.  1.
    10030    2    1    2    0    0  0.00000000000E+00  0.00000000000E+00  0.16121699071E+03  0.62109058308E+03  0.59980212929E+03 0.  0.
        1    1    3    3  502    0 -0.15421471268E+03  0.10471646773E+03  0.32387856276E+03  0.37369110193E+03  0.50400001928E-02 0. -1.
       -1    1    3    3    0  502  0.15421471268E+03 -0.10471646773E+03 -0.16266157205E+03  0.24739948114E+03  0.50400001928E-02 0.  1.
</event>
<event>
 5   0  0.5999117E-02  0.5201761E+03  0.7818609E-02  0.1008643E+00
       -2   -1    0    0    0  501  0.00000000000E+00  0.00000000000E+00  0.38209294483E+03  0.38209294484E+03  0.25500000920E-02 0.  1.
        2   -1    0    0  501    0  0.00000000000E+00  0.00000000000E+00 -0.17704016782E+03  0.17704016784E+03  0.25500000920E-02 0. -1.
    10030    2    1    2    0    0  0.00000000000E+00  0.00000000000E+00  0.20505277701E+03  0.55913311268E+03  0.52017612049E+03 0.  0.
        5    1    3    3  502    0 -0.18589271481E+03  0.10502651375E+03  0.26209277937E+03  0.33808487840E+03  0.46999998093E+01 0.  1.
       -5    1    3    3    0  502  0.18589271481E+03 -0.10502651375E+03 -0.57040002353E+02  0.22104823428E+03  0.46999998093E+01 0. -1.
</event>
<event>
 5   0  0.3767635E-02  0.6122968E+03  0.7818609E-02  0.9880217E-01
       -1   -1    0    0    0  501  0.00000000000E+00  0.00000000000E+00  0.26801146791E+03  0.26801146796E+03  0.50400001928E-02 0.  1.
        1   -1    0    0  501    0  0.00000000000E+00  0.00000000000E+00 -0.34971210553E+03  0.34971210556E+03  0.50400001928E-02 0. -1.
    10030    2    1    2    0    0  0.00000000000E+00  0.00000000000E+00 -0.81700637616E+02  0.61772357352E+03  0.61229683904E+03 0.  0.
        2    1    3    3  502    0  0.98644166643E+02  0.14054405366E+03 -0.29655985863E+03  0.34268214484E+03  0.25500000920E-02 0. -1.
       -2    1    3    3    0  502 -0.98644166643E+02 -0.14054405366E+03  0.21485922101E+03  0.27504142868E+03  0.25500000920E-02 0.  1.
</event>
<event>
 5   0  0.3640827E-02  0.5684473E+03  0.7818609E-02  0.9973120E-01
        1   -1    0    0  501    0  0.00000000000E+00  0.00000000000E+00  0.16312810363E+04  0.16312810363E+04  0.50400001928E-02 0.  1.
       -1   -1    0    0    0  501  0.00000000000E+00  0.00000000000E+00 -0.49521256218E+02  0.49521256475E+02  0.50400001928E-02 0. -1.
    10030    2    1    2    0    0  0.00000000000E+00  0.00000000000E+00  0.15817597801E+04  0.16808022928E+04  0.56844731114E+03 0.  0.
        3    1    3    3  502    0  0.77218049279E+02  0.41988217337E+02  0.15900857072E+04  0.15925131723E+04  0.10100000352E+00 0.  1.
       -3    1    3    3    0  502 -0.77218049279E+02 -0.41988217337E+02 -0.83259271251E+01  0.88289120468E+02  0.10100000352E+00 0. -1.
</event>
<event>
 5   0  0.3651984E-02  0.5840452E+03  0.7818609E-02  0.9939071E-01
        1   -1    0    0  501    0  0.00000000000E+00  0.00000000000E+00  0.70159150251E+03  0.70159150253E+03  0.50400001928E-02 0.  1.
       -1   -1    0    0    0  501  0.00000000000E+00  0.00000000000E+00 -0.12154823095E+03  0.12154823106E+03  0.50400001928E-02 0. -1.
    10030    2    1    2    0    0  0.00000000000E+00  0.00000000000E+00  0.58004327156E+03  0.82313973359E+03  0.58404522438E+03 0.  0.
        1    1    3    3  502    0 -0.13692884096E+03  0.25615067369E+03  0.33264289510E+03  0.44160386185E+03  0.50400001928E-02 0.  1.
       -1    1    3    3    0  502  0.13692884096E+03 -0.25615067369E+03  0.24740037646E+03  0.38153587173E+03  0.50400001928E-02 0. -1.
</event>
<event>
 5   0  0.3767635E-02  0.6039419E+03  0.7818609E-02  0.9897261E-01
       -1   -1    0    0    0  501  0.00000000000E+00  0.00000000000E+00  0.29783095154E+03  0.29783095158E+03  0.50400001928E-02 0.  1.
        1   -1    0    0  501    0  0.00000000000E+00  0.00000000000E+00 -0.30616853914E+03  0.30616853918E+03  0.50400001928E-02 0. -1.
    10030    2    1    2    0    0  0.00000000000E+00  0.00000000000E+00 -0.83375875994E+01  0.60399949076E+03  0.60394194214E+03 0.  0.
        2    1    3    3  502    0 -0.59676879467E+02 -0.11357370486E+03 -0.27755568581E+03  0.30577356836E+03  0.25500000920E-02 0. -1.
       -2    1    3    3    0  502  0.59676879467E+02  0.11357370486E+03  0.26921809821E+03  0.29822592240E+03  0.25500000920E-02 0.  1.
</event>
<event>
 5   0  0.5935451E-02  0.6125861E+03  0.7818609E-02  0.9879633E-01
        2   -1    0    0  501    0  0.00000000000E+00  0.00000000000E+00  0.11613501893E+04  0.11613501893E+04  0.25500000920E-02 0.  1.
       -2   -1    0    0    0  501  0.00000000000E+00  0.00000000000E+00 -0.80781342535E+02  0.80781342575E+02  0.25500000920E-02 0. -1.
    10030    2    1    2    0    0  0.00000000000E+00  0.00000000000E+00  0.10805688468E+04  0.12421315319E+04  0.61258608366E+03 0.  0.
        3    1    3    3  502    0  0.10628627613E+03  0.31734890195E+02 -0.38624192610E+02  0.11745515828E+03  0.10100000352E+00 0. -1.
       -3    1    3    3    0  502 -0.10628627613E+03 -0.31734890195E+02  0.11191930394E+04  0.11246763736E+04  0.10100000352E+00 0.  1.
</event>
<event>
 5   0  0.3767635E-02  0.6081430E+03  0.7818609E-02  0.9888655E-01
        1   -1    0    0  501    0  0.00000000000E+00  0.00000000000E+00  0.18692122737E+03  0.18692122743E+03  0.50400001928E-02 0.  1.
       -1   -1    0    0    0  501  0.00000000000E+00  0.00000000000E+00 -0.49464400452E+03  0.49464400455E+03  0.50400001928E-02 0. -1.
    10030    2    1    2    0    0  0.00000000000E+00  0.00000000000E+00 -0.30772277716E+03  0.68156523198E+03  0.60814295841E+03 0.  0.
        2    1    3    3  502    0 -0.74963437882E+02 -0.27805690025E+03 -0.26323648617E+03  0.39016484267E+03  0.25500000920E-02 0. -1.
       -2    1    3    3    0  502  0.74963437882E+02  0.27805690025E+03 -0.44486290984E+02  0.29140038931E+03  0.25500000920E-02 0.  1.
</event>
<event>
 5   0  0.5999117E-02  0.6055135E+03  0.7818609E-02  0.9894033E-01
        2   -1    0    0  501    0  0.00000000000E+00  0.00000000000E+00  0.25925225751E+03  0.25925225752E+03  0.25500000920E-02 0.  1.
       -2   -1    0    0    0  501  0.00000000000E+00  0.00000000000E+00 -0.35356162125E+03  0.35356162125E+03  0.25500000920E-02 0. -1.
    10030    2    1    2    0    0  0.00000000000E+00  0.00000000000E+00 -0.94309363735E+02  0.61281387878E+03  0.60551349608E+03 0.  0.
        5    1    3    3  502    0 -0.15460155663E+03 -0.19381782520E+03  0.12864209207E+03  0.27935258819E+03  0.46999998093E+01 0.  1.
       -5    1    3    3    0  502  0.15460155663E+03  0.19381782520E+03 -0.22295145580E+03  0.33346129059E+03  0.46999998093E+01 0. -1.
</event>
<event>
 5   0  0.6007360E-02  0.5986159E+03  0.7818609E-02  0.9908282E-01
       -2   -1    0    0    0  501  0.00000000000E+00  0.00000000000E+00  0.12440413102E+04  0.12440413102E+04  0.25500000920E-02 0. -1.
        2   -1    0    0  501    0  0.00000000000E+00  0.00000000000E+00 -0.72011475855E+02  0.72011475900E+02  0.25500000920E-02 0.  1.
    10030    2    1    2    0    0  0.00000000000E+00  0.00000000000E+00  0.11720298344E+04  0.13160527861E+04  0.59861590625E+03 0.  0.
        4    1    3    3  502    0  0.29213847653E+03 -0.33535692752E+02  0.70869999260E+03  0.76728536058E+03  0.12699999809E+01 0. -1.
       -4    1    3    3    0  502 -0.29213847653E+03  0.33535692752E+02  0.46332984176E+03  0.54876742553E+03  0.12699999809E+01 0.  1.
</event>
<event>
 5   0  0.3703280E-02  0.6102727E+03  0.7818609E-02  0.9884320E-01
       -1   -1    0    0    0  501  0.00000000000E+00  0.00000000000E+00  0.10496526434E+03  0.10496526446E+03  0.50400001928E-02 0. -1.
        1   -1    0    0  501    0  0.00000000000E+00  0.00000000000E+00 -0.88703813145E+03  0.88703813146E+03  0.50400001928E-02 0.  1.
    10030    2    1    2    0    0  0.00000000000E+00  0.00000000000E+00 -0.78207286711E+03  0.99200339592E+03  0.61027269973E+03 0.  0.
        5    1    3    3  502    0 -0.10012942316E+03 -0.28408663616E+03 -0.31215347751E+03  0.43381217335E+03  0.46999998093E+01 0. -1.
       -5    1    3    3    0  502  0.10012942316E+03  0.28408663616E+03 -0.46991938960E+03  0.55819122257E+03  0.46999998093E+01 0.  1.
</event>
<event>
 5   0  0.3640827E-02  0.5974909E+03  0.7818609E-02  0.9910625E-01
        1   -1    0    0  501    0  0.00000000000E+00  0.00000000000E+00  0.90534781732E+02  0.90534781872E+02  0.50400001928E-02 0. -1.
       -1   -1    0    0    0  501  0.00000000000E+00  0.00000000000E+00 -0.98579616026E+03  0.98579616027E+03  0.50400001928E-02 0.  1.
    10030    2    1    2    0    0  0.00000000000E+00  0.00000000000E+00 -0.89526137852E+03  0.10763309421E+04  0.59749088791E+03 0.  0.
        3    1    3    3  502    0  0.19577605097E+03  0.64128963496E+02 -0.57890864400E+02  0.21399100092E+03  0.10100000352E+00 0. -1.
       -3    1    3    3    0  502 -0.19577605097E+03 -0.64128963496E+02 -0.83737051412E+03  0.86233994122E+03  0.10100000352E+00 0.  1.
</event>
<event>
 5   0  0.3478183E-02  0.5990810E+03  0.7818609E-02  0.9907314E-01
       -1   -1    0    0    0  501  0.00000000000E+00  0.00000000000E+00  0.12434782589E+03  0.12434782599E+03  0.50400001928E-02 0. -1.
        1   -1    0    0  501    0  0.00000000000E+00  0.00000000000E+00 -0.72156086334E+03  0.72156086336E+03  0.50400001928E-02 0.  1.
    10030    2    1    2    0    0  0.00000000000E+00  0.00000000000E+00 -0.59721303746E+03  0.84590868935E+03  0.59908104511E+03 0.  0.
        4    1    3    3  502    0  0.23950180478E+02  0.28809084914E+03 -0.18784725301E+03  0.34475810631E+03  0.12699999809E+01 0.  1.
       -4    1    3    3    0  502 -0.23950180478E+02 -0.28809084914E+03 -0.40936578445E+03  0.50115058304E+03  0.12699999809E+01 0. -1.
</event>
<event>
 5   0  0.3703280E-02  0.5951441E+03  0.7818609E-02  0.9915532E-01
       -1   -1    0    0    0  501  0.00000000000E+00  0.00000000000E+00  0.26071289913E+03  0.26071289918E+03  0.50400001928E-02 0. -1.
        1   -1    0    0  501    0  0.00000000000E+00  0.00000000000E+00 -0.33964227465E+03  0.33964227469E+03  0.50400001928E-02 0.  1.
    10030    2    1    2    0    0  0.00000000000E+00  0.00000000000E+00 -0.78929375518E+02  0.60035517387E+03  0.59514409052E+03 0.  0.
        5    1    3    3  502    0 -0.22843432548E+03 -0.17074032832E+03  0.46086691130E+02  0.28893005014E+03  0.46999998093E+01 0. -1.
       -5    1    3    3    0  502  0.22843432548E+03  0.17074032832E+03 -0.12501606665E+03  0.31142512373E+03  0.46999998093E+01 0.  1.
</event>
<event>
 5   0  0.5755078E-02  0.6027400E+03  0.7818609E-02  0.9899738E-01
       -2   -1    0    0    0  501  0.00000000000E+00  0.00000000000E+00  0.77237092403E+02  0.77237092445E+02  0.25500000920E-02 0. -1.
        2   -1    0    0  501    0  0.00000000000E+00  0.00000000000E+00 -0.11759101618E+04  0.11759101618E+04  0.25500000920E-02 0.  1.
    10030    2    1    2    0    0  0.00000000000E+00  0.00000000000E+00 -0.10986730694E+04  0.12531472543E+04  0.60274001644E+03 0.  0.
        2    1    3    3  502    0  0.94191075217E+02 -0.23622813510E+03 -0.88553281866E+03  0.92132733781E+03  0.25500000920E-02 0.  1.
       -2    1    3    3    0  502 -0.94191075217E+02  0.23622813510E+03 -0.21314025076E+03  0.33181991647E+03  0.25500000920E-02 0. -1.
</event>
<event>
 5   0  0.3767635E-02  0.6143256E+03  0.7818609E-02  0.9876123E-01
        1   -1    0    0  501    0  0.00000000000E+00  0.00000000000E+00  0.23776971317E+03  0.23776971322E+03  0.50400001928E-02 0. -1.
       -1   -1    0    0    0  501  0.00000000000E+00  0.00000000000E+00 -0.39680829479E+03  0.39680829482E+03  0.50400001928E-02 0.  1.
    10030    2    1    2    0    0  0.00000000000E+00  0.00000000000E+00 -0.15903858162E+03  0.63457800804E+03  0.61432562851E+03 0.  0.
        2    1    3    3  502    0 -0.11992497853E+03  0.27479083064E+03 -0.10557683096E+02  0.30000577621E+03  0.25500000920E-02 0.  1.
       -2    1    3    3    0  502  0.11992497853E+03 -0.27479083064E+03 -0.14848089852E+03  0.33457223183E+03  0.25500000920E-02 0. -1.
</event>
<event>
 5   0  0.5999117E-02  0.5898416E+03  0.7818609E-02  0.9926709E-01
        2   -1    0    0  501    0  0.00000000000E+00  0.00000000000E+00  0.69615265088E+03  0.69615265088E+03  0.25500000920E-02 0.  1.
       -2   -1    0    0    0  501  0.00000000000E+00  0.00000000000E+00 -0.12494138605E+03  0.12494138608E+03  0.25500000920E-02 0. -1.
    10030    2    1    2    0    0  0.00000000000E+00  0.00000000000E+00  0.57121126482E+03  0.82109403696E+03  0.58984159608E+03 0.  0.
        5    1    3    3  502    0  0.20222038523E+03 -0.18781193496E+03  0.14100712936E+03  0.30995404118E+03  0.46999998093E+01 0.  1.
       -5    1    3    3    0  502 -0.20222038523E+03  0.18781193496E+03  0.43020413546E+03  0.51113999578E+03  0.46999998093E+01 0. -1.
</event>
<event>
 5   0  0.3651984E-02  0.5945472E+03  0.7818609E-02  0.9916784E-01
       -1   -1    0    0    0  501  0.00000000000E+00  0.00000000000E+00  0.29548413258E+03  0.29548413263E+03  0.50400001928E-02 0. -1.
        1   -1    0    0  501    0  0.00000000000E+00  0.00000000000E+00 -0.29907389130E+03  0.29907389134E+03  0.50400001928E-02 0.  1.
    10030    2    1    2    0    0  0.00000000000E+00  0.00000000000E+00 -0.35897587150E+01  0.59455802396E+03  0.59454718694E+03 0.  0.
        1    1    3    3  502    0  0.24293074035E+03 -0.13221739664E+03  0.10717868470E+03  0.29662106308E+03  0.50400001928E-02 0. -1.
       -1    1    3    3    0  502 -0.24293074035E+03  0.13221739664E+03 -0.11076844342E+03  0.29793696089E+03  0.50400001928E-02 0.  1.
</event>
<event>
 5   0  0.5935451E-02  0.5788522E+03  0.7818609E-02  0.9950279E-01
        2   -1    0    0  501    0  0.00000000000E+00  0.00000000000E+00  0.10467401838E+04  0.10467401838E+04  0.25500000920E-02 0. -1.
       -2   -1    0    0    0  501  0.00000000000E+00  0.00000000000E+00 -0.80027001371E+02  0.80027001412E+02  0.25500000920E-02 0.  1.
    10030    2    1    2    0    0  0.00000000000E+00  0.00000000000E+00  0.96671318246E+03  0.11267671852E+04  0.57885223728E+03 0.  0.
        3    1    3    3  502    0 -0.14068364335E+02 -0.12067159137E+03  0.99470384845E+03  0.10020954586E+04  0.10100000352E+00 0. -1.
       -3    1    3    3    0  502  0.14068364335E+02  0.12067159137E+03 -0.27990665992E+02  0.12467172664E+03  0.10100000352E+00 0.  1.
</event>
<event>
 5   0  0.5999117E-02  0.5827091E+03  0.7818609E-02  0.9941943E-01
        2   -1    0    0  501    0  0.00000000000E+00  0.00000000000E+00  0.20495658221E+04  0.20495658221E+04  0.25500000920E-02 0.  1.
       -2   -1    0    0    0  501  0.00000000000E+00  0.00000000000E+00 -0.41417295479E+02  0.41417295558E+02  0.25500000920E-02 0. -1.
    10030    2    1    2    0    0  0.00000000000E+00  0.00000000000E+00  0.20081485266E+04  0.20909831177E+04  0.58270909841E+03 0.  0.
        5    1    3    3  502    0 -0.24570509932E+03 -0.77066160286E+02  0.14928745840E+04  0.15149279859E+04  0.46999998093E+01 0. -1.
       -5    1    3    3    0  502  0.24570509932E+03  0.77066160286E+02  0.51527394265E+03  0.57605513180E+03  0.46999998093E+01 0.  1.
</event>
<event>
 5   0  0.5999117E-02  0.6002086E+03  0.7818609E-02  0.9904973E-01
        2   -1    0    0  501    0  0.00000000000E+00  0.00000000000E+00  0.51124440327E+03  0.51124440328E+03  0.25500000920E-02 0.  1.
       -2   -1    0    0    0  501  0.00000000000E+00  0.00000000000E+00 -0.17616350045E+03  0.17616350047E+03  0.25500000920E-02 0. -1.
    10030    2    1    2    0    0  0.00000000000E+00  0.00000000000E+00  0.33508090282E+03  0.68740790375E+03  0.60020864264E+03 0.  0.
        5    1    3    3  502    0  0.10219423463E+03 -0.59755485397E+02  0.48332707525E+03  0.49763594253E+03  0.46999998093E+01 0.  1.
       -5    1    3    3    0  502 -0.10219423463E+03  0.59755485397E+02 -0.14824617244E+03  0.18977196122E+03  0.46999998093E+01 0. -1.
</event>
<event>
 5   0  0.5935451E-02  0.4972785E+03  0.7818609E-02  0.1014492E+00
       -2   -1    0    0    0  501  0.00000000000E+00  0.00000000000E+00  0.38198409775E+02  0.38198409860E+02  0.25500000920E-02 0. -1.
        2   -1    0    0  501    0  0.00000000000E+00  0.00000000000E+00 -0.16184306391E+04  0.16184306391E+04  0.25500000920E-02 0.  1.
    10030    2    1    2    0    0  0.00000000000E+00  0.00000000000E+00 -0.15802322293E+04  0.16566290489E+04  0.49727850071E+03 0.  0.
        3    1    3    3  502    0 -0.44260538162E+02 -0.15611335725E+03 -0.14177194809E+04  0.14269754421E+04  0.10100000352E+00 0.  1.
       -3    1    3    3    0  502  0.44260538162E+02  0.15611335725E+03 -0.16251274838E+03  0.22965360685E+03  0.10100000352E+00 0. -1.
</event>
<event>
 5   0  0.3651984E-02  0.6016775E+03  0.7818609E-02  0.9901932E-01
       -1   -1    0    0    0  501  0.00000000000E+00  0.00000000000E+00  0.25177890451E+03  0.25177890456E+03  0.50400001928E-02 0.  1.
        1   -1    0    0  501    0  0.00000000000E+00  0.00000000000E+00 -0.35945801415E+03  0.35945801419E+03  0.50400001928E-02 0. -1.
    10030    2    1    2    0    0  0.00000000000E+00  0.00000000000E+00 -0.10767910964E+03  0.61123691875E+03  0.60167747190E+03 0.  0.
        1    1    3    3  502    0  0.28409225747E+03  0.46752506421E+02 -0.14245933377E+03  0.32123024361E+03  0.50400001928E-02 0. -1.
       -1    1    3    3    0  502 -0.28409225747E+03 -0.46752506421E+02  0.34780224129E+02  0.29000667514E+03  0.50400001928E-02 0.  1.
</event>
<event>
 5   0  0.3767635E-02  0.5985930E+03  0.7818609E-02  0.9908329E-01
        1   -1    0    0  501    0  0.00000000000E+00  0.00000000000E+00  0.11270010023E+03  0.11270010034E+03  0.50400001928E-02 0.  1.
       -1   -1    0    0    0  501  0.00000000000E+00  0.00000000000E+00 -0.79483860919E+03  0.79483860921E+03  0.50400001928E-02 0. -1.
    10030    2    1    2    0    0  0.00000000000E+00  0.00000000000E+00 -0.68213850896E+03  0.90753870955E+03  0.59859298687E+03 0.  0.
        2    1    3    3  502    0  0.93227986875E+02  0.79766947647E+02  0.72818045627E+02  0.14267687707E+03  0.25500000920E-02 0.  1.
       -2    1    3    3    0  502 -0.93227986875E+02 -0.79766947647E+02 -0.75495655459E+03  0.76486183248E+03  0.25500000920E-02 0. -1.
</event>
<event>
 5   0  0.3703280E-02  0.6006775E+03  0.7818609E-02  0.9904001E-01
       -1   -1    0    0    0  501  0.00000000000E+00  0.00000000000E+00  0.15521516626E+03  0.15521516634E+03  0.50400001928E-02 0. -1.
        1   -1    0    0  501    0  0.00000000000E+00  0.00000000000E+00 -0.58115052196E+03  0.58115052199E+03  0.50400001928E-02 0.  1.
    10030    2    1    2    0    0  0.00000000000E+00  0.00000000000E+00 -0.42593535571E+03  0.73636568832E+03  0.60067753387E+03 0.  0.
        5    1    3    3  502    0  0.14285269883E+03 -0.19427966035E+03  0.64286234632E+01  0.24127763507E+03  0.46999998093E+01 0. -1.
       -5    1    3    3    0  502 -0.14285269883E+03  0.19427966035E+03 -0.43236397917E+03  0.49508805325E+03  0.46999998093E+01 0.  1.
</event>
<event>
 5   0  0.5755078E-02  0.6117724E+03  0.7818609E-02  0.9881279E-01
        2   -1    0    0  501    0  0.00000000000E+00  0.00000000000E+00  0.66440730688E+03  0.66440730688E+03  0.25500000920E-02 0.  1.
       -2   -1    0    0    0  501  0.00000000000E+00  0.00000000000E+00 -0.14082683936E+03  0.14082683939E+03  0.25500000920E-02 0. -1.
    10030    2    1    2    0    0  0.00000000000E+00  0.00000000000E+00  0.52358046751E+03  0.80523414627E+03  0.61177244491E+03 0.  0.
        2    1    3    3  502    0  0.18604169306E+03 -0.24267844441E+03  0.25142269477E+03  0.39587587750E+03  0.25500000920E-02 0.  1.
       -2    1    3    3    0  502 -0.18604169306E+03  0.24267844441E+03  0.27215777274E+03  0.40935826877E+03  0.25500000920E-02 0. -1.
</event>
<event>
 5   0  0.3640827E-02  0.5989073E+03  0.7818609E-02  0.9907676E-01
       -1   -1    0    0    0  501  0.00000000000E+00  0.00000000000E+00  0.21151525685E+03  0.21151525691E+03  0.50400001928E-02 0. -1.
        1   -1    0    0  501    0  0.00000000000E+00  0.00000000000E+00 -0.42395287710E+03  0.42395287713E+03  0.50400001928E-02 0.  1.
    10030    2    1    2    0    0  0.00000000000E+00  0.00000000000E+00 -0.21243762025E+03  0.63546813403E+03  0.59890734415E+03 0.  0.
        3    1    3    3  502    0 -0.21134488218E+03  0.82125597822E+02 -0.31376441315E+03  0.38711676560E+03  0.10100000352E+00 0.  1.
       -3    1    3    3    0  502  0.21134488218E+03 -0.82125597822E+02  0.10132679291E+03  0.24835136844E+03  0.10100000352E+00 0. -1.
</event>
<event>
 5   0  0.3478183E-02  0.6068338E+03  0.7818609E-02  0.9891329E-01
       -1   -1    0    0    0  501  0.00000000000E+00  0.00000000000E+00  0.28995677401E+03  0.28995677405E+03  0.50400001928E-02 0.  1.
        1   -1    0    0  501    0  0.00000000000E+00  0.00000000000E+00 -0.31750190914E+03  0.31750190918E+03  0.50400001928E-02 0. -1.
    10030    2    1    2    0    0  0.00000000000E+00  0.00000000000E+00 -0.27545135134E+02  0.60745868323E+03  0.60683384659E+03 0.  0.
        4    1    3    3  502    0 -0.23968570834E+02 -0.25000668856E+03 -0.18418998113E+03  0.31145689711E+03  0.12699999809E+01 0. -1.
       -4    1    3    3    0  502  0.23968570834E+02  0.25000668856E+03  0.15664484599E+03  0.29600178612E+03  0.12699999809E+01 0.  1.
</event>
<event>
 5   0  0.6007360E-02  0.5960826E+03  0.7818609E-02  0.9913567E-01
        2   -1    0    0  501    0  0.00000000000E+00  0.00000000000E+00  0.38191513372E+03  0.38191513372E+03  0.25500000920E-02 0. -1.
       -2   -1    0    0    0  501  0.00000000000E+00  0.00000000000E+00 -0.23258730885E+03  0.23258730887E+03  0.25500000920E-02 0.  1.
    10030    2    1    2    0    0  0.00000000000E+00  0.00000000000E+00  0.14932782486E+03  0.61450244259E+03  0.59608258880E+03 0.  0.
        4    1    3    3  502    0  0.14137771111E+03 -0.12992851611E+03 -0.16032267331E+03  0.25014805410E+03  0.12699999809E+01 0.  1.
       -4    1    3    3    0  502 -0.14137771111E+03  0.12992851611E+03  0.30965049817E+03  0.36435438849E+03  0.12699999809E+01 0. -1.
</event>
<event>
 5   0  0.2388000E-02  0.5994632E+03  0.7818609E-02  0.9906520E-01
       -3   -1    0    0    0  501  0.00000000000E+00  0.00000000000E+00  0.98650310667E+03  0.98650311184E+03  0.10100000352E+00 0.  1.
        3   -1    0    0  501    0  0.00000000000E+00  0.00000000000E+00 -0.91068136412E+02  0.91068192419E+02  0.10100000352E+00 0. -1.
    10030    2    1    2    0    0  0.00000000000E+00  0.00000000000E+00  0.89543497026E+03  0.10775713043E+04  0.59946320137E+03 0.  0.
        4    1    3    3  502    0  0.24131355103E+03  0.33034779843E+02  0.76171940117E+03  0.79971343968E+03  0.12699999809E+01 0.  1.
       -4    1    3    3    0  502 -0.24131355103E+03 -0.33034779843E+02  0.13371556909E+03  0.27785786458E+03  0.12699999809E+01 0. -1.
</event>
<event>
 5   0  0.3478183E-02  0.5974084E+03  0.7818609E-02  0.9910797E-01
       -1   -1    0    0    0  501  0.00000000000E+00  0.00000000000E+00  0.14632176219E+03  0.14632176228E+03  0.50400001928E-02 0.  1.
        1   -1    0    0  501    0  0.00000000000E+00  0.00000000000E+00 -0.60978087949E+03  0.60978087952E+03  0.50400001928E-02 0. -1.
    10030    2    1    2    0    0  0.00000000000E+00  0.00000000000E+00 -0.46345911731E+03  0.75610264179E+03  0.59740844613E+03 0.  0.
        4    1    3    3  502    0 -0.27493454485E+03 -0.11666737995E+03 -0.23770873995E+03  0.38171630754E+03  0.12699999809E+01 0.  1.
       -4    1    3    3    0  502  0.27493454485E+03  0.11666737995E+03 -0.22575037736E+03  0.37438633425E+03  0.12699999809E+01 0. -1.
</event>
<event>
 5   0  0.2388000E-02  0.5981342E+03  0.7818609E-02  0.9909285E-01
       -3   -1    0    0    0  501  0.00000000000E+00  0.00000000000E+00  0.48893665079E+03  0.48893666122E+03  0.10100000352E+00 0.  1.
        3   -1    0    0  501    0  0.00000000000E+00  0.00000000000E+00 -0.18292985033E+03  0.18292987821E+03  0.10100000352E+00 0. -1.
    10030    2    1    2    0    0  0.00000000000E+00  0.00000000000E+00  0.30600680046E+03  0.67186653944E+03  0.59813416964E+03 0.  0.
        5    1    3    3  502    0  0.98136067537E+02 -0.61451669366E+02  0.46269225908E+03  0.47698345048E+03  0.46999998093E+01 0.  1.
       -5    1    3    3    0  502 -0.98136067537E+02  0.61451669366E+02 -0.15668545862E+03  0.19488308896E+03  0.46999998093E+01 0. -1.
</event>
<event>
 5   0  0.3478183E-02  0.6044549E+03  0.7818609E-02  0.9896206E-01
       -1   -1    0    0    0  501  0.00000000000E+00  0.00000000000E+00  0.23620644210E+03  0.23620644216E+03  0.50400001928E-02 0.  1.
        1   -1    0    0  501    0  0.00000000000E+00  0.00000000000E+00 -0.38670168241E+03  0.38670168244E+03  0.50400001928E-02 0. -1.
    10030    2    1    2    0    0  0.00000000000E+00  0.00000000000E+00 -0.15049524031E+03  0.62290812460E+03  0.60445489024E+03 0.  0.
        4    1    3    3  502    0 -0.20254934795E+03  0.27342033966E+01  0.15588989023E+03  0.25561100328E+03  0.12699999809E+01 0.  1.
       -4    1    3    3    0  502  0.20254934795E+03 -0.27342033966E+01 -0.30638513053E+03  0.36729712132E+03  0.12699999809E+01 0. -1.
</event>
<event>
 5   0  0.3651984E-02  0.6111917E+03  0.7818609E-02  0.9882455E-01
       -1   -1    0    0    0  501  0.00000000000E+00  0.00000000000E+00  0.14098225871E+03  0.14098225880E+03  0.50400001928E-02 0. -1.
        1   -1    0    0  501    0  0.00000000000E+00  0.00000000000E+00 -0.66241544696E+03  0.66241544698E+03  0.50400001928E-02 0.  1.
    10030    2    1    2    0    0  0.00000000000E+00  0.00000000000E+00 -0.52143318825E+03  0.80339770578E+03  0.61119170794E+03 0.  0.
        1    1    3    3  502    0  0.98457301306E+01 -0.56628679710E+02 -0.65524617251E+03  0.65776233731E+03  0.50400001928E-02 0.  1.
       -1    1    3    3    0  502 -0.98457301306E+01  0.56628679710E+02  0.13381298426E+03  0.14563536847E+03  0.50400001928E-02 0. -1.
</event>
<event>
 5   0  0.5872632E-02  0.5996204E+03  0.7818609E-02  0.9906194E-01
       -2   -1    0    0    0  501  0.00000000000E+00  0.00000000000E+00  0.20920657888E+03  0.20920657890E+03  0.25500000920E-02 0.  1.
        2   -1    0    0  501    0  0.00000000000E+00  0.00000000000E+00 -0.42965264269E+03  0.42965264269E+03  0.25500000920E-02 0. -1.
    10030    2    1    2    0    0  0.00000000000E+00  0.00000000000E+00 -0.22044606380E+03  0.63885922159E+03  0.59962041157E+03 0.  0.
        1    1    3    3  502    0  0.15227183580E+03 -0.19208006128E+03  0.73714823825E+02  0.25595963978E+03  0.50400001928E-02 0.  1.
       -1    1    3    3    0  502 -0.15227183580E+03  0.19208006128E+03 -0.29416088763E+03  0.38289958182E+03  0.50400001928E-02 0. -1.
</event>
<event>
 5   0  0.3640827E-02  0.6061230E+03  0.7818609E-02  0.9892784E-01
        1   -1    0    0  501    0  0.00000000000E+00  0.00000000000E+00  0.72784355369E+03  0.72784355371E+03  0.50400001928E-02 0. -1.
       -1   -1    0    0    0  501  0.00000000000E+00  0.00000000000E+00 -0.12618957181E+03  0.12618957191E+03  0.50400001928E-02 0.  1.
    10030    2    1    2    0    0  0.00000000000E+00  0.00000000000E+00  0.60165398189E+03  0.85403312562E+03  0.60612297905E+03 0.  0.
        3    1    3    3  502    0  0.66384829255E+02  0.79466501688E+01 -0.11566863789E+03  0.13360141764E+03  0.10100000352E+00 0.  1.
       -3    1    3    3    0  502 -0.66384829255E+02 -0.79466501688E+01  0.71732261978E+03  0.72043170797E+03  0.10100000352E+00 0. -1.
</event>
<event>
 5   0  0.5755078E-02  0.5997982E+03  0.7818609E-02  0.9905825E-01
        2   -1    0    0  501    0  0.00000000000E+00  0.00000000000E+00  0.64955157608E+03  0.64955157609E+03  0.25500000920E-02 0. -1.
       -2   -1    0    0    0  501  0.00000000000E+00  0.00000000000E+00 -0.13846393604E+03  0.13846393606E+03  0.25500000920E-02 0.  1.
    10030    2    1    2    0    0  0.00000000000E+00  0.00000000000E+00  0.51108764004E+03  0.78801551215E+03  0.59979819238E+03 0.  0.
        2    1    3    3  502    0 -0.26035616816E+03  0.13530648875E+03  0.33702372181E+03  0.44685363293E+03  0.25500000920E-02 0. -1.
       -2    1    3    3    0  502  0.26035616816E+03 -0.13530648875E+03  0.17406391823E+03  0.34116187922E+03  0.25500000920E-02 0.  1.
</event>
<event>
 5   0  0.5935451E-02  0.6023784E+03  0.7818609E-02  0.9900484E-01
       -2   -1    0    0    0  501  0.00000000000E+00  0.00000000000E+00  0.38116768656E+03  0.38116768657E+03  0.25500000920E-02 0. -1.
        2   -1    0    0  501    0  0.00000000000E+00  0.00000000000E+00 -0.23799220580E+03  0.23799220581E+03  0.25500000920E-02 0.  1.
    10030    2    1    2    0    0  0.00000000000E+00  0.00000000000E+00  0.14317548076E+03  0.61915989238E+03  0.60237841432E+03 0.  0.
        3    1    3    3  502    0 -0.16899633668E+02  0.23037439546E+03  0.27025176479E+03  0.35551931913E+03  0.10100000352E+00 0. -1.
       -3    1    3    3    0  502  0.16899633668E+02 -0.23037439546E+03 -0.12707628402E+03  0.26364057325E+03  0.10100000352E+00 0.  1.
</event>
<event>
 5   0  0.3703280E-02  0.6015826E+03  0.7818609E-02  0.9902128E-01
        1   -1    0    0  501    0  0.00000000000E+00  0.00000000000E+00  0.10233160277E+04  0.10233160277E+04  0.50400001928E-02 0.  1.
       -1   -1    0    0    0  501  0.00000000000E+00  0.00000000000E+00 -0.88413931873E+02  0.88413932017E+02  0.50400001928E-02 0. -1.
    10030    2    1    2    0    0  0.00000000000E+00  0.00000000000E+00  0.93490209580E+03  0.11117299597E+04  0.60158255840E+03 0.  0.
        5    1    3    3  502    0  0.40197354427E+02  0.17442574764E+03  0.91409281223E+03  0.93146547339E+03  0.46999998093E+01 0.  1.
       -5    1    3    3    0  502 -0.40197354427E+02 -0.17442574764E+03  0.20809283566E+02  0.18026448631E+03  0.46999998093E+01 0. -1.
</event>
<event>
 5   0  0.3703280E-02  0.6198000E+03  0.7818609E-02  0.9865158E-01
        1   -1    0    0  501    0  0.00000000000E+00  0.00000000000E+00  0.10265434751E+04  0.10265434751E+04  0.50400001928E-02 0. -1.
       -1   -1    0    0    0  501  0.00000000000E+00  0.00000000000E+00 -0.93554743915E+02  0.93554744050E+02  0.50400001928E-02 0.  1.
    10030    2    1    2    0    0  0.00000000000E+00  0.00000000000E+00  0.93298873117E+03  0.11200982192E+04  0.61980000649E+03 0.  0.
        5    1    3    3  502    0  0.24158434675E+03  0.14054844428E+02  0.81624754675E+03  0.85137693345E+03  0.46999998093E+01 0. -1.
       -5    1    3    3    0  502 -0.24158434675E+03 -0.14054844428E+02  0.11674118442E+03  0.26872128570E+03  0.46999998093E+01 0.  1.
</event>
<event>
 5   0  0.6007360E-02  0.6024471E+03  0.7818609E-02  0.9900342E-01
        2   -1    0    0  501    0  0.00000000000E+00  0.00000000000E+00  0.46952977891E+03  0.46952977892E+03  0.25500000920E-02 0. -1.
       -2   -1    0    0    0  501  0.00000000000E+00  0.00000000000E+00 -0.19324788033E+03  0.19324788035E+03  0.25500000920E-02 0.  1.
    10030    2    1    2    0    0  0.00000000000E+00  0.00000000000E+00  0.27628189858E+03  0.66277765926E+03  0.60244712476E+03 0.  0.
        4    1    3    3  502    0  0.29658710337E+03  0.52023650236E+02  0.12936380021E+03  0.32773003489E+03  0.12699999809E+01 0. -1.
       -4    1    3    3    0  502 -0.29658710337E+03 -0.52023650236E+02  0.14691809837E+03  0.33504762437E+03  0.12699999809E+01 0.  1.
</event>
<event>
 5   0  0.6007360E-02  0.6010538E+03  0.7818609E-02  0.9903222E-01
        2   -1    0    0  501    0  0.00000000000E+00  0.00000000000E+00  0.41246163326E+03  0.41246163327E+03  0.25500000920E-02 0. -1.
       -2   -1    0    0    0  501  0.00000000000E+00  0.00000000000E+00 -0.21896922192E+03  0.21896922194E+03  0.25500000920E-02 0.  1.
    10030    2    1    2    0    0  0.00000000000E+00  0.00000000000E+00  0.19349241134E+03  0.63143085521E+03  0.60105375106E+03 0.  0.
        4    1    3    3  502    0  0.10863531976E+03 -0.23118587454E+03 -0.69578652075E+02  0.26474769689E+03  0.12699999809E+01 0. -1.
       -4    1    3    3    0  502 -0.10863531976E+03  0.23118587454E+03  0.26307106341E+03  0.36668315831E+03  0.12699999809E+01 0.  1.
</event>
<event>
 5   0  0.5755078E-02  0.5944062E+03  0.7818609E-02  0.9917080E-01
        2   -1    0    0  501    0  0.00000000000E+00  0.00000000000E+00  0.22716089133E+04  0.22716089133E+04  0.25500000920E-02 0. -1.
       -2   -1    0    0    0  501  0.00000000000E+00  0.00000000000E+00 -0.38884198501E+02  0.38884198584E+02  0.25500000920E-02 0.  1.
    10030    2    1    2    0    0  0.00000000000E+00  0.00000000000E+00  0.22327247148E+04  0.23104931118E+04  0.59440623145E+03 0.  0.
        2    1    3    3  502    0  0.28322145873E+03  0.36904829514E+02  0.14357957677E+04  0.14639282249E+04  0.25500000920E-02 0. -1.
       -2    1    3    3    0  502 -0.28322145873E+03 -0.36904829514E+02  0.79692894706E+03  0.84656488694E+03  0.25500000920E-02 0.  1.
</event>
<event>
 5   0  0.3640827E-02  0.5035637E+03  0.7818609E-02  0.1012853E+00
       -1   -1    0    0    0  501  0.00000000000E+00  0.00000000000E+00  0.70048104768E+02  0.70048104950E+02  0.50400001928E-02 0. -1.
        1   -1    0    0  501    0  0.00000000000E+00  0.00000000000E+00 -0.90500811123E+03  0.90500811124E+03  0.50400001928E-02 0.  1.
    10030    2    1    2    0    0  0.00000000000E+00  0.00000000000E+00 -0.83496000646E+03  0.97505621619E+03  0.50356371230E+03 0.  0.
        3    1    3    3  502    0  0.89068108056E+02  0.45100356606E+02  0.30084164726E+02  0.10427002065E+03  0.10100000352E+00 0. -1.
       -3    1    3    3    0  502 -0.89068108056E+02 -0.45100356606E+02 -0.86504417119E+03  0.87078619554E+03  0.10100000352E+00 0.  1.
</event>
<event>
 5   0  0.5935451E-02  0.5195665E+03  0.7818609E-02  0.1008794E+00
       -2   -1    0    0    0  501  0.00000000000E+00  0.00000000000E+00  0.23297932185E+03  0.23297932186E+03  0.25500000920E-02 0.  1.
        2   -1    0    0  501    0  0.00000000000E+00  0.00000000000E+00 -0.28967088944E+03  0.28967088945E+03  0.25500000920E-02 0. -1.
    10030    2    1    2    0    0  0.00000000000E+00  0.00000000000E+00 -0.56691567590E+02  0.52265021131E+03  0.51956646307E+03 0.  0.
        3    1    3    3  502    0 -0.25893811896E+03 -0.65831685498E+00 -0.49396870857E+02  0.26360850495E+03  0.10100000352E+00 0.  1.
       -3    1    3    3    0  502  0.25893811896E+03  0.65831685498E+00 -0.72946967331E+01  0.25904170636E+03  0.10100000352E+00 0. -1.
</event>
<event>
 5   0  0.3703280E-02  0.5626518E+03  0.7818609E-02  0.9986072E-01
       -1   -1    0    0    0  501  0.00000000000E+00  0.00000000000E+00  0.17439994240E+03  0.17439994248E+03  0.50400001928E-02 0. -1.
        1   -1    0    0  501    0  0.00000000000E+00  0.00000000000E+00 -0.45380902799E+03  0.45380902802E+03  0.50400001928E-02 0.  1.
    10030    2    1    2    0    0  0.00000000000E+00  0.00000000000E+00 -0.27940908558E+03  0.62820897049E+03  0.56265182262E+03 0.  0.
        5    1    3    3  502    0  0.10316499964E+03  0.20613763613E+03 -0.31969014505E+03  0.39415684825E+03  0.46999998093E+01 0.  1.
       -5    1    3    3    0  502 -0.10316499964E+03 -0.20613763613E+03  0.40281059464E+02  0.23405212225E+03  0.46999998093E+01 0. -1.
</event>
<event>
 5   0  0.3640827E-02  0.5265941E+03  0.7818609E-02  0.1007061E+00
        1   -1    0    0  501    0  0.00000000000E+00  0.00000000000E+00  0.22468389317E+03  0.22468389323E+03  0.50400001928E-02 0. -1.
       -1   -1    0    0    0  501  0.00000000000E+00  0.00000000000E+00 -0.30854612753E+03  0.30854612757E+03  0.50400001928E-02 0.  1.
    10030    2    1    2    0    0  0.00000000000E+00  0.00000000000E+00 -0.83862234356E+02  0.53323002079E+03  0.52659413282E+03 0.  0.
        3    1    3    3  502    0 -0.22269179589E+03 -0.11482978443E+03 -0.12386941354E+03  0.27950162282E+03  0.10100000352E+00 0.  1.
       -3    1    3    3    0  502  0.22269179589E+03  0.11482978443E+03  0.40007179187E+02  0.25372839797E+03  0.10100000352E+00 0. -1.
</event>
<event>
 5   0  0.3703280E-02  0.5894589E+03  0.7818609E-02  0.9927520E-01
        1   -1    0    0  501    0  0.00000000000E+00  0.00000000000E+00  0.39861018197E+03  0.39861018200E+03  0.50400001928E-02 0.  1.
       -1   -1    0    0    0  501  0.00000000000E+00  0.00000000000E+00 -0.21792082584E+03  0.21792082590E+03  0.50400001928E-02 0. -1.
    10030    2    1    2    0    0  0.00000000000E+00  0.00000000000E+00  0.18068935613E+03  0.61653100790E+03  0.58945893859E+03 0.  0.
        5    1    3    3  502    0 -0.24116649660E+03  0.12823060129E+03 -0.25366256834E+02  0.27435360973E+03  0.46999998093E+01 0. -1.
       -5    1    3    3    0  502  0.24116649660E+03 -0.12823060129E+03  0.20605561297E+03  0.34217739817E+03  0.46999998093E+01 0.  1.
</event>
<event>
 5   0  0.6007360E-02  0.5979785E+03  0.7818609E-02  0.9909609E-01
       -2   -1    0    0    0  501  0.00000000000E+00  0.00000000000E+00  0.15318627291E+03  0.15318627293E+03  0.25500000920E-02 0.  1.
        2   -1    0    0  501    0  0.00000000000E+00  0.00000000000E+00 -0.58356777081E+03  0.58356777081E+03  0.25500000920E-02 0. -1.
    10030    2    1    2    0    0  0.00000000000E+00  0.00000000000E+00 -0.43038149790E+03  0.73675404375E+03  0.59797850065E+03 0.  0.
        4    1    3    3  502    0  0.61369674265E+02  0.21058834329E+03  0.35133528491E+02  0.22214784485E+03  0.12699999809E+01 0.  1.
       -4    1    3    3    0  502 -0.61369674265E+02 -0.21058834329E+03 -0.46551502639E+03  0.51460619889E+03  0.12699999809E+01 0. -1.
</event>
<event>
 5   0  0.3767635E-02  0.5130551E+03  0.7818609E-02  0.1010426E+00
       -1   -1    0    0    0  501  0.00000000000E+00  0.00000000000E+00  0.38604363016E+03  0.38604363019E+03  0.50400001928E-02 0.  1.
        1   -1    0    0  501    0  0.00000000000E+00  0.00000000000E+00 -0.17046360369E+03  0.17046360377E+03  0.50400001928E-02 0. -1.
    10030    2    1    2    0    0  0.00000000000E+00  0.00000000000E+00  0.21558002647E+03  0.55650723396E+03  0.51305511754E+03 0.  0.
        2    1    3    3  502    0 -0.24533718524E+02  0.11774139778E+03  0.35356679203E+03  0.37346273780E+03  0.25500000920E-02 0.  1.
       -2    1    3    3    0  502  0.24533718524E+02 -0.11774139778E+03 -0.13798676556E+03  0.18304449615E+03  0.25500000920E-02 0. -1.
</event>
<event>
 5   0  0.3640827E-02  0.6530139E+03  0.7818609E-02  0.9801140E-01
       -1   -1    0    0    0  501  0.00000000000E+00  0.00000000000E+00  0.11075634370E+04  0.11075634370E+04  0.50400001928E-02 0. -1.
        1   -1    0    0  501    0  0.00000000000E+00  0.00000000000E+00 -0.96253428207E+02  0.96253428339E+02  0.50400001928E-02 0.  1.
    10030    2    1    2    0    0  0.00000000000E+00  0.00000000000E+00  0.10113100088E+04  0.12038168653E+04  0.65301386770E+03 0.  0.
        3    1    3    3  502    0 -0.11196147684E+03  0.30497930618E+03  0.56564650456E+03  0.65230646771E+03  0.10100000352E+00 0.  1.
       -3    1    3    3    0  502  0.11196147684E+03 -0.30497930618E+03  0.44566350420E+03  0.55151039761E+03  0.10100000352E+00 0. -1.
</event>
<event>
 5   0  0.5755078E-02  0.5926483E+03  0.7818609E-02  0.9920777E-01
        2   -1    0    0  501    0  0.00000000000E+00  0.00000000000E+00  0.32607840939E+03  0.32607840940E+03  0.25500000920E-02 0.  1.
       -2   -1    0    0    0  501  0.00000000000E+00  0.00000000000E+00 -0.26928492791E+03  0.26928492792E+03  0.25500000920E-02 0. -1.
    10030    2    1    2    0    0  0.00000000000E+00  0.00000000000E+00  0.56793481484E+02  0.59536333732E+03  0.59264829696E+03 0.  0.
        2    1    3    3  502    0 -0.11333608524E+03  0.27278780785E+03  0.48426932144E+01  0.29543477793E+03  0.25500000920E-02 0.  1.
       -2    1    3    3    0  502  0.11333608524E+03 -0.27278780785E+03  0.51950788270E+02  0.29992855939E+03  0.25500000920E-02 0. -1.
</event>
<event>
 5   0  0.3640827E-02  0.5929382E+03  0.7818609E-02  0.9920166E-01
        1   -1    0    0  501    0  0.00000000000E+00  0.00000000000E+00  0.18610351954E+04  0.18610351954E+04  0.50400001928E-02 0. -1.
       -1   -1    0    0    0  501  0.00000000000E+00  0.00000000000E+00 -0.47228517482E+02  0.47228517751E+02  0.50400001928E-02 0.  1.
    10030    2    1    2    0    0  0.00000000000E+00  0.00000000000E+00  0.18138066779E+04  0.19082637132E+04  0.59293822115E+03 0.  0.
        3    1    3    3  502    0 -0.11165771704E+03 -0.10412860041E+03  0.17247849574E+04  0.17315292001E+04  0.10100000352E+00 0. -1.
       -3    1    3    3    0  502  0.11165771704E+03  0.10412860041E+03  0.89021720534E+02  0.17673451311E+03  0.10100000352E+00 0.  1.
</event>
<event>
 5   0  0.6007360E-02  0.5890936E+03  0.7818609E-02  0.9928295E-01
        2   -1    0    0  501    0  0.00000000000E+00  0.00000000000E+00  0.13499925091E+04  0.13499925091E+04  0.25500000920E-02 0. -1.
       -2   -1    0    0    0  501  0.00000000000E+00  0.00000000000E+00 -0.64265397149E+02  0.64265397200E+02  0.25500000920E-02 0.  1.
    10030    2    1    2    0    0  0.00000000000E+00  0.00000000000E+00  0.12857271119E+04  0.14142579063E+04  0.58909355719E+03 0.  0.
        4    1    3    3  502    0  0.46655859467E+02  0.22842221607E+03  0.10750140712E+04  0.11000047019E+04  0.12699999809E+01 0. -1.
       -4    1    3    3    0  502 -0.46655859467E+02 -0.22842221607E+03  0.21071304067E+03  0.31425320432E+03  0.12699999809E+01 0.  1.
</event>
<event>
 5   0  0.5872632E-02  0.5960852E+03  0.7818609E-02  0.9913562E-01
       -2   -1    0    0    0  501  0.00000000000E+00  0.00000000000E+00  0.13752809765E+03  0.13752809767E+03  0.25500000920E-02 0. -1.
        2   -1    0    0  501    0  0.00000000000E+00  0.00000000000E+00 -0.64589989439E+03  0.64589989439E+03  0.25500000920E-02 0.  1.
    10030    2    1    2    0    0  0.00000000000E+00  0.00000000000E+00 -0.50837179674E+03  0.78342799206E+03  0.59608517431E+03 0.  0.
        1    1    3    3  502    0 -0.76911217926E+02 -0.19298594325E+03 -0.53505794843E+03  0.57397379552E+03  0.50400001928E-02 0.  1.
       -1    1    3    3    0  502  0.76911217926E+02  0.19298594325E+03  0.26686151694E+02  0.20945419655E+03  0.50400001928E-02 0. -1.
</event>
<event>
 5   0  0.5872632E-02  0.5556570E+03  0.7818609E-02  0.1000193E+00
        2   -1    0    0  501    0  0.00000000000E+00  0.00000000000E+00  0.92277785423E+03  0.92277785423E+03  0.25500000920E-02 0.  1.
       -2   -1    0    0    0  501  0.00000000000E+00  0.00000000000E+00 -0.83648171486E+02  0.83648171525E+02  0.25500000920E-02 0. -1.
    10030    2    1    2    0    0  0.00000000000E+00  0.00000000000E+00  0.83912968274E+03  0.10064260258E+04  0.55565701729E+03 0.  0.
        1    1    3    3  502    0 -0.20039377861E+03  0.82754349476E+02  0.10489557726E+03  0.24085064048E+03  0.50400001928E-02 0. -1.
       -1    1    3    3    0  502  0.20039377861E+03 -0.82754349476E+02  0.73423410548E+03  0.76557538528E+03  0.50400001928E-02 0.  1.
</event>
<event>
 5   0  0.5935451E-02  0.5949217E+03  0.7818609E-02  0.9915998E-01
        2   -1    0    0  501    0  0.00000000000E+00  0.00000000000E+00  0.12337684479E+03  0.12337684482E+03  0.25500000920E-02 0.  1.
       -2   -1    0    0    0  501  0.00000000000E+00  0.00000000000E+00 -0.71717632934E+03  0.71717632935E+03  0.25500000920E-02 0. -1.
    10030    2    1    2    0    0  0.00000000000E+00  0.00000000000E+00 -0.59379948455E+03  0.84055317417E+03  0.59492168455E+03 0.  0.
        3    1    3    3  502    0  0.15329247814E+03 -0.17145150306E+03 -0.56343931926E+03  0.60857052052E+03  0.10100000352E+00 0. -1.
       -3    1    3    3    0  502 -0.15329247814E+03  0.17145150306E+03 -0.30360165291E+02  0.23198265365E+03  0.10100000352E+00 0.  1.
</event>
<event>
 5   0  0.5999117E-02  0.5938403E+03  0.7818609E-02  0.9918269E-01
       -2   -1    0    0    0  501  0.00000000000E+00  0.00000000000E+00  0.22144982575E+03  0.22144982577E+03  0.25500000920E-02 0. -1.
        2   -1    0    0  501    0  0.00000000000E+00  0.00000000000E+00 -0.39811078804E+03  0.39811078805E+03  0.25500000920E-02 0.  1.
    10030    2    1    2    0    0  0.00000000000E+00  0.00000000000E+00 -0.17666096229E+03  0.61956061382E+03  0.59384026353E+03 0.  0.
        5    1    3    3  502    0  0.17975826724E+03  0.26742458143E+02 -0.33325621263E+03  0.37961821211E+03  0.46999998093E+01 0.  1.
       -5    1    3    3    0  502 -0.17975826724E+03 -0.26742458143E+02  0.15659525034E+03  0.23994240171E+03  0.46999998093E+01 0. -1.
</event>
<event>
 5   0  0.3640827E-02  0.5958736E+03  0.7818609E-02  0.9914004E-01
       -1   -1    0    0    0  501  0.00000000000E+00  0.00000000000E+00  0.10805133879E+03  0.10805133891E+03  0.50400001928E-02 0.  1.
        1   -1    0    0  501    0  0.00000000000E+00  0.00000000000E+00 -0.82151988268E+03  0.82151988270E+03  0.50400001928E-02 0. -1.
    10030    2    1    2    0    0  0.00000000000E+00  0.00000000000E+00 -0.71346854390E+03  0.92957122160E+03  0.59587355446E+03 0.  0.
        3    1    3    3  502    0 -0.23392243618E+02  0.23366483488E+03 -0.70694439619E+02  0.24524307557E+03  0.10100000352E+00 0.  1.
       -3    1    3    3    0  502  0.23392243618E+02 -0.23366483488E+03 -0.64277410428E+03  0.68432814603E+03  0.10100000352E+00 0. -1.
</event>
<event>
 5   0  0.3478183E-02  0.5990325E+03  0.7818609E-02  0.9907415E-01
        1   -1    0    0  501    0  0.00000000000E+00  0.00000000000E+00  0.20087205802E+04  0.20087205802E+04  0.50400001928E-02 0.  1.
       -1   -1    0    0    0  501  0.00000000000E+00  0.00000000000E+00 -0.44660253677E+02  0.44660253961E+02  0.50400001928E-02 0. -1.
    10030    2    1    2    0    0  0.00000000000E+00  0.00000000000E+00  0.19640603265E+04  0.20533808341E+04  0.59903245647E+03 0.  0.
        4    1    3    3  502    0 -0.16166982163E+02 -0.98050212106E+02  0.19505550023E+04  0.19530851608E+04  0.12699999809E+01 0.  1.
       -4    1    3    3    0  502  0.16166982163E+02  0.98050212106E+02  0.13505324169E+02  0.10029567332E+03  0.12699999809E+01 0. -1.
</event>
<event>
 5   0  0.6007360E-02  0.5954907E+03  0.7818609E-02  0.9914806E-01
        2   -1    0    0  501    0  0.00000000000E+00  0.00000000000E+00  0.15183995039E+04  0.15183995039E+04  0.25500000920E-02 0. -1.
       -2   -1    0    0    0  501  0.00000000000E+00  0.00000000000E+00 -0.58385351772E+02  0.58385351827E+02  0.25500000920E-02 0.  1.
    10030    2    1    2    0    0  0.00000000000E+00  0.00000000000E+00  0.14600141521E+04  0.15767848557E+04  0.59549068578E+03 0.  0.
        4    1    3    3  502    0  0.33752732496E+02  0.89544878946E+02 -0.16548776006E+02  0.97123669533E+02  0.12699999809E+01 0.  1.
       -4    1    3    3    0  502 -0.33752732496E+02 -0.89544878946E+02  0.14765629281E+04  0.14796611862E+04  0.12699999809E+01 0. -1.
</event>
<event>
 5   0  0.3640827E-02  0.6015290E+03  0.7818609E-02  0.9902239E-01
       -1   -1    0    0    0  501  0.00000000000E+00  0.00000000000E+00  0.50889862333E+03  0.50889862335E+03  0.50400001928E-02 0.  1.
        1   -1    0    0  501    0  0.00000000000E+00  0.00000000000E+00 -0.17775502883E+03  0.17775502890E+03  0.50400001928E-02 0. -1.
    10030    2    1    2    0    0  0.00000000000E+00  0.00000000000E+00  0.33114359450E+03  0.68665365226E+03  0.60152901674E+03 0.  0.
        3    1    3    3  502    0 -0.12246526653E+02  0.11214322107E+03  0.48383353178E+03  0.49681080516E+03  0.10100000352E+00 0.  1.
       -3    1    3    3    0  502  0.12246526653E+02 -0.11214322107E+03 -0.15268993728E+03  0.18984284710E+03  0.10100000352E+00 0. -1.
</event>
<event>
 5   0  0.3767635E-02  0.5994926E+03  0.7818609E-02  0.9906459E-01
        1   -1    0    0  501    0  0.00000000000E+00  0.00000000000E+00  0.84552826025E+03  0.84552826026E+03  0.50400001928E-02 0.  1.
       -1   -1    0    0    0  501  0.00000000000E+00  0.00000000000E+00 -0.10626237823E+03  0.10626237835E+03  0.50400001928E-02 0. -1.
    10030    2    1    2    0    0  0.00000000000E+00  0.00000000000E+00  0.73926588202E+03  0.95179063862E+03  0.59949259832E+03 0.  0.
        2    1    3    3  502    0 -0.22651584787E+03  0.65569975884E+02  0.75855736609E+02  0.24771544937E+03  0.25500000920E-02 0. -1.
       -2    1    3    3    0  502  0.22651584787E+03 -0.65569975884E+02  0.66341014541E+03  0.70407518925E+03  0.25500000920E-02 0.  1.
</event>
<event>
 5   0  0.3640827E-02  0.6025322E+03  0.7818609E-02  0.9900166E-01
        1   -1    0    0  501    0  0.00000000000E+00  0.00000000000E+00  0.30439597769E+03  0.30439597774E+03  0.50400001928E-02 0.  1.
       -1   -1    0    0    0  501  0.00000000000E+00  0.00000000000E+00 -0.29816844052E+03  0.29816844056E+03  0.50400001928E-02 0. -1.
    10030    2    1    2    0    0  0.00000000000E+00  0.00000000000E+00  0.62275371754E+01  0.60256441830E+03  0.60253223646E+03 0.  0.
        3    1    3    3  502    0  0.25845029430E+03 -0.15225978058E+03  0.31073594960E+02  0.30157117553E+03  0.10100000352E+00 0.  1.
       -3    1    3    3    0  502 -0.25845029430E+03  0.15225978058E+03 -0.24846057785E+02  0.30099324277E+03  0.10100000352E+00 0. -1.
</event>
<event>
 5   0  0.3651984E-02  0.6077935E+03  0.7818609E-02  0.9889368E-01
        1   -1    0    0  501    0  0.00000000000E+00  0.00000000000E+00  0.88160227602E+03  0.88160227603E+03  0.50400001928E-02 0.  1.
       -1   -1    0    0    0  501  0.00000000000E+00  0.00000000000E+00 -0.10475612636E+03  0.10475612648E+03  0.50400001928E-02 0. -1.
    10030    2    1    2    0    0  0.00000000000E+00  0.00000000000E+00  0.77684614966E+03  0.98635840251E+03  0.60779351590E+03 0.  0.
        1    1    3    3  502    0  0.18710342388E+03  0.43759762727E+02  0.63436962469E+01  0.19225725102E+03  0.50400001928E-02 0. -1.
       -1    1    3    3    0  502 -0.18710342388E+03 -0.43759762727E+02  0.77050245342E+03  0.79410115150E+03  0.50400001928E-02 0.  1.
</event>
<event>
 5   0  0.3703280E-02  0.5955189E+03  0.7818609E-02  0.9914747E-01
       -1   -1    0    0    0  501  0.00000000000E+00  0.00000000000E+00  0.38106146794E+02  0.38106147128E+02  0.50400001928E-02 0. -1.
        1   -1    0    0  501    0  0.00000000000E+00  0.00000000000E+00 -0.23266767050E+04  0.23266767050E+04  0.50400001928E-02 0.  1.
    10030    2    1    2    0    0  0.00000000000E+00  0.00000000000E+00 -0.22885705582E+04  0.23647828522E+04  0.59551888120E+03 0.  0.
        5    1    3    3  502    0  0.17789900675E+03  0.17232079717E+03 -0.18003487827E+04  0.18173112951E+04  0.46999998093E+01 0.  1.
       -5    1    3    3    0  502 -0.17789900675E+03 -0.17232079717E+03 -0.48822177548E+03  0.54747155706E+03  0.46999998093E+01 0. -1.
</event>
<event>
 5   0  0.2388000E-02  0.6172335E+03  0.7818609E-02  0.9870283E-01
        4   -1    0    0  501    0  0.00000000000E+00  0.00000000000E+00  0.95211875907E+02  0.95220345587E+02  0.12699999809E+01 0.  1.
       -4   -1    0    0    0  501  0.00000000000E+00  0.00000000000E+00 -0.10002872443E+04  0.10002880505E+04  0.12699999809E+01 0. -1.
    10030    2    1    2    0    0  0.00000000000E+00  0.00000000000E+00 -0.90507536835E+03  0.10955083961E+04  0.61723352424E+03 0.  0.
        5    1    3    3  502    0 -0.21057876175E+03 -0.12754396945E+03 -0.12233895988E+03  0.27495416008E+03  0.46999998093E+01 0.  1.
       -5    1    3    3    0  502  0.21057876175E+03  0.12754396945E+03 -0.78273640846E+03  0.82055423597E+03  0.46999998093E+01 0. -1.
</event>
<event>
 5   0  0.2388000E-02  0.5974680E+03  0.7818609E-02  0.9910673E-01
        3   -1    0    0  501    0  0.00000000000E+00  0.00000000000E+00  0.14099739039E+03  0.14099742656E+03  0.10100000352E+00 0.  1.
       -3   -1    0    0    0  501  0.00000000000E+00  0.00000000000E+00 -0.63293357593E+03  0.63293358399E+03  0.10100000352E+00 0. -1.
    10030    2    1    2    0    0  0.00000000000E+00  0.00000000000E+00 -0.49193618555E+03  0.77393101056E+03  0.59746798948E+03 0.  0.
        2    1    3    3  502    0 -0.39163795283E+02 -0.29405341302E+03 -0.29159659683E+03  0.41596849383E+03  0.25500000920E-02 0.  1.
       -2    1    3    3    0  502  0.39163795283E+02  0.29405341302E+03 -0.20033958872E+03  0.35796251673E+03  0.25500000920E-02 0. -1.
</event>
<event>
 5   0  0.2388000E-02  0.6074339E+03  0.7818609E-02  0.9890102E-01
        4   -1    0    0  501    0  0.00000000000E+00  0.00000000000E+00  0.25079941174E+03  0.25080262724E+03  0.12699999809E+01 0.  1.
       -4   -1    0    0    0  501  0.00000000000E+00  0.00000000000E+00 -0.36779314693E+03  0.36779533960E+03  0.12699999809E+01 0. -1.
    10030    2    1    2    0    0  0.00000000000E+00  0.00000000000E+00 -0.11699373519E+03  0.61859796684E+03  0.60743387335E+03 0.  0.
        4    1    3    3  502    0  0.23313055143E+02 -0.30260413036E+03 -0.70090588294E+02  0.31149167198E+03  0.12699999809E+01 0.  1.
       -4    1    3    3    0  502 -0.23313055143E+02  0.30260413036E+03 -0.46903146897E+02  0.30710629485E+03  0.12699999809E+01 0. -1.
</event>
<event>
 5   0  0.5999117E-02  0.5983848E+03  0.7818609E-02  0.9908763E-01
       -2   -1    0    0    0  501  0.00000000000E+00  0.00000000000E+00  0.13715534340E+03  0.13715534342E+03  0.25500000920E-02 0. -1.
        2   -1    0    0  501    0  0.00000000000E+00  0.00000000000E+00 -0.65266216199E+03  0.65266216199E+03  0.25500000920E-02 0.  1.
    10030    2    1    2    0    0  0.00000000000E+00  0.00000000000E+00 -0.51550681859E+03  0.78981750541E+03  0.59838483591E+03 0.  0.
        5    1    3    3  502    0  0.22672635111E+03 -0.17332448173E+03 -0.13934440517E+03  0.31762425522E+03  0.46999998093E+01 0. -1.
       -5    1    3    3    0  502 -0.22672635111E+03  0.17332448173E+03 -0.37616241343E+03  0.47219325019E+03  0.46999998093E+01 0.  1.
</event>
<event>
 5   0  0.3651984E-02  0.5780431E+03  0.7818609E-02  0.9952037E-01
       -1   -1    0    0    0  501  0.00000000000E+00  0.00000000000E+00  0.98182152311E+02  0.98182152440E+02  0.50400001928E-02 0. -1.
        1   -1    0    0  501    0  0.00000000000E+00  0.00000000000E+00 -0.85080082334E+03  0.85080082336E+03  0.50400001928E-02 0.  1.
    10030    2    1    2    0    0  0.00000000000E+00  0.00000000000E+00 -0.75261867103E+03  0.94898297580E+03  0.57804309906E+03 0.  0.
        1    1    3    3  502    0 -0.19122319932E+03 -0.30357739690E+02 -0.24026047267E+02  0.19510293511E+03  0.50400001928E-02 0. -1.
       -1    1    3    3    0  502  0.19122319932E+03  0.30357739690E+02 -0.72859262376E+03  0.75388004069E+03  0.50400001928E-02 0.  1.
</event>
<event>
 5   0  0.5999117E-02  0.6006578E+03  0.7818609E-02  0.9904042E-01
       -2   -1    0    0    0  501  0.00000000000E+00  0.00000000000E+00  0.95278008734E+02  0.95278008768E+02  0.25500000920E-02 0. -1.
        2   -1    0    0  501    0  0.00000000000E+00  0.00000000000E+00 -0.94667658311E+03  0.94667658312E+03  0.25500000920E-02 0.  1.
    10030    2    1    2    0    0  0.00000000000E+00  0.00000000000E+00 -0.85139857438E+03  0.10419545919E+04  0.60065783862E+03 0.  0.
        5    1    3    3  502    0 -0.86201611720E+02 -0.47438595049E+02 -0.91785669167E+03  0.92312736641E+03  0.46999998093E+01 0.  1.
       -5    1    3    3    0  502  0.86201611720E+02  0.47438595049E+02  0.66458117290E+02  0.11882722548E+03  0.46999998093E+01 0. -1.
</event>
<event>
 5   0  0.3640827E-02  0.6008412E+03  0.7818609E-02  0.9903662E-01
       -1   -1    0    0    0  501  0.00000000000E+00  0.00000000000E+00  0.23830098785E+03  0.23830098791E+03  0.50400001928E-02 0.  1.
        1   -1    0    0  501    0  0.00000000000E+00  0.00000000000E+00 -0.37873332863E+03  0.37873332867E+03  0.50400001928E-02 0. -1.
    10030    2    1    2    0    0  0.00000000000E+00  0.00000000000E+00 -0.14043234078E+03  0.61703431657E+03  0.60084116494E+03 0.  0.
        3    1    3    3  502    0 -0.11184203606E+02 -0.60332768440E+02  0.23179710008E+03  0.23978122354E+03  0.10100000352E+00 0.  1.
       -3    1    3    3    0  502  0.11184203606E+02  0.60332768440E+02 -0.37222944086E+03  0.37725309303E+03  0.10100000352E+00 0. -1.
</event>
<event>
 5   0  0.6007360E-02  0.6006983E+03  0.7818609E-02  0.9903958E-01
       -2   -1    0    0    0  501  0.00000000000E+00  0.00000000000E+00  0.98280827275E+02  0.98280827308E+02  0.25500000920E-02 0.  1.
        2   -1    0    0  501    0  0.00000000000E+00  0.00000000000E+00 -0.91787613856E+03  0.91787613856E+03  0.25500000920E-02 0. -1.
    10030    2    1    2    0    0  0.00000000000E+00  0.00000000000E+00 -0.81959531128E+03  0.10161569659E+04  0.60069834777E+03 0.  0.
        4    1    3    3  502    0  0.29832830470E+03 -0.34759557872E+02 -0.40963625424E+03  0.50794830243E+03  0.12699999809E+01 0.  1.
       -4    1    3    3    0  502 -0.29832830470E+03  0.34759557872E+02 -0.40995905704E+03  0.50820866344E+03  0.12699999809E+01 0. -1.
</event>
<event>
 5   0  0.3478183E-02  0.5995067E+03  0.7818609E-02  0.9906430E-01
       -1   -1    0    0    0  501  0.00000000000E+00  0.00000000000E+00  0.16099007070E+03  0.16099007078E+03  0.50400001928E-02 0. -1.
        1   -1    0    0  501    0  0.00000000000E+00  0.00000000000E+00 -0.55812176575E+03  0.55812176577E+03  0.50400001928E-02 0.  1.
    10030    2    1    2    0    0  0.00000000000E+00  0.00000000000E+00 -0.39713169505E+03  0.71911183655E+03  0.59950667240E+03 0.  0.
        4    1    3    3  502    0 -0.13184222768E+03  0.26672616684E+03 -0.15489940483E+03  0.33544099272E+03  0.12699999809E+01 0. -1.
       -4    1    3    3    0  502  0.13184222768E+03 -0.26672616684E+03 -0.24223229022E+03  0.38367084383E+03  0.12699999809E+01 0.  1.
</event>
<event>
 5   0  0.6007360E-02  0.6072588E+03  0.7818609E-02  0.9890460E-01
       -2   -1    0    0    0  501  0.00000000000E+00  0.00000000000E+00  0.13258063196E+04  0.13258063196E+04  0.25500000920E-02 0. -1.
        2   -1    0    0  501    0  0.00000000000E+00  0.00000000000E+00 -0.69535647432E+02  0.69535647479E+02  0.25500000920E-02 0.  1.
    10030    2    1    2    0    0  0.00000000000E+00  0.00000000000E+00  0.12562706722E+04  0.13953419671E+04  0.60725876145E+03 0.  0.
        4    1    3    3  502    0  0.94502823179E+02 -0.23431114587E+03  0.10150673329E+04  0.10460381445E+04  0.12699999809E+01 0. -1.
       -4    1    3    3    0  502 -0.94502823179E+02  0.23431114587E+03  0.24120333935E+03  0.34930382260E+03  0.12699999809E+01 0.  1.
</event>
<event>
 5   0  0.5755078E-02  0.5998747E+03  0.7818609E-02  0.9905666E-01
        2   -1    0    0  501    0  0.00000000000E+00  0.00000000000E+00  0.18720274718E+03  0.18720274719E+03  0.25500000920E-02 0.  1.
       -2   -1    0    0    0  501  0.00000000000E+00  0.00000000000E+00 -0.48056143322E+03  0.48056143322E+03  0.25500000920E-02 0. -1.
    10030    2    1    2    0    0  0.00000000000E+00  0.00000000000E+00 -0.29335868604E+03  0.66776418042E+03  0.59987472190E+03 0.  0.
        2    1    3    3  502    0 -0.24190389328E+03  0.14057775500E+03 -0.26359728442E+02  0.28102390303E+03  0.25500000920E-02 0.  1.
       -2    1    3    3    0  502  0.24190389328E+03 -0.14057775500E+03 -0.26699895760E+03  0.38674027738E+03  0.25500000920E-02 0. -1.
</event>
<event>
 5   0  0.3651984E-02  0.6017418E+03  0.7818609E-02  0.9901799E-01
        1   -1    0    0  501    0  0.00000000000E+00  0.00000000000E+00  0.87334252760E+03  0.87334252762E+03  0.50400001928E-02 0.  1.
       -1   -1    0    0    0  501  0.00000000000E+00  0.00000000000E+00 -0.10365154950E+03  0.10365154963E+03  0.50400001928E-02 0. -1.
    10030    2    1    2    0    0  0.00000000000E+00  0.00000000000E+00  0.76969097810E+03  0.97699407724E+03  0.60174182603E+03 0.  0.
        1    1    3    3  502    0 -0.30899191423E+02 -0.82671139279E+02  0.85185294938E+03  0.85641270699E+03  0.50400001928E-02 0.  1.
       -1    1    3    3    0  502  0.30899191423E+02  0.82671139279E+02 -0.82161971285E+02  0.12058137025E+03  0.50400001928E-02 0. -1.
</event>
<event>
 5   0  0.3703280E-02  0.6018456E+03  0.7818609E-02  0.9901584E-01
        1   -1    0    0  501    0  0.00000000000E+00  0.00000000000E+00  0.76656011579E+02  0.76656011745E+02  0.50400001928E-02 0.  1.
       -1   -1    0    0    0  501  0.00000000000E+00  0.00000000000E+00 -0.11813101269E+04  0.11813101269E+04  0.50400001928E-02 0. -1.
    10030    2    1    2    0    0  0.00000000000E+00  0.00000000000E+00 -0.11046541154E+04  0.12579661387E+04  0.60184557115E+03 0.  0.
        5    1    3    3  502    0 -0.26783122957E+03  0.77832443316E+02 -0.78825817959E+03  0.83616057337E+03  0.46999998093E+01 0. -1.
       -5    1    3    3    0  502  0.26783122957E+03 -0.77832443316E+02 -0.31639593576E+03  0.42180556532E+03  0.46999998093E+01 0.  1.
</event>
<event>
 5   0  0.3651984E-02  0.6005554E+03  0.7818609E-02  0.9904255E-01
        1   -1    0    0  501    0  0.00000000000E+00  0.00000000000E+00  0.96608868338E+03  0.96608868339E+03  0.50400001928E-02 0.  1.
       -1   -1    0    0    0  501  0.00000000000E+00  0.00000000000E+00 -0.93331689549E+02  0.93331689685E+02  0.50400001928E-02 0. -1.
    10030    2    1    2    0    0  0.00000000000E+00  0.00000000000E+00  0.87275699383E+03  0.10594203731E+04  0.60055537348E+03 0.  0.
        1    1    3    3  502    0  0.90126788367E+02 -0.23066039283E+03  0.13680034460E+03  0.28291586931E+03  0.50400001928E-02 0. -1.
       -1    1    3    3    0  502 -0.90126788367E+02  0.23066039283E+03  0.73595664923E+03  0.77650450377E+03  0.50400001928E-02 0.  1.
</event>
<event>
 5   0  0.5999117E-02  0.5992941E+03  0.7818609E-02  0.9906872E-01
        2   -1    0    0  501    0  0.00000000000E+00  0.00000000000E+00  0.46720557593E+03  0.46720557594E+03  0.25500000920E-02 0. -1.
       -2   -1    0    0    0  501  0.00000000000E+00  0.00000000000E+00 -0.19218166686E+03  0.19218166687E+03  0.25500000920E-02 0.  1.
    10030    2    1    2    0    0  0.00000000000E+00  0.00000000000E+00  0.27502390907E+03  0.65938724281E+03  0.59929407257E+03 0.  0.
        5    1    3    3  502    0  0.24968296089E+03  0.10086582485E+03 -0.70003027085E+01  0.26941898563E+03  0.46999998093E+01 0. -1.
       -5    1    3    3    0  502 -0.24968296089E+03 -0.10086582485E+03  0.28202421178E+03  0.38996825718E+03  0.46999998093E+01 0.  1.
</event>
<event>
 5   0  0.5935451E-02  0.6019149E+03  0.7818609E-02  0.9901441E-01
       -2   -1    0    0    0  501  0.00000000000E+00  0.00000000000E+00  0.69268126640E+02  0.69268126687E+02  0.25500000920E-02 0.  1.
        2   -1    0    0  501    0  0.00000000000E+00  0.00000000000E+00 -0.13076056534E+04  0.13076056534E+04  0.25500000920E-02 0. -1.
    10030    2    1    2    0    0  0.00000000000E+00  0.00000000000E+00 -0.12383375268E+04  0.13768737801E+04  0.60191492432E+03 0.  0.
        3    1    3    3  502    0 -0.54119422202E+02 -0.21939622031E+03 -0.10738659460E+04  0.10973840228E+04  0.10100000352E+00 0. -1.
       -3    1    3    3    0  502  0.54119422202E+02  0.21939622031E+03 -0.16447158077E+03  0.27948975729E+03  0.10100000352E+00 0.  1.
</event>
<event>
 5   0  0.5935451E-02  0.6066636E+03  0.7818609E-02  0.9891677E-01
        2   -1    0    0  501    0  0.00000000000E+00  0.00000000000E+00  0.77358072644E+03  0.77358072645E+03  0.25500000920E-02 0. -1.
       -2   -1    0    0    0  501  0.00000000000E+00  0.00000000000E+00 -0.11894064128E+03  0.11894064131E+03  0.25500000920E-02 0.  1.
    10030    2    1    2    0    0  0.00000000000E+00  0.00000000000E+00  0.65464008517E+03  0.89252136775E+03  0.60666362244E+03 0.  0.
        3    1    3    3  502    0  0.16157531689E+03 -0.25336353877E+03  0.38816627498E+03  0.49088973613E+03  0.10100000352E+00 0. -1.
       -3    1    3    3    0  502 -0.16157531689E+03  0.25336353877E+03  0.26647381019E+03  0.40163163163E+03  0.10100000352E+00 0.  1.
</event>
<event>
 5   0  0.3767635E-02  0.6609331E+03  0.7818609E-02  0.9786478E-01
        1   -1    0    0  501    0  0.00000000000E+00  0.00000000000E+00  0.43333998430E+03  0.43333998433E+03  0.50400001928E-02 0.  1.
       -1   -1    0    0    0  501  0.00000000000E+00  0.00000000000E+00 -0.25201493237E+03  0.25201493242E+03  0.50400001928E-02 0. -1.
    10030    2    1    2    0    0  0.00000000000E+00  0.00000000000E+00  0.18132505193E+03  0.68535491676E+03  0.66093311875E+03 0.  0.
        2    1    3    3  502    0 -0.26683802750E+03  0.17517631772E+03  0.19509930407E+01  0.31920695730E+03  0.25500000920E-02 0.  1.
       -2    1    3    3    0  502  0.26683802750E+03 -0.17517631772E+03  0.17937405889E+03  0.36614795946E+03  0.25500000920E-02 0. -1.
</event>
<event>
 5   0  0.6007360E-02  0.6075241E+03  0.7818609E-02  0.9889918E-01
       -2   -1    0    0    0  501  0.00000000000E+00  0.00000000000E+00  0.10550527209E+03  0.10550527212E+03  0.25500000920E-02 0. -1.
        2   -1    0    0  501    0  0.00000000000E+00  0.00000000000E+00 -0.87456665738E+03  0.87456665738E+03  0.25500000920E-02 0.  1.
    10030    2    1    2    0    0  0.00000000000E+00  0.00000000000E+00 -0.76906138529E+03  0.98007192950E+03  0.60752413339E+03 0.  0.
        4    1    3    3  502    0  0.20605022589E+03  0.16296542385E+02 -0.25439030249E+02  0.20825712484E+03  0.12699999809E+01 0. -1.
       -4    1    3    3    0  502 -0.20605022589E+03 -0.16296542385E+02 -0.74362235504E+03  0.77181480467E+03  0.12699999809E+01 0.  1.
</event>
<event>
 5   0  0.3651984E-02  0.5959697E+03  0.7818609E-02  0.9913803E-01
       -1   -1    0    0    0  501  0.00000000000E+00  0.00000000000E+00  0.50230300285E+02  0.50230300538E+02  0.50400001928E-02 0. -1.
        1   -1    0    0  501    0  0.00000000000E+00  0.00000000000E+00 -0.17677572874E+04  0.17677572874E+04  0.50400001928E-02 0.  1.
    10030    2    1    2    0    0  0.00000000000E+00  0.00000000000E+00 -0.17175269871E+04  0.18179875880E+04  0.59596972948E+03 0.  0.
        1    1    3    3  502    0  0.86027166471E+02 -0.27480016226E+03 -0.10926606712E+04  0.11299659929E+04  0.50400001928E-02 0. -1.
       -1    1    3    3    0  502 -0.86027166471E+02  0.27480016226E+03 -0.62486631590E+03  0.68802159510E+03  0.50400001928E-02 0.  1.
</event>
<event>
 5   0  0.5935451E-02  0.6156992E+03  0.7818609E-02  0.9873360E-01
       -2   -1    0    0    0  501  0.00000000000E+00  0.00000000000E+00  0.24134464192E+03  0.24134464193E+03  0.25500000920E-02 0. -1.
        2   -1    0    0  501    0  0.00000000000E+00  0.00000000000E+00 -0.39268061067E+03  0.39268061067E+03  0.25500000920E-02 0.  1.
    10030    2    1    2    0    0  0.00000000000E+00  0.00000000000E+00 -0.15133596875E+03  0.63402525261E+03  0.61569915178E+03 0.  0.
        3    1    3    3  502    0 -0.77370601282E+02 -0.18123176320E+02 -0.38193720037E+03  0.39011625792E+03  0.10100000352E+00 0.  1.
       -3    1    3    3    0  502  0.77370601282E+02  0.18123176320E+02  0.23060123162E+03  0.24390899469E+03  0.10100000352E+00 0. -1.
</event>
<event>
 5   0  0.3651984E-02  0.6033773E+03  0.7818609E-02  0.9898424E-01
       -1   -1    0    0    0  501  0.00000000000E+00  0.00000000000E+00  0.43797872402E+02  0.43797872692E+02  0.50400001928E-02 0.  1.
        1   -1    0    0  501    0  0.00000000000E+00  0.00000000000E+00 -0.20780927559E+04  0.20780927559E+04  0.50400001928E-02 0. -1.
    10030    2    1    2    0    0  0.00000000000E+00  0.00000000000E+00 -0.20342948835E+04  0.21218906286E+04  0.60337730045E+03 0.  0.
        1    1    3    3  502    0  0.11368489970E+03 -0.25942380127E+03 -0.13824615241E+04  0.14111785255E+04  0.50400001928E-02 0. -1.
       -1    1    3    3    0  502 -0.11368489970E+03  0.25942380127E+03 -0.65183335934E+03  0.71071210308E+03  0.50400001928E-02 0.  1.
</event>
<event>
 5   0  0.2388000E-02  0.5987980E+03  0.7818609E-02  0.9907903E-01
       -3   -1    0    0    0  501  0.00000000000E+00  0.00000000000E+00  0.46512162926E+03  0.46512164023E+03  0.10100000352E+00 0. -1.
        3   -1    0    0  501    0  0.00000000000E+00  0.00000000000E+00 -0.19272325101E+03  0.19272327748E+03  0.10100000352E+00 0.  1.
    10030    2    1    2    0    0  0.00000000000E+00  0.00000000000E+00  0.27239837825E+03  0.65784491771E+03  0.59879801209E+03 0.  0.
        5    1    3    3  502    0 -0.13827346413E+03 -0.25156052833E+03  0.22951905760E+03  0.36756405985E+03  0.46999998093E+01 0.  1.
       -5    1    3    3    0  502  0.13827346413E+03  0.25156052833E+03  0.42879320647E+02  0.29028085785E+03  0.46999998093E+01 0. -1.
</event>
<event>
 5   0  0.5999117E-02  0.6012606E+03  0.7818609E-02  0.9902794E-01
       -2   -1    0    0    0  501  0.00000000000E+00  0.00000000000E+00  0.53981371937E+02  0.53981371997E+02  0.25500000920E-02 0. -1.
        2   -1    0    0  501    0  0.00000000000E+00  0.00000000000E+00 -0.16742549087E+04  0.16742549088E+04  0.25500000920E-02 0.  1.
    10030    2    1    2    0    0  0.00000000000E+00  0.00000000000E+00 -0.16202735368E+04  0.17282362807E+04  0.60126059907E+03 0.  0.
        5    1    3    3  502    0  0.60188441574E+02 -0.10698922772E+03 -0.15988166873E+04  0.16035293052E+04  0.46999998093E+01 0.  1.
       -5    1    3    3    0  502 -0.60188441574E+02  0.10698922772E+03 -0.21456849557E+02  0.12470697550E+03  0.46999998093E+01 0. -1.
</event>
<event>
 5   0  0.3703280E-02  0.6105840E+03  0.7818609E-02  0.9883688E-01
       -1   -1    0    0    0  501  0.00000000000E+00  0.00000000000E+00  0.19477464240E+03  0.19477464247E+03  0.50400001928E-02 0. -1.
        1   -1    0    0  501    0  0.00000000000E+00  0.00000000000E+00 -0.47851815871E+03  0.47851815874E+03  0.50400001928E-02 0.  1.
    10030    2    1    2    0    0  0.00000000000E+00  0.00000000000E+00 -0.28374351631E+03  0.67329280120E+03  0.61058399349E+03 0.  0.
        5    1    3    3  502    0 -0.27864653507E+03  0.86244324851E+02 -0.42633767817E+02  0.29482486875E+03  0.46999998093E+01 0. -1.
       -5    1    3    3    0  502  0.27864653507E+03 -0.86244324851E+02 -0.24110974849E+03  0.37846793245E+03  0.46999998093E+01 0.  1.
</event>
<event>
 5   0  0.3767635E-02  0.5766589E+03  0.7818609E-02  0.9955051E-01
       -1   -1    0    0    0  501  0.00000000000E+00  0.00000000000E+00  0.59656175692E+03  0.59656175694E+03  0.50400001928E-02 0. -1.
        1   -1    0    0  501    0  0.00000000000E+00  0.00000000000E+00 -0.13935499600E+03  0.13935499609E+03  0.50400001928E-02 0.  1.
    10030    2    1    2    0    0  0.00000000000E+00  0.00000000000E+00  0.45720676092E+03  0.73591675303E+03  0.57665886376E+03 0.  0.
        2    1    3    3  502    0 -0.81625549589E+02  0.25662337081E+03  0.97116776130E+02  0.28626902208E+03  0.25500000920E-02 0.  1.
       -2    1    3    3    0  502  0.81625549589E+02 -0.25662337081E+03  0.36008998479E+03  0.44964773095E+03  0.25500000920E-02 0. -1.
</event>
<event>
 5   0  0.5755078E-02  0.5986713E+03  0.7818609E-02  0.9908167E-01
       -2   -1    0    0    0  501  0.00000000000E+00  0.00000000000E+00  0.93430165219E+02  0.93430165253E+02  0.25500000920E-02 0. -1.
        2   -1    0    0  501    0  0.00000000000E+00  0.00000000000E+00 -0.95902462389E+03  0.95902462390E+03  0.25500000920E-02 0.  1.
    10030    2    1    2    0    0  0.00000000000E+00  0.00000000000E+00 -0.86559445867E+03  0.10524547891E+04  0.59867129238E+03 0.  0.
        2    1    3    3  502    0  0.98342308697E+02 -0.81021009731E+02 -0.90896837338E+03  0.91785571716E+03  0.25500000920E-02 0.  1.
       -2    1    3    3    0  502 -0.98342308697E+02  0.81021009731E+02  0.43373914710E+02  0.13459907199E+03  0.25500000920E-02 0. -1.
</event>
<event>
 5   0  0.5935451E-02  0.5928808E+03  0.7818609E-02  0.9920287E-01
       -2   -1    0    0    0  501  0.00000000000E+00  0.00000000000E+00  0.32820743248E+03  0.32820743249E+03  0.25500000920E-02 0. -1.
        2   -1    0    0  501    0  0.00000000000E+00  0.00000000000E+00 -0.26774809058E+03  0.26774809059E+03  0.25500000920E-02 0.  1.
    10030    2    1    2    0    0  0.00000000000E+00  0.00000000000E+00  0.60459341906E+02  0.59595552308E+03  0.59288080882E+03 0.  0.
        3    1    3    3  502    0  0.44678935727E+00  0.20875025983E+03  0.24179693945E+03  0.31944113813E+03  0.10100000352E+00 0. -1.
       -3    1    3    3    0  502 -0.44678935727E+00 -0.20875025983E+03 -0.18133759754E+03  0.27651438495E+03  0.10100000352E+00 0.  1.
</event>
<event>
 5   0  0.3640827E-02  0.5945419E+03  0.7818609E-02  0.9916795E-01
       -1   -1    0    0    0  501  0.00000000000E+00  0.00000000000E+00  0.20985979421E+03  0.20985979428E+03  0.50400001928E-02 0.  1.
        1   -1    0    0  501    0  0.00000000000E+00  0.00000000000E+00 -0.42109081142E+03  0.42109081145E+03  0.50400001928E-02 0. -1.
    10030    2    1    2    0    0  0.00000000000E+00  0.00000000000E+00 -0.21123101720E+03  0.63095060572E+03  0.59454194489E+03 0.  0.
        3    1    3    3  502    0  0.41831496354E+02 -0.24178748494E+03  0.72466956640E+02  0.25585646751E+03  0.10100000352E+00 0. -1.
       -3    1    3    3    0  502 -0.41831496354E+02  0.24178748494E+03 -0.28369797384E+03  0.37509413822E+03  0.10100000352E+00 0.  1.
</event>
<event>
 5   0  0.2388000E-02  0.5490324E+03  0.7818609E-02  0.1001718E+00
       -4   -1    0    0    0  501  0.00000000000E+00  0.00000000000E+00  0.26402543960E+03  0.26402849403E+03  0.12699999809E+01 0. -1.
        4   -1    0    0  501    0  0.00000000000E+00  0.00000000000E+00 -0.28541770844E+03  0.28542053394E+03  0.12699999809E+01 0.  1.
    10030    2    1    2    0    0  0.00000000000E+00  0.00000000000E+00 -0.21392268841E+02  0.54944902796E+03  0.54903242633E+03 0.  0.
        2    1    3    3  502    0  0.12496765237E+03  0.10487500610E+03  0.21025062535E+03  0.26612216464E+03  0.25500000920E-02 0. -1.
       -2    1    3    3    0  502 -0.12496765237E+03 -0.10487500610E+03 -0.23164289420E+03  0.28332686332E+03  0.25500000920E-02 0.  1.
</event>
<event>
 5   0  0.6007360E-02  0.6031922E+03  0.7818609E-02  0.9898805E-01
       -2   -1    0    0    0  501  0.00000000000E+00  0.00000000000E+00  0.32012143330E+03  0.32012143331E+03  0.25500000920E-02 0. -1.
        2   -1    0    0  501    0  0.00000000000E+00  0.00000000000E+00 -0.28414277810E+03  0.28414277811E+03  0.25500000920E-02 0.  1.
    10030    2    1    2    0    0  0.00000000000E+00  0.00000000000E+00  0.35978655199E+02  0.60426421143E+03  0.60319215312E+03 0.  0.
        4    1    3    3  502    0 -0.21248902868E+03 -0.17872850407E+03 -0.99961665890E+02  0.29510915442E+03  0.12699999809E+01 0.  1.
       -4    1    3    3    0  502  0.21248902868E+03  0.17872850407E+03  0.13594032109E+03  0.30915505701E+03  0.12699999809E+01 0. -1.
</event>
<event>
 5   0  0.5755078E-02  0.6419241E+03  0.7818609E-02  0.9822052E-01
       -2   -1    0    0    0  501  0.00000000000E+00  0.00000000000E+00  0.14912451845E+03  0.14912451848E+03  0.25500000920E-02 0.  1.
        2   -1    0    0  501    0  0.00000000000E+00  0.00000000000E+00 -0.69080958128E+03  0.69080958128E+03  0.25500000920E-02 0. -1.
    10030    2    1    2    0    0  0.00000000000E+00  0.00000000000E+00 -0.54168506282E+03  0.83993409976E+03  0.64192412687E+03 0.  0.
        2    1    3    3  502    0 -0.27026145570E+03 -0.16779256085E+03 -0.21500551044E+03  0.38395698645E+03  0.25500000920E-02 0. -1.
       -2    1    3    3    0  502  0.27026145570E+03  0.16779256085E+03 -0.32667955238E+03  0.45597711331E+03  0.25500000920E-02 0.  1.
</event>
<event>
 5   0  0.2388000E-02  0.5989075E+03  0.7818609E-02  0.9907675E-01
        4   -1    0    0  501    0  0.00000000000E+00  0.00000000000E+00  0.12650442733E+03  0.12651080205E+03  0.12699999809E+01 0. -1.
       -4   -1    0    0    0  501  0.00000000000E+00  0.00000000000E+00 -0.70882438897E+03  0.70882552669E+03  0.12699999809E+01 0.  1.
    10030    2    1    2    0    0  0.00000000000E+00  0.00000000000E+00 -0.58231996164E+03  0.83533632874E+03  0.59890754244E+03 0.  0.
        1    1    3    3  502    0 -0.22242237017E+03  0.61408384375E+02 -0.24946317463E+02  0.23208838662E+03  0.50400001928E-02 0. -1.
       -1    1    3    3    0  502  0.22242237017E+03 -0.61408384375E+02 -0.55737364417E+03  0.60324794212E+03  0.50400001928E-02 0.  1.
</event>
<event>
 5   0  0.5755078E-02  0.5994572E+03  0.7818609E-02  0.9906533E-01
        2   -1    0    0  501    0  0.00000000000E+00  0.00000000000E+00  0.10675542672E+03  0.10675542675E+03  0.25500000920E-02 0.  1.
       -2   -1    0    0    0  501  0.00000000000E+00  0.00000000000E+00 -0.84152386323E+03  0.84152386323E+03  0.25500000920E-02 0. -1.
    10030    2    1    2    0    0  0.00000000000E+00  0.00000000000E+00 -0.73476843651E+03  0.94827928998E+03  0.59945721825E+03 0.  0.
        2    1    3    3  502    0 -0.24108844894E+02 -0.14153179727E+03 -0.78359064260E+03  0.79663465982E+03  0.25500000920E-02 0. -1.
       -2    1    3    3    0  502  0.24108844894E+02  0.14153179727E+03  0.48822206093E+02  0.15164463016E+03  0.25500000920E-02 0.  1.
</event>
<event>
 5   0  0.5999117E-02  0.6003101E+03  0.7818609E-02  0.9904763E-01
        2   -1    0    0  501    0  0.00000000000E+00  0.00000000000E+00  0.49394585936E+03  0.49394585936E+03  0.25500000920E-02 0.  1.
       -2   -1    0    0    0  501  0.00000000000E+00  0.00000000000E+00 -0.18239458492E+03  0.18239458494E+03  0.25500000920E-02 0. -1.
    10030    2    1    2    0    0  0.00000000000E+00  0.00000000000E+00  0.31155127444E+03  0.67634044430E+03  0.60031008653E+03 0.  0.
        5    1    3    3  502    0 -0.58430260917E+02 -0.21902554144E+01  0.48742501156E+03  0.49094207856E+03  0.46999998093E+01 0.  1.
       -5    1    3    3    0  502  0.58430260917E+02  0.21902554144E+01 -0.17587373713E+03  0.18539836574E+03  0.46999998093E+01 0. -1.
</event>
<event>
 5   0  0.6007360E-02  0.6030936E+03  0.7818609E-02  0.9899008E-01
        2   -1    0    0  501    0  0.00000000000E+00  0.00000000000E+00  0.80022350743E+03  0.80022350743E+03  0.25500000920E-02 0. -1.
       -2   -1    0    0    0  501  0.00000000000E+00  0.00000000000E+00 -0.11363135220E+03  0.11363135223E+03  0.25500000920E-02 0.  1.
    10030    2    1    2    0    0  0.00000000000E+00  0.00000000000E+00  0.68659215523E+03  0.91385485966E+03  0.60309362201E+03 0.  0.
        4    1    3    3  502    0  0.27845337247E+03  0.83989349532E+02  0.22265882168E+03  0.36629094344E+03  0.12699999809E+01 0. -1.
       -4    1    3    3    0  502 -0.27845337247E+03 -0.83989349532E+02  0.46393333355E+03  0.54756391623E+03  0.12699999809E+01 0.  1.
</event>
<event>
 5   0  0.5755078E-02  0.6088983E+03  0.7818609E-02  0.9887115E-01
       -2   -1    0    0    0  501  0.00000000000E+00  0.00000000000E+00  0.62350469279E+02  0.62350469331E+02  0.25500000920E-02 0. -1.
        2   -1    0    0  501    0  0.00000000000E+00  0.00000000000E+00 -0.14865853524E+04  0.14865853524E+04  0.25500000920E-02 0.  1.
    10030    2    1    2    0    0  0.00000000000E+00  0.00000000000E+00 -0.14242348831E+04  0.15489358217E+04  0.60889833105E+03 0.  0.
        2    1    3    3  502    0  0.12202375215E+03  0.18527655696E+03 -0.18172914956E+03  0.28677985016E+03  0.25500000920E-02 0. -1.
       -2    1    3    3    0  502 -0.12202375215E+03 -0.18527655696E+03 -0.12425057336E+04  0.12621559716E+04  0.25500000920E-02 0.  1.
</event>
<event>
 5   0  0.5999117E-02  0.5921014E+03  0.7818609E-02  0.9921930E-01
        2   -1    0    0  501    0  0.00000000000E+00  0.00000000000E+00  0.24975057002E+03  0.24975057003E+03  0.25500000920E-02 0.  1.
       -2   -1    0    0    0  501  0.00000000000E+00  0.00000000000E+00 -0.35093425403E+03  0.35093425403E+03  0.25500000920E-02 0. -1.
    10030    2    1    2    0    0  0.00000000000E+00  0.00000000000E+00 -0.10118368401E+03  0.60068482406E+03  0.59210144397E+03 0.  0.
        5    1    3    3  502    0 -0.61678800743E+02  0.26117029883E+03  0.76158278782E+02  0.27899170754E+03  0.46999998093E+01 0. -1.
       -5    1    3    3    0  502  0.61678800743E+02 -0.26117029883E+03 -0.17734196279E+03  0.32169311652E+03  0.46999998093E+01 0.  1.
</event>
<event>
 5   0  0.3651984E-02  0.5997811E+03  0.7818609E-02  0.9905860E-01
        1   -1    0    0  501    0  0.00000000000E+00  0.00000000000E+00  0.40568555574E+03  0.40568555578E+03  0.50400001928E-02 0.  1.
       -1   -1    0    0    0  501  0.00000000000E+00  0.00000000000E+00 -0.22168487074E+03  0.22168487080E+03  0.50400001928E-02 0. -1.
    10030    2    1    2    0    0  0.00000000000E+00  0.00000000000E+00  0.18400068501E+03  0.62737042657E+03  0.59978112679E+03 0.  0.
        1    1    3    3  502    0 -0.81332129074E+02  0.28276097623E+03  0.31317390997E+02  0.29588758660E+03  0.50400001928E-02 0.  1.
       -1    1    3    3    0  502  0.81332129074E+02 -0.28276097623E+03  0.15268329401E+03  0.33148283997E+03  0.50400001928E-02 0. -1.
</event>
<event>
 5   0  0.5935451E-02  0.5935966E+03  0.7818609E-02  0.9918781E-01
       -2   -1    0    0    0  501  0.00000000000E+00  0.00000000000E+00  0.76343429782E+02  0.76343429824E+02  0.25500000920E-02 0.  1.
        2   -1    0    0  501    0  0.00000000000E+00  0.00000000000E+00 -0.11538547224E+04  0.11538547224E+04  0.25500000920E-02 0. -1.
    10030    2    1    2    0    0  0.00000000000E+00  0.00000000000E+00 -0.10775112926E+04  0.12301981522E+04  0.59359658693E+03 0.  0.
        3    1    3    3  502    0 -0.11039706890E+03  0.17065974663E+02 -0.11086240854E+04  0.11142379159E+04  0.10100000352E+00 0. -1.
       -3    1    3    3    0  502  0.11039706890E+03 -0.17065974663E+02  0.31112792848E+02  0.11596023625E+03  0.10100000352E+00 0.  1.
</event>
<event>
 5   0  0.3651984E-02  0.6017710E+03  0.7818609E-02  0.9901739E-01
        1   -1    0    0  501    0  0.00000000000E+00  0.00000000000E+00  0.93241173496E+03  0.93241173497E+03  0.50400001928E-02 0.  1.
       -1   -1    0    0    0  501  0.00000000000E+00  0.00000000000E+00 -0.97094523879E+02  0.97094524009E+02  0.50400001928E-02 0. -1.
    10030    2    1    2    0    0  0.00000000000E+00  0.00000000000E+00  0.83531721108E+03  0.10295062590E+04  0.60177096487E+03 0.  0.
        1    1    3    3  502    0 -0.97186199934E+02 -0.16600447952E+03  0.21841948462E+02  0.19359678566E+03  0.50400001928E-02 0. -1.
       -1    1    3    3    0  502  0.97186199934E+02  0.16600447952E+03  0.81347526262E+03  0.83590947333E+03  0.50400001928E-02 0.  1.
</event>
<event>
 5   0  0.5755078E-02  0.6062933E+03  0.7818609E-02  0.9892435E-01
        2   -1    0    0  501    0  0.00000000000E+00  0.00000000000E+00  0.92711367167E+03  0.92711367168E+03  0.25500000920E-02 0. -1.
       -2   -1    0    0    0  501  0.00000000000E+00  0.00000000000E+00 -0.99122566325E+02  0.99122566357E+02  0.25500000920E-02 0.  1.
    10030    2    1    2    0    0  0.00000000000E+00  0.00000000000E+00  0.82799110535E+03  0.10262362380E+04  0.60629328358E+03 0.  0.
        2    1    3    3  502    0 -0.51886494047E+02 -0.28715589933E+03  0.27496016910E+03  0.40094115950E+03  0.25500000920E-02 0.  1.
       -2    1    3    3    0  502  0.51886494047E+02  0.28715589933E+03  0.55303093625E+03  0.62529507853E+03  0.25500000920E-02 0. -1.
</event>
<event>
 5   0  0.5999117E-02  0.5788771E+03  0.7818609E-02  0.9950225E-01
       -2   -1    0    0    0  501  0.00000000000E+00  0.00000000000E+00  0.68347110562E+02  0.68347110609E+02  0.25500000920E-02 0. -1.
        2   -1    0    0  501    0  0.00000000000E+00  0.00000000000E+00 -0.12257237090E+04  0.12257237090E+04  0.25500000920E-02 0.  1.
    10030    2    1    2    0    0  0.00000000000E+00  0.00000000000E+00 -0.11573765985E+04  0.12940708197E+04  0.57887709885E+03 0.  0.
        5    1    3    3  502    0  0.10783051952E+03 -0.99863350875E+02 -0.21373101406E+02  0.14859007117E+03  0.46999998093E+01 0. -1.
       -5    1    3    3    0  502 -0.10783051952E+03  0.99863350875E+02 -0.11360034971E+04  0.11454807485E+04  0.46999998093E+01 0.  1.
</event>
<event>
 5   0  0.3651984E-02  0.6026431E+03  0.7818609E-02  0.9899938E-01
       -1   -1    0    0    0  501  0.00000000000E+00  0.00000000000E+00  0.12701176045E+03  0.12701176055E+03  0.50400001928E-02 0.  1.
        1   -1    0    0  501    0  0.00000000000E+00  0.00000000000E+00 -0.71485249775E+03  0.71485249777E+03  0.50400001928E-02 0. -1.
    10030    2    1    2    0    0  0.00000000000E+00  0.00000000000E+00 -0.58784073730E+03  0.84186425832E+03  0.60264309256E+03 0.  0.
        1    1    3    3  502    0  0.19033297463E+02  0.28099346235E+03 -0.14427620404E+03  0.31644148807E+03  0.50400001928E-02 0.  1.
       -1    1    3    3    0  502 -0.19033297463E+02 -0.28099346235E+03 -0.44356453326E+03  0.52542277024E+03  0.50400001928E-02 0. -1.
</event>
<event>
 5   0  0.3478183E-02  0.6187436E+03  0.7818609E-02  0.9867264E-01
       -1   -1    0    0    0  501  0.00000000000E+00  0.00000000000E+00  0.18306838105E+03  0.18306838112E+03  0.50400001928E-02 0.  1.
        1   -1    0    0  501    0  0.00000000000E+00  0.00000000000E+00 -0.52281502125E+03  0.52281502127E+03  0.50400001928E-02 0. -1.
    10030    2    1    2    0    0  0.00000000000E+00  0.00000000000E+00 -0.33974664020E+03  0.70588340239E+03  0.61874356420E+03 0.  0.
        4    1    3    3  502    0  0.20317835978E+03 -0.10043608369E+03 -0.41010055632E+03  0.46856475752E+03  0.12699999809E+01 0. -1.
       -4    1    3    3    0  502 -0.20317835978E+03  0.10043608369E+03  0.70353916123E+02  0.23731864487E+03  0.12699999809E+01 0.  1.
</event>
<event>
 5   0  0.3640827E-02  0.6047507E+03  0.7818609E-02  0.9895599E-01
       -1   -1    0    0    0  501  0.00000000000E+00  0.00000000000E+00  0.98120443109E+02  0.98120443238E+02  0.50400001928E-02 0. -1.
        1   -1    0    0  501    0  0.00000000000E+00  0.00000000000E+00 -0.93182276935E+03  0.93182276936E+03  0.50400001928E-02 0.  1.
    10030    2    1    2    0    0  0.00000000000E+00  0.00000000000E+00 -0.83370232624E+03  0.10299432126E+04  0.60475073576E+03 0.  0.
        3    1    3    3  502    0  0.93666473209E+02 -0.28501764450E+03 -0.48108232297E+03  0.56696444118E+03  0.10100000352E+00 0. -1.
       -3    1    3    3    0  502 -0.93666473209E+02  0.28501764450E+03 -0.35262000327E+03  0.46297877142E+03  0.10100000352E+00 0.  1.
</event>
<event>
 5   0  0.3703280E-02  0.6045594E+03  0.7818609E-02  0.9895992E-01
       -1   -1    0    0    0  501  0.00000000000E+00  0.00000000000E+00  0.43454216556E+03  0.43454216559E+03  0.50400001928E-02 0.  1.
        1   -1    0    0  501    0  0.00000000000E+00  0.00000000000E+00 -0.21027419403E+03  0.21027419410E+03  0.50400001928E-02 0. -1.
    10030    2    1    2    0    0  0.00000000000E+00  0.00000000000E+00  0.22426797152E+03  0.64481635968E+03  0.60455935578E+03 0.  0.
        5    1    3    3  502    0 -0.25172532217E+03 -0.22957925025E+02 -0.64605345885E+02  0.26093800961E+03  0.46999998093E+01 0. -1.
       -5    1    3    3    0  502  0.25172532217E+03  0.22957925025E+02  0.28887331741E+03  0.38387835007E+03  0.46999998093E+01 0.  1.
</event>
<event>
 5   0  0.3703280E-02  0.6507735E+03  0.7818609E-02  0.9805329E-01
        1   -1    0    0  501    0  0.00000000000E+00  0.00000000000E+00  0.11130307733E+04  0.11130307733E+04  0.50400001928E-02 0. -1.
       -1   -1    0    0    0  501  0.00000000000E+00  0.00000000000E+00 -0.95124528423E+02  0.95124528557E+02  0.50400001928E-02 0.  1.
    10030    2    1    2    0    0  0.00000000000E+00  0.00000000000E+00  0.10179062449E+04  0.12081553019E+04  0.65077347063E+03 0.  0.
        5    1    3    3  502    0  0.17925400127E+03  0.21233037243E+03  0.19478205446E+03  0.33937931988E+03  0.46999998093E+01 0. -1.
       -5    1    3    3    0  502 -0.17925400127E+03 -0.21233037243E+03  0.82312419041E+03  0.86877598198E+03  0.46999998093E+01 0.  1.
</event>
<event>
 5   0  0.3640827E-02  0.6003875E+03  0.7818609E-02  0.9904602E-01
       -1   -1    0    0    0  501  0.00000000000E+00  0.00000000000E+00  0.15425115971E+03  0.15425115979E+03  0.50400001928E-02 0. -1.
        1   -1    0    0  501    0  0.00000000000E+00  0.00000000000E+00 -0.58421792292E+03  0.58421792295E+03  0.50400001928E-02 0.  1.
    10030    2    1    2    0    0  0.00000000000E+00  0.00000000000E+00 -0.42996676322E+03  0.73846908273E+03  0.60038751543E+03 0.  0.
        3    1    3    3  502    0 -0.24421614273E+02  0.11898648451E+03  0.12267467165E+03  0.17263627662E+03  0.10100000352E+00 0. -1.
       -3    1    3    3    0  502  0.24421614273E+02 -0.11898648451E+03 -0.55264143487E+03  0.56583280612E+03  0.10100000352E+00 0.  1.
</event>
<event>
 5   0  0.5999117E-02  0.5578277E+03  0.7818609E-02  0.9996982E-01
       -2   -1    0    0    0  501  0.00000000000E+00  0.00000000000E+00  0.57535583268E+02  0.57535583324E+02  0.25500000920E-02 0.  1.
        2   -1    0    0  501    0  0.00000000000E+00  0.00000000000E+00 -0.13520837660E+04  0.13520837660E+04  0.25500000920E-02 0. -1.
    10030    2    1    2    0    0  0.00000000000E+00  0.00000000000E+00 -0.12945481828E+04  0.14096193494E+04  0.55782767285E+03 0.  0.
        5    1    3    3  502    0  0.25330613053E+03 -0.78077093943E+02 -0.42827355467E+03  0.50368676377E+03  0.46999998093E+01 0.  1.
       -5    1    3    3    0  502 -0.25330613053E+03  0.78077093943E+02 -0.86627462810E+03  0.90593258560E+03  0.46999998093E+01 0. -1.
</event>
<event>
 5   0  0.2388000E-02  0.5886238E+03  0.7818609E-02  0.9929293E-01
       -3   -1    0    0    0  501  0.00000000000E+00  0.00000000000E+00  0.12630050254E+04  0.12630050294E+04  0.10100000352E+00 0. -1.
        3   -1    0    0  501    0  0.00000000000E+00  0.00000000000E+00 -0.68582029949E+02  0.68582104320E+02  0.10100000352E+00 0.  1.
    10030    2    1    2    0    0  0.00000000000E+00  0.00000000000E+00  0.11944229955E+04  0.13315871338E+04  0.58862382107E+03 0.  0.
        3    1    3    3  502    0  0.23663422599E+03  0.68097062364E+02  0.23253661703E+03  0.33868311926E+03  0.10100000352E+00 0.  1.
       -3    1    3    3    0  502 -0.23663422599E+03 -0.68097062364E+02  0.96188637842E+03  0.99290401450E+03  0.10100000352E+00 0. -1.
</event>
<event>
 5   0  0.3703280E-02  0.6045567E+03  0.7818609E-02  0.9895997E-01
        1   -1    0    0  501    0  0.00000000000E+00  0.00000000000E+00  0.38911564025E+03  0.38911564029E+03  0.50400001928E-02 0.  1.
       -1   -1    0    0    0  501  0.00000000000E+00  0.00000000000E+00 -0.23482018728E+03  0.23482018734E+03  0.50400001928E-02 0. -1.
    10030    2    1    2    0    0  0.00000000000E+00  0.00000000000E+00  0.15429545297E+03  0.62393582762E+03  0.60455672206E+03 0.  0.
        5    1    3    3  502    0  0.77010351427E+02  0.29133627965E+03  0.53105151873E+02  0.30602233451E+03  0.46999998093E+01 0. -1.
       -5    1    3    3    0  502 -0.77010351427E+02 -0.29133627965E+03  0.10119030110E+03  0.31791349311E+03  0.46999998093E+01 0.  1.
</event>
<event>
 5   0  0.5999117E-02  0.6052192E+03  0.7818609E-02  0.9894637E-01
       -2   -1    0    0    0  501  0.00000000000E+00  0.00000000000E+00  0.35255287997E+02  0.35255288089E+02  0.25500000920E-02 0.  1.
        2   -1    0    0  501    0  0.00000000000E+00  0.00000000000E+00 -0.25974139587E+04  0.25974139587E+04  0.25500000920E-02 0. -1.
    10030    2    1    2    0    0  0.00000000000E+00  0.00000000000E+00 -0.25621586707E+04  0.26326692468E+04  0.60521922403E+03 0.  0.
        5    1    3    3  502    0  0.20605242592E+03 -0.21057247248E+03 -0.15809453411E+04  0.16081693412E+04  0.46999998093E+01 0. -1.
       -5    1    3    3    0  502 -0.20605242592E+03  0.21057247248E+03 -0.98121332960E+03  0.10244999056E+04  0.46999998093E+01 0.  1.
</event>
<event>
 5   0  0.3478183E-02  0.5975189E+03  0.7818609E-02  0.9910567E-01
       -1   -1    0    0    0  501  0.00000000000E+00  0.00000000000E+00  0.11780642669E+03  0.11780642680E+03  0.50400001928E-02 0.  1.
        1   -1    0    0  501    0  0.00000000000E+00  0.00000000000E+00 -0.75765983918E+03  0.75765983920E+03  0.50400001928E-02 0. -1.
    10030    2    1    2    0    0  0.00000000000E+00  0.00000000000E+00 -0.63985341249E+03  0.87546626600E+03  0.59751886449E+03 0.  0.
        4    1    3    3  502    0 -0.42283109718E+00 -0.33951408624E+02 -0.75481971405E+03  0.75558407246E+03  0.12699999809E+01 0. -1.
       -4    1    3    3    0  502  0.42283109718E+00  0.33951408624E+02  0.11496630156E+03  0.11988219354E+03  0.12699999809E+01 0.  1.
</event>
<event>
 5   0  0.3703280E-02  0.6066784E+03  0.7818609E-02  0.9891647E-01
       -1   -1    0    0    0  501  0.00000000000E+00  0.00000000000E+00  0.68777353711E+03  0.68777353713E+03  0.50400001928E-02 0.  1.
        1   -1    0    0  501    0  0.00000000000E+00  0.00000000000E+00 -0.13378627108E+03  0.13378627118E+03  0.50400001928E-02 0. -1.
    10030    2    1    2    0    0  0.00000000000E+00  0.00000000000E+00  0.55398726603E+03  0.82155980830E+03  0.60667835605E+03 0.  0.
        5    1    3    3  502    0 -0.34593149997E+02  0.16113773198E+03 -0.67808870253E+02  0.17827559445E+03  0.46999998093E+01 0. -1.
       -5    1    3    3    0  502  0.34593149997E+02 -0.16113773198E+03  0.62179613628E+03  0.64328421385E+03  0.46999998093E+01 0.  1.
</event>
<event>
 5   0  0.5935451E-02  0.5904677E+03  0.7818609E-02  0.9925382E-01
       -2   -1    0    0    0  501  0.00000000000E+00  0.00000000000E+00  0.72197483539E+02  0.72197483584E+02  0.25500000920E-02 0.  1.
        2   -1    0    0  501    0  0.00000000000E+00  0.00000000000E+00 -0.12072863840E+04  0.12072863840E+04  0.25500000920E-02 0. -1.
    10030    2    1    2    0    0  0.00000000000E+00  0.00000000000E+00 -0.11350889004E+04  0.12794838676E+04  0.59046774294E+03 0.  0.
        3    1    3    3  502    0  0.20425247478E+03  0.20615775778E+03 -0.44999275211E+03  0.53545642371E+03  0.10100000352E+00 0.  1.
       -3    1    3    3    0  502 -0.20425247478E+03 -0.20615775778E+03 -0.68509614832E+03  0.74402744384E+03  0.10100000352E+00 0. -1.
</event>
<event>
 5   0  0.5999117E-02  0.6009878E+03  0.7818609E-02  0.9903359E-01
       -2   -1    0    0    0  501  0.00000000000E+00  0.00000000000E+00  0.21783070247E+03  0.21783070248E+03  0.25500000920E-02 0. -1.
        2   -1    0    0  501    0  0.00000000000E+00  0.00000000000E+00 -0.41452645129E+03  0.41452645130E+03  0.25500000920E-02 0.  1.
    10030    2    1    2    0    0  0.00000000000E+00  0.00000000000E+00 -0.19669574883E+03  0.63235715378E+03  0.60098781380E+03 0.  0.
        5    1    3    3  502    0  0.21737657487E+02  0.11894095876E+03  0.19106353433E+03  0.22615667484E+03  0.46999998093E+01 0. -1.
       -5    1    3    3    0  502 -0.21737657487E+02 -0.11894095876E+03 -0.38775928316E+03  0.40620047895E+03  0.46999998093E+01 0.  1.
</event>
<event>
 5   0  0.3703280E-02  0.6001822E+03  0.7818609E-02  0.9905028E-01
        1   -1    0    0  501    0  0.00000000000E+00  0.00000000000E+00  0.85674149384E+03  0.85674149386E+03  0.50400001928E-02 0.  1.
       -1   -1    0    0    0  501  0.00000000000E+00  0.00000000000E+00 -0.10511300399E+03  0.10511300411E+03  0.50400001928E-02 0. -1.
    10030    2    1    2    0    0  0.00000000000E+00  0.00000000000E+00  0.75162848985E+03  0.96185449797E+03  0.60018221275E+03 0.  0.
        5    1    3    3  502    0 -0.11225586508E+03 -0.26717440417E+03  0.50045770921E+03  0.57832823742E+03  0.46999998093E+01 0.  1.
       -5    1    3    3    0  502  0.11225586508E+03  0.26717440417E+03  0.25117078064E+03  0.38352626055E+03  0.46999998093E+01 0. -1.
</event>
<event>
 5   0  0.6007360E-02  0.6100961E+03  0.7818609E-02  0.9884679E-01
       -2   -1    0    0    0  501  0.00000000000E+00  0.00000000000E+00  0.20708013048E+03  0.20708013050E+03  0.25500000920E-02 0.  1.
        2   -1    0    0  501    0  0.00000000000E+00  0.00000000000E+00 -0.44936373165E+03  0.44936373166E+03  0.25500000920E-02 0. -1.
    10030    2    1    2    0    0  0.00000000000E+00  0.00000000000E+00 -0.24228360117E+03  0.65644386216E+03  0.61009605864E+03 0.  0.
        4    1    3    3  502    0  0.26127384987E+03 -0.11998365534E+03 -0.23083031831E+03  0.36870632070E+03  0.12699999809E+01 0.  1.
       -4    1    3    3    0  502 -0.26127384987E+03  0.11998365534E+03 -0.11453282853E+02  0.28773754145E+03  0.12699999809E+01 0. -1.
</event>
<event>
 5   0  0.3651984E-02  0.5961124E+03  0.7818609E-02  0.9913505E-01
       -1   -1    0    0    0  501  0.00000000000E+00  0.00000000000E+00  0.22488015626E+03  0.22488015632E+03  0.50400001928E-02 0.  1.
        1   -1    0    0  501    0  0.00000000000E+00  0.00000000000E+00 -0.39504377023E+03  0.39504377027E+03  0.50400001928E-02 0. -1.
    10030    2    1    2    0    0  0.00000000000E+00  0.00000000000E+00 -0.17016361397E+03  0.61992392659E+03  0.59611242164E+03 0.  0.
        1    1    3    3  502    0  0.15349179580E+03 -0.25299800455E+03 -0.48024402464E+02  0.29979003476E+03  0.50400001928E-02 0. -1.
       -1    1    3    3    0  502 -0.15349179580E+03  0.25299800455E+03 -0.12213921151E+03  0.32013389183E+03  0.50400001928E-02 0.  1.
</event>
<event>
 5   0  0.3767635E-02  0.6026798E+03  0.7818609E-02  0.9899862E-01
        1   -1    0    0  501    0  0.00000000000E+00  0.00000000000E+00  0.20994479959E+03  0.20994479965E+03  0.50400001928E-02 0.  1.
       -1   -1    0    0    0  501  0.00000000000E+00  0.00000000000E+00 -0.43252197719E+03  0.43252197722E+03  0.50400001928E-02 0. -1.
    10030    2    1    2    0    0  0.00000000000E+00  0.00000000000E+00 -0.22257717761E+03  0.64246677687E+03  0.60267981498E+03 0.  0.
        2    1    3    3  502    0 -0.95405205835E+02 -0.17746278758E+03  0.12758134999E+03  0.23847891971E+03  0.25500000920E-02 0.  1.
       -2    1    3    3    0  502  0.95405205835E+02  0.17746278758E+03 -0.35015852759E+03  0.40398785716E+03  0.25500000920E-02 0. -1.
</event>
<event>
 5   0  0.3478183E-02  0.6298955E+03  0.7818609E-02  0.9845253E-01
       -1   -1    0    0    0  501  0.00000000000E+00  0.00000000000E+00  0.64247590503E+03  0.64247590505E+03  0.50400001928E-02 0. -1.
        1   -1    0    0  501    0  0.00000000000E+00  0.00000000000E+00 -0.15439034398E+03  0.15439034406E+03  0.50400001928E-02 0.  1.
    10030    2    1    2    0    0  0.00000000000E+00  0.00000000000E+00  0.48808556105E+03  0.79686624911E+03  0.62989547075E+03 0.  0.
        4    1    3    3  502    0  0.10913020593E+03 -0.24840180387E+03  0.44636654001E+03  0.52235769254E+03  0.12699999809E+01 0. -1.
       -4    1    3    3    0  502 -0.10913020593E+03  0.24840180387E+03  0.41719021033E+02  0.27450855657E+03  0.12699999809E+01 0.  1.
</event>
<event>
 5   0  0.3478183E-02  0.5957093E+03  0.7818609E-02  0.9914348E-01
       -1   -1    0    0    0  501  0.00000000000E+00  0.00000000000E+00  0.16389988840E+03  0.16389988848E+03  0.50400001928E-02 0.  1.
        1   -1    0    0  501    0  0.00000000000E+00  0.00000000000E+00 -0.54129017975E+03  0.54129017977E+03  0.50400001928E-02 0. -1.
    10030    2    1    2    0    0  0.00000000000E+00  0.00000000000E+00 -0.37739029135E+03  0.70519006825E+03  0.59570932539E+03 0.  0.
        4    1    3    3  502    0 -0.21817131155E+03  0.20260198447E+03 -0.19856407643E+03  0.35787650195E+03  0.12699999809E+01 0. -1.
       -4    1    3    3    0  502  0.21817131155E+03 -0.20260198447E+03 -0.17882621492E+03  0.34731356630E+03  0.12699999809E+01 0.  1.
</event>
<event>
 5   0  0.3651984E-02  0.6123263E+03  0.7818609E-02  0.9880158E-01
       -1   -1    0    0    0  501  0.00000000000E+00  0.00000000000E+00  0.67709662558E+03  0.67709662560E+03  0.50400001928E-02 0. -1.
        1   -1    0    0  501    0  0.00000000000E+00  0.00000000000E+00 -0.13843796751E+03  0.13843796760E+03  0.50400001928E-02 0.  1.
    10030    2    1    2    0    0  0.00000000000E+00  0.00000000000E+00  0.53865865808E+03  0.81553459320E+03  0.61232632051E+03 0.  0.
        1    1    3    3  502    0  0.25149508951E+03  0.15808575933E+03  0.17060071411E+03  0.34255728138E+03  0.50400001928E-02 0.  1.
       -1    1    3    3    0  502 -0.25149508951E+03 -0.15808575933E+03  0.36805794397E+03  0.47297731182E+03  0.50400001928E-02 0. -1.
</event>
<event>
 5   0  0.3703280E-02  0.5906600E+03  0.7818609E-02  0.9924975E-01
       -1   -1    0    0    0  501  0.00000000000E+00  0.00000000000E+00  0.14343726463E+03  0.14343726472E+03  0.50400001928E-02 0.  1.
        1   -1    0    0  501    0  0.00000000000E+00  0.00000000000E+00 -0.60806943670E+03  0.60806943672E+03  0.50400001928E-02 0. -1.
    10030    2    1    2    0    0  0.00000000000E+00  0.00000000000E+00 -0.46463217207E+03  0.75150670144E+03  0.59066002657E+03 0.  0.
        5    1    3    3  502    0  0.45559337530E+02  0.24467354332E+03 -0.43451814031E+03  0.50076830999E+03  0.46999998093E+01 0. -1.
       -5    1    3    3    0  502 -0.45559337530E+02 -0.24467354332E+03 -0.30114031767E+02  0.25073839145E+03  0.46999998093E+01 0.  1.
</event>
<event>
 5   0  0.6007360E-02  0.6021324E+03  0.7818609E-02  0.9900992E-01
       -2   -1    0    0    0  501  0.00000000000E+00  0.00000000000E+00  0.12907081088E+03  0.12907081091E+03  0.25500000920E-02 0.  1.
        2   -1    0    0  501    0  0.00000000000E+00  0.00000000000E+00 -0.70225672421E+03  0.70225672422E+03  0.25500000920E-02 0. -1.
    10030    2    1    2    0    0  0.00000000000E+00  0.00000000000E+00 -0.57318591333E+03  0.83132753512E+03  0.60213236038E+03 0.  0.
        4    1    3    3  502    0 -0.24216112113E+03 -0.25753872310E+02 -0.42200470446E+02  0.24715938811E+03  0.12699999809E+01 0.  1.
       -4    1    3    3    0  502  0.24216112113E+03  0.25753872310E+02 -0.53098544289E+03  0.58416814701E+03  0.12699999809E+01 0. -1.
</event>
<event>
 5   0  0.3703280E-02  0.5998569E+03  0.7818609E-02  0.9905703E-01
       -1   -1    0    0    0  501  0.00000000000E+00  0.00000000000E+00  0.14153927391E+03  0.14153927400E+03  0.50400001928E-02 0. -1.
        1   -1    0    0  501    0  0.00000000000E+00  0.00000000000E+00 -0.63556260185E+03  0.63556260187E+03  0.50400001928E-02 0.  1.
    10030    2    1    2    0    0  0.00000000000E+00  0.00000000000E+00 -0.49402332794E+03  0.77710187588E+03  0.59985688038E+03 0.  0.
        5    1    3    3  502    0  0.12929743602E+03  0.20495993118E+03 -0.18153025829E+02  0.24305971014E+03  0.46999998093E+01 0. -1.
       -5    1    3    3    0  502 -0.12929743602E+03 -0.20495993118E+03 -0.47587030211E+03  0.53404216573E+03  0.46999998093E+01 0.  1.
</event>
<event>
 5   0  0.6007360E-02  0.6428202E+03  0.7818609E-02  0.9820346E-01
       -2   -1    0    0    0  501  0.00000000000E+00  0.00000000000E+00  0.97962550471E+02  0.97962550505E+02  0.25500000920E-02 0.  1.
        2   -1    0    0  501    0  0.00000000000E+00  0.00000000000E+00 -0.10545301213E+04  0.10545301213E+04  0.25500000920E-02 0. -1.
    10030    2    1    2    0    0  0.00000000000E+00  0.00000000000E+00 -0.95656757086E+03  0.11524926718E+04  0.64282022450E+03 0.  0.
        4    1    3    3  502    0  0.16420838024E+03 -0.24493473913E+03 -0.70750077230E+03  0.76649616716E+03  0.12699999809E+01 0. -1.
       -4    1    3    3    0  502 -0.16420838024E+03  0.24493473913E+03 -0.24906679856E+03  0.38599650467E+03  0.12699999809E+01 0.  1.
</event>
<event>
 5   0  0.3651984E-02  0.6109926E+03  0.7818609E-02  0.9882859E-01
        1   -1    0    0  501    0  0.00000000000E+00  0.00000000000E+00  0.68705553741E+03  0.68705553743E+03  0.50400001928E-02 0.  1.
       -1   -1    0    0    0  501  0.00000000000E+00  0.00000000000E+00 -0.13583762873E+03  0.13583762882E+03  0.50400001928E-02 0. -1.
    10030    2    1    2    0    0  0.00000000000E+00  0.00000000000E+00  0.55121790868E+03  0.82289316625E+03  0.61099261878E+03 0.  0.
        1    1    3    3  502    0  0.24040164541E+03  0.12227714344E+03  0.46883490791E+03  0.54087967407E+03  0.50400001928E-02 0.  1.
       -1    1    3    3    0  502 -0.24040164541E+03 -0.12227714344E+03  0.82383000773E+02  0.28201349217E+03  0.50400001928E-02 0. -1.
</event>
<event>
 5   0  0.2388000E-02  0.5980087E+03  0.7818609E-02  0.9909546E-01
        3   -1    0    0  501    0  0.00000000000E+00  0.00000000000E+00  0.19817939754E+03  0.19817942327E+03  0.10100000352E+00 0. -1.
       -3   -1    0    0    0  501  0.00000000000E+00  0.00000000000E+00 -0.45112446606E+03  0.45112447736E+03  0.10100000352E+00 0.  1.
    10030    2    1    2    0    0  0.00000000000E+00  0.00000000000E+00 -0.25294506852E+03  0.64930390064E+03  0.59800865185E+03 0.  0.
        4    1    3    3  502    0 -0.25739264750E+03  0.11663263994E+03 -0.20378051428E+02  0.28332141741E+03  0.12699999809E+01 0.  1.
       -4    1    3    3    0  502  0.25739264750E+03 -0.11663263994E+03 -0.23256701709E+03  0.36598248322E+03  0.12699999809E+01 0. -1.
</event>
<event>
 5   0  0.5872632E-02  0.6012023E+03  0.7818609E-02  0.9902915E-01
       -2   -1    0    0    0  501  0.00000000000E+00  0.00000000000E+00  0.27154968591E+03  0.27154968592E+03  0.25500000920E-02 0.  1.
        2   -1    0    0  501    0  0.00000000000E+00  0.00000000000E+00 -0.33276070938E+03  0.33276070939E+03  0.25500000920E-02 0. -1.
    10030    2    1    2    0    0  0.00000000000E+00  0.00000000000E+00 -0.61211023474E+02  0.60431039531E+03  0.60120234903E+03 0.  0.
        1    1    3    3  502    0 -0.36392920898E+02  0.99322892866E+02 -0.31343459393E+03  0.33080315361E+03  0.50400001928E-02 0. -1.
       -1    1    3    3    0  502  0.36392920898E+02 -0.99322892866E+02  0.25222357046E+03  0.27350724170E+03  0.50400001928E-02 0.  1.
</event>
<event>
 5   0  0.3651984E-02  0.5988614E+03  0.7818609E-02  0.9907771E-01
       -1   -1    0    0    0  501  0.00000000000E+00  0.00000000000E+00  0.47667327837E+03  0.47667327840E+03  0.50400001928E-02 0.  1.
        1   -1    0    0  501    0  0.00000000000E+00  0.00000000000E+00 -0.18809266972E+03  0.18809266979E+03  0.50400001928E-02 0. -1.
    10030    2    1    2    0    0  0.00000000000E+00  0.00000000000E+00  0.28858060865E+03  0.66476594819E+03  0.59886141818E+03 0.  0.
        1    1    3    3  502    0  0.17034707179E+01  0.13393441857E+03  0.44156281920E+03  0.46143152646E+03  0.50400001928E-02 0.  1.
       -1    1    3    3    0  502 -0.17034707179E+01 -0.13393441857E+03 -0.15298221055E+03  0.20333442173E+03  0.50400001928E-02 0. -1.
</event>
<event>
 5   0  0.5755078E-02  0.5973686E+03  0.7818609E-02  0.9910880E-01
        2   -1    0    0  501    0  0.00000000000E+00  0.00000000000E+00  0.18372542775E+04  0.18372542775E+04  0.25500000920E-02 0.  1.
       -2   -1    0    0    0  501  0.00000000000E+00  0.00000000000E+00 -0.48557411203E+02  0.48557411270E+02  0.25500000920E-02 0. -1.
    10030    2    1    2    0    0  0.00000000000E+00  0.00000000000E+00  0.17886968663E+04  0.18858116887E+04  0.59736860145E+03 0.  0.
        2    1    3    3  502    0  0.15014564158E+03 -0.18894892454E+03  0.14498749699E+04  0.14698240841E+04  0.25500000920E-02 0.  1.
       -2    1    3    3    0  502 -0.15014564158E+03  0.18894892454E+03  0.33882189636E+03  0.41598760466E+03  0.25500000920E-02 0. -1.
</event>
<event>
 5   0  0.3651984E-02  0.5990285E+03  0.7818609E-02  0.9907424E-01
       -1   -1    0    0    0  501  0.00000000000E+00  0.00000000000E+00  0.12100509457E+03  0.12100509467E+03  0.50400001928E-02 0.  1.
        1   -1    0    0  501    0  0.00000000000E+00  0.00000000000E+00 -0.74136377650E+03  0.74136377652E+03  0.50400001928E-02 0. -1.
    10030    2    1    2    0    0  0.00000000000E+00  0.00000000000E+00 -0.62035868193E+03  0.86236887119E+03  0.59902852665E+03 0.  0.
        1    1    3    3  502    0  0.22561354041E+03 -0.19625030632E+03 -0.28553119450E+03  0.41345340173E+03  0.50400001928E-02 0. -1.
       -1    1    3    3    0  502 -0.22561354041E+03  0.19625030632E+03 -0.33482748743E+03  0.44891546945E+03  0.50400001928E-02 0.  1.
</event>
<event>
 5   0  0.3640827E-02  0.5872209E+03  0.7818609E-02  0.9932279E-01
        1   -1    0    0  501    0  0.00000000000E+00  0.00000000000E+00  0.12451228639E+04  0.12451228639E+04  0.50400001928E-02 0.  1.
       -1   -1    0    0    0  501  0.00000000000E+00  0.00000000000E+00 -0.69235807347E+02  0.69235807531E+02  0.50400001928E-02 0. -1.
    10030    2    1    2    0    0  0.00000000000E+00  0.00000000000E+00  0.11758870565E+04  0.13143586714E+04  0.58722086766E+03 0.  0.
        3    1    3    3  502    0 -0.82355411515E+02  0.83308427172E+02  0.11905511150E+04  0.11963004118E+04  0.10100000352E+00 0.  1.
       -3    1    3    3    0  502  0.82355411515E+02 -0.83308427172E+02 -0.14664058428E+02  0.11805825958E+03  0.10100000352E+00 0. -1.
</event>
<event>
 5   0  0.3651984E-02  0.6012401E+03  0.7818609E-02  0.9902837E-01
       -1   -1    0    0    0  501  0.00000000000E+00  0.00000000000E+00  0.20483744047E+03  0.20483744053E+03  0.50400001928E-02 0.  1.
        1   -1    0    0  501    0  0.00000000000E+00  0.00000000000E+00 -0.44119091924E+03  0.44119091926E+03  0.50400001928E-02 0. -1.
    10030    2    1    2    0    0  0.00000000000E+00  0.00000000000E+00 -0.23635347876E+03  0.64602835980E+03  0.60124011405E+03 0.  0.
        1    1    3    3  502    0 -0.22863940467E+03 -0.13732108412E+03  0.30861927882E+02  0.26848745991E+03  0.50400001928E-02 0. -1.
       -1    1    3    3    0  502  0.22863940467E+03  0.13732108412E+03 -0.26721540664E+03  0.37754089989E+03  0.50400001928E-02 0.  1.
</event>
<event>
 5   0  0.5999117E-02  0.6110853E+03  0.7818609E-02  0.9882671E-01
        2   -1    0    0  501    0  0.00000000000E+00  0.00000000000E+00  0.76379458976E+03  0.76379458976E+03  0.25500000920E-02 0.  1.
       -2   -1    0    0    0  501  0.00000000000E+00  0.00000000000E+00 -0.12222698508E+03  0.12222698511E+03  0.25500000920E-02 0. -1.
    10030    2    1    2    0    0  0.00000000000E+00  0.00000000000E+00  0.64156760468E+03  0.88602157487E+03  0.61108529663E+03 0.  0.
        5    1    3    3  502    0  0.44592100920E+02 -0.29474746505E+03  0.22384861101E+03  0.37282008297E+03  0.46999998093E+01 0. -1.
       -5    1    3    3    0  502 -0.44592100920E+02  0.29474746505E+03  0.41771899367E+03  0.51320149190E+03  0.46999998093E+01 0.  1.
</event>
<event>
 5   0  0.5935451E-02  0.6052835E+03  0.7818609E-02  0.9894505E-01
        2   -1    0    0  501    0  0.00000000000E+00  0.00000000000E+00  0.21486651815E+03  0.21486651816E+03  0.25500000920E-02 0.  1.
       -2   -1    0    0    0  501  0.00000000000E+00  0.00000000000E+00 -0.42627408342E+03  0.42627408343E+03  0.25500000920E-02 0. -1.
    10030    2    1    2    0    0  0.00000000000E+00  0.00000000000E+00 -0.21140756527E+03  0.64114060159E+03  0.60528349751E+03 0.  0.
        3    1    3    3  502    0 -0.74556146374E+02 -0.23556978137E+03  0.79406665866E+02  0.25953259842E+03  0.10100000352E+00 0.  1.
       -3    1    3    3    0  502  0.74556146374E+02  0.23556978137E+03 -0.29081423114E+03  0.38160800318E+03  0.10100000352E+00 0. -1.
</event>
<event>
 5   0  0.5872632E-02  0.5862726E+03  0.7818609E-02  0.9934303E-01
       -2   -1    0    0    0  501  0.00000000000E+00  0.00000000000E+00  0.24375318840E+03  0.24375318842E+03  0.25500000920E-02 0. -1.
        2   -1    0    0  501    0  0.00000000000E+00  0.00000000000E+00 -0.35252411096E+03  0.35252411097E+03  0.25500000920E-02 0.  1.
    10030    2    1    2    0    0  0.00000000000E+00  0.00000000000E+00 -0.10877092256E+03  0.59627729939E+03  0.58627255110E+03 0.  0.
        1    1    3    3  502    0  0.90604736779E+02  0.22667060044E+03  0.11068045087E+03  0.26802787478E+03  0.50400001928E-02 0. -1.
       -1    1    3    3    0  502 -0.90604736779E+02 -0.22667060044E+03 -0.21945137343E+03  0.32824942461E+03  0.50400001928E-02 0.  1.
</event>
<event>
 5   0  0.3767635E-02  0.6111640E+03  0.7818609E-02  0.9882511E-01
       -1   -1    0    0    0  501  0.00000000000E+00  0.00000000000E+00  0.14590663053E+03  0.14590663062E+03  0.50400001928E-02 0.  1.
        1   -1    0    0  501    0  0.00000000000E+00  0.00000000000E+00 -0.64000073426E+03  0.64000073428E+03  0.50400001928E-02 0. -1.
    10030    2    1    2    0    0  0.00000000000E+00  0.00000000000E+00 -0.49409410373E+03  0.78590736490E+03  0.61116397380E+03 0.  0.
        2    1    3    3  502    0  0.25582103957E+03 -0.86773825634E+02 -0.43074115285E+03  0.50844079485E+03  0.25500000920E-02 0. -1.
       -2    1    3    3    0  502 -0.25582103957E+03  0.86773825634E+02 -0.63352950879E+02  0.27746657005E+03  0.25500000920E-02 0.  1.
</event>
<event>
 5   0  0.3651984E-02  0.6116234E+03  0.7818609E-02  0.9881580E-01
        1   -1    0    0  501    0  0.00000000000E+00  0.00000000000E+00  0.22352942062E+03  0.22352942068E+03  0.50400001928E-02 0.  1.
       -1   -1    0    0    0  501  0.00000000000E+00  0.00000000000E+00 -0.41838247476E+03  0.41838247479E+03  0.50400001928E-02 0. -1.
    10030    2    1    2    0    0  0.00000000000E+00  0.00000000000E+00 -0.19485305414E+03  0.64191189547E+03  0.61162338807E+03 0.  0.
        1    1    3    3  502    0  0.25258355599E+03 -0.22125681142E+02  0.82016464187E+02  0.26648583254E+03  0.50400001928E-02 0.  1.
       -1    1    3    3    0  502 -0.25258355599E+03  0.22125681142E+02 -0.27686951833E+03  0.37542606293E+03  0.50400001928E-02 0. -1.
</event>
<event>
 5   0  0.5999117E-02  0.6189020E+03  0.7818609E-02  0.9866948E-01
        2   -1    0    0  501    0  0.00000000000E+00  0.00000000000E+00  0.94240722841E+03  0.94240722841E+03  0.25500000920E-02 0. -1.
       -2   -1    0    0    0  501  0.00000000000E+00  0.00000000000E+00 -0.10161203955E+03  0.10161203958E+03  0.25500000920E-02 0.  1.
    10030    2    1    2    0    0  0.00000000000E+00  0.00000000000E+00  0.84079518886E+03  0.10440192680E+04  0.61890199735E+03 0.  0.
        5    1    3    3  502    0  0.16929538737E+03 -0.25441474665E+03  0.50217327588E+03  0.58786723034E+03  0.46999998093E+01 0.  1.
       -5    1    3    3    0  502 -0.16929538737E+03  0.25441474665E+03  0.33862191298E+03  0.45615203765E+03  0.46999998093E+01 0. -1.
</event>
<event>
 5   0  0.3640827E-02  0.5979059E+03  0.7818609E-02  0.9909760E-01
       -1   -1    0    0    0  501  0.00000000000E+00  0.00000000000E+00  0.41573811125E+03  0.41573811128E+03  0.50400001928E-02 0. -1.
        1   -1    0    0  501    0  0.00000000000E+00  0.00000000000E+00 -0.21497394788E+03  0.21497394794E+03  0.50400001928E-02 0.  1.
    10030    2    1    2    0    0  0.00000000000E+00  0.00000000000E+00  0.20076416337E+03  0.63071205922E+03  0.59790588921E+03 0.  0.
        3    1    3    3  502    0  0.65322299662E+02 -0.78490492111E+02 -0.19600609371E+03  0.22101167200E+03  0.10100000352E+00 0.  1.
       -3    1    3    3    0  502 -0.65322299662E+02  0.78490492111E+02  0.39677025708E+03  0.40970038722E+03  0.10100000352E+00 0. -1.
</event>
<event>
 5   0  0.3478183E-02  0.5898882E+03  0.7818609E-02  0.9926610E-01
       -1   -1    0    0    0  501  0.00000000000E+00  0.00000000000E+00  0.27773820805E+03  0.27773820809E+03  0.50400001928E-02 0. -1.
        1   -1    0    0  501    0  0.00000000000E+00  0.00000000000E+00 -0.31321588244E+03  0.31321588248E+03  0.50400001928E-02 0.  1.
    10030    2    1    2    0    0  0.00000000000E+00  0.00000000000E+00 -0.35477674392E+02  0.59095409057E+03  0.58988818583E+03 0.  0.
        4    1    3    3  502    0  0.26721590947E+03 -0.10509097793E+03 -0.85254599848E+02  0.29953032503E+03  0.12699999809E+01 0.  1.
       -4    1    3    3    0  502 -0.26721590947E+03  0.10509097793E+03  0.49776925456E+02  0.29142376554E+03  0.12699999809E+01 0. -1.
</event>
<event>
 5   0  0.5999117E-02  0.5984623E+03  0.7818609E-02  0.9908601E-01
        2   -1    0    0  501    0  0.00000000000E+00  0.00000000000E+00  0.32273514382E+03  0.32273514383E+03  0.25500000920E-02 0.  1.
       -2   -1    0    0    0  501  0.00000000000E+00  0.00000000000E+00 -0.27743893263E+03  0.27743893264E+03  0.25500000920E-02 0. -1.
    10030    2    1    2    0    0  0.00000000000E+00  0.00000000000E+00  0.45296211189E+02  0.60017407647E+03  0.59846234244E+03 0.  0.
        5    1    3    3  502    0 -0.20783303485E+03  0.16002075673E+03  0.16699028561E+03  0.31098080077E+03  0.46999998093E+01 0.  1.
       -5    1    3    3    0  502  0.20783303485E+03 -0.16002075673E+03 -0.12169407442E+03  0.28919327570E+03  0.46999998093E+01 0. -1.
</event>
<event>
 5   0  0.3703280E-02  0.5931063E+03  0.7818609E-02  0.9919812E-01
        1   -1    0    0  501    0  0.00000000000E+00  0.00000000000E+00  0.26910006507E+03  0.26910006512E+03  0.50400001928E-02 0. -1.
       -1   -1    0    0    0  501  0.00000000000E+00  0.00000000000E+00 -0.32680698773E+03  0.32680698777E+03  0.50400001928E-02 0.  1.
    10030    2    1    2    0    0  0.00000000000E+00  0.00000000000E+00 -0.57706922662E+02  0.59590705289E+03  0.59310633680E+03 0.  0.
        5    1    3    3  502    0 -0.24095464024E+03 -0.71819474603E+02 -0.18677237117E+03  0.31324620384E+03  0.46999998093E+01 0.  1.
       -5    1    3    3    0  502  0.24095464024E+03  0.71819474603E+02  0.12906544851E+03  0.28266084905E+03  0.46999998093E+01 0. -1.
</event>
<event>
 5   0  0.5999117E-02  0.6045092E+03  0.7818609E-02  0.9896095E-01
       -2   -1    0    0    0  501  0.00000000000E+00  0.00000000000E+00  0.21167978209E+03  0.21167978210E+03  0.25500000920E-02 0.  1.
        2   -1    0    0  501    0  0.00000000000E+00  0.00000000000E+00 -0.43158509218E+03  0.43158509218E+03  0.25500000920E-02 0. -1.
    10030    2    1    2    0    0  0.00000000000E+00  0.00000000000E+00 -0.21990531009E+03  0.64326487428E+03  0.60450918362E+03 0.  0.
        5    1    3    3  502    0 -0.13237409557E+03  0.26812887228E+03 -0.63328622650E+02  0.30569363384E+03  0.46999998093E+01 0.  1.
       -5    1    3    3    0  502  0.13237409557E+03 -0.26812887228E+03 -0.15657668744E+03  0.33757124044E+03  0.46999998093E+01 0. -1.
</event>
<event>
 5   0  0.6007360E-02  0.5992038E+03  0.7818609E-02  0.9907059E-01
        2   -1    0    0  501    0  0.00000000000E+00  0.00000000000E+00  0.93480560227E+03  0.93480560227E+03  0.25500000920E-02 0.  1.
       -2   -1    0    0    0  501  0.00000000000E+00  0.00000000000E+00 -0.96021357198E+02  0.96021357232E+02  0.25500000920E-02 0. -1.
    10030    2    1    2    0    0  0.00000000000E+00  0.00000000000E+00  0.83878424507E+03  0.10308269595E+04  0.59920381396E+03 0.  0.
        4    1    3    3  502    0 -0.23553469487E+03  0.18418802325E+03  0.45193631227E+03  0.54189469793E+03  0.12699999809E+01 0.  1.
       -4    1    3    3    0  502  0.23553469487E+03 -0.18418802325E+03  0.38684793280E+03  0.48893226157E+03  0.12699999809E+01 0. -1.
</event>
<event>
 5   0  0.5872632E-02  0.6059117E+03  0.7818609E-02  0.9893216E-01
        2   -1    0    0  501    0  0.00000000000E+00  0.00000000000E+00  0.13908881260E+04  0.13908881260E+04  0.25500000920E-02 0.  1.
       -2   -1    0    0    0  501  0.00000000000E+00  0.00000000000E+00 -0.65988238807E+02  0.65988238856E+02  0.25500000920E-02 0. -1.
    10030    2    1    2    0    0  0.00000000000E+00  0.00000000000E+00  0.13248998872E+04  0.14568763649E+04  0.60591173566E+03 0.  0.
        1    1    3    3  502    0  0.21953385350E+01 -0.27718310000E+03  0.36848883471E+03  0.46110661649E+03  0.50400001928E-02 0. -1.
       -1    1    3    3    0  502 -0.21953385350E+01  0.27718310000E+03  0.95641105252E+03  0.99576974841E+03  0.50400001928E-02 0.  1.
</event>
<event>
 5   0  0.5872632E-02  0.6103082E+03  0.7818609E-02  0.9884248E-01
        2   -1    0    0  501    0  0.00000000000E+00  0.00000000000E+00  0.15088466289E+04  0.15088466289E+04  0.25500000920E-02 0. -1.
       -2   -1    0    0    0  501  0.00000000000E+00  0.00000000000E+00 -0.61715366456E+02  0.61715366509E+02  0.25500000920E-02 0.  1.
    10030    2    1    2    0    0  0.00000000000E+00  0.00000000000E+00  0.14471312624E+04  0.15705619954E+04  0.61030819320E+03 0.  0.
        1    1    3    3  502    0  0.13605150852E+03  0.13751217603E+03  0.13309046531E+04  0.13448891431E+04  0.50400001928E-02 0. -1.
       -1    1    3    3    0  502 -0.13605150852E+03 -0.13751217603E+03  0.11622660933E+03  0.22567285231E+03  0.50400001928E-02 0.  1.
</event>
<event>
 5   0  0.2388000E-02  0.6004020E+03  0.7818609E-02  0.9904572E-01
       -3   -1    0    0    0  501  0.00000000000E+00  0.00000000000E+00  0.58782797425E+03  0.58782798292E+03  0.10100000352E+00 0.  1.
        3   -1    0    0  501    0  0.00000000000E+00  0.00000000000E+00 -0.15331120439E+03  0.15331123766E+03  0.10100000352E+00 0. -1.
    10030    2    1    2    0    0  0.00000000000E+00  0.00000000000E+00  0.43451676986E+03  0.74113922058E+03  0.60040196618E+03 0.  0.
        5    1    3    3  502    0  0.10239382029E+03 -0.20055759580E+03 -0.27735091942E+02  0.22693428342E+03  0.46999998093E+01 0. -1.
       -5    1    3    3    0  502 -0.10239382029E+03  0.20055759580E+03  0.46225186180E+03  0.51420493716E+03  0.46999998093E+01 0.  1.
</event>
<event>
 5   0  0.3767635E-02  0.5979305E+03  0.7818609E-02  0.9909709E-01
        1   -1    0    0  501    0  0.00000000000E+00  0.00000000000E+00  0.74200887567E+03  0.74200887568E+03  0.50400001928E-02 0.  1.
       -1   -1    0    0    0  501  0.00000000000E+00  0.00000000000E+00 -0.12045709426E+03  0.12045709436E+03  0.50400001928E-02 0. -1.
    10030    2    1    2    0    0  0.00000000000E+00  0.00000000000E+00  0.62155178141E+03  0.86246597005E+03  0.59793054154E+03 0.  0.
        2    1    3    3  502    0 -0.15669497151E+03  0.22527680261E+03  0.48191553482E+03  0.55456788097E+03  0.25500000920E-02 0.  1.
       -2    1    3    3    0  502  0.15669497151E+03 -0.22527680261E+03  0.13963624659E+03  0.30789808908E+03  0.25500000920E-02 0. -1.
</event>
<event>
 5   0  0.5872632E-02  0.5962566E+03  0.7818609E-02  0.9913203E-01
        2   -1    0    0  501    0  0.00000000000E+00  0.00000000000E+00  0.59207862440E+03  0.59207862440E+03  0.25500000920E-02 0. -1.
       -2   -1    0    0    0  501  0.00000000000E+00  0.00000000000E+00 -0.15011603212E+03  0.15011603214E+03  0.25500000920E-02 0.  1.
    10030    2    1    2    0    0  0.00000000000E+00  0.00000000000E+00  0.44196259228E+03  0.74219465655E+03  0.59625663538E+03 0.  0.
        1    1    3    3  502    0 -0.22016727510E+03 -0.64511976515E+01  0.47106673417E+03  0.52001837952E+03  0.50400001928E-02 0. -1.
       -1    1    3    3    0  502  0.22016727510E+03  0.64511976515E+01 -0.29104141889E+02  0.22217627703E+03  0.50400001928E-02 0.  1.
</event>
<event>
 5   0  0.3703280E-02  0.5503158E+03  0.7818609E-02  0.1001421E+00
       -1   -1    0    0    0  501  0.00000000000E+00  0.00000000000E+00  0.10804452881E+04  0.10804452881E+04  0.50400001928E-02 0.  1.
        1   -1    0    0  501    0  0.00000000000E+00  0.00000000000E+00 -0.70074684539E+02  0.70074684720E+02  0.50400001928E-02 0. -1.
    10030    2    1    2    0    0  0.00000000000E+00  0.00000000000E+00  0.10103706036E+04  0.11505199729E+04  0.55031577422E+03 0.  0.
        5    1    3    3  502    0  0.42167124565E+02  0.10875341449E+02 -0.62739793295E+02  0.76516083973E+02  0.46999998093E+01 0. -1.
       -5    1    3    3    0  502 -0.42167124565E+02 -0.10875341449E+02  0.10731103969E+04  0.10740038889E+04  0.46999998093E+01 0.  1.
</event>
<event>
 5   0  0.3640827E-02  0.5973346E+03  0.7818609E-02  0.9910951E-01
        1   -1    0    0  501    0  0.00000000000E+00  0.00000000000E+00  0.47552151845E+03  0.47552151848E+03  0.50400001928E-02 0. -1.
       -1   -1    0    0    0  501  0.00000000000E+00  0.00000000000E+00 -0.18758803931E+03  0.18758803938E+03  0.50400001928E-02 0.  1.
    10030    2    1    2    0    0  0.00000000000E+00  0.00000000000E+00  0.28793347914E+03  0.66310955786E+03  0.59733457736E+03 0.  0.
        3    1    3    3  502    0  0.16081897083E+03  0.25124029307E+03  0.16034658131E+03  0.33866718556E+03  0.10100000352E+00 0.  1.
       -3    1    3    3    0  502 -0.16081897083E+03 -0.25124029307E+03  0.12758689783E+03  0.32444237229E+03  0.10100000352E+00 0. -1.
</event>
<event>
 5   0  0.6007360E-02  0.5689950E+03  0.7818609E-02  0.9971905E-01
        2   -1    0    0  501    0  0.00000000000E+00  0.00000000000E+00  0.29731899984E+03  0.29731899985E+03  0.25500000920E-02 0.  1.
       -2   -1    0    0    0  501  0.00000000000E+00  0.00000000000E+00 -0.27222888677E+03  0.27222888678E+03  0.25500000920E-02 0. -1.
    10030    2    1    2    0    0  0.00000000000E+00  0.00000000000E+00  0.25090113066E+02  0.56954788663E+03  0.56899497484E+03 0.  0.
        4    1    3    3  502    0 -0.25385434645E+03  0.11730282320E+03  0.64895264848E+02  0.28708011050E+03  0.12699999809E+01 0. -1.
       -4    1    3    3    0  502  0.25385434645E+03 -0.11730282320E+03 -0.39805151781E+02  0.28246777613E+03  0.12699999809E+01 0.  1.
</event>
<event>
 5   0  0.3478183E-02  0.6014887E+03  0.7818609E-02  0.9902322E-01
       -1   -1    0    0    0  501  0.00000000000E+00  0.00000000000E+00  0.67461390130E+03  0.67461390132E+03  0.50400001928E-02 0.  1.
        1   -1    0    0  501    0  0.00000000000E+00  0.00000000000E+00 -0.13407249345E+03  0.13407249355E+03  0.50400001928E-02 0. -1.
    10030    2    1    2    0    0  0.00000000000E+00  0.00000000000E+00  0.54054140785E+03  0.80868639487E+03  0.60148871282E+03 0.  0.
        4    1    3    3  502    0  0.21620859233E+03 -0.14675553362E+03  0.70119034575E+02  0.27055800478E+03  0.12699999809E+01 0. -1.
       -4    1    3    3    0  502 -0.21620859233E+03  0.14675553362E+03  0.47042237327E+03  0.53812839009E+03  0.12699999809E+01 0.  1.
</event>
<event>
 5   0  0.5935451E-02  0.5968127E+03  0.7818609E-02  0.9912041E-01
       -2   -1    0    0    0  501  0.00000000000E+00  0.00000000000E+00  0.19210251275E+03  0.19210251276E+03  0.25500000920E-02 0.  1.
        2   -1    0    0  501    0  0.00000000000E+00  0.00000000000E+00 -0.46353555596E+03  0.46353555597E+03  0.25500000920E-02 0. -1.
    10030    2    1    2    0    0  0.00000000000E+00  0.00000000000E+00 -0.27143304321E+03  0.65563806873E+03  0.59681268437E+03 0.  0.
        3    1    3    3  502    0 -0.23954087590E+03  0.74331149439E+02  0.41902880816E+02  0.25428490444E+03  0.10100000352E+00 0.  1.
       -3    1    3    3    0  502  0.23954087590E+03 -0.74331149439E+02 -0.31333592403E+03  0.40135316430E+03  0.10100000352E+00 0. -1.
</event>
<event>
 5   0  0.5935451E-02  0.6021444E+03  0.7818609E-02  0.9900967E-01
       -2   -1    0    0    0  501  0.00000000000E+00  0.00000000000E+00  0.15304685025E+03  0.15304685027E+03  0.25500000920E-02 0. -1.
        2   -1    0    0  501    0  0.00000000000E+00  0.00000000000E+00 -0.59226625062E+03  0.59226625062E+03  0.25500000920E-02 0.  1.
    10030    2    1    2    0    0  0.00000000000E+00  0.00000000000E+00 -0.43921940037E+03  0.74531310089E+03  0.60214444837E+03 0.  0.
        3    1    3    3  502    0  0.22930613413E+03 -0.11709783011E+03 -0.41276154823E+03  0.48648259050E+03  0.10100000352E+00 0.  1.
       -3    1    3    3    0  502 -0.22930613413E+03  0.11709783011E+03 -0.26457852139E+02  0.25883051039E+03  0.10100000352E+00 0. -1.
</event>
<event>
 5   0  0.5935451E-02  0.5944097E+03  0.7818609E-02  0.9917072E-01
       -2   -1    0    0    0  501  0.00000000000E+00  0.00000000000E+00  0.11118002671E+03  0.11118002674E+03  0.25500000920E-02 0.  1.
        2   -1    0    0  501    0  0.00000000000E+00  0.00000000000E+00 -0.79448373157E+03  0.79448373157E+03  0.25500000920E-02 0. -1.
    10030    2    1    2    0    0  0.00000000000E+00  0.00000000000E+00 -0.68330370485E+03  0.90566375831E+03  0.59440969882E+03 0.  0.
        3    1    3    3  502    0  0.24112890903E+03  0.15644058486E+03 -0.45682403788E+03  0.53972680047E+03  0.10100000352E+00 0. -1.
       -3    1    3    3    0  502 -0.24112890903E+03 -0.15644058486E+03 -0.22647966697E+03  0.36593695784E+03  0.10100000352E+00 0.  1.
</event>
<event>
 5   0  0.3767635E-02  0.6021942E+03  0.7818609E-02  0.9900864E-01
       -1   -1    0    0    0  501  0.00000000000E+00  0.00000000000E+00  0.14832802988E+03  0.14832802997E+03  0.50400001928E-02 0. -1.
        1   -1    0    0  501    0  0.00000000000E+00  0.00000000000E+00 -0.61120915393E+03  0.61120915395E+03  0.50400001928E-02 0.  1.
    10030    2    1    2    0    0  0.00000000000E+00  0.00000000000E+00 -0.46288112404E+03  0.75953718392E+03  0.60219415370E+03 0.  0.
        2    1    3    3  502    0  0.92952597439E+02 -0.69414879423E+02  0.11900738061E+03  0.16619677344E+03  0.25500000920E-02 0. -1.
       -2    1    3    3    0  502 -0.92952597439E+02  0.69414879423E+02 -0.58188850465E+03  0.59334041048E+03  0.25500000920E-02 0.  1.
</event>
<event>
 5   0  0.5999117E-02  0.5948867E+03  0.7818609E-02  0.9916072E-01
        2   -1    0    0  501    0  0.00000000000E+00  0.00000000000E+00  0.84169282654E+03  0.84169282655E+03  0.25500000920E-02 0. -1.
       -2   -1    0    0    0  501  0.00000000000E+00  0.00000000000E+00 -0.10511263492E+03  0.10511263495E+03  0.25500000920E-02 0.  1.
    10030    2    1    2    0    0  0.00000000000E+00  0.00000000000E+00  0.73658019162E+03  0.94680546150E+03  0.59488671462E+03 0.  0.
        5    1    3    3  502    0  0.24799969497E+03 -0.16145274320E+03  0.32108651178E+03  0.43668006027E+03  0.46999998093E+01 0.  1.
       -5    1    3    3    0  502 -0.24799969497E+03  0.16145274320E+03  0.41549367984E+03  0.51012540123E+03  0.46999998093E+01 0. -1.
</event>
<event>
 5   0  0.5999117E-02  0.6044001E+03  0.7818609E-02  0.9896319E-01
        2   -1    0    0  501    0  0.00000000000E+00  0.00000000000E+00  0.53111924747E+03  0.53111924748E+03  0.25500000920E-02 0. -1.
       -2   -1    0    0    0  501  0.00000000000E+00  0.00000000000E+00 -0.17194796256E+03  0.17194796258E+03  0.25500000920E-02 0.  1.
    10030    2    1    2    0    0  0.00000000000E+00  0.00000000000E+00  0.35917128492E+03  0.70306721005E+03  0.60440010750E+03 0.  0.
        5    1    3    3  502    0  0.31276547467E+02 -0.14048662036E+03 -0.12947091533E+03  0.19364793011E+03  0.46999998093E+01 0.  1.
       -5    1    3    3    0  502 -0.31276547467E+02  0.14048662036E+03  0.48864220025E+03  0.50941927995E+03  0.46999998093E+01 0. -1.
</event>
<event>
 5   0  0.6007360E-02  0.6015696E+03  0.7818609E-02  0.9902155E-01
       -2   -1    0    0    0  501  0.00000000000E+00  0.00000000000E+00  0.32532507230E+03  0.32532507231E+03  0.25500000920E-02 0.  1.
        2   -1    0    0  501    0  0.00000000000E+00  0.00000000000E+00 -0.27809569186E+03  0.27809569187E+03  0.25500000920E-02 0. -1.
    10030    2    1    2    0    0  0.00000000000E+00  0.00000000000E+00  0.47229380440E+02  0.60342076418E+03  0.60156961714E+03 0.  0.
        4    1    3    3  502    0  0.22455092978E+03  0.80273451256E+02  0.20748982428E+03  0.31610217829E+03  0.12699999809E+01 0.  1.
       -4    1    3    3    0  502 -0.22455092978E+03 -0.80273451256E+02 -0.16026044384E+03  0.28731858589E+03  0.12699999809E+01 0. -1.
</event>
<event>
 5   0  0.6007360E-02  0.6030266E+03  0.7818609E-02  0.9899147E-01
        2   -1    0    0  501    0  0.00000000000E+00  0.00000000000E+00  0.72995168987E+03  0.72995168987E+03  0.25500000920E-02 0. -1.
       -2   -1    0    0    0  501  0.00000000000E+00  0.00000000000E+00 -0.12454284269E+03  0.12454284272E+03  0.25500000920E-02 0.  1.
    10030    2    1    2    0    0  0.00000000000E+00  0.00000000000E+00  0.60540884718E+03  0.85449453259E+03  0.60302656160E+03 0.  0.
        4    1    3    3  502    0 -0.14222023366E+03  0.16014426064E+03  0.60341735753E+03  0.64030219377E+03  0.12699999809E+01 0. -1.
       -4    1    3    3    0  502  0.14222023366E+03 -0.16014426064E+03  0.19914896459E+01  0.21419233882E+03  0.12699999809E+01 0.  1.
</event>
<event>
 5   0  0.3767635E-02  0.6082781E+03  0.7818609E-02  0.9888379E-01
       -1   -1    0    0    0  501  0.00000000000E+00  0.00000000000E+00  0.19856848023E+03  0.19856848029E+03  0.50400001928E-02 0. -1.
        1   -1    0    0  501    0  0.00000000000E+00  0.00000000000E+00 -0.46583700759E+03  0.46583700761E+03  0.50400001928E-02 0.  1.
    10030    2    1    2    0    0  0.00000000000E+00  0.00000000000E+00 -0.26726852736E+03  0.66440548791E+03  0.60827805044E+03 0.  0.
        2    1    3    3  502    0 -0.30169860702E+03  0.25084226801E+02 -0.16546569691E+03  0.34500748509E+03  0.25500000920E-02 0. -1.
       -2    1    3    3    0  502  0.30169860702E+03 -0.25084226801E+02 -0.10180283045E+03  0.31939800282E+03  0.25500000920E-02 0.  1.
</event>
<event>
 5   0  0.5935451E-02  0.6021507E+03  0.7818609E-02  0.9900954E-01
       -2   -1    0    0    0  501  0.00000000000E+00  0.00000000000E+00  0.49212212126E+02  0.49212212193E+02  0.25500000920E-02 0. -1.
        2   -1    0    0  501    0  0.00000000000E+00  0.00000000000E+00 -0.18419485913E+04  0.18419485913E+04  0.25500000920E-02 0.  1.
    10030    2    1    2    0    0  0.00000000000E+00  0.00000000000E+00 -0.17927363792E+04  0.18911608035E+04  0.60215069497E+03 0.  0.
        3    1    3    3  502    0  0.15363673498E+03 -0.10165519373E+03 -0.14846274507E+03  0.23659928492E+03  0.10100000352E+00 0. -1.
       -3    1    3    3    0  502 -0.15363673498E+03  0.10165519373E+03 -0.16442736341E+04  0.16545615186E+04  0.10100000352E+00 0.  1.
</event>
<event>
 5   0  0.3478183E-02  0.5882139E+03  0.7818609E-02  0.9930165E-01
       -1   -1    0    0    0  501  0.00000000000E+00  0.00000000000E+00  0.14198270159E+03  0.14198270168E+03  0.50400001928E-02 0.  1.
        1   -1    0    0  501    0  0.00000000000E+00  0.00000000000E+00 -0.60922138187E+03  0.60922138189E+03  0.50400001928E-02 0. -1.
    10030    2    1    2    0    0  0.00000000000E+00  0.00000000000E+00 -0.46723868028E+03  0.75120408357E+03  0.58821389886E+03 0.  0.
        4    1    3    3  502    0 -0.18287982578E+03  0.22536734330E+03 -0.17288264334E+03  0.33782464589E+03  0.12699999809E+01 0. -1.
       -4    1    3    3    0  502  0.18287982578E+03 -0.22536734330E+03 -0.29435603694E+03  0.41337943767E+03  0.12699999809E+01 0.  1.
</event>
<event>
 5   0  0.5872632E-02  0.5665155E+03  0.7818609E-02  0.9977419E-01
        2   -1    0    0  501    0  0.00000000000E+00  0.00000000000E+00  0.15676187628E+04  0.15676187628E+04  0.25500000920E-02 0. -1.
       -2   -1    0    0    0  501  0.00000000000E+00  0.00000000000E+00 -0.51182693514E+02  0.51182693577E+02  0.25500000920E-02 0.  1.
    10030    2    1    2    0    0  0.00000000000E+00  0.00000000000E+00  0.15164360692E+04  0.16188014563E+04  0.56651549223E+03 0.  0.
        1    1    3    3  502    0 -0.42132369611E+02 -0.20104459476E+03  0.13155412088E+04  0.13314814072E+04  0.50400001928E-02 0. -1.
       -1    1    3    3    0  502  0.42132369611E+02  0.20104459476E+03  0.20089486041E+03  0.28732004910E+03  0.50400001928E-02 0.  1.
</event>
<event>
 5   0  0.5755078E-02  0.6008297E+03  0.7818609E-02  0.9903686E-01
        2   -1    0    0  501    0  0.00000000000E+00  0.00000000000E+00  0.13349208551E+04  0.13349208551E+04  0.25500000920E-02 0. -1.
       -2   -1    0    0    0  501  0.00000000000E+00  0.00000000000E+00 -0.67606311806E+02  0.67606311854E+02  0.25500000920E-02 0.  1.
    10030    2    1    2    0    0  0.00000000000E+00  0.00000000000E+00  0.12673145433E+04  0.14025271669E+04  0.60082967836E+03 0.  0.
        2    1    3    3  502    0 -0.16451848700E+03 -0.10824657421E+03  0.10409422085E+03  0.22275381077E+03  0.25500000920E-02 0.  1.
       -2    1    3    3    0  502  0.16451848700E+03  0.10824657421E+03  0.11632203224E+04  0.11797733562E+04  0.25500000920E-02 0. -1.
</event>
<event>
 5   0  0.3478183E-02  0.6014986E+03  0.7818609E-02  0.9902302E-01
        1   -1    0    0  501    0  0.00000000000E+00  0.00000000000E+00  0.61407960755E+03  0.61407960757E+03  0.50400001928E-02 0. -1.
       -1   -1    0    0    0  501  0.00000000000E+00  0.00000000000E+00 -0.14729382216E+03  0.14729382225E+03  0.50400001928E-02 0.  1.
    10030    2    1    2    0    0  0.00000000000E+00  0.00000000000E+00  0.46678578539E+03  0.76137342982E+03  0.60149857040E+03 0.  0.
        4    1    3    3  502    0  0.29742950133E+03  0.16173150426E+01  0.17704591319E+03  0.34614128943E+03  0.12699999809E+01 0.  1.
       -4    1    3    3    0  502 -0.29742950133E+03 -0.16173150426E+01  0.28973987220E+03  0.41523214039E+03  0.12699999809E+01 0. -1.
</event>
<event>
 5   0  0.3767635E-02  0.5964588E+03  0.7818609E-02  0.9912780E-01
        1   -1    0    0  501    0  0.00000000000E+00  0.00000000000E+00  0.49378165709E+03  0.49378165711E+03  0.50400001928E-02 0.  1.
       -1   -1    0    0    0  501  0.00000000000E+00  0.00000000000E+00 -0.18012168455E+03  0.18012168462E+03  0.50400001928E-02 0. -1.
    10030    2    1    2    0    0  0.00000000000E+00  0.00000000000E+00  0.31365997254E+03  0.67390334173E+03  0.59645882978E+03 0.  0.
        2    1    3    3  502    0 -0.15062254608E+02 -0.29693419115E+03  0.13047783987E+03  0.32468639037E+03  0.25500000920E-02 0. -1.
       -2    1    3    3    0  502  0.15062254608E+02  0.29693419115E+03  0.18318213267E+03  0.34921695136E+03  0.25500000920E-02 0.  1.
</event>
<event>
 5   0  0.6007360E-02  0.5937267E+03  0.7818609E-02  0.9918507E-01
        2   -1    0    0  501    0  0.00000000000E+00  0.00000000000E+00  0.84537131474E+03  0.84537131474E+03  0.25500000920E-02 0. -1.
       -2   -1    0    0    0  501  0.00000000000E+00  0.00000000000E+00 -0.10424751269E+03  0.10424751272E+03  0.25500000920E-02 0.  1.
    10030    2    1    2    0    0  0.00000000000E+00  0.00000000000E+00  0.74112380204E+03  0.94961882747E+03  0.59372672798E+03 0.  0.
        4    1    3    3  502    0  0.20851560290E+03 -0.20815983030E+03  0.31251874089E+03  0.42951000909E+03  0.12699999809E+01 0.  1.
       -4    1    3    3    0  502 -0.20851560290E+03  0.20815983030E+03  0.42860506115E+03  0.52010881837E+03  0.12699999809E+01 0. -1.
</event>
<event>
 5   0  0.6007360E-02  0.5961580E+03  0.7818609E-02  0.9913409E-01
        2   -1    0    0  501    0  0.00000000000E+00  0.00000000000E+00  0.33930342030E+03  0.33930342031E+03  0.25500000920E-02 0.  1.
       -2   -1    0    0    0  501  0.00000000000E+00  0.00000000000E+00 -0.26186322620E+03  0.26186322621E+03  0.25500000920E-02 0. -1.
    10030    2    1    2    0    0  0.00000000000E+00  0.00000000000E+00  0.77440194097E+02  0.60116664652E+03  0.59615799351E+03 0.  0.
        4    1    3    3  502    0 -0.18767491202E+03 -0.73520335993E+01  0.27212432581E+03  0.33064964328E+03  0.12699999809E+01 0.  1.
       -4    1    3    3    0  502  0.18767491202E+03  0.73520335993E+01 -0.19468413172E+03  0.27051700324E+03  0.12699999809E+01 0. -1.
</event>
<event>
 5   0  0.3478183E-02  0.5931075E+03  0.7818609E-02  0.9919810E-01
        1   -1    0    0  501    0  0.00000000000E+00  0.00000000000E+00  0.40152028832E+03  0.40152028835E+03  0.50400001928E-02 0. -1.
       -1   -1    0    0    0  501  0.00000000000E+00  0.00000000000E+00 -0.21902785722E+03  0.21902785728E+03  0.50400001928E-02 0.  1.
    10030    2    1    2    0    0  0.00000000000E+00  0.00000000000E+00  0.18249243110E+03  0.62054814563E+03  0.59310750597E+03 0.  0.
        4    1    3    3  502    0  0.68643647408E+02 -0.94147053441E+02  0.37656600429E+03  0.39418166686E+03  0.12699999809E+01 0. -1.
       -4    1    3    3    0  502 -0.68643647408E+02  0.94147053441E+02 -0.19407357319E+03  0.22636647878E+03  0.12699999809E+01 0.  1.
</event>
<event>
 5   0  0.3767635E-02  0.5994712E+03  0.7818609E-02  0.9906504E-01
       -1   -1    0    0    0  501  0.00000000000E+00  0.00000000000E+00  0.58153396074E+03  0.58153396076E+03  0.50400001928E-02 0.  1.
        1   -1    0    0  501    0  0.00000000000E+00  0.00000000000E+00 -0.15449044621E+03  0.15449044629E+03  0.50400001928E-02 0. -1.
    10030    2    1    2    0    0  0.00000000000E+00  0.00000000000E+00  0.42704351453E+03  0.73602440706E+03  0.59947123741E+03 0.  0.
        2    1    3    3  502    0  0.29640745542E+03 -0.32839480202E+02  0.17657304800E+03  0.34657445430E+03  0.25500000920E-02 0.  1.
       -2    1    3    3    0  502 -0.29640745542E+03  0.32839480202E+02  0.25047046653E+03  0.38944995275E+03  0.25500000920E-02 0. -1.
</event>
<event>
 5   0  0.5999117E-02  0.6003162E+03  0.7818609E-02  0.9904750E-01
        2   -1    0    0  501    0  0.00000000000E+00  0.00000000000E+00  0.14513517042E+04  0.14513517042E+04  0.25500000920E-02 0. -1.
       -2   -1    0    0    0  501  0.00000000000E+00  0.00000000000E+00 -0.62076542531E+02  0.62076542584E+02  0.25500000920E-02 0.  1.
    10030    2    1    2    0    0  0.00000000000E+00  0.00000000000E+00  0.13892751617E+04  0.15134282468E+04  0.60031623612E+03 0.  0.
        5    1    3    3  502    0 -0.12514916464E+03  0.37420466443E+02  0.13439338970E+02  0.13139752870E+03  0.46999998093E+01 0.  1.
       -5    1    3    3    0  502  0.12514916464E+03 -0.37420466443E+02  0.13758358227E+04  0.13820307181E+04  0.46999998093E+01 0. -1.
</event>
<event>
 5   0  0.5999117E-02  0.6010432E+03  0.7818609E-02  0.9903244E-01
       -2   -1    0    0    0  501  0.00000000000E+00  0.00000000000E+00  0.22311576520E+03  0.22311576521E+03  0.25500000920E-02 0. -1.
        2   -1    0    0  501    0  0.00000000000E+00  0.00000000000E+00 -0.40478195139E+03  0.40478195140E+03  0.25500000920E-02 0.  1.
    10030    2    1    2    0    0  0.00000000000E+00  0.00000000000E+00 -0.18166618620E+03  0.62789771662E+03  0.60104320920E+03 0.  0.
        5    1    3    3  502    0 -0.81724880663E+02 -0.27529330687E+03 -0.18324908620E+03  0.34068706832E+03  0.46999998093E+01 0.  1.
       -5    1    3    3    0  502  0.81724880663E+02  0.27529330687E+03  0.15829000068E+01  0.28721064830E+03  0.46999998093E+01 0. -1.
</event>
<event>
 5   0  0.3640827E-02  0.6097756E+03  0.7818609E-02  0.9885330E-01
       -1   -1    0    0    0  501  0.00000000000E+00  0.00000000000E+00  0.36904528839E+03  0.36904528842E+03  0.50400001928E-02 0.  1.
        1   -1    0    0  501    0  0.00000000000E+00  0.00000000000E+00 -0.25188390278E+03  0.25188390283E+03  0.50400001928E-02 0. -1.
    10030    2    1    2    0    0  0.00000000000E+00  0.00000000000E+00  0.11716138560E+03  0.62092919126E+03  0.60977559010E+03 0.  0.
        3    1    3    3  502    0 -0.12456888481E+03  0.18136500874E+03  0.27350019837E+03  0.35101715366E+03  0.10100000352E+00 0.  1.
       -3    1    3    3    0  502  0.12456888481E+03 -0.18136500874E+03 -0.15633881276E+03  0.26991203759E+03  0.10100000352E+00 0. -1.
</event>
<event>
 5   0  0.5755078E-02  0.5852479E+03  0.7818609E-02  0.9936494E-01
       -2   -1    0    0    0  501  0.00000000000E+00  0.00000000000E+00  0.55551744012E+02  0.55551744070E+02  0.25500000920E-02 0.  1.
        2   -1    0    0  501    0  0.00000000000E+00  0.00000000000E+00 -0.15414236020E+04  0.15414236020E+04  0.25500000920E-02 0. -1.
    10030    2    1    2    0    0  0.00000000000E+00  0.00000000000E+00 -0.14858718579E+04  0.15969753460E+04  0.58524787705E+03 0.  0.
        2    1    3    3  502    0  0.19289124673E+03 -0.21998820848E+03 -0.75709490482E+03  0.81166159195E+03  0.25500000920E-02 0. -1.
       -2    1    3    3    0  502 -0.19289124673E+03  0.21998820848E+03 -0.72877695313E+03  0.78531375408E+03  0.25500000920E-02 0.  1.
</event>
<event>
 5   0  0.3478183E-02  0.6006805E+03  0.7818609E-02  0.9903995E-01
       -1   -1    0    0    0  501  0.00000000000E+00  0.00000000000E+00  0.58073883830E+03  0.58073883832E+03  0.50400001928E-02 0.  1.
        1   -1    0    0  501    0  0.00000000000E+00  0.00000000000E+00 -0.15532672111E+03  0.15532672119E+03  0.50400001928E-02 0. -1.
    10030    2    1    2    0    0  0.00000000000E+00  0.00000000000E+00  0.42541211719E+03  0.73606555952E+03  0.60068047950E+03 0.  0.
        4    1    3    3  502    0  0.28033690570E+03 -0.10443019324E+03  0.24531608657E+03  0.38687987954E+03  0.12699999809E+01 0. -1.
       -4    1    3    3    0  502 -0.28033690570E+03  0.10443019324E+03  0.18009603061E+03  0.34918567998E+03  0.12699999809E+01 0.  1.
</event>
<event>
 5   0  0.5935451E-02  0.5996004E+03  0.7818609E-02  0.9906236E-01
       -2   -1    0    0    0  501  0.00000000000E+00  0.00000000000E+00  0.62844498186E+02  0.62844498237E+02  0.25500000920E-02 0.  1.
        2   -1    0    0  501    0  0.00000000000E+00  0.00000000000E+00 -0.14301991074E+04  0.14301991074E+04  0.25500000920E-02 0. -1.
    10030    2    1    2    0    0  0.00000000000E+00  0.00000000000E+00 -0.13673546092E+04  0.14930436056E+04  0.59960035106E+03 0.  0.
        3    1    3    3  502    0  0.17852728281E+03 -0.78574870458E+02 -0.11676153558E+03  0.22733074444E+03  0.10100000352E+00 0.  1.
       -3    1    3    3    0  502 -0.17852728281E+03  0.78574870458E+02 -0.12505930736E+04  0.12657128612E+04  0.10100000352E+00 0. -1.
</event>
<event>
 5   0  0.5999117E-02  0.6062352E+03  0.7818609E-02  0.9892554E-01
        2   -1    0    0  501    0  0.00000000000E+00  0.00000000000E+00  0.31510661466E+03  0.31510661467E+03  0.25500000920E-02 0. -1.
       -2   -1    0    0    0  501  0.00000000000E+00  0.00000000000E+00 -0.29158476523E+03  0.29158476524E+03  0.25500000920E-02 0.  1.
    10030    2    1    2    0    0  0.00000000000E+00  0.00000000000E+00  0.23521849427E+02  0.60669137991E+03  0.60623522914E+03 0.  0.
        5    1    3    3  502    0 -0.85658230459E+02  0.28973048939E+03 -0.12280251102E+02  0.30241359674E+03  0.46999998093E+01 0.  1.
       -5    1    3    3    0  502  0.85658230459E+02 -0.28973048939E+03  0.35802100528E+02  0.30427778317E+03  0.46999998093E+01 0. -1.
</event>
<event>
 5   0  0.5755078E-02  0.5597949E+03  0.7818609E-02  0.9992519E-01
        2   -1    0    0  501    0  0.00000000000E+00  0.00000000000E+00  0.41586001345E+03  0.41586001346E+03  0.25500000920E-02 0. -1.
       -2   -1    0    0    0  501  0.00000000000E+00  0.00000000000E+00 -0.18838692245E+03  0.18838692247E+03  0.25500000920E-02 0.  1.
    10030    2    1    2    0    0  0.00000000000E+00  0.00000000000E+00  0.22747309100E+03  0.60424693593E+03  0.55979491999E+03 0.  0.
        2    1    3    3  502    0 -0.27970743625E+03  0.17328423057E+01  0.10276392860E+03  0.29799274767E+03  0.25500000920E-02 0. -1.
       -2    1    3    3    0  502  0.27970743625E+03 -0.17328423057E+01  0.12470916240E+03  0.30625418826E+03  0.25500000920E-02 0.  1.
</event>
<event>
 5   0  0.3651984E-02  0.5994706E+03  0.7818609E-02  0.9906505E-01
       -1   -1    0    0    0  501  0.00000000000E+00  0.00000000000E+00  0.23051187560E+03  0.23051187565E+03  0.50400001928E-02 0.  1.
        1   -1    0    0  501    0  0.00000000000E+00  0.00000000000E+00 -0.38974669350E+03  0.38974669354E+03  0.50400001928E-02 0. -1.
    10030    2    1    2    0    0  0.00000000000E+00  0.00000000000E+00 -0.15923481791E+03  0.62025856919E+03  0.59947057094E+03 0.  0.
        1    1    3    3  502    0 -0.14339284946E+03  0.13057212195E+03 -0.31608282535E+03  0.37083546326E+03  0.50400001928E-02 0. -1.
       -1    1    3    3    0  502  0.14339284946E+03 -0.13057212195E+03  0.15684800744E+03  0.24942310593E+03  0.50400001928E-02 0.  1.
</event>
<event>
 5   0  0.5755078E-02  0.5894341E+03  0.7818609E-02  0.9927573E-01
       -2   -1    0    0    0  501  0.00000000000E+00  0.00000000000E+00  0.23795636287E+03  0.23795636288E+03  0.25500000920E-02 0.  1.
        2   -1    0    0  501    0  0.00000000000E+00  0.00000000000E+00 -0.36501707925E+03  0.36501707926E+03  0.25500000920E-02 0. -1.
    10030    2    1    2    0    0  0.00000000000E+00  0.00000000000E+00 -0.12706071638E+03  0.60297344214E+03  0.58943408985E+03 0.  0.
        2    1    3    3  502    0  0.12853453946E+03 -0.57065901710E+02  0.20141789030E+03  0.24565588027E+03  0.25500000920E-02 0.  1.
       -2    1    3    3    0  502 -0.12853453946E+03  0.57065901710E+02 -0.32847860668E+03  0.35731756187E+03  0.25500000920E-02 0. -1.
</event>
<event>
 5   0  0.3640827E-02  0.5874914E+03  0.7818609E-02  0.9931703E-01
       -1   -1    0    0    0  501  0.00000000000E+00  0.00000000000E+00  0.19378462882E+03  0.19378462889E+03  0.50400001928E-02 0. -1.
        1   -1    0    0  501    0  0.00000000000E+00  0.00000000000E+00 -0.44527031851E+03  0.44527031854E+03  0.50400001928E-02 0.  1.
    10030    2    1    2    0    0  0.00000000000E+00  0.00000000000E+00 -0.25148568969E+03  0.63905494742E+03  0.58749142437E+03 0.  0.
        3    1    3    3  502    0 -0.26521670514E+03  0.12150053116E+03 -0.88309468326E+02  0.30479641099E+03  0.10100000352E+00 0.  1.
       -3    1    3    3    0  502  0.26521670514E+03 -0.12150053116E+03 -0.16317622136E+03  0.33425853643E+03  0.10100000352E+00 0. -1.
</event>
<event>
 5   0  0.3478183E-02  0.6035135E+03  0.7818609E-02  0.9898143E-01
        1   -1    0    0  501    0  0.00000000000E+00  0.00000000000E+00  0.25852338222E+03  0.25852338227E+03  0.50400001928E-02 0.  1.
       -1   -1    0    0    0  501  0.00000000000E+00  0.00000000000E+00 -0.35222012946E+03  0.35222012950E+03  0.50400001928E-02 0. -1.
    10030    2    1    2    0    0  0.00000000000E+00  0.00000000000E+00 -0.93696747242E+02  0.61074351177E+03  0.60351350998E+03 0.  0.
        4    1    3    3  502    0  0.29021644868E+03 -0.79616431404E+02 -0.24420675229E+02  0.30193102774E+03  0.12699999809E+01 0. -1.
       -4    1    3    3    0  502 -0.29021644868E+03  0.79616431404E+02 -0.69276072012E+02  0.30881248403E+03  0.12699999809E+01 0.  1.
</event>
<event>
 5   0  0.5935451E-02  0.5969102E+03  0.7818609E-02  0.9911837E-01
       -2   -1    0    0    0  501  0.00000000000E+00  0.00000000000E+00  0.15984653547E+03  0.15984653549E+03  0.25500000920E-02 0. -1.
        2   -1    0    0  501    0  0.00000000000E+00  0.00000000000E+00 -0.55725598706E+03  0.55725598707E+03  0.25500000920E-02 0.  1.
    10030    2    1    2    0    0  0.00000000000E+00  0.00000000000E+00 -0.39740945159E+03  0.71710252256E+03  0.59691017385E+03 0.  0.
        3    1    3    3  502    0  0.72407739848E+02 -0.25766993445E+03 -0.35735103749E+03  0.44647110781E+03  0.10100000352E+00 0.  1.
       -3    1    3    3    0  502 -0.72407739848E+02  0.25766993445E+03 -0.40058414102E+02  0.27063141475E+03  0.10100000352E+00 0. -1.
</event>
<event>
 5   0  0.3651984E-02  0.5968860E+03  0.7818609E-02  0.9911888E-01
       -1   -1    0    0    0  501  0.00000000000E+00  0.00000000000E+00  0.19009391893E+03  0.19009391900E+03  0.50400001928E-02 0. -1.
        1   -1    0    0  501    0  0.00000000000E+00  0.00000000000E+00 -0.46854845555E+03  0.46854845557E+03  0.50400001928E-02 0.  1.
    10030    2    1    2    0    0  0.00000000000E+00  0.00000000000E+00 -0.27845453661E+03  0.65864237457E+03  0.59688595948E+03 0.  0.
        1    1    3    3  502    0  0.74918927011E+02  0.31519465816E+02  0.17764552092E+03  0.19535673390E+03  0.50400001928E-02 0. -1.
       -1    1    3    3    0  502 -0.74918927011E+02 -0.31519465816E+02 -0.45610005753E+03  0.46328564068E+03  0.50400001928E-02 0.  1.
</event>
<event>
 5   0  0.3767635E-02  0.6069779E+03  0.7818609E-02  0.9891034E-01
       -1   -1    0    0    0  501  0.00000000000E+00  0.00000000000E+00  0.82165365878E+02  0.82165366032E+02  0.50400001928E-02 0.  1.
        1   -1    0    0  501    0  0.00000000000E+00  0.00000000000E+00 -0.11209775396E+04  0.11209775396E+04  0.50400001928E-02 0. -1.
    10030    2    1    2    0    0  0.00000000000E+00  0.00000000000E+00 -0.10388121737E+04  0.12031429056E+04  0.60697785720E+03 0.  0.
        2    1    3    3  502    0 -0.18211092998E+03 -0.12271638506E+03 -0.93463417226E+03  0.96008579718E+03  0.25500000920E-02 0. -1.
       -2    1    3    3    0  502  0.18211092998E+03  0.12271638506E+03 -0.10417800147E+03  0.24305710847E+03  0.25500000920E-02 0.  1.
</event>
<event>
 5   0  0.3767635E-02  0.6118552E+03  0.7818609E-02  0.9881111E-01
       -1   -1    0    0    0  501  0.00000000000E+00  0.00000000000E+00  0.33038639265E+03  0.33038639269E+03  0.50400001928E-02 0. -1.
        1   -1    0    0  501    0  0.00000000000E+00  0.00000000000E+00 -0.28327953100E+03  0.28327953104E+03  0.50400001928E-02 0.  1.
    10030    2    1    2    0    0  0.00000000000E+00  0.00000000000E+00  0.47106861656E+02  0.61366592373E+03  0.61185521942E+03 0.  0.
        2    1    3    3  502    0 -0.54505833789E+02  0.19662722773E+03  0.25217218265E+03  0.32438243218E+03  0.25500000920E-02 0. -1.
       -2    1    3    3    0  502  0.54505833789E+02 -0.19662722773E+03 -0.20506532099E+03  0.28928349155E+03  0.25500000920E-02 0.  1.
</event>
<event>
 5   0  0.6007360E-02  0.6020653E+03  0.7818609E-02  0.9901130E-01
       -2   -1    0    0    0  501  0.00000000000E+00  0.00000000000E+00  0.40893935499E+03  0.40893935500E+03  0.25500000920E-02 0.  1.
        2   -1    0    0  501    0  0.00000000000E+00  0.00000000000E+00 -0.22159924557E+03  0.22159924558E+03  0.25500000920E-02 0. -1.
    10030    2    1    2    0    0  0.00000000000E+00  0.00000000000E+00  0.18734010942E+03  0.63053860058E+03  0.60206528735E+03 0.  0.
        4    1    3    3  502    0 -0.16781126014E+03  0.24990401578E+03  0.91019860839E+02  0.31448189789E+03  0.12699999809E+01 0.  1.
       -4    1    3    3    0  502  0.16781126014E+03 -0.24990401578E+03  0.96320248583E+02  0.31605670270E+03  0.12699999809E+01 0. -1.
</event>
<event>
 5   0  0.3478183E-02  0.5983511E+03  0.7818609E-02  0.9908833E-01
        1   -1    0    0  501    0  0.00000000000E+00  0.00000000000E+00  0.17809877465E+03  0.17809877472E+03  0.50400001928E-02 0. -1.
       -1   -1    0    0    0  501  0.00000000000E+00  0.00000000000E+00 -0.50256380355E+03  0.50256380358E+03  0.50400001928E-02 0.  1.
    10030    2    1    2    0    0  0.00000000000E+00  0.00000000000E+00 -0.32446502890E+03  0.68066257830E+03  0.59835105960E+03 0.  0.
        4    1    3    3  502    0 -0.27989722046E+03 -0.10482558739E+03 -0.14724742772E+03  0.33318804850E+03  0.12699999809E+01 0. -1.
       -4    1    3    3    0  502  0.27989722046E+03  0.10482558739E+03 -0.17721760118E+03  0.34747452980E+03  0.12699999809E+01 0.  1.
</event>
<event>
 5   0  0.3478183E-02  0.4945436E+03  0.7818609E-02  0.1015213E+00
       -1   -1    0    0    0  501  0.00000000000E+00  0.00000000000E+00  0.31076679160E+03  0.31076679164E+03  0.50400001928E-02 0.  1.
        1   -1    0    0  501    0  0.00000000000E+00  0.00000000000E+00 -0.19674992792E+03  0.19674992799E+03  0.50400001928E-02 0. -1.
    10030    2    1    2    0    0  0.00000000000E+00  0.00000000000E+00  0.11401686368E+03  0.50751671963E+03  0.49454360323E+03 0.  0.
        4    1    3    3  502    0  0.23353756882E+03 -0.78659571599E+02  0.36112394640E+02  0.24906393196E+03  0.12699999809E+01 0.  1.
       -4    1    3    3    0  502 -0.23353756882E+03  0.78659571599E+02  0.77904469038E+02  0.25845278767E+03  0.12699999809E+01 0. -1.
</event>
<event>
 5   0  0.5999117E-02  0.5976455E+03  0.7818609E-02  0.9910303E-01
        2   -1    0    0  501    0  0.00000000000E+00  0.00000000000E+00  0.44114513750E+03  0.44114513751E+03  0.25500000920E-02 0.  1.
       -2   -1    0    0    0  501  0.00000000000E+00  0.00000000000E+00 -0.20241644763E+03  0.20241644764E+03  0.25500000920E-02 0. -1.
    10030    2    1    2    0    0  0.00000000000E+00  0.00000000000E+00  0.23872868987E+03  0.64356158515E+03  0.59764548564E+03 0.  0.
        5    1    3    3  502    0 -0.86268568629E+02 -0.19186805348E+03 -0.10910940796E+03  0.23702862439E+03  0.46999998093E+01 0. -1.
       -5    1    3    3    0  502  0.86268568629E+02  0.19186805348E+03  0.34783809783E+03  0.40653296075E+03  0.46999998093E+01 0.  1.
</event>
<event>
 5   0  0.5872632E-02  0.5993680E+03  0.7818609E-02  0.9906718E-01
       -2   -1    0    0    0  501  0.00000000000E+00  0.00000000000E+00  0.29894769866E+03  0.29894769867E+03  0.25500000920E-02 0. -1.
        2   -1    0    0  501    0  0.00000000000E+00  0.00000000000E+00 -0.30042211282E+03  0.30042211283E+03  0.25500000920E-02 0.  1.
    10030    2    1    2    0    0  0.00000000000E+00  0.00000000000E+00 -0.14744141548E+01  0.59936981150E+03  0.59936799801E+03 0.  0.
        1    1    3    3  502    0  0.15383910481E+03  0.13254807344E+03 -0.22113532694E+03  0.30022707204E+03  0.50400001928E-02 0.  1.
       -1    1    3    3    0  502 -0.15383910481E+03 -0.13254807344E+03  0.21966091278E+03  0.29914273946E+03  0.50400001928E-02 0. -1.
</event>
<event>
 5   0  0.5872632E-02  0.6667860E+03  0.7818609E-02  0.9775781E-01
        2   -1    0    0  501    0  0.00000000000E+00  0.00000000000E+00  0.23236271250E+03  0.23236271251E+03  0.25500000920E-02 0.  1.
       -2   -1    0    0    0  501  0.00000000000E+00  0.00000000000E+00 -0.47835087799E+03  0.47835087799E+03  0.25500000920E-02 0. -1.
    10030    2    1    2    0    0  0.00000000000E+00  0.00000000000E+00 -0.24598816549E+03  0.71071359051E+03  0.66678604528E+03 0.  0.
        1    1    3    3  502    0 -0.97256658143E+02 -0.15605290315E+03 -0.41941504602E+03  0.45795234140E+03  0.50400001928E-02 0. -1.
       -1    1    3    3    0  502  0.97256658143E+02  0.15605290315E+03  0.17342688054E+03  0.25276124911E+03  0.50400001928E-02 0.  1.
</event>
<event>
 5   0  0.2388000E-02  0.5946667E+03  0.7818609E-02  0.9916533E-01
        3   -1    0    0  501    0  0.00000000000E+00  0.00000000000E+00  0.35490095057E+03  0.35490096494E+03  0.10100000352E+00 0.  1.
       -3   -1    0    0    0  501  0.00000000000E+00  0.00000000000E+00 -0.24910359677E+03  0.24910361725E+03  0.10100000352E+00 0. -1.
    10030    2    1    2    0    0  0.00000000000E+00  0.00000000000E+00  0.10579735380E+03  0.60400458219E+03  0.59466667574E+03 0.  0.
        1    1    3    3  502    0  0.18916137821E+03 -0.60686229246E+01  0.28582095351E+03  0.34280092281E+03  0.50400001928E-02 0.  1.
       -1    1    3    3    0  502 -0.18916137821E+03  0.60686229246E+01 -0.18002359971E+03  0.26120365937E+03  0.50400001928E-02 0. -1.
</event>
<event>
 5   0  0.3651984E-02  0.6080825E+03  0.7818609E-02  0.9888778E-01
       -1   -1    0    0    0  501  0.00000000000E+00  0.00000000000E+00  0.60564631922E+02  0.60564632132E+02  0.50400001928E-02 0. -1.
        1   -1    0    0  501    0  0.00000000000E+00  0.00000000000E+00 -0.15263210772E+04  0.15263210772E+04  0.50400001928E-02 0.  1.
    10030    2    1    2    0    0  0.00000000000E+00  0.00000000000E+00 -0.14657564453E+04  0.15868857093E+04  0.60808247601E+03 0.  0.
        1    1    3    3  502    0  0.23627687200E+03  0.12306059697E+03 -0.11152653515E+04  0.11466418251E+04  0.50400001928E-02 0.  1.
       -1    1    3    3    0  502 -0.23627687200E+03 -0.12306059697E+03 -0.35049109374E+03  0.44024388421E+03  0.50400001928E-02 0. -1.
</event>
<event>
 5   0  0.5999117E-02  0.6010744E+03  0.7818609E-02  0.9903179E-01
        2   -1    0    0  501    0  0.00000000000E+00  0.00000000000E+00  0.41101193282E+03  0.41101193283E+03  0.25500000920E-02 0. -1.
       -2   -1    0    0    0  501  0.00000000000E+00  0.00000000000E+00 -0.21975667969E+03  0.21975667971E+03  0.25500000920E-02 0.  1.
    10030    2    1    2    0    0  0.00000000000E+00  0.00000000000E+00  0.19125525313E+03  0.63076861254E+03  0.60107443026E+03 0.  0.
        5    1    3    3  502    0 -0.23572036135E+03 -0.18158545099E+02 -0.99026390315E+02  0.25636329201E+03  0.46999998093E+01 0.  1.
       -5    1    3    3    0  502  0.23572036135E+03  0.18158545099E+02  0.29028164345E+03  0.37440532052E+03  0.46999998093E+01 0. -1.
</event>
<event>
 5   0  0.5755078E-02  0.5977301E+03  0.7818609E-02  0.9910127E-01
       -2   -1    0    0    0  501  0.00000000000E+00  0.00000000000E+00  0.17335505998E+03  0.17335506000E+03  0.25500000920E-02 0. -1.
        2   -1    0    0  501    0  0.00000000000E+00  0.00000000000E+00 -0.51524493890E+03  0.51524493891E+03  0.25500000920E-02 0.  1.
    10030    2    1    2    0    0  0.00000000000E+00  0.00000000000E+00 -0.34188987893E+03  0.68859999891E+03  0.59773009727E+03 0.  0.
        2    1    3    3  502    0  0.10562097856E+03  0.84804675564E+02 -0.47785246396E+03  0.49667957622E+03  0.25500000920E-02 0.  1.
       -2    1    3    3    0  502 -0.10562097856E+03 -0.84804675564E+02  0.13596258504E+03  0.19192042269E+03  0.25500000920E-02 0. -1.
</event>
<event>
 5   0  0.3703280E-02  0.6009295E+03  0.7818609E-02  0.9903480E-01
       -1   -1    0    0    0  501  0.00000000000E+00  0.00000000000E+00  0.81385796161E+03  0.81385796162E+03  0.50400001928E-02 0.  1.
        1   -1    0    0  501    0  0.00000000000E+00  0.00000000000E+00 -0.11092729663E+03  0.11092729675E+03  0.50400001928E-02 0. -1.
    10030    2    1    2    0    0  0.00000000000E+00  0.00000000000E+00  0.70293066497E+03  0.92478525837E+03  0.60092949199E+03 0.  0.
        5    1    3    3  502    0 -0.48564858243E+02  0.28035931678E+03  0.49985057186E+03  0.57518047268E+03  0.46999998093E+01 0.  1.
       -5    1    3    3    0  502  0.48564858243E+02 -0.28035931678E+03  0.20308009311E+03  0.34960478569E+03  0.46999998093E+01 0. -1.
</event>
<event>
 5   0  0.5872632E-02  0.5946534E+03  0.7818609E-02  0.9916561E-01
        2   -1    0    0  501    0  0.00000000000E+00  0.00000000000E+00  0.21139679124E+03  0.21139679126E+03  0.25500000920E-02 0. -1.
       -2   -1    0    0    0  501  0.00000000000E+00  0.00000000000E+00 -0.41818589881E+03  0.41818589881E+03  0.25500000920E-02 0.  1.
    10030    2    1    2    0    0  0.00000000000E+00  0.00000000000E+00 -0.20678910756E+03  0.62958269007E+03  0.59465336847E+03 0.  0.
        1    1    3    3  502    0 -0.17934158879E+03  0.23665722289E+03 -0.87229772584E+02  0.30948195402E+03  0.50400001928E-02 0. -1.
       -1    1    3    3    0  502  0.17934158879E+03 -0.23665722289E+03 -0.11955933498E+03  0.32010073605E+03  0.50400001928E-02 0.  1.
</event>
<event>
 5   0  0.6007360E-02  0.5932255E+03  0.7818609E-02  0.9919562E-01
        2   -1    0    0  501    0  0.00000000000E+00  0.00000000000E+00  0.12822733215E+04  0.12822733215E+04  0.25500000920E-02 0.  1.
       -2   -1    0    0    0  501  0.00000000000E+00  0.00000000000E+00 -0.68611825674E+02  0.68611825721E+02  0.25500000920E-02 0. -1.
    10030    2    1    2    0    0  0.00000000000E+00  0.00000000000E+00  0.12136614959E+04  0.13508851473E+04  0.59322546687E+03 0.  0.
        4    1    3    3  502    0 -0.80727604967E+02  0.26287816740E+03  0.35370811729E+03  0.44803227812E+03  0.12699999809E+01 0. -1.
       -4    1    3    3    0  502  0.80727604967E+02 -0.26287816740E+03  0.85995337857E+03  0.90285286914E+03  0.12699999809E+01 0.  1.
</event>
<event>
 5   0  0.5872632E-02  0.6019756E+03  0.7818609E-02  0.9901316E-01
        2   -1    0    0  501    0  0.00000000000E+00  0.00000000000E+00  0.15796771501E+03  0.15796771503E+03  0.25500000920E-02 0. -1.
       -2   -1    0    0    0  501  0.00000000000E+00  0.00000000000E+00 -0.57349470457E+03  0.57349470458E+03  0.25500000920E-02 0.  1.
    10030    2    1    2    0    0  0.00000000000E+00  0.00000000000E+00 -0.41552698956E+03  0.73146241961E+03  0.60197557446E+03 0.  0.
        1    1    3    3  502    0  0.73076302665E+02  0.18055440884E+03 -0.48658560783E+03  0.52412364413E+03  0.50400001928E-02 0.  1.
       -1    1    3    3    0  502 -0.73076302665E+02 -0.18055440884E+03  0.71058618270E+02  0.20733877548E+03  0.50400001928E-02 0. -1.
</event>
<event>
 5   0  0.5755078E-02  0.6081208E+03  0.7818609E-02  0.9888700E-01
        2   -1    0    0  501    0  0.00000000000E+00  0.00000000000E+00  0.51147342761E+03  0.51147342762E+03  0.25500000920E-02 0. -1.
       -2   -1    0    0    0  501  0.00000000000E+00  0.00000000000E+00 -0.18075761891E+03  0.18075761892E+03  0.25500000920E-02 0.  1.
    10030    2    1    2    0    0  0.00000000000E+00  0.00000000000E+00  0.33071580870E+03  0.69223104654E+03  0.60812077391E+03 0.  0.
        2    1    3    3  502    0  0.25176084960E+03 -0.13491904979E+03  0.28401588526E+03  0.40280478954E+03  0.25500000920E-02 0. -1.
       -2    1    3    3    0  502 -0.25176084960E+03  0.13491904979E+03  0.46699923440E+02  0.28942625700E+03  0.25500000920E-02 0.  1.
</event>
<event>
 5   0  0.3767635E-02  0.5940101E+03  0.7818609E-02  0.9917912E-01
        1   -1    0    0  501    0  0.00000000000E+00  0.00000000000E+00  0.40110800111E+03  0.40110800114E+03  0.50400001928E-02 0.  1.
       -1   -1    0    0    0  501  0.00000000000E+00  0.00000000000E+00 -0.21992084300E+03  0.21992084305E+03  0.50400001928E-02 0. -1.
    10030    2    1    2    0    0  0.00000000000E+00  0.00000000000E+00  0.18118715811E+03  0.62102884419E+03  0.59401013380E+03 0.  0.
        2    1    3    3  502    0  0.24213840019E+03  0.11102421310E+03 -0.46738100291E+02  0.27044746396E+03  0.25500000920E-02 0.  1.
       -2    1    3    3    0  502 -0.24213840019E+03 -0.11102421310E+03  0.22792525840E+03  0.35058138023E+03  0.25500000920E-02 0. -1.
</event>
<event>
 5   0  0.3767635E-02  0.5989198E+03  0.7818609E-02  0.9907650E-01
        1   -1    0    0  501    0  0.00000000000E+00  0.00000000000E+00  0.25248343026E+03  0.25248343031E+03  0.50400001928E-02 0. -1.
       -1   -1    0    0    0  501  0.00000000000E+00  0.00000000000E+00 -0.35517672591E+03  0.35517672594E+03  0.50400001928E-02 0.  1.
    10030    2    1    2    0    0  0.00000000000E+00  0.00000000000E+00 -0.10269329565E+03  0.60766015625E+03  0.59891982145E+03 0.  0.
        2    1    3    3  502    0 -0.15282385051E+03  0.82870931432E+02 -0.29873591373E+03  0.34563834671E+03  0.25500000920E-02 0.  1.
       -2    1    3    3    0  502  0.15282385051E+03 -0.82870931432E+02  0.19604261808E+03  0.26202180953E+03  0.25500000920E-02 0. -1.
</event>
<event>
 5   0  0.5872632E-02  0.5627187E+03  0.7818609E-02  0.9985922E-01
       -2   -1    0    0    0  501  0.00000000000E+00  0.00000000000E+00  0.57275860469E+02  0.57275860526E+02  0.25500000920E-02 0.  1.
        2   -1    0    0  501    0  0.00000000000E+00  0.00000000000E+00 -0.13821368161E+04  0.13821368161E+04  0.25500000920E-02 0. -1.
    10030    2    1    2    0    0  0.00000000000E+00  0.00000000000E+00 -0.13248609557E+04  0.14394126767E+04  0.56271867029E+03 0.  0.
        1    1    3    3  502    0 -0.87265213243E+02  0.18328985985E+03 -0.11607584354E+04  0.11783762284E+04  0.50400001928E-02 0. -1.
       -1    1    3    3    0  502  0.87265213243E+02 -0.18328985985E+03 -0.16410252026E+03  0.26103644831E+03  0.50400001928E-02 0.  1.
</event>
<event>
 5   0  0.3651984E-02  0.5901572E+03  0.7818609E-02  0.9926040E-01
       -1   -1    0    0    0  501  0.00000000000E+00  0.00000000000E+00  0.28829876921E+03  0.28829876925E+03  0.50400001928E-02 0. -1.
        1   -1    0    0  501    0  0.00000000000E+00  0.00000000000E+00 -0.30201788564E+03  0.30201788569E+03  0.50400001928E-02 0.  1.
    10030    2    1    2    0    0  0.00000000000E+00  0.00000000000E+00 -0.13719116439E+02  0.59031665494E+03  0.59015721544E+03 0.  0.
        1    1    3    3  502    0  0.12839576557E+03  0.89544331402E+02 -0.25706254885E+03  0.30097311167E+03  0.50400001928E-02 0.  1.
       -1    1    3    3    0  502 -0.12839576557E+03 -0.89544331402E+02  0.24334343241E+03  0.28934354326E+03  0.50400001928E-02 0. -1.
</event>
<event>
 5   0  0.3703280E-02  0.5810411E+03  0.7818609E-02  0.9945540E-01
        1   -1    0    0  501    0  0.00000000000E+00  0.00000000000E+00  0.71230176534E+03  0.71230176536E+03  0.50400001928E-02 0. -1.
       -1   -1    0    0    0  501  0.00000000000E+00  0.00000000000E+00 -0.11849218447E+03  0.11849218458E+03  0.50400001928E-02 0.  1.
    10030    2    1    2    0    0  0.00000000000E+00  0.00000000000E+00  0.59380958087E+03  0.83079394994E+03  0.58104110777E+03 0.  0.
        5    1    3    3  502    0  0.22310304246E+03  0.49554935830E+02  0.55327832602E+03  0.59863983768E+03  0.46999998093E+01 0. -1.
       -5    1    3    3    0  502 -0.22310304246E+03 -0.49554935830E+02  0.40531254845E+02  0.23215411225E+03  0.46999998093E+01 0.  1.
</event>
<event>
 5   0  0.5872632E-02  0.6024087E+03  0.7818609E-02  0.9900421E-01
       -2   -1    0    0    0  501  0.00000000000E+00  0.00000000000E+00  0.94750304899E+02  0.94750304933E+02  0.25500000920E-02 0.  1.
        2   -1    0    0  501    0  0.00000000000E+00  0.00000000000E+00 -0.95750678360E+03  0.95750678361E+03  0.25500000920E-02 0. -1.
    10030    2    1    2    0    0  0.00000000000E+00  0.00000000000E+00 -0.86275647871E+03  0.10522570885E+04  0.60240869751E+03 0.  0.
        1    1    3    3  502    0 -0.23242864390E+01 -0.48424012541E+02 -0.95064715235E+03  0.95188250094E+03  0.50400001928E-02 0. -1.
       -1    1    3    3    0  502  0.23242864390E+01  0.48424012541E+02  0.87890673642E+02  0.10037458760E+03  0.50400001928E-02 0.  1.
</event>
<event>
 5   0  0.3478183E-02  0.6019962E+03  0.7818609E-02  0.9901273E-01
       -1   -1    0    0    0  501  0.00000000000E+00  0.00000000000E+00  0.49103636043E+03  0.49103636046E+03  0.50400001928E-02 0. -1.
        1   -1    0    0  501    0  0.00000000000E+00  0.00000000000E+00 -0.18450744172E+03  0.18450744179E+03  0.50400001928E-02 0.  1.
    10030    2    1    2    0    0  0.00000000000E+00  0.00000000000E+00  0.30652891871E+03  0.67554380225E+03  0.60199622154E+03 0.  0.
        4    1    3    3  502    0 -0.67334738675E+02 -0.18233663040E+03  0.41116320392E+03  0.45479380710E+03  0.12699999809E+01 0. -1.
       -4    1    3    3    0  502  0.67334738675E+02  0.18233663040E+03 -0.10463428520E+03  0.22074999515E+03  0.12699999809E+01 0.  1.
</event>
<event>
 5   0  0.5755078E-02  0.5979112E+03  0.7818609E-02  0.9909749E-01
        2   -1    0    0  501    0  0.00000000000E+00  0.00000000000E+00  0.32759263107E+03  0.32759263108E+03  0.25500000920E-02 0.  1.
       -2   -1    0    0    0  501  0.00000000000E+00  0.00000000000E+00 -0.27282196423E+03  0.27282196424E+03  0.25500000920E-02 0. -1.
    10030    2    1    2    0    0  0.00000000000E+00  0.00000000000E+00  0.54770666838E+02  0.60041459532E+03  0.59791124787E+03 0.  0.
        2    1    3    3  502    0 -0.24340998423E+02 -0.13027286262E+03 -0.24171230732E+03  0.27565983105E+03  0.25500000920E-02 0. -1.
       -2    1    3    3    0  502  0.24340998423E+02  0.13027286262E+03  0.29648297416E+03  0.32475476426E+03  0.25500000920E-02 0.  1.
</event>
<event>
 5   0  0.3478183E-02  0.6044586E+03  0.7818609E-02  0.9896199E-01
       -1   -1    0    0    0  501  0.00000000000E+00  0.00000000000E+00  0.27936515438E+03  0.27936515442E+03  0.50400001928E-02 0. -1.
        1   -1    0    0  501    0  0.00000000000E+00  0.00000000000E+00 -0.32696476234E+03  0.32696476238E+03  0.50400001928E-02 0.  1.
    10030    2    1    2    0    0  0.00000000000E+00  0.00000000000E+00 -0.47599607961E+02  0.60632991680E+03  0.60445863823E+03 0.  0.
        4    1    3    3  502    0  0.16336702116E+03 -0.17257355580E+03 -0.21111443432E+03  0.31786999393E+03  0.12699999809E+01 0.  1.
       -4    1    3    3    0  502 -0.16336702116E+03  0.17257355580E+03  0.16351482636E+03  0.28845992287E+03  0.12699999809E+01 0. -1.
</event>
<event>
 5   0  0.3651984E-02  0.5990088E+03  0.7818609E-02  0.9907465E-01
        1   -1    0    0  501    0  0.00000000000E+00  0.00000000000E+00  0.37674217185E+03  0.37674217188E+03  0.50400001928E-02 0. -1.
       -1   -1    0    0    0  501  0.00000000000E+00  0.00000000000E+00 -0.23810148562E+03  0.23810148567E+03  0.50400001928E-02 0.  1.
    10030    2    1    2    0    0  0.00000000000E+00  0.00000000000E+00  0.13864068623E+03  0.61484365755E+03  0.59900875065E+03 0.  0.
        1    1    3    3  502    0  0.16197470744E+03  0.24805448665E+03  0.11448391833E+03  0.31760573323E+03  0.50400001928E-02 0. -1.
       -1    1    3    3    0  502 -0.16197470744E+03 -0.24805448665E+03  0.24156767903E+02  0.29723792433E+03  0.50400001928E-02 0.  1.
</event>
<event>
 5   0  0.5999117E-02  0.6019328E+03  0.7818609E-02  0.9901404E-01
        2   -1    0    0  501    0  0.00000000000E+00  0.00000000000E+00  0.80781942541E+03  0.80781942542E+03  0.25500000920E-02 0. -1.
       -2   -1    0    0    0  501  0.00000000000E+00  0.00000000000E+00 -0.11212997845E+03  0.11212997848E+03  0.25500000920E-02 0.  1.
    10030    2    1    2    0    0  0.00000000000E+00  0.00000000000E+00  0.69568944697E+03  0.91994940389E+03  0.60193280282E+03 0.  0.
        5    1    3    3  502    0 -0.24206831422E+03 -0.80136299954E+02  0.10360033897E+03  0.27527080403E+03  0.46999998093E+01 0.  1.
       -5    1    3    3    0  502  0.24206831422E+03  0.80136299954E+02  0.59208910799E+03  0.64467859986E+03  0.46999998093E+01 0. -1.
</event>
<event>
 5   0  0.3640827E-02  0.6021135E+03  0.7818609E-02  0.9901031E-01
       -1   -1    0    0    0  501  0.00000000000E+00  0.00000000000E+00  0.43373076192E+03  0.43373076195E+03  0.50400001928E-02 0. -1.
        1   -1    0    0  501    0  0.00000000000E+00  0.00000000000E+00 -0.20896642225E+03  0.20896642231E+03  0.50400001928E-02 0.  1.
    10030    2    1    2    0    0  0.00000000000E+00  0.00000000000E+00  0.22476433967E+03  0.64269718425E+03  0.60211349616E+03 0.  0.
        3    1    3    3  502    0  0.22500659360E+03  0.14462081024E+03 -0.35104868809E+02  0.26976936063E+03  0.10100000352E+00 0.  1.
       -3    1    3    3    0  502 -0.22500659360E+03 -0.14462081024E+03  0.25986920848E+03  0.37292782363E+03  0.10100000352E+00 0. -1.
</event>
<event>
 5   0  0.2388000E-02  0.6047301E+03  0.7818609E-02  0.9895641E-01
        3   -1    0    0  501    0  0.00000000000E+00  0.00000000000E+00  0.19200888061E+03  0.19200890717E+03  0.10100000352E+00 0. -1.
       -3   -1    0    0    0  501  0.00000000000E+00  0.00000000000E+00 -0.47614787200E+03  0.47614788272E+03  0.10100000352E+00 0.  1.
    10030    2    1    2    0    0  0.00000000000E+00  0.00000000000E+00 -0.28413899140E+03  0.66815678989E+03  0.60473012943E+03 0.  0.
        3    1    3    3  502    0  0.15409386011E+02 -0.12199708056E+03  0.16313442288E+03  0.20428800007E+03  0.10100000352E+00 0. -1.
       -3    1    3    3    0  502 -0.15409386011E+02  0.12199708056E+03 -0.44727341428E+03  0.46386878982E+03  0.10100000352E+00 0.  1.
</event>
<event>
 5   0  0.3640827E-02  0.6030859E+03  0.7818609E-02  0.9899024E-01
       -1   -1    0    0    0  501  0.00000000000E+00  0.00000000000E+00  0.50747295661E+02  0.50747295912E+02  0.50400001928E-02 0.  1.
        1   -1    0    0  501    0  0.00000000000E+00  0.00000000000E+00 -0.17917831096E+04  0.17917831096E+04  0.50400001928E-02 0. -1.
    10030    2    1    2    0    0  0.00000000000E+00  0.00000000000E+00 -0.17410358140E+04  0.18425304055E+04  0.60308588928E+03 0.  0.
        3    1    3    3  502    0 -0.66800000446E+01  0.64216886022E+02 -0.17704184897E+04  0.17715953459E+04  0.10100000352E+00 0. -1.
       -3    1    3    3    0  502  0.66800000446E+01 -0.64216886022E+02  0.29382675721E+02  0.70935059628E+02  0.10100000352E+00 0.  1.
</event>
<event>
 5   0  0.5755078E-02  0.6036634E+03  0.7818609E-02  0.9897835E-01
        2   -1    0    0  501    0  0.00000000000E+00  0.00000000000E+00  0.39483964098E+03  0.39483964099E+03  0.25500000920E-02 0. -1.
       -2   -1    0    0    0  501  0.00000000000E+00  0.00000000000E+00 -0.23073258600E+03  0.23073258602E+03  0.25500000920E-02 0.  1.
    10030    2    1    2    0    0  0.00000000000E+00  0.00000000000E+00  0.16410705498E+03  0.62557222700E+03  0.60366338775E+03 0.  0.
        2    1    3    3  502    0 -0.14117002906E+03 -0.11117360623E+03  0.33337079558E+03  0.37871445071E+03  0.25500000920E-02 0. -1.
       -2    1    3    3    0  502  0.14117002906E+03  0.11117360623E+03 -0.16926374060E+03  0.24685777629E+03  0.25500000920E-02 0.  1.
</event>
<event>
 5   0  0.6007360E-02  0.5999844E+03  0.7818609E-02  0.9905438E-01
        2   -1    0    0  501    0  0.00000000000E+00  0.00000000000E+00  0.29570548298E+03  0.29570548299E+03  0.25500000920E-02 0. -1.
       -2   -1    0    0    0  501  0.00000000000E+00  0.00000000000E+00 -0.30434110138E+03  0.30434110139E+03  0.25500000920E-02 0.  1.
    10030    2    1    2    0    0  0.00000000000E+00  0.00000000000E+00 -0.86356183978E+01  0.60004658438E+03  0.59998444107E+03 0.  0.
        4    1    3    3  502    0  0.12198019918E+03 -0.25300833933E+03  0.10105595639E+03  0.29850679722E+03  0.12699999809E+01 0. -1.
       -4    1    3    3    0  502 -0.12198019918E+03  0.25300833933E+03 -0.10969157478E+03  0.30153978717E+03  0.12699999809E+01 0.  1.
</event>
<event>
 5   0  0.3640827E-02  0.6033054E+03  0.7818609E-02  0.9898572E-01
        1   -1    0    0  501    0  0.00000000000E+00  0.00000000000E+00  0.72835683342E+03  0.72835683344E+03  0.50400001928E-02 0. -1.
       -1   -1    0    0    0  501  0.00000000000E+00  0.00000000000E+00 -0.12493102218E+03  0.12493102228E+03  0.50400001928E-02 0.  1.
    10030    2    1    2    0    0  0.00000000000E+00  0.00000000000E+00  0.60342581124E+03  0.85328785573E+03  0.60330544093E+03 0.  0.
        3    1    3    3  502    0 -0.17869120302E+02 -0.12315563924E+03 -0.86932957048E+02  0.15180239181E+03  0.10100000352E+00 0.  1.
       -3    1    3    3    0  502  0.17869120302E+02  0.12315563924E+03  0.69035876829E+03  0.70148546392E+03  0.10100000352E+00 0. -1.
</event>
<event>
 5   0  0.5755078E-02  0.6074276E+03  0.7818609E-02  0.9890115E-01
       -2   -1    0    0    0  501  0.00000000000E+00  0.00000000000E+00  0.46727814131E+02  0.46727814201E+02  0.25500000920E-02 0. -1.
        2   -1    0    0  501    0  0.00000000000E+00  0.00000000000E+00 -0.19740291837E+04  0.19740291837E+04  0.25500000920E-02 0.  1.
    10030    2    1    2    0    0  0.00000000000E+00  0.00000000000E+00 -0.19273013696E+04  0.20207569979E+04  0.60742758863E+03 0.  0.
        2    1    3    3  502    0  0.22337338109E+03  0.17455921357E+03 -0.60111963468E+03  0.66461372362E+03  0.25500000920E-02 0. -1.
       -2    1    3    3    0  502 -0.22337338109E+03 -0.17455921357E+03 -0.13261817349E+04  0.13561432743E+04  0.25500000920E-02 0.  1.
</event>
<event>
 5   0  0.6007360E-02  0.5970709E+03  0.7818609E-02  0.9911502E-01
        2   -1    0    0  501    0  0.00000000000E+00  0.00000000000E+00  0.12738341502E+04  0.12738341502E+04  0.25500000920E-02 0. -1.
       -2   -1    0    0    0  501  0.00000000000E+00  0.00000000000E+00 -0.69964697848E+02  0.69964697894E+02  0.25500000920E-02 0.  1.
    10030    2    1    2    0    0  0.00000000000E+00  0.00000000000E+00  0.12038694524E+04  0.13437988481E+04  0.59707092195E+03 0.  0.
        4    1    3    3  502    0  0.29332567434E+03  0.68238412639E+01  0.47793845661E+03  0.56081485113E+03  0.12699999809E+01 0. -1.
       -4    1    3    3    0  502 -0.29332567434E+03 -0.68238412639E+01  0.72593099576E+03  0.78298399699E+03  0.12699999809E+01 0.  1.
</event>
<event>
 5   0  0.5935451E-02  0.5997629E+03  0.7818609E-02  0.9905898E-01
       -2   -1    0    0    0  501  0.00000000000E+00  0.00000000000E+00  0.54450794076E+02  0.54450794135E+02  0.25500000920E-02 0.  1.
        2   -1    0    0  501    0  0.00000000000E+00  0.00000000000E+00 -0.16515622557E+04  0.16515622557E+04  0.25500000920E-02 0. -1.
    10030    2    1    2    0    0  0.00000000000E+00  0.00000000000E+00 -0.15971114616E+04  0.17060130498E+04  0.59976287428E+03 0.  0.
        3    1    3    3  502    0 -0.20061971649E+03  0.13964513810E+03 -0.30440303291E+03  0.39039755620E+03  0.10100000352E+00 0.  1.
       -3    1    3    3    0  502  0.20061971649E+03 -0.13964513810E+03 -0.12927084287E+04  0.13156154936E+04  0.10100000352E+00 0. -1.
</event>
<event>
 5   0  0.3640827E-02  0.6060442E+03  0.7818609E-02  0.9892945E-01
        1   -1    0    0  501    0  0.00000000000E+00  0.00000000000E+00  0.11251362239E+04  0.11251362239E+04  0.50400001928E-02 0. -1.
       -1   -1    0    0    0  501  0.00000000000E+00  0.00000000000E+00 -0.81610034544E+02  0.81610034699E+02  0.50400001928E-02 0.  1.
    10030    2    1    2    0    0  0.00000000000E+00  0.00000000000E+00  0.10435261894E+04  0.12067462586E+04  0.60604424327E+03 0.  0.
        3    1    3    3  502    0  0.75969262123E+02  0.24891757822E+03  0.21270508447E+03  0.33611717108E+03  0.10100000352E+00 0.  1.
       -3    1    3    3    0  502 -0.75969262123E+02 -0.24891757822E+03  0.83082110490E+03  0.87062908755E+03  0.10100000352E+00 0. -1.
</event>
<event>
 5   0  0.5755078E-02  0.6015564E+03  0.7818609E-02  0.9902182E-01
       -2   -1    0    0    0  501  0.00000000000E+00  0.00000000000E+00  0.10924526148E+03  0.10924526151E+03  0.25500000920E-02 0. -1.
        2   -1    0    0  501    0  0.00000000000E+00  0.00000000000E+00 -0.82811405595E+03  0.82811405595E+03  0.25500000920E-02 0.  1.
    10030    2    1    2    0    0  0.00000000000E+00  0.00000000000E+00 -0.71886879447E+03  0.93735931746E+03  0.60155643657E+03 0.  0.
        2    1    3    3  502    0  0.27586025395E+03  0.39417414566E+02 -0.18303879828E+03  0.33340038086E+03  0.25500000920E-02 0. -1.
       -2    1    3    3    0  502 -0.27586025395E+03 -0.39417414566E+02 -0.53582999619E+03  0.60395893660E+03  0.25500000920E-02 0.  1.
</event>
<event>
 5   0  0.3703280E-02  0.5951783E+03  0.7818609E-02  0.9915460E-01
        1   -1    0    0  501    0  0.00000000000E+00  0.00000000000E+00  0.54383983899E+03  0.54383983902E+03  0.50400001928E-02 0. -1.
       -1   -1    0    0    0  501  0.00000000000E+00  0.00000000000E+00 -0.16284076480E+03  0.16284076488E+03  0.50400001928E-02 0.  1.
    10030    2    1    2    0    0  0.00000000000E+00  0.00000000000E+00  0.38099907419E+03  0.70668060390E+03  0.59517827698E+03 0.  0.
        5    1    3    3  502    0 -0.14111253635E+03 -0.49910999687E+02  0.49584140602E+03  0.51796201186E+03  0.46999998093E+01 0. -1.
       -5    1    3    3    0  502  0.14111253635E+03  0.49910999687E+02 -0.11484233183E+03  0.18871859204E+03  0.46999998093E+01 0.  1.
</event>
<event>
 5   0  0.3767635E-02  0.5884869E+03  0.7818609E-02  0.9929584E-01
       -1   -1    0    0    0  501  0.00000000000E+00  0.00000000000E+00  0.20274682453E+03  0.20274682459E+03  0.50400001928E-02 0. -1.
        1   -1    0    0  501    0  0.00000000000E+00  0.00000000000E+00 -0.42703117665E+03  0.42703117668E+03  0.50400001928E-02 0.  1.
    10030    2    1    2    0    0  0.00000000000E+00  0.00000000000E+00 -0.22428435212E+03  0.62977800128E+03  0.58848692448E+03 0.  0.
        2    1    3    3  502    0  0.13976877992E+03 -0.17220824610E+01  0.16494773192E+03  0.21620830623E+03  0.25500000920E-02 0. -1.
       -2    1    3    3    0  502 -0.13976877992E+03  0.17220824610E+01 -0.38923208405E+03  0.41356969505E+03  0.25500000920E-02 0.  1.
</event>
<event>
 5   0  0.5755078E-02  0.5912217E+03  0.7818609E-02  0.9923788E-01
        2   -1    0    0  501    0  0.00000000000E+00  0.00000000000E+00  0.17433702545E+04  0.17433702545E+04  0.25500000920E-02 0. -1.
       -2   -1    0    0    0  501  0.00000000000E+00  0.00000000000E+00 -0.50124616268E+02  0.50124616333E+02  0.25500000920E-02 0.  1.
    10030    2    1    2    0    0  0.00000000000E+00  0.00000000000E+00  0.16932456382E+04  0.17934948708E+04  0.59122166766E+03 0.  0.
        2    1    3    3  502    0  0.13891025890E+03  0.17820026596E+03  0.26838217376E+03  0.35082814314E+03  0.25500000920E-02 0.  1.
       -2    1    3    3    0  502 -0.13891025890E+03 -0.17820026596E+03  0.14248634644E+04  0.14426667277E+04  0.25500000920E-02 0. -1.
</event>
<event>
 5   0  0.3640827E-02  0.5949620E+03  0.7818609E-02  0.9915914E-01
        1   -1    0    0  501    0  0.00000000000E+00  0.00000000000E+00  0.46183952572E+03  0.46183952575E+03  0.50400001928E-02 0.  1.
       -1   -1    0    0    0  501  0.00000000000E+00  0.00000000000E+00 -0.19161402977E+03  0.19161402984E+03  0.50400001928E-02 0. -1.
    10030    2    1    2    0    0  0.00000000000E+00  0.00000000000E+00  0.27022549595E+03  0.65345355559E+03  0.59496195731E+03 0.  0.
        3    1    3    3  502    0  0.10942560971E+03 -0.80679360648E+02  0.42572314470E+03  0.44690416134E+03  0.10100000352E+00 0.  1.
       -3    1    3    3    0  502 -0.10942560971E+03  0.80679360648E+02 -0.15549764875E+03  0.20654939424E+03  0.10100000352E+00 0. -1.
</event>
<event>
 5   0  0.3640827E-02  0.5981634E+03  0.7818609E-02  0.9909224E-01
       -1   -1    0    0    0  501  0.00000000000E+00  0.00000000000E+00  0.34417648700E+03  0.34417648703E+03  0.50400001928E-02 0. -1.
        1   -1    0    0  501    0  0.00000000000E+00  0.00000000000E+00 -0.25989536494E+03  0.25989536499E+03  0.50400001928E-02 0.  1.
    10030    2    1    2    0    0  0.00000000000E+00  0.00000000000E+00  0.84281122058E+02  0.60407185202E+03  0.59816343491E+03 0.  0.
        3    1    3    3  502    0  0.23477646107E+03 -0.14198538602E+03  0.16235429213E+03  0.31880834821E+03  0.10100000352E+00 0. -1.
       -3    1    3    3    0  502 -0.23477646107E+03  0.14198538602E+03 -0.78073170071E+02  0.28526350381E+03  0.10100000352E+00 0.  1.
</event>
<event>
 5   0  0.3640827E-02  0.6015974E+03  0.7818609E-02  0.9902098E-01
        1   -1    0    0  501    0  0.00000000000E+00  0.00000000000E+00  0.45375445819E+03  0.45375445822E+03  0.50400001928E-02 0. -1.
       -1   -1    0    0    0  501  0.00000000000E+00  0.00000000000E+00 -0.19940267603E+03  0.19940267609E+03  0.50400001928E-02 0.  1.
    10030    2    1    2    0    0  0.00000000000E+00  0.00000000000E+00  0.25435178216E+03  0.65315713431E+03  0.60159738447E+03 0.  0.
        3    1    3    3  502    0 -0.13462694445E+03 -0.90628007656E+02 -0.14779261928E+03  0.21950061152E+03  0.10100000352E+00 0.  1.
       -3    1    3    3    0  502  0.13462694445E+03  0.90628007656E+02  0.40214440144E+03  0.43365652279E+03  0.10100000352E+00 0. -1.
</event>
<event>
 5   0  0.2388000E-02  0.6001683E+03  0.7818609E-02  0.9905057E-01
       -4   -1    0    0    0  501  0.00000000000E+00  0.00000000000E+00  0.38037382033E+03  0.38037594047E+03  0.12699999809E+01 0.  1.
        4   -1    0    0  501    0  0.00000000000E+00  0.00000000000E+00 -0.23673758925E+03  0.23674099574E+03  0.12699999809E+01 0. -1.
    10030    2    1    2    0    0  0.00000000000E+00  0.00000000000E+00  0.14363623107E+03  0.61711693622E+03  0.60016826481E+03 0.  0.
        5    1    3    3  502    0  0.99790427282E+02 -0.28282538391E+03  0.81018958530E+02  0.31069999807E+03  0.46999998093E+01 0.  1.
       -5    1    3    3    0  502 -0.99790427282E+02  0.28282538391E+03  0.62617272544E+02  0.30641693814E+03  0.46999998093E+01 0. -1.
</event>
<event>
 5   0  0.5999117E-02  0.6006312E+03  0.7818609E-02  0.9904097E-01
        2   -1    0    0  501    0  0.00000000000E+00  0.00000000000E+00  0.78348327782E+03  0.78348327783E+03  0.25500000920E-02 0.  1.
       -2   -1    0    0    0  501  0.00000000000E+00  0.00000000000E+00 -0.11511342779E+03  0.11511342782E+03  0.25500000920E-02 0. -1.
    10030    2    1    2    0    0  0.00000000000E+00  0.00000000000E+00  0.66836985003E+03  0.89859670565E+03  0.60063115384E+03 0.  0.
        5    1    3    3  502    0  0.52192002624E+02 -0.15805577229E+03  0.70809222915E+03  0.72740795107E+03  0.46999998093E+01 0.  1.
       -5    1    3    3    0  502 -0.52192002624E+02  0.15805577229E+03 -0.39722379122E+02  0.17118875458E+03  0.46999998093E+01 0. -1.
</event>
<event>
 5   0  0.3478183E-02  0.5990920E+03  0.7818609E-02  0.9907292E-01
       -1   -1    0    0    0  501  0.00000000000E+00  0.00000000000E+00  0.33857744021E+03  0.33857744025E+03  0.50400001928E-02 0. -1.
        1   -1    0    0  501    0  0.00000000000E+00  0.00000000000E+00 -0.26501408830E+03  0.26501408834E+03  0.50400001928E-02 0.  1.
    10030    2    1    2    0    0  0.00000000000E+00  0.00000000000E+00  0.73563351919E+02  0.60359152859E+03  0.59909195175E+03 0.  0.
        4    1    3    3  502    0 -0.24480155867E+03  0.17175317897E+03  0.19353746497E+02  0.29967171708E+03  0.12699999809E+01 0.  1.
       -4    1    3    3    0  502  0.24480155867E+03 -0.17175317897E+03  0.54209605422E+02  0.30391981152E+03  0.12699999809E+01 0. -1.
</event>
<event>
 5   0  0.3640827E-02  0.5897855E+03  0.7818609E-02  0.9926828E-01
       -1   -1    0    0    0  501  0.00000000000E+00  0.00000000000E+00  0.32639032742E+03  0.32639032746E+03  0.50400001928E-02 0. -1.
        1   -1    0    0  501    0  0.00000000000E+00  0.00000000000E+00 -0.26643473218E+03  0.26643473222E+03  0.50400001928E-02 0.  1.
    10030    2    1    2    0    0  0.00000000000E+00  0.00000000000E+00  0.59955595248E+02  0.59282505969E+03  0.58978545081E+03 0.  0.
        3    1    3    3  502    0 -0.26017765054E+03 -0.11811087153E+03 -0.43330385063E+02  0.28899847799E+03  0.10100000352E+00 0.  1.
       -3    1    3    3    0  502  0.26017765054E+03  0.11811087153E+03  0.10328598031E+03  0.30382658169E+03  0.10100000352E+00 0. -1.
</event>
<event>
 5   0  0.2388000E-02  0.5322453E+03  0.7818609E-02  0.1005689E+00
        3   -1    0    0  501    0  0.00000000000E+00  0.00000000000E+00  0.12648395663E+03  0.12648399696E+03  0.10100000352E+00 0. -1.
       -3   -1    0    0    0  501  0.00000000000E+00  0.00000000000E+00 -0.55992280425E+03  0.55992281336E+03  0.10100000352E+00 0.  1.
    10030    2    1    2    0    0  0.00000000000E+00  0.00000000000E+00 -0.43343884761E+03  0.68640681032E+03  0.53224531433E+03 0.  0.
        5    1    3    3  502    0  0.25928747353E+03 -0.59701804416E+02 -0.21956812954E+03  0.34500225055E+03  0.46999998093E+01 0. -1.
       -5    1    3    3    0  502 -0.25928747353E+03  0.59701804416E+02 -0.21387071807E+03  0.34140455976E+03  0.46999998093E+01 0.  1.
</event>
<event>
 5   0  0.5755078E-02  0.5992880E+03  0.7818609E-02  0.9906884E-01
       -2   -1    0    0    0  501  0.00000000000E+00  0.00000000000E+00  0.73120068305E+02  0.73120068350E+02  0.25500000920E-02 0.  1.
        2   -1    0    0  501    0  0.00000000000E+00  0.00000000000E+00 -0.12279328287E+04  0.12279328287E+04  0.25500000920E-02 0. -1.
    10030    2    1    2    0    0  0.00000000000E+00  0.00000000000E+00 -0.11548127604E+04  0.13010528971E+04  0.59928801870E+03 0.  0.
        2    1    3    3  502    0  0.27677635005E+03  0.15744909346E+02 -0.33050865184E+03  0.43138036471E+03  0.25500000920E-02 0.  1.
       -2    1    3    3    0  502 -0.27677635005E+03 -0.15744909346E+02 -0.82430410856E+03  0.86967253235E+03  0.25500000920E-02 0. -1.
</event>
<event>
 5   0  0.2388000E-02  0.5951466E+03  0.7818609E-02  0.9915527E-01
       -4   -1    0    0    0  501  0.00000000000E+00  0.00000000000E+00  0.28738921780E+03  0.28739202391E+03  0.12699999809E+01 0. -1.
        4   -1    0    0  501    0  0.00000000000E+00  0.00000000000E+00 -0.30811269319E+03  0.30811531057E+03  0.12699999809E+01 0.  1.
    10030    2    1    2    0    0  0.00000000000E+00  0.00000000000E+00 -0.20723475395E+02  0.59550733448E+03  0.59514663990E+03 0.  0.
        1    1    3    3  502    0  0.16455787581E+03  0.24742613820E+03  0.54874442580E+01  0.29720212049E+03  0.50400001928E-02 0.  1.
       -1    1    3    3    0  502 -0.16455787581E+03 -0.24742613820E+03 -0.26210919653E+02  0.29830521399E+03  0.50400001928E-02 0. -1.
</event>
<event>
 5   0  0.5999117E-02  0.6031611E+03  0.7818609E-02  0.9898869E-01
       -2   -1    0    0    0  501  0.00000000000E+00  0.00000000000E+00  0.83381882450E+02  0.83381882489E+02  0.25500000920E-02 0.  1.
        2   -1    0    0  501    0  0.00000000000E+00  0.00000000000E+00 -0.10907745907E+04  0.10907745907E+04  0.25500000920E-02 0. -1.
    10030    2    1    2    0    0  0.00000000000E+00  0.00000000000E+00 -0.10073927082E+04  0.11741564732E+04  0.60316113510E+03 0.  0.
        5    1    3    3  502    0 -0.70965148224E+02  0.29202708262E+03 -0.55188893311E+03  0.62842609250E+03  0.46999998093E+01 0. -1.
       -5    1    3    3    0  502  0.70965148224E+02 -0.29202708262E+03 -0.45550377513E+03  0.54573038068E+03  0.46999998093E+01 0.  1.
</event>
<event>
 5   0  0.3651984E-02  0.6774145E+03  0.7818609E-02  0.9756655E-01
        1   -1    0    0  501    0  0.00000000000E+00  0.00000000000E+00  0.27514806924E+03  0.27514806929E+03  0.50400001928E-02 0. -1.
       -1   -1    0    0    0  501  0.00000000000E+00  0.00000000000E+00 -0.41694863104E+03  0.41694863107E+03  0.50400001928E-02 0.  1.
    10030    2    1    2    0    0  0.00000000000E+00  0.00000000000E+00 -0.14180056180E+03  0.69209670036E+03  0.67741452843E+03 0.  0.
        1    1    3    3  502    0  0.20909057423E+03 -0.21920426205E+03  0.83886623503E+02  0.31433476162E+03  0.50400001928E-02 0. -1.
       -1    1    3    3    0  502 -0.20909057423E+03  0.21920426205E+03 -0.22568718530E+03  0.37776193875E+03  0.50400001928E-02 0.  1.
</event>
<event>
 5   0  0.5935451E-02  0.5961429E+03  0.7818609E-02  0.9913441E-01
       -2   -1    0    0    0  501  0.00000000000E+00  0.00000000000E+00  0.19697710670E+03  0.19697710671E+03  0.25500000920E-02 0. -1.
        2   -1    0    0  501    0  0.00000000000E+00  0.00000000000E+00 -0.45105027154E+03  0.45105027155E+03  0.25500000920E-02 0.  1.
    10030    2    1    2    0    0  0.00000000000E+00  0.00000000000E+00 -0.25407316485E+03  0.64802737827E+03  0.59614286030E+03 0.  0.
        3    1    3    3  502    0 -0.20746039950E+03 -0.92593121886E+02 -0.33678976575E+03  0.40625196627E+03  0.10100000352E+00 0.  1.
       -3    1    3    3    0  502  0.20746039950E+03  0.92593121886E+02  0.82716600900E+02  0.24177541200E+03  0.10100000352E+00 0. -1.
</event>
<event>
 5   0  0.5999117E-02  0.5894362E+03  0.7818609E-02  0.9927568E-01
       -2   -1    0    0    0  501  0.00000000000E+00  0.00000000000E+00  0.48303806816E+02  0.48303806883E+02  0.25500000920E-02 0.  1.
        2   -1    0    0  501    0  0.00000000000E+00  0.00000000000E+00 -0.17981759829E+04  0.17981759829E+04  0.25500000920E-02 0. -1.
    10030    2    1    2    0    0  0.00000000000E+00  0.00000000000E+00 -0.17498721761E+04  0.18464797898E+04  0.58943615553E+03 0.  0.
        5    1    3    3  502    0 -0.20364735853E+03  0.54078037477E+01 -0.15419353976E+04  0.15553418760E+04  0.46999998093E+01 0. -1.
       -5    1    3    3    0  502  0.20364735853E+03 -0.54078037477E+01 -0.20793677847E+03  0.29113791374E+03  0.46999998093E+01 0.  1.
</event>
<event>
 5   0  0.3651984E-02  0.5914542E+03  0.7818609E-02  0.9923296E-01
       -1   -1    0    0    0  501  0.00000000000E+00  0.00000000000E+00  0.80092570343E+02  0.80092570501E+02  0.50400001928E-02 0. -1.
        1   -1    0    0  501    0  0.00000000000E+00  0.00000000000E+00 -0.10919180887E+04  0.10919180887E+04  0.50400001928E-02 0.  1.
    10030    2    1    2    0    0  0.00000000000E+00  0.00000000000E+00 -0.10118255184E+04  0.11720106592E+04  0.59145422960E+03 0.  0.
        1    1    3    3  502    0 -0.12914551079E+03  0.60861867740E+02 -0.10191053636E+04  0.10290570791E+04  0.50400001928E-02 0.  1.
       -1    1    3    3    0  502  0.12914551079E+03 -0.60861867740E+02  0.72798452196E+01  0.14295358014E+03  0.50400001928E-02 0. -1.
</event>
<event>
 5   0  0.5755078E-02  0.6014123E+03  0.7818609E-02  0.9902480E-01
        2   -1    0    0  501    0  0.00000000000E+00  0.00000000000E+00  0.87490584236E+03  0.87490584237E+03  0.25500000920E-02 0.  1.
       -2   -1    0    0    0  501  0.00000000000E+00  0.00000000000E+00 -0.10335303552E+03  0.10335303555E+03  0.25500000920E-02 0. -1.
    10030    2    1    2    0    0  0.00000000000E+00  0.00000000000E+00  0.77155280684E+03  0.97825887792E+03  0.60141225335E+03 0.  0.
        2    1    3    3  502    0 -0.10104831657E+03  0.20892145393E+03  0.69681603611E+03  0.73444640675E+03  0.25500000920E-02 0.  1.
       -2    1    3    3    0  502  0.10104831657E+03 -0.20892145393E+03  0.74736770731E+02  0.24381247117E+03  0.25500000920E-02 0. -1.
</event>
<event>
 5   0  0.5999117E-02  0.6091552E+03  0.7818609E-02  0.9886592E-01
        2   -1    0    0  501    0  0.00000000000E+00  0.00000000000E+00  0.88404957918E+03  0.88404957918E+03  0.25500000920E-02 0. -1.
       -2   -1    0    0    0  501  0.00000000000E+00  0.00000000000E+00 -0.10493475635E+03  0.10493475639E+03  0.25500000920E-02 0.  1.
    10030    2    1    2    0    0  0.00000000000E+00  0.00000000000E+00  0.77911482282E+03  0.98898433557E+03  0.60915524200E+03 0.  0.
        5    1    3    3  502    0 -0.60885980702E+02  0.66573238135E+02 -0.82682705179E+02  0.12246476398E+03  0.46999998093E+01 0.  1.
       -5    1    3    3    0  502  0.60885980702E+02 -0.66573238135E+02  0.86179752800E+03  0.86651957159E+03  0.46999998093E+01 0. -1.
</event>
<event>
 5   0  0.3767635E-02  0.5991069E+03  0.7818609E-02  0.9907261E-01
        1   -1    0    0  501    0  0.00000000000E+00  0.00000000000E+00  0.85409294489E+03  0.85409294491E+03  0.50400001928E-02 0.  1.
       -1   -1    0    0    0  501  0.00000000000E+00  0.00000000000E+00 -0.10506147270E+03  0.10506147282E+03  0.50400001928E-02 0. -1.
    10030    2    1    2    0    0  0.00000000000E+00  0.00000000000E+00  0.74903147220E+03  0.95915441773E+03  0.59910687753E+03 0.  0.
        2    1    3    3  502    0  0.11574886480E+03  0.17412915388E+03  0.71793674853E+03  0.74776462663E+03  0.25500000920E-02 0.  1.
       -2    1    3    3    0  502 -0.11574886480E+03 -0.17412915388E+03  0.31094723668E+02  0.21138979110E+03  0.25500000920E-02 0. -1.
</event>
<event>
 5   0  0.5999117E-02  0.5973450E+03  0.7818609E-02  0.9910930E-01
       -2   -1    0    0    0  501  0.00000000000E+00  0.00000000000E+00  0.58793895664E+02  0.58793895719E+02  0.25500000920E-02 0.  1.
        2   -1    0    0  501    0  0.00000000000E+00  0.00000000000E+00 -0.15172537214E+04  0.15172537214E+04  0.25500000920E-02 0. -1.
    10030    2    1    2    0    0  0.00000000000E+00  0.00000000000E+00 -0.14584598257E+04  0.15760476171E+04  0.59734498252E+03 0.  0.
        5    1    3    3  502    0  0.29080784242E+02 -0.83671459499E+02 -0.14816961532E+04  0.14843490780E+04  0.46999998093E+01 0. -1.
       -5    1    3    3    0  502 -0.29080784242E+02  0.83671459499E+02  0.23236327489E+02  0.91698539030E+02  0.46999998093E+01 0.  1.
</event>
<event>
 5   0  0.3478183E-02  0.5977063E+03  0.7818609E-02  0.9910176E-01
        1   -1    0    0  501    0  0.00000000000E+00  0.00000000000E+00  0.47599043977E+03  0.47599043979E+03  0.50400001928E-02 0. -1.
       -1   -1    0    0    0  501  0.00000000000E+00  0.00000000000E+00 -0.18763653262E+03  0.18763653268E+03  0.50400001928E-02 0.  1.
    10030    2    1    2    0    0  0.00000000000E+00  0.00000000000E+00  0.28835390715E+03  0.66362697248E+03  0.59770626802E+03 0.  0.
        4    1    3    3  502    0 -0.20609228056E+03 -0.11580722008E+03  0.34716945655E+03  0.42001617206E+03  0.12699999809E+01 0.  1.
       -4    1    3    3    0  502  0.20609228056E+03  0.11580722008E+03 -0.58815549404E+02  0.24361080042E+03  0.12699999809E+01 0. -1.
</event>
<event>
 5   0  0.3703280E-02  0.6092112E+03  0.7818609E-02  0.9886478E-01
       -1   -1    0    0    0  501  0.00000000000E+00  0.00000000000E+00  0.57440764194E+03  0.57440764196E+03  0.50400001928E-02 0. -1.
        1   -1    0    0  501    0  0.00000000000E+00  0.00000000000E+00 -0.16153085290E+03  0.16153085298E+03  0.50400001928E-02 0.  1.
    10030    2    1    2    0    0  0.00000000000E+00  0.00000000000E+00  0.41287678904E+03  0.73593849494E+03  0.60921115010E+03 0.  0.
        5    1    3    3  502    0 -0.13489814031E+03 -0.64228708125E+02  0.52705219594E+03  0.54784025267E+03  0.46999998093E+01 0. -1.
       -5    1    3    3    0  502  0.13489814031E+03  0.64228708125E+02 -0.11417540690E+03  0.18809824227E+03  0.46999998093E+01 0.  1.
</event>
<event>
 5   0  0.3703280E-02  0.5999237E+03  0.7818609E-02  0.9905564E-01
        1   -1    0    0  501    0  0.00000000000E+00  0.00000000000E+00  0.32549324147E+03  0.32549324151E+03  0.50400001928E-02 0. -1.
       -1   -1    0    0    0  501  0.00000000000E+00  0.00000000000E+00 -0.27643314618E+03  0.27643314622E+03  0.50400001928E-02 0.  1.
    10030    2    1    2    0    0  0.00000000000E+00  0.00000000000E+00  0.49060095295E+02  0.60192638773E+03  0.59992373123E+03 0.  0.
        5    1    3    3  502    0  0.29722336356E+03  0.38131907773E+02  0.37192024048E+02  0.30199521004E+03  0.46999998093E+01 0. -1.
       -5    1    3    3    0  502 -0.29722336356E+03 -0.38131907773E+02  0.11868071247E+02  0.29993117769E+03  0.46999998093E+01 0.  1.
</event>
<event>
 5   0  0.3703280E-02  0.5945124E+03  0.7818609E-02  0.9916857E-01
        1   -1    0    0  501    0  0.00000000000E+00  0.00000000000E+00  0.28595803381E+03  0.28595803385E+03  0.50400001928E-02 0. -1.
       -1   -1    0    0    0  501  0.00000000000E+00  0.00000000000E+00 -0.30900071551E+03  0.30900071555E+03  0.50400001928E-02 0.  1.
    10030    2    1    2    0    0  0.00000000000E+00  0.00000000000E+00 -0.23042681707E+02  0.59495874941E+03  0.59451236178E+03 0.  0.
        5    1    3    3  502    0  0.21888637701E+03 -0.12452965274E+03  0.14645873155E+03  0.29136082526E+03  0.46999998093E+01 0. -1.
       -5    1    3    3    0  502 -0.21888637701E+03  0.12452965274E+03 -0.16950141326E+03  0.30359792415E+03  0.46999998093E+01 0.  1.
</event>
<event>
 5   0  0.5935451E-02  0.5999772E+03  0.7818609E-02  0.9905453E-01
        2   -1    0    0  501    0  0.00000000000E+00  0.00000000000E+00  0.62280654534E+03  0.62280654534E+03  0.25500000920E-02 0.  1.
       -2   -1    0    0    0  501  0.00000000000E+00  0.00000000000E+00 -0.14449616604E+03  0.14449616606E+03  0.25500000920E-02 0. -1.
    10030    2    1    2    0    0  0.00000000000E+00  0.00000000000E+00  0.47831037930E+03  0.76730271140E+03  0.59997719288E+03 0.  0.
        3    1    3    3  502    0  0.26288016570E+03 -0.14353358942E+03  0.21755468800E+03  0.37018633859E+03  0.10100000352E+00 0. -1.
       -3    1    3    3    0  502 -0.26288016570E+03  0.14353358942E+03  0.26075569130E+03  0.39711637281E+03  0.10100000352E+00 0.  1.
</event>
<event>
 5   0  0.3640827E-02  0.6025258E+03  0.7818609E-02  0.9900180E-01
       -1   -1    0    0    0  501  0.00000000000E+00  0.00000000000E+00  0.35901770766E+03  0.35901770770E+03  0.50400001928E-02 0. -1.
        1   -1    0    0  501    0  0.00000000000E+00  0.00000000000E+00 -0.25279902509E+03  0.25279902514E+03  0.50400001928E-02 0.  1.
    10030    2    1    2    0    0  0.00000000000E+00  0.00000000000E+00  0.10621868258E+03  0.61181673284E+03  0.60252577211E+03 0.  0.
        3    1    3    3  502    0 -0.14671563022E+03 -0.14835543876E+03  0.27377229388E+03  0.34421808706E+03  0.10100000352E+00 0. -1.
       -3    1    3    3    0  502  0.14671563022E+03  0.14835543876E+03 -0.16755361131E+03  0.26759864578E+03  0.10100000352E+00 0.  1.
</event>
<event>
 5   0  0.3703280E-02  0.5974940E+03  0.7818609E-02  0.9910619E-01
        1   -1    0    0  501    0  0.00000000000E+00  0.00000000000E+00  0.17057864442E+03  0.17057864449E+03  0.50400001928E-02 0. -1.
       -1   -1    0    0    0  501  0.00000000000E+00  0.00000000000E+00 -0.52321775575E+03  0.52321775577E+03  0.50400001928E-02 0.  1.
    10030    2    1    2    0    0  0.00000000000E+00  0.00000000000E+00 -0.35263911133E+03  0.69379640027E+03  0.59749401853E+03 0.  0.
        5    1    3    3  502    0  0.15358819724E+03  0.33820954453E+02  0.11857027834E+03  0.19701317772E+03  0.46999998093E+01 0. -1.
       -5    1    3    3    0  502 -0.15358819724E+03 -0.33820954453E+02 -0.47120938967E+03  0.49678322254E+03  0.46999998093E+01 0.  1.
</event>
<event>
 5   0  0.5935451E-02  0.6026868E+03  0.7818609E-02  0.9899847E-01
        2   -1    0    0  501    0  0.00000000000E+00  0.00000000000E+00  0.71098156596E+03  0.71098156596E+03  0.25500000920E-02 0.  1.
       -2   -1    0    0    0  501  0.00000000000E+00  0.00000000000E+00 -0.12772181996E+03  0.12772181998E+03  0.25500000920E-02 0. -1.
    10030    2    1    2    0    0  0.00000000000E+00  0.00000000000E+00  0.58325974600E+03  0.83870338594E+03  0.60268684928E+03 0.  0.
        3    1    3    3  502    0  0.65636724213E+02  0.11336327933E+03 -0.86027917104E+02  0.15671702329E+03  0.10100000352E+00 0. -1.
       -3    1    3    3    0  502 -0.65636724213E+02 -0.11336327933E+03  0.66928766310E+03  0.68198636265E+03  0.10100000352E+00 0.  1.
</event>
<event>
 5   0  0.5872632E-02  0.5959612E+03  0.7818609E-02  0.9913821E-01
        2   -1    0    0  501    0  0.00000000000E+00  0.00000000000E+00  0.37227848040E+03  0.37227848041E+03  0.25500000920E-02 0. -1.
       -2   -1    0    0    0  501  0.00000000000E+00  0.00000000000E+00 -0.23851076523E+03  0.23851076525E+03  0.25500000920E-02 0.  1.
    10030    2    1    2    0    0  0.00000000000E+00  0.00000000000E+00  0.13376771517E+03  0.61078924565E+03  0.59596115728E+03 0.  0.
        1    1    3    3  502    0 -0.86613035321E+02 -0.32569508620E+02 -0.22341235843E+03  0.24181743673E+03  0.50400001928E-02 0.  1.
       -1    1    3    3    0  502  0.86613035321E+02  0.32569508620E+02  0.35718007360E+03  0.36897180893E+03  0.50400001928E-02 0. -1.
</event>
<event>
 5   0  0.6007360E-02  0.5928356E+03  0.7818609E-02  0.9920382E-01
        2   -1    0    0  501    0  0.00000000000E+00  0.00000000000E+00  0.83892167519E+03  0.83892167520E+03  0.25500000920E-02 0. -1.
       -2   -1    0    0    0  501  0.00000000000E+00  0.00000000000E+00 -0.10473387858E+03  0.10473387861E+03  0.25500000920E-02 0.  1.
    10030    2    1    2    0    0  0.00000000000E+00  0.00000000000E+00  0.73418779661E+03  0.94365555381E+03  0.59283562945E+03 0.  0.
        4    1    3    3  502    0  0.38624771379E+02  0.93494768745E+02 -0.76402949056E+02  0.12677605559E+03  0.12699999809E+01 0.  1.
       -4    1    3    3    0  502 -0.38624771379E+02 -0.93494768745E+02  0.81059074567E+03  0.81687949822E+03  0.12699999809E+01 0. -1.
</event>
<event>
 5   0  0.2388000E-02  0.5991066E+03  0.7818609E-02  0.9907261E-01
       -3   -1    0    0    0  501  0.00000000000E+00  0.00000000000E+00  0.11714119653E+03  0.11714124007E+03  0.10100000352E+00 0. -1.
        3   -1    0    0  501    0  0.00000000000E+00  0.00000000000E+00 -0.76601710295E+03  0.76601710960E+03  0.10100000352E+00 0.  1.
    10030    2    1    2    0    0  0.00000000000E+00  0.00000000000E+00 -0.64887590642E+03  0.88315834967E+03  0.59910660876E+03 0.  0.
        5    1    3    3  502    0  0.57130517852E+02 -0.11355143998E+03  0.75352573603E+02  0.14784426245E+03  0.46999998093E+01 0. -1.
       -5    1    3    3    0  502 -0.57130517852E+02  0.11355143998E+03 -0.72422848002E+03  0.73531408722E+03  0.46999998093E+01 0.  1.
</event>
<event>
 5   0  0.3767635E-02  0.6269791E+03  0.7818609E-02  0.9850962E-01
       -1   -1    0    0    0  501  0.00000000000E+00  0.00000000000E+00  0.18644627596E+03  0.18644627603E+03  0.50400001928E-02 0.  1.
        1   -1    0    0  501    0  0.00000000000E+00  0.00000000000E+00 -0.52709930432E+03  0.52709930434E+03  0.50400001928E-02 0. -1.
    10030    2    1    2    0    0  0.00000000000E+00  0.00000000000E+00 -0.34065302836E+03  0.71354558037E+03  0.62697911412E+03 0.  0.
        2    1    3    3  502    0  0.26241210118E+03 -0.17148370790E+03 -0.16692571315E+03  0.35514921742E+03  0.25500000920E-02 0.  1.
       -2    1    3    3    0  502 -0.26241210118E+03  0.17148370790E+03 -0.17372731521E+03  0.35839636295E+03  0.25500000920E-02 0. -1.
</event>
<event>
 5   0  0.5999117E-02  0.6352468E+03  0.7818609E-02  0.9834863E-01
       -2   -1    0    0    0  501  0.00000000000E+00  0.00000000000E+00  0.47639553187E+02  0.47639553255E+02  0.25500000920E-02 0. -1.
        2   -1    0    0  501    0  0.00000000000E+00  0.00000000000E+00 -0.21176655049E+04  0.21176655049E+04  0.25500000920E-02 0.  1.
    10030    2    1    2    0    0  0.00000000000E+00  0.00000000000E+00 -0.20700259517E+04  0.21653050582E+04  0.63524684503E+03 0.  0.
        5    1    3    3  502    0 -0.64060390003E+02  0.16283997438E+02  0.23816280528E+02  0.70414539381E+02  0.46999998093E+01 0. -1.
       -5    1    3    3    0  502  0.64060390003E+02 -0.16283997438E+02 -0.20938422323E+04  0.20948905188E+04  0.46999998093E+01 0.  1.
</event>
<event>
 5   0  0.3478183E-02  0.5981592E+03  0.7818609E-02  0.9909232E-01
        1   -1    0    0  501    0  0.00000000000E+00  0.00000000000E+00  0.76108700526E+03  0.76108700528E+03  0.50400001928E-02 0.  1.
       -1   -1    0    0    0  501  0.00000000000E+00  0.00000000000E+00 -0.11752744930E+03  0.11752744940E+03  0.50400001928E-02 0. -1.
    10030    2    1    2    0    0  0.00000000000E+00  0.00000000000E+00  0.64355955596E+03  0.87861445468E+03  0.59815922454E+03 0.  0.
        4    1    3    3  502    0 -0.36349891573E+02  0.27390938922E+03  0.48989465144E+03  0.56244648682E+03  0.12699999809E+01 0.  1.
       -4    1    3    3    0  502  0.36349891573E+02 -0.27390938922E+03  0.15366490452E+03  0.31616796786E+03  0.12699999809E+01 0. -1.
</event>
<event>
 5   0  0.5872632E-02  0.6064312E+03  0.7818609E-02  0.9892152E-01
        2   -1    0    0  501    0  0.00000000000E+00  0.00000000000E+00  0.62858341780E+03  0.62858341781E+03  0.25500000920E-02 0.  1.
       -2   -1    0    0    0  501  0.00000000000E+00  0.00000000000E+00 -0.14626493025E+03  0.14626493028E+03  0.25500000920E-02 0. -1.
    10030    2    1    2    0    0  0.00000000000E+00  0.00000000000E+00  0.48231848755E+03  0.77484834808E+03  0.60643123196E+03 0.  0.
        1    1    3    3  502    0 -0.71152321659E+02  0.19856512579E+03 -0.37163337890E+02  0.21417720646E+03  0.50400001928E-02 0. -1.
       -1    1    3    3    0  502  0.71152321659E+02 -0.19856512579E+03  0.51948182544E+03  0.56067114162E+03  0.50400001928E-02 0.  1.
</event>
<event>
 5   0  0.5999117E-02  0.5976442E+03  0.7818609E-02  0.9910306E-01
       -2   -1    0    0    0  501  0.00000000000E+00  0.00000000000E+00  0.15666402195E+03  0.15666402197E+03  0.25500000920E-02 0. -1.
        2   -1    0    0  501    0  0.00000000000E+00  0.00000000000E+00 -0.56997547429E+03  0.56997547430E+03  0.25500000920E-02 0.  1.
    10030    2    1    2    0    0  0.00000000000E+00  0.00000000000E+00 -0.41331145234E+03  0.72663949627E+03  0.59764420930E+03 0.  0.
        5    1    3    3  502    0 -0.19540601815E+03 -0.76253625767E+01  0.68002687402E+02  0.20709445569E+03  0.46999998093E+01 0. -1.
       -5    1    3    3    0  502  0.19540601815E+03  0.76253625767E+01 -0.48131413974E+03  0.51954504058E+03  0.46999998093E+01 0.  1.
</event>
<event>
 5   0  0.5755078E-02  0.5993303E+03  0.7818609E-02  0.9906796E-01
        2   -1    0    0  501    0  0.00000000000E+00  0.00000000000E+00  0.10071990020E+04  0.10071990020E+04  0.25500000920E-02 0. -1.
       -2   -1    0    0    0  501  0.00000000000E+00  0.00000000000E+00 -0.89157357102E+02  0.89157357138E+02  0.25500000920E-02 0.  1.
    10030    2    1    2    0    0  0.00000000000E+00  0.00000000000E+00  0.91804164487E+03  0.10963563591E+04  0.59933029662E+03 0.  0.
        2    1    3    3  502    0  0.14348969331E+03 -0.23012930209E+03  0.22582663889E+03  0.35291140334E+03  0.25500000920E-02 0.  1.
       -2    1    3    3    0  502 -0.14348969331E+03  0.23012930209E+03  0.69221500597E+03  0.74344495577E+03  0.25500000920E-02 0. -1.
</event>
<event>
 5   0  0.3651984E-02  0.5967554E+03  0.7818609E-02  0.9912160E-01
       -1   -1    0    0    0  501  0.00000000000E+00  0.00000000000E+00  0.48536331133E+03  0.48536331136E+03  0.50400001928E-02 0.  1.
        1   -1    0    0  501    0  0.00000000000E+00  0.00000000000E+00 -0.18342808180E+03  0.18342808187E+03  0.50400001928E-02 0. -1.
    10030    2    1    2    0    0  0.00000000000E+00  0.00000000000E+00  0.30193522953E+03  0.66879139323E+03  0.59675543134E+03 0.  0.
        1    1    3    3  502    0 -0.19256613630E+03 -0.22782364285E+03  0.15839584314E+03  0.33774927422E+03  0.50400001928E-02 0.  1.
       -1    1    3    3    0  502  0.19256613630E+03  0.22782364285E+03  0.14353938640E+03  0.33104211901E+03  0.50400001928E-02 0. -1.
</event>
<event>
 5   0  0.3478183E-02  0.6033657E+03  0.7818609E-02  0.9898448E-01
       -1   -1    0    0    0  501  0.00000000000E+00  0.00000000000E+00  0.20055922469E+03  0.20055922475E+03  0.50400001928E-02 0. -1.
        1   -1    0    0  501    0  0.00000000000E+00  0.00000000000E+00 -0.45379391492E+03  0.45379391495E+03  0.50400001928E-02 0.  1.
    10030    2    1    2    0    0  0.00000000000E+00  0.00000000000E+00 -0.25323469023E+03  0.65435313970E+03  0.60336574571E+03 0.  0.
        4    1    3    3  502    0  0.26470013906E+03  0.55452215567E+02  0.18357202751E+02  0.27107141425E+03  0.12699999809E+01 0. -1.
       -4    1    3    3    0  502 -0.26470013906E+03 -0.55452215567E+02 -0.27159189298E+03  0.38328172545E+03  0.12699999809E+01 0.  1.
</event>
<event>
 5   0  0.5755078E-02  0.6242579E+03  0.7818609E-02  0.9856319E-01
        2   -1    0    0  501    0  0.00000000000E+00  0.00000000000E+00  0.60256870488E+03  0.60256870489E+03  0.25500000920E-02 0. -1.
       -2   -1    0    0    0  501  0.00000000000E+00  0.00000000000E+00 -0.16168194222E+03  0.16168194224E+03  0.25500000920E-02 0.  1.
    10030    2    1    2    0    0  0.00000000000E+00  0.00000000000E+00  0.44088676266E+03  0.76425064713E+03  0.62425789074E+03 0.  0.
        2    1    3    3  502    0  0.30556362276E+03  0.80619148392E+01  0.14310810822E+03  0.33751155931E+03  0.25500000920E-02 0.  1.
       -2    1    3    3    0  502 -0.30556362276E+03 -0.80619148392E+01  0.29777865444E+03  0.42673908782E+03  0.25500000920E-02 0. -1.
</event>
<event>
 5   0  0.5999117E-02  0.5915143E+03  0.7818609E-02  0.9923169E-01
       -2   -1    0    0    0  501  0.00000000000E+00  0.00000000000E+00  0.10958360707E+03  0.10958360710E+03  0.25500000920E-02 0.  1.
        2   -1    0    0  501    0  0.00000000000E+00  0.00000000000E+00 -0.79822410811E+03  0.79822410811E+03  0.25500000920E-02 0. -1.
    10030    2    1    2    0    0  0.00000000000E+00  0.00000000000E+00 -0.68864050104E+03  0.90780771521E+03  0.59151425014E+03 0.  0.
        5    1    3    3  502    0  0.24128978461E+03 -0.32007693581E+02 -0.60206581773E+03  0.64942327606E+03  0.46999998093E+01 0. -1.
       -5    1    3    3    0  502 -0.24128978461E+03  0.32007693581E+02 -0.86574683304E+02  0.25838443915E+03  0.46999998093E+01 0.  1.
</event>
<event>
 5   0  0.3478183E-02  0.5910821E+03  0.7818609E-02  0.9924082E-01
       -1   -1    0    0    0  501  0.00000000000E+00  0.00000000000E+00  0.17740588282E+03  0.17740588290E+03  0.50400001928E-02 0.  1.
        1   -1    0    0  501    0  0.00000000000E+00  0.00000000000E+00 -0.49234287200E+03  0.49234287202E+03  0.50400001928E-02 0. -1.
    10030    2    1    2    0    0  0.00000000000E+00  0.00000000000E+00 -0.31493698917E+03  0.66974875492E+03  0.59108213267E+03 0.  0.
        4    1    3    3  502    0 -0.14103099064E+03  0.25891672669E+02 -0.45028554561E+03  0.47256619062E+03  0.12699999809E+01 0. -1.
       -4    1    3    3    0  502  0.14103099064E+03 -0.25891672669E+02  0.13534855643E+03  0.19718256430E+03  0.12699999809E+01 0.  1.
</event>
<event>
 5   0  0.3767635E-02  0.6039511E+03  0.7818609E-02  0.9897242E-01
       -1   -1    0    0    0  501  0.00000000000E+00  0.00000000000E+00  0.25197807161E+03  0.25197807166E+03  0.50400001928E-02 0.  1.
        1   -1    0    0  501    0  0.00000000000E+00  0.00000000000E+00 -0.36189357491E+03  0.36189357495E+03  0.50400001928E-02 0. -1.
    10030    2    1    2    0    0  0.00000000000E+00  0.00000000000E+00 -0.10991550330E+03  0.61387164660E+03  0.60395114094E+03 0.  0.
        2    1    3    3  502    0  0.77548490622E+02 -0.11911624923E+03  0.21585216018E+03  0.25844652114E+03  0.25500000920E-02 0.  1.
       -2    1    3    3    0  502 -0.77548490622E+02  0.11911624923E+03 -0.32576766349E+03  0.35542512546E+03  0.25500000920E-02 0. -1.
</event>
<event>
 5   0  0.2388000E-02  0.5754690E+03  0.7818609E-02  0.9957649E-01
        3   -1    0    0  501    0  0.00000000000E+00  0.00000000000E+00  0.14452688156E+03  0.14452691685E+03  0.10100000352E+00 0.  1.
       -3   -1    0    0    0  501  0.00000000000E+00  0.00000000000E+00 -0.57284248721E+03  0.57284249612E+03  0.10100000352E+00 0. -1.
    10030    2    1    2    0    0  0.00000000000E+00  0.00000000000E+00 -0.42831560565E+03  0.71736941297E+03  0.57546904054E+03 0.  0.
        1    1    3    3  502    0 -0.22375508195E+03 -0.31123172559E+02 -0.43630197282E+03  0.49131904103E+03  0.50400001928E-02 0. -1.
       -1    1    3    3    0  502  0.22375508195E+03  0.31123172559E+02  0.79863671639E+01  0.22605037194E+03  0.50400001928E-02 0.  1.
</event>
<event>
 5   0  0.6007360E-02  0.5982492E+03  0.7818609E-02  0.9909045E-01
        2   -1    0    0  501    0  0.00000000000E+00  0.00000000000E+00  0.10661739182E+04  0.10661739182E+04  0.25500000920E-02 0. -1.
       -2   -1    0    0    0  501  0.00000000000E+00  0.00000000000E+00 -0.83922063558E+02  0.83922063597E+02  0.25500000920E-02 0.  1.
    10030    2    1    2    0    0  0.00000000000E+00  0.00000000000E+00  0.98225185468E+03  0.11500959818E+04  0.59824916332E+03 0.  0.
        4    1    3    3  502    0 -0.82608178843E+02 -0.23430803227E+03  0.17088277001E+03  0.30154087482E+03  0.12699999809E+01 0.  1.
       -4    1    3    3    0  502  0.82608178843E+02  0.23430803227E+03  0.81136908467E+03  0.84855510702E+03  0.12699999809E+01 0. -1.
</event>
<event>
 5   0  0.3703280E-02  0.6027274E+03  0.7818609E-02  0.9899764E-01
        1   -1    0    0  501    0  0.00000000000E+00  0.00000000000E+00  0.62435475808E+03  0.62435475810E+03  0.50400001928E-02 0.  1.
       -1   -1    0    0    0  501  0.00000000000E+00  0.00000000000E+00 -0.14546229435E+03  0.14546229443E+03  0.50400001928E-02 0. -1.
    10030    2    1    2    0    0  0.00000000000E+00  0.00000000000E+00  0.47889246373E+03  0.76981705254E+03  0.60272738660E+03 0.  0.
        5    1    3    3  502    0  0.15367903988E+02 -0.22124717453E+03  0.49998556210E+03  0.54698641392E+03  0.46999998093E+01 0.  1.
       -5    1    3    3    0  502 -0.15367903988E+02  0.22124717453E+03 -0.21093098360E+02  0.22283063862E+03  0.46999998093E+01 0. -1.
</event>
<event>
 5   0  0.6007360E-02  0.5952966E+03  0.7818609E-02  0.9915212E-01
        2   -1    0    0  501    0  0.00000000000E+00  0.00000000000E+00  0.41845446806E+03  0.41845446806E+03  0.25500000920E-02 0. -1.
       -2   -1    0    0    0  501  0.00000000000E+00  0.00000000000E+00 -0.21171839396E+03  0.21171839398E+03  0.25500000920E-02 0.  1.
    10030    2    1    2    0    0  0.00000000000E+00  0.00000000000E+00  0.20673607409E+03  0.63017286204E+03  0.59529659139E+03 0.  0.
        4    1    3    3  502    0 -0.24710448056E+03  0.12526979890E+03  0.21855346333E+03  0.35287444802E+03  0.12699999809E+01 0. -1.
       -4    1    3    3    0  502  0.24710448056E+03 -0.12526979890E+03 -0.11817389240E+02  0.27729841402E+03  0.12699999809E+01 0.  1.
</event>
<event>
 5   0  0.6007360E-02  0.5871114E+03  0.7818609E-02  0.9932512E-01
        2   -1    0    0  501    0  0.00000000000E+00  0.00000000000E+00  0.13904282683E+03  0.13904282686E+03  0.25500000920E-02 0.  1.
       -2   -1    0    0    0  501  0.00000000000E+00  0.00000000000E+00 -0.61977280383E+03  0.61977280383E+03  0.25500000920E-02 0. -1.
    10030    2    1    2    0    0  0.00000000000E+00  0.00000000000E+00 -0.48072997700E+03  0.75881563069E+03  0.58711144649E+03 0.  0.
        4    1    3    3  502    0  0.23093665414E+02  0.24456100525E+03 -0.44808458910E+03  0.51100373243E+03  0.12699999809E+01 0. -1.
       -4    1    3    3    0  502 -0.23093665414E+02 -0.24456100525E+03 -0.32645387900E+02  0.24781189826E+03  0.12699999809E+01 0.  1.
</event>
<event>
 5   0  0.5935451E-02  0.6005551E+03  0.7818609E-02  0.9904255E-01
        2   -1    0    0  501    0  0.00000000000E+00  0.00000000000E+00  0.52617473319E+03  0.52617473320E+03  0.25500000920E-02 0.  1.
       -2   -1    0    0    0  501  0.00000000000E+00  0.00000000000E+00 -0.17136247515E+03  0.17136247517E+03  0.25500000920E-02 0. -1.
    10030    2    1    2    0    0  0.00000000000E+00  0.00000000000E+00  0.35481225804E+03  0.69753720836E+03  0.60055509206E+03 0.  0.
        3    1    3    3  502    0  0.10349862044E+03  0.23015196622E+02 -0.14889729421E+03  0.18278971014E+03  0.10100000352E+00 0. -1.
       -3    1    3    3    0  502 -0.10349862044E+03 -0.23015196622E+02  0.50370955225E+03  0.51474749823E+03  0.10100000352E+00 0.  1.
</event>
<event>
 5   0  0.3767635E-02  0.5989541E+03  0.7818609E-02  0.9907578E-01
       -1   -1    0    0    0  501  0.00000000000E+00  0.00000000000E+00  0.16324374173E+03  0.16324374181E+03  0.50400001928E-02 0.  1.
        1   -1    0    0  501    0  0.00000000000E+00  0.00000000000E+00 -0.54940245924E+03  0.54940245926E+03  0.50400001928E-02 0. -1.
    10030    2    1    2    0    0  0.00000000000E+00  0.00000000000E+00 -0.38615871751E+03  0.71264620107E+03  0.59895413246E+03 0.  0.
        2    1    3    3  502    0 -0.54833982262E+02  0.18217463537E+03  0.82106070517E+02  0.20720948387E+03  0.25500000920E-02 0.  1.
       -2    1    3    3    0  502  0.54833982262E+02 -0.18217463537E+03 -0.46826478803E+03  0.50543671720E+03  0.25500000920E-02 0. -1.
</event>
<event>
 5   0  0.3478183E-02  0.5948338E+03  0.7818609E-02  0.9916183E-01
       -1   -1    0    0    0  501  0.00000000000E+00  0.00000000000E+00  0.88621394621E+02  0.88621394764E+02  0.50400001928E-02 0. -1.
        1   -1    0    0  501    0  0.00000000000E+00  0.00000000000E+00 -0.99814281450E+03  0.99814281451E+03  0.50400001928E-02 0.  1.
    10030    2    1    2    0    0  0.00000000000E+00  0.00000000000E+00 -0.90952141988E+03  0.10867642093E+04  0.59483378632E+03 0.  0.
        4    1    3    3  502    0  0.26820679612E+03  0.70132058726E+02 -0.65155045653E+03  0.70807697424E+03  0.12699999809E+01 0.  1.
       -4    1    3    3    0  502 -0.26820679612E+03 -0.70132058726E+02 -0.25797096334E+03  0.37868723503E+03  0.12699999809E+01 0. -1.
</event>
<event>
 5   0  0.3703280E-02  0.5858570E+03  0.7818609E-02  0.9935191E-01
        1   -1    0    0  501    0  0.00000000000E+00  0.00000000000E+00  0.60919509502E+03  0.60919509504E+03  0.50400001928E-02 0.  1.
       -1   -1    0    0    0  501  0.00000000000E+00  0.00000000000E+00 -0.14085326214E+03  0.14085326223E+03  0.50400001928E-02 0. -1.
    10030    2    1    2    0    0  0.00000000000E+00  0.00000000000E+00  0.46834183288E+03  0.75004835727E+03  0.58585703530E+03 0.  0.
        5    1    3    3  502    0  0.86814429774E+02  0.19062007727E+03 -0.27929790712E+02  0.21136443003E+03  0.46999998093E+01 0. -1.
       -5    1    3    3    0  502 -0.86814429774E+02 -0.19062007727E+03  0.49627162360E+03  0.53868392724E+03  0.46999998093E+01 0.  1.
</event>
<event>
 5   0  0.5872632E-02  0.6024866E+03  0.7818609E-02  0.9900261E-01
        2   -1    0    0  501    0  0.00000000000E+00  0.00000000000E+00  0.82198930218E+03  0.82198930218E+03  0.25500000920E-02 0.  1.
       -2   -1    0    0    0  501  0.00000000000E+00  0.00000000000E+00 -0.11039987904E+03  0.11039987907E+03  0.25500000920E-02 0. -1.
    10030    2    1    2    0    0  0.00000000000E+00  0.00000000000E+00  0.71158942314E+03  0.93238918125E+03  0.60248657926E+03 0.  0.
        1    1    3    3  502    0  0.12100954061E+03 -0.27038292481E+03  0.27106927063E+03  0.40153304279E+03  0.50400001928E-02 0. -1.
       -1    1    3    3    0  502 -0.12100954061E+03  0.27038292481E+03  0.44052015251E+03  0.53085613846E+03  0.50400001928E-02 0.  1.
</event>
<event>
 5   0  0.5999117E-02  0.6013719E+03  0.7818609E-02  0.9902564E-01
        2   -1    0    0  501    0  0.00000000000E+00  0.00000000000E+00  0.86393803298E+03  0.86393803298E+03  0.25500000920E-02 0.  1.
       -2   -1    0    0    0  501  0.00000000000E+00  0.00000000000E+00 -0.10465108371E+03  0.10465108374E+03  0.25500000920E-02 0. -1.
    10030    2    1    2    0    0  0.00000000000E+00  0.00000000000E+00  0.75928694926E+03  0.96858911672E+03  0.60137193625E+03 0.  0.
        5    1    3    3  502    0  0.16557090535E+03 -0.24024554172E+03  0.49643727371E+03  0.57585041611E+03  0.46999998093E+01 0.  1.
       -5    1    3    3    0  502 -0.16557090535E+03  0.24024554172E+03  0.26284967556E+03  0.39273870061E+03  0.46999998093E+01 0. -1.
</event>
<event>
 5   0  0.6007360E-02  0.5969267E+03  0.7818609E-02  0.9911803E-01
        2   -1    0    0  501    0  0.00000000000E+00  0.00000000000E+00  0.15888531594E+04  0.15888531594E+04  0.25500000920E-02 0.  1.
       -2   -1    0    0    0  501  0.00000000000E+00  0.00000000000E+00 -0.56065825839E+02  0.56065825897E+02  0.25500000920E-02 0. -1.
    10030    2    1    2    0    0  0.00000000000E+00  0.00000000000E+00  0.15327873335E+04  0.16449189853E+04  0.59692667746E+03 0.  0.
        4    1    3    3  502    0  0.17003864359E+03 -0.14298949005E+03  0.13155880048E+04  0.13342160791E+04  0.12699999809E+01 0.  1.
       -4    1    3    3    0  502 -0.17003864359E+03  0.14298949005E+03  0.21719932878E+03  0.31070290617E+03  0.12699999809E+01 0. -1.
</event>
<event>
 5   0  0.3703280E-02  0.5973511E+03  0.7818609E-02  0.9910917E-01
       -1   -1    0    0    0  501  0.00000000000E+00  0.00000000000E+00  0.35819975369E+03  0.35819975372E+03  0.50400001928E-02 0. -1.
        1   -1    0    0  501    0  0.00000000000E+00  0.00000000000E+00 -0.24904282872E+03  0.24904282877E+03  0.50400001928E-02 0.  1.
    10030    2    1    2    0    0  0.00000000000E+00  0.00000000000E+00  0.10915692497E+03  0.60724258249E+03  0.59735108581E+03 0.  0.
        5    1    3    3  502    0 -0.76928147434E+02 -0.15555389668E+03  0.30164627852E+03  0.34803379431E+03  0.46999998093E+01 0. -1.
       -5    1    3    3    0  502  0.76928147434E+02  0.15555389668E+03 -0.19248935355E+03  0.25920878818E+03  0.46999998093E+01 0.  1.
</event>
<event>
 5   0  0.3651984E-02  0.5937649E+03  0.7818609E-02  0.9918427E-01
        1   -1    0    0  501    0  0.00000000000E+00  0.00000000000E+00  0.76842996205E+03  0.76842996206E+03  0.50400001928E-02 0.  1.
       -1   -1    0    0    0  501  0.00000000000E+00  0.00000000000E+00 -0.11470033757E+03  0.11470033768E+03  0.50400001928E-02 0. -1.
    10030    2    1    2    0    0  0.00000000000E+00  0.00000000000E+00  0.65372962448E+03  0.88313029974E+03  0.59376485615E+03 0.  0.
        1    1    3    3  502    0  0.25210877457E+03  0.14428265204E+03  0.23562818514E+03  0.37402801975E+03  0.50400001928E-02 0. -1.
       -1    1    3    3    0  502 -0.25210877457E+03 -0.14428265204E+03  0.41810143933E+03  0.50910227999E+03  0.50400001928E-02 0.  1.
</event>
<event>
 5   0  0.2388000E-02  0.6100742E+03  0.7818609E-02  0.9884723E-01
       -4   -1    0    0    0  501  0.00000000000E+00  0.00000000000E+00  0.47134581747E+02  0.47151688160E+02  0.12699999809E+01 0. -1.
        4   -1    0    0  501    0  0.00000000000E+00  0.00000000000E+00 -0.19737085047E+04  0.19737089133E+04  0.12699999809E+01 0.  1.
    10030    2    1    2    0    0  0.00000000000E+00  0.00000000000E+00 -0.19265739230E+04  0.20208606015E+04  0.61007416755E+03 0.  0.
        1    1    3    3  502    0 -0.23795497793E+03  0.16666165294E+01 -0.33111206579E+03  0.40775059690E+03  0.50400001928E-02 0. -1.
       -1    1    3    3    0  502  0.23795497793E+03 -0.16666165294E+01 -0.15954618572E+04  0.16131100046E+04  0.50400001928E-02 0.  1.
</event>
<event>
 5   0  0.3767635E-02  0.6031159E+03  0.7818609E-02  0.9898963E-01
       -1   -1    0    0    0  501  0.00000000000E+00  0.00000000000E+00  0.15205378585E+03  0.15205378593E+03  0.50400001928E-02 0. -1.
        1   -1    0    0  501    0  0.00000000000E+00  0.00000000000E+00 -0.59805937239E+03  0.59805937241E+03  0.50400001928E-02 0.  1.
    10030    2    1    2    0    0  0.00000000000E+00  0.00000000000E+00 -0.44600558654E+03  0.75011315834E+03  0.60311588197E+03 0.  0.
        2    1    3    3  502    0  0.48255718845E+02 -0.17024378670E+03 -0.52670119817E+03  0.55563091479E+03  0.25500000920E-02 0.  1.
       -2    1    3    3    0  502 -0.48255718845E+02  0.17024378670E+03  0.80695611632E+02  0.19448224355E+03  0.25500000920E-02 0. -1.
</event>
<event>
 5   0  0.3640827E-02  0.6009195E+03  0.7818609E-02  0.9903500E-01
        1   -1    0    0  501    0  0.00000000000E+00  0.00000000000E+00  0.15240428868E+03  0.15240428877E+03  0.50400001928E-02 0.  1.
       -1   -1    0    0    0  501  0.00000000000E+00  0.00000000000E+00 -0.59234584793E+03  0.59234584795E+03  0.50400001928E-02 0. -1.
    10030    2    1    2    0    0  0.00000000000E+00  0.00000000000E+00 -0.43994155925E+03  0.74475013672E+03  0.60091945433E+03 0.  0.
        3    1    3    3  502    0 -0.45280640776E+02 -0.29689322724E+03 -0.20887788625E+03  0.36582223330E+03  0.10100000352E+00 0. -1.
       -3    1    3    3    0  502  0.45280640776E+02  0.29689322724E+03 -0.23106367299E+03  0.37892790342E+03  0.10100000352E+00 0.  1.
</event>
<event>
 5   0  0.5872632E-02  0.6029128E+03  0.7818609E-02  0.9899381E-01
        2   -1    0    0  501    0  0.00000000000E+00  0.00000000000E+00  0.38751415307E+03  0.38751415308E+03  0.25500000920E-02 0.  1.
       -2   -1    0    0    0  501  0.00000000000E+00  0.00000000000E+00 -0.23451003246E+03  0.23451003247E+03  0.25500000920E-02 0. -1.
    10030    2    1    2    0    0  0.00000000000E+00  0.00000000000E+00  0.15300412061E+03  0.62202418555E+03  0.60291278514E+03 0.  0.
        1    1    3    3  502    0 -0.19175238153E+03 -0.19713166348E+03  0.20389107815E+03  0.34234695901E+03  0.50400001928E-02 0. -1.
       -1    1    3    3    0  502  0.19175238153E+03  0.19713166348E+03 -0.50886957544E+02  0.27967722654E+03  0.50400001928E-02 0.  1.
</event>
<event>
 5   0  0.3767635E-02  0.5980118E+03  0.7818609E-02  0.9909540E-01
        1   -1    0    0  501    0  0.00000000000E+00  0.00000000000E+00  0.86800764444E+03  0.86800764446E+03  0.50400001928E-02 0. -1.
       -1   -1    0    0    0  501  0.00000000000E+00  0.00000000000E+00 -0.10299970775E+03  0.10299970787E+03  0.50400001928E-02 0.  1.
    10030    2    1    2    0    0  0.00000000000E+00  0.00000000000E+00  0.76500793669E+03  0.97100735232E+03  0.59801181850E+03 0.  0.
        2    1    3    3  502    0 -0.29263401025E+02  0.21220658074E+03  0.43784623339E+02  0.21864371200E+03  0.25500000920E-02 0.  1.
       -2    1    3    3    0  502  0.29263401025E+02 -0.21220658074E+03  0.72122331336E+03  0.75236364033E+03  0.25500000920E-02 0. -1.
</event>
<event>
 5   0  0.3478183E-02  0.5988176E+03  0.7818609E-02  0.9907862E-01
       -1   -1    0    0    0  501  0.00000000000E+00  0.00000000000E+00  0.33757455035E+03  0.33757455039E+03  0.50400001928E-02 0.  1.
        1   -1    0    0  501    0  0.00000000000E+00  0.00000000000E+00 -0.26555804420E+03  0.26555804425E+03  0.50400001928E-02 0. -1.
    10030    2    1    2    0    0  0.00000000000E+00  0.00000000000E+00  0.72016506147E+02  0.60313259464E+03  0.59881762629E+03 0.  0.
        4    1    3    3  502    0 -0.19416828024E+03  0.10898905250E+03 -0.16559422434E+03  0.27749413444E+03  0.12699999809E+01 0. -1.
       -4    1    3    3    0  502  0.19416828024E+03 -0.10898905250E+03  0.23761073049E+03  0.32563846020E+03  0.12699999809E+01 0.  1.
</event>
<event>
 5   0  0.6007360E-02  0.5979449E+03  0.7818609E-02  0.9909679E-01
       -2   -1    0    0    0  501  0.00000000000E+00  0.00000000000E+00  0.17365697167E+03  0.17365697169E+03  0.25500000920E-02 0. -1.
        2   -1    0    0  501    0  0.00000000000E+00  0.00000000000E+00 -0.51471893439E+03  0.51471893440E+03  0.25500000920E-02 0.  1.
    10030    2    1    2    0    0  0.00000000000E+00  0.00000000000E+00 -0.34106196272E+03  0.68837590609E+03  0.59794491859E+03 0.  0.
        4    1    3    3  502    0  0.25025617312E+02  0.60729407811E+02  0.16524456401E+03  0.17782497386E+03  0.12699999809E+01 0. -1.
       -4    1    3    3    0  502 -0.25025617312E+02 -0.60729407811E+02 -0.50630652673E+03  0.51055093223E+03  0.12699999809E+01 0.  1.
</event>
<event>
 5   0  0.3703280E-02  0.6013904E+03  0.7818609E-02  0.9902526E-01
        1   -1    0    0  501    0  0.00000000000E+00  0.00000000000E+00  0.14287165647E+03  0.14287165655E+03  0.50400001928E-02 0. -1.
       -1   -1    0    0    0  501  0.00000000000E+00  0.00000000000E+00 -0.63285901898E+03  0.63285901900E+03  0.50400001928E-02 0.  1.
    10030    2    1    2    0    0  0.00000000000E+00  0.00000000000E+00 -0.48998736252E+03  0.77573067556E+03  0.60139044353E+03 0.  0.
        5    1    3    3  502    0 -0.23629334777E+03  0.34032130176E+02 -0.48074050090E+03  0.53677392940E+03  0.46999998093E+01 0.  1.
       -5    1    3    3    0  502  0.23629334777E+03 -0.34032130176E+02 -0.92468616188E+01  0.23895674615E+03  0.46999998093E+01 0. -1.
</event>
<event>
 5   0  0.3703280E-02  0.5867099E+03  0.7818609E-02  0.9933369E-01
       -1   -1    0    0    0  501  0.00000000000E+00  0.00000000000E+00  0.12606630090E+03  0.12606630100E+03  0.50400001928E-02 0. -1.
        1   -1    0    0  501    0  0.00000000000E+00  0.00000000000E+00 -0.68263379033E+03  0.68263379035E+03  0.50400001928E-02 0.  1.
    10030    2    1    2    0    0  0.00000000000E+00  0.00000000000E+00 -0.55656748943E+03  0.80870009135E+03  0.58670986651E+03 0.  0.
        5    1    3    3  502    0  0.27070763541E+03 -0.45137431330E+01 -0.43381329351E+03  0.51138934421E+03  0.46999998093E+01 0.  1.
       -5    1    3    3    0  502 -0.27070763541E+03  0.45137431330E+01 -0.12275419592E+03  0.29731074714E+03  0.46999998093E+01 0. -1.
</event>
<event>
 5   0  0.2388000E-02  0.5523860E+03  0.7818609E-02  0.1000943E+00
       -3   -1    0    0    0  501  0.00000000000E+00  0.00000000000E+00  0.70780929274E+03  0.70780929995E+03  0.10100000352E+00 0. -1.
        3   -1    0    0  501    0  0.00000000000E+00  0.00000000000E+00 -0.10777274496E+03  0.10777279228E+03  0.10100000352E+00 0.  1.
    10030    2    1    2    0    0  0.00000000000E+00  0.00000000000E+00  0.60003654778E+03  0.81558209223E+03  0.55238599774E+03 0.  0.
        1    1    3    3  502    0 -0.15630164008E+02 -0.17395593391E+03  0.61591967153E+03  0.64020466319E+03  0.50400001928E-02 0. -1.
       -1    1    3    3    0  502  0.15630164008E+02  0.17395593391E+03 -0.15883123748E+02  0.17537742904E+03  0.50400001928E-02 0.  1.
</event>
<event>
 5   0  0.3767635E-02  0.5926174E+03  0.7818609E-02  0.9920842E-01
        1   -1    0    0  501    0  0.00000000000E+00  0.00000000000E+00  0.82082239814E+03  0.82082239816E+03  0.50400001928E-02 0.  1.
       -1   -1    0    0    0  501  0.00000000000E+00  0.00000000000E+00 -0.10696449285E+03  0.10696449297E+03  0.50400001928E-02 0. -1.
    10030    2    1    2    0    0  0.00000000000E+00  0.00000000000E+00  0.71385790529E+03  0.92778689113E+03  0.59261741994E+03 0.  0.
        2    1    3    3  502    0 -0.60162096161E+02  0.20255769124E+03  0.68213827632E+03  0.71411604388E+03  0.25500000920E-02 0.  1.
       -2    1    3    3    0  502  0.60162096161E+02 -0.20255769124E+03  0.31719628967E+02  0.21367084725E+03  0.25500000920E-02 0. -1.
</event>
<event>
 5   0  0.5872632E-02  0.5930895E+03  0.7818609E-02  0.9919848E-01
        2   -1    0    0  501    0  0.00000000000E+00  0.00000000000E+00  0.62889679089E+03  0.62889679090E+03  0.25500000920E-02 0.  1.
       -2   -1    0    0    0  501  0.00000000000E+00  0.00000000000E+00 -0.13983025637E+03  0.13983025640E+03  0.25500000920E-02 0. -1.
    10030    2    1    2    0    0  0.00000000000E+00  0.00000000000E+00  0.48906653452E+03  0.76872704730E+03  0.59308953629E+03 0.  0.
        1    1    3    3  502    0 -0.18574962684E+03 -0.20184896781E+03  0.39055981317E+03  0.47726606559E+03  0.50400001928E-02 0.  1.
       -1    1    3    3    0  502  0.18574962684E+03  0.20184896781E+03  0.98506721347E+02  0.29146098170E+03  0.50400001928E-02 0. -1.
</event>
<event>
 5   0  0.3767635E-02  0.5977291E+03  0.7818609E-02  0.9910129E-01
       -1   -1    0    0    0  501  0.00000000000E+00  0.00000000000E+00  0.83953272095E+02  0.83953272247E+02  0.50400001928E-02 0.  1.
        1   -1    0    0  501    0  0.00000000000E+00  0.00000000000E+00 -0.10639254182E+04  0.10639254182E+04  0.50400001928E-02 0. -1.
    10030    2    1    2    0    0  0.00000000000E+00  0.00000000000E+00 -0.97997214611E+03  0.11478786905E+04  0.59772910325E+03 0.  0.
        2    1    3    3  502    0 -0.64664943452E+02 -0.18766360794E+03 -0.91906038475E+03  0.94025059186E+03  0.25500000920E-02 0.  1.
       -2    1    3    3    0  502  0.64664943452E+02  0.18766360794E+03 -0.60911761361E+02  0.20762809861E+03  0.25500000920E-02 0. -1.
</event>
<event>
 5   0  0.5872632E-02  0.6049242E+03  0.7818609E-02  0.9895242E-01
       -2   -1    0    0    0  501  0.00000000000E+00  0.00000000000E+00  0.34518000962E+02  0.34518001056E+02  0.25500000920E-02 0. -1.
        2   -1    0    0  501    0  0.00000000000E+00  0.00000000000E+00 -0.26503074658E+04  0.26503074658E+04  0.25500000920E-02 0.  1.
    10030    2    1    2    0    0  0.00000000000E+00  0.00000000000E+00 -0.26157894648E+04  0.26848254669E+04  0.60492417965E+03 0.  0.
        1    1    3    3  502    0 -0.16091147580E+03  0.24269185702E+03 -0.16709527672E+04  0.16961353102E+04  0.50400001928E-02 0.  1.
       -1    1    3    3    0  502  0.16091147580E+03 -0.24269185702E+03 -0.94483669768E+03  0.98869015663E+03  0.50400001928E-02 0. -1.
</event>
<event>
 5   0  0.5935451E-02  0.5954733E+03  0.7818609E-02  0.9914842E-01
       -2   -1    0    0    0  501  0.00000000000E+00  0.00000000000E+00  0.71877756537E+02  0.71877756583E+02  0.25500000920E-02 0. -1.
        2   -1    0    0  501    0  0.00000000000E+00  0.00000000000E+00 -0.12333039589E+04  0.12333039589E+04  0.25500000920E-02 0.  1.
    10030    2    1    2    0    0  0.00000000000E+00  0.00000000000E+00 -0.11614262024E+04  0.13051817155E+04  0.59547333014E+03 0.  0.
        3    1    3    3  502    0  0.12608626684E+02 -0.26110032114E+03 -0.26831061973E+03  0.37459705555E+03  0.10100000352E+00 0. -1.
       -3    1    3    3    0  502 -0.12608626684E+02  0.26110032114E+03 -0.89311558264E+03  0.93058465994E+03  0.10100000352E+00 0.  1.
</event>
<event>
 5   0  0.5935451E-02  0.5997900E+03  0.7818609E-02  0.9905842E-01
        2   -1    0    0  501    0  0.00000000000E+00  0.00000000000E+00  0.10073758808E+04  0.10073758808E+04  0.25500000920E-02 0. -1.
       -2   -1    0    0    0  501  0.00000000000E+00  0.00000000000E+00 -0.89278515910E+02  0.89278515946E+02  0.25500000920E-02 0.  1.
    10030    2    1    2    0    0  0.00000000000E+00  0.00000000000E+00  0.91809736488E+03  0.10966543967E+04  0.59979004200E+03 0.  0.
        3    1    3    3  502    0 -0.20935792149E+03  0.14980620008E+03  0.17778214510E+03  0.31285641785E+03  0.10100000352E+00 0.  1.
       -3    1    3    3    0  502  0.20935792149E+03 -0.14980620008E+03  0.74031521979E+03  0.78379797889E+03  0.10100000352E+00 0. -1.
</event>
<event>
 5   0  0.3651984E-02  0.5936059E+03  0.7818609E-02  0.9918761E-01
       -1   -1    0    0    0  501  0.00000000000E+00  0.00000000000E+00  0.72907694556E+03  0.72907694557E+03  0.50400001928E-02 0. -1.
        1   -1    0    0  501    0  0.00000000000E+00  0.00000000000E+00 -0.12082675985E+03  0.12082675995E+03  0.50400001928E-02 0.  1.
    10030    2    1    2    0    0  0.00000000000E+00  0.00000000000E+00  0.60825018571E+03  0.84990370553E+03  0.59360594695E+03 0.  0.
        1    1    3    3  502    0  0.21463040140E+03 -0.13108631446E+03  0.52979116985E+03  0.58645418809E+03  0.50400001928E-02 0. -1.
       -1    1    3    3    0  502 -0.21463040140E+03  0.13108631446E+03  0.78459015854E+02  0.26344951744E+03  0.50400001928E-02 0.  1.
</event>
<event>
 5   0  0.3640827E-02  0.6016699E+03  0.7818609E-02  0.9901948E-01
        1   -1    0    0  501    0  0.00000000000E+00  0.00000000000E+00  0.68076425410E+03  0.68076425412E+03  0.50400001928E-02 0.  1.
       -1   -1    0    0    0  501  0.00000000000E+00  0.00000000000E+00 -0.13294129151E+03  0.13294129161E+03  0.50400001928E-02 0. -1.
    10030    2    1    2    0    0  0.00000000000E+00  0.00000000000E+00  0.54782296259E+03  0.81370554573E+03  0.60166994009E+03 0.  0.
        3    1    3    3  502    0  0.12066868503E+03 -0.17405091559E+03 -0.15033502210E+02  0.21232208824E+03  0.10100000352E+00 0. -1.
       -3    1    3    3    0  502 -0.12066868503E+03  0.17405091559E+03  0.56285646480E+03  0.60138345748E+03  0.10100000352E+00 0.  1.
</event>
<event>
 5   0  0.5935451E-02  0.6035627E+03  0.7818609E-02  0.9898042E-01
       -2   -1    0    0    0  501  0.00000000000E+00  0.00000000000E+00  0.18152205604E+03  0.18152205606E+03  0.25500000920E-02 0.  1.
        2   -1    0    0  501    0  0.00000000000E+00  0.00000000000E+00 -0.50171310340E+03  0.50171310341E+03  0.25500000920E-02 0. -1.
    10030    2    1    2    0    0  0.00000000000E+00  0.00000000000E+00 -0.32019104736E+03  0.68323515947E+03  0.60356273603E+03 0.  0.
        3    1    3    3  502    0  0.20412364540E+03 -0.10974735919E+03  0.58709484314E+02  0.23907688974E+03  0.10100000352E+00 0.  1.
       -3    1    3    3    0  502 -0.20412364540E+03  0.10974735919E+03 -0.37890053168E+03  0.44415826973E+03  0.10100000352E+00 0. -1.
</event>
<event>
 5   0  0.3640827E-02  0.5980811E+03  0.7818609E-02  0.9909395E-01
        1   -1    0    0  501    0  0.00000000000E+00  0.00000000000E+00  0.37767307436E+03  0.37767307440E+03  0.50400001928E-02 0.  1.
       -1   -1    0    0    0  501  0.00000000000E+00  0.00000000000E+00 -0.23677956176E+03  0.23677956181E+03  0.50400001928E-02 0. -1.
    10030    2    1    2    0    0  0.00000000000E+00  0.00000000000E+00  0.14089351260E+03  0.61445263621E+03  0.59808114855E+03 0.  0.
        3    1    3    3  502    0 -0.91562110040E+02  0.26001033400E+03 -0.48641110300E+02  0.27991956272E+03  0.10100000352E+00 0. -1.
       -3    1    3    3    0  502  0.91562110040E+02 -0.26001033400E+03  0.18953462290E+03  0.33453307349E+03  0.10100000352E+00 0.  1.
</event>
<event>
 5   0  0.5755078E-02  0.6006356E+03  0.7818609E-02  0.9904088E-01
       -2   -1    0    0    0  501  0.00000000000E+00  0.00000000000E+00  0.11700867446E+03  0.11700867449E+03  0.25500000920E-02 0.  1.
        2   -1    0    0  501    0  0.00000000000E+00  0.00000000000E+00 -0.77080424153E+03  0.77080424153E+03  0.25500000920E-02 0. -1.
    10030    2    1    2    0    0  0.00000000000E+00  0.00000000000E+00 -0.65379556706E+03  0.88781291602E+03  0.60063560529E+03 0.  0.
        2    1    3    3  502    0  0.26734967395E+03 -0.57105092253E+02 -0.51064892119E+03  0.57922289357E+03  0.25500000920E-02 0. -1.
       -2    1    3    3    0  502 -0.26734967395E+03  0.57105092253E+02 -0.14314664588E+03  0.30859002245E+03  0.25500000920E-02 0.  1.
</event>
<event>
 5   0  0.3651984E-02  0.6039506E+03  0.7818609E-02  0.9897244E-01
        1   -1    0    0  501    0  0.00000000000E+00  0.00000000000E+00  0.11361289633E+03  0.11361289644E+03  0.50400001928E-02 0. -1.
       -1   -1    0    0    0  501  0.00000000000E+00  0.00000000000E+00 -0.80262970791E+03  0.80262970792E+03  0.50400001928E-02 0.  1.
    10030    2    1    2    0    0  0.00000000000E+00  0.00000000000E+00 -0.68901681158E+03  0.91624260437E+03  0.60395061339E+03 0.  0.
        1    1    3    3  502    0 -0.12088169670E+03  0.10959720885E+03 -0.72999399556E+03  0.74800746411E+03  0.50400001928E-02 0.  1.
       -1    1    3    3    0  502  0.12088169670E+03 -0.10959720885E+03  0.40977183983E+02  0.16823514025E+03  0.50400001928E-02 0. -1.
</event>
<event>
 5   0  0.3651984E-02  0.5692225E+03  0.7818609E-02  0.9971401E-01
        1   -1    0    0  501    0  0.00000000000E+00  0.00000000000E+00  0.53499594881E+03  0.53499594883E+03  0.50400001928E-02 0. -1.
       -1   -1    0    0    0  501  0.00000000000E+00  0.00000000000E+00 -0.15140969295E+03  0.15140969303E+03  0.50400001928E-02 0.  1.
    10030    2    1    2    0    0  0.00000000000E+00  0.00000000000E+00  0.38358625586E+03  0.68640564186E+03  0.56922253074E+03 0.  0.
        1    1    3    3  502    0  0.15194929806E+03 -0.24019253361E+03  0.20978154771E+03  0.35325534698E+03  0.50400001928E-02 0. -1.
       -1    1    3    3    0  502 -0.15194929806E+03  0.24019253361E+03  0.17380470815E+03  0.33315029489E+03  0.50400001928E-02 0.  1.
</event>
<event>
 5   0  0.3767635E-02  0.6080849E+03  0.7818609E-02  0.9888773E-01
        1   -1    0    0  501    0  0.00000000000E+00  0.00000000000E+00  0.35965619082E+03  0.35965619085E+03  0.50400001928E-02 0. -1.
       -1   -1    0    0    0  501  0.00000000000E+00  0.00000000000E+00 -0.25702823894E+03  0.25702823899E+03  0.50400001928E-02 0.  1.
    10030    2    1    2    0    0  0.00000000000E+00  0.00000000000E+00  0.10262795188E+03  0.61668442984E+03  0.60808485387E+03 0.  0.
        2    1    3    3  502    0  0.15535120017E+02  0.24604053456E+03  0.23177574155E+03  0.33837446562E+03  0.25500000920E-02 0. -1.
       -2    1    3    3    0  502 -0.15535120017E+02 -0.24604053456E+03 -0.12914778968E+03  0.27830996422E+03  0.25500000920E-02 0.  1.
</event>
<event>
 5   0  0.6007360E-02  0.6036798E+03  0.7818609E-02  0.9897801E-01
       -2   -1    0    0    0  501  0.00000000000E+00  0.00000000000E+00  0.80978849115E+02  0.80978849155E+02  0.25500000920E-02 0. -1.
        2   -1    0    0  501    0  0.00000000000E+00  0.00000000000E+00 -0.11250757406E+04  0.11250757406E+04  0.25500000920E-02 0.  1.
    10030    2    1    2    0    0  0.00000000000E+00  0.00000000000E+00 -0.10440968915E+04  0.12060545898E+04  0.60367984452E+03 0.  0.
        4    1    3    3  502    0 -0.28393075197E+03 -0.85639091081E+02 -0.40983110648E+03  0.50587930830E+03  0.12699999809E+01 0. -1.
       -4    1    3    3    0  502  0.28393075197E+03  0.85639091081E+02 -0.63426578505E+03  0.70017528150E+03  0.12699999809E+01 0.  1.
</event>
<event>
 5   0  0.3640827E-02  0.5996043E+03  0.7818609E-02  0.9906227E-01
       -1   -1    0    0    0  501  0.00000000000E+00  0.00000000000E+00  0.19680536112E+03  0.19680536118E+03  0.50400001928E-02 0. -1.
        1   -1    0    0  501    0  0.00000000000E+00  0.00000000000E+00 -0.45670166885E+03  0.45670166887E+03  0.50400001928E-02 0.  1.
    10030    2    1    2    0    0  0.00000000000E+00  0.00000000000E+00 -0.25989630773E+03  0.65350703005E+03  0.59960432583E+03 0.  0.
        3    1    3    3  502    0  0.17320685699E+03  0.24417779107E+03 -0.11244460532E+03  0.31979244586E+03  0.10100000352E+00 0. -1.
       -3    1    3    3    0  502 -0.17320685699E+03 -0.24417779107E+03 -0.14745170241E+03  0.33371458420E+03  0.10100000352E+00 0.  1.
</event>
<event>
 5   0  0.3703280E-02  0.5991859E+03  0.7818609E-02  0.9907096E-01
       -1   -1    0    0    0  501  0.00000000000E+00  0.00000000000E+00  0.15857062627E+03  0.15857062635E+03  0.50400001928E-02 0. -1.
        1   -1    0    0  501    0  0.00000000000E+00  0.00000000000E+00 -0.56603135895E+03  0.56603135897E+03  0.50400001928E-02 0.  1.
    10030    2    1    2    0    0  0.00000000000E+00  0.00000000000E+00 -0.40746073267E+03  0.72460198532E+03  0.59918593814E+03 0.  0.
        5    1    3    3  502    0  0.31453929974E+02  0.24337357414E+03 -0.41148491994E+03  0.47912626273E+03  0.46999998093E+01 0.  1.
       -5    1    3    3    0  502 -0.31453929974E+02 -0.24337357414E+03  0.40241872640E+01  0.24547572260E+03  0.46999998093E+01 0. -1.
</event>
<event>
 5   0  0.3767635E-02  0.5997882E+03  0.7818609E-02  0.9905846E-01
       -1   -1    0    0    0  501  0.00000000000E+00  0.00000000000E+00  0.13485591824E+03  0.13485591833E+03  0.50400001928E-02 0. -1.
        1   -1    0    0  501    0  0.00000000000E+00  0.00000000000E+00 -0.66690786286E+03  0.66690786287E+03  0.50400001928E-02 0.  1.
    10030    2    1    2    0    0  0.00000000000E+00  0.00000000000E+00 -0.53205194462E+03  0.80176378121E+03  0.59978820352E+03 0.  0.
        2    1    3    3  502    0  0.79435198163E+02  0.20441623164E+03  0.74046056546E+01  0.21943284771E+03  0.25500000920E-02 0. -1.
       -2    1    3    3    0  502 -0.79435198163E+02 -0.20441623164E+03 -0.53945655027E+03  0.58233093349E+03  0.25500000920E-02 0.  1.
</event>
<event>
 5   0  0.5755078E-02  0.5914393E+03  0.7818609E-02  0.9923328E-01
        2   -1    0    0  501    0  0.00000000000E+00  0.00000000000E+00  0.12980391108E+03  0.12980391111E+03  0.25500000920E-02 0.  1.
       -2   -1    0    0    0  501  0.00000000000E+00  0.00000000000E+00 -0.67370932429E+03  0.67370932429E+03  0.25500000920E-02 0. -1.
    10030    2    1    2    0    0  0.00000000000E+00  0.00000000000E+00 -0.54390541321E+03  0.80351323540E+03  0.59143927917E+03 0.  0.
        2    1    3    3  502    0  0.10045760021E+03 -0.24085618275E+03 -0.82985675773E+02  0.27384311677E+03  0.25500000920E-02 0.  1.
       -2    1    3    3    0  502 -0.10045760021E+03  0.24085618275E+03 -0.46091973744E+03  0.52967011863E+03  0.25500000920E-02 0. -1.
</event>
<event>
 5   0  0.2388000E-02  0.5498741E+03  0.7818609E-02  0.1001523E+00
        3   -1    0    0  501    0  0.00000000000E+00  0.00000000000E+00  0.13654991463E+03  0.13654995198E+03  0.10100000352E+00 0. -1.
       -3   -1    0    0    0  501  0.00000000000E+00  0.00000000000E+00 -0.55357323729E+03  0.55357324651E+03  0.10100000352E+00 0.  1.
    10030    2    1    2    0    0  0.00000000000E+00  0.00000000000E+00 -0.41702332267E+03  0.69012319849E+03  0.54987414691E+03 0.  0.
        4    1    3    3  502    0 -0.28936494939E+02  0.10244035016E+03  0.10963327795E+03  0.15281496855E+03  0.12699999809E+01 0. -1.
       -4    1    3    3    0  502  0.28936494939E+02 -0.10244035016E+03 -0.52665660062E+03  0.53730822993E+03  0.12699999809E+01 0.  1.
</event>
<event>
 5   0  0.6007360E-02  0.5938767E+03  0.7818609E-02  0.9918192E-01
        2   -1    0    0  501    0  0.00000000000E+00  0.00000000000E+00  0.17799316943E+03  0.17799316945E+03  0.25500000920E-02 0.  1.
       -2   -1    0    0    0  501  0.00000000000E+00  0.00000000000E+00 -0.49536942112E+03  0.49536942112E+03  0.25500000920E-02 0. -1.
    10030    2    1    2    0    0  0.00000000000E+00  0.00000000000E+00 -0.31737625169E+03  0.67336259057E+03  0.59387666501E+03 0.  0.
        4    1    3    3  502    0 -0.15845801561E+03  0.16781362618E+03  0.53132357483E+02  0.23684386450E+03  0.12699999809E+01 0.  1.
       -4    1    3    3    0  502  0.15845801561E+03 -0.16781362618E+03 -0.37050860917E+03  0.43651872607E+03  0.12699999809E+01 0. -1.
</event>
<event>
 5   0  0.6007360E-02  0.5993640E+03  0.7818609E-02  0.9906726E-01
       -2   -1    0    0    0  501  0.00000000000E+00  0.00000000000E+00  0.18494143382E+03  0.18494143384E+03  0.25500000920E-02 0. -1.
        2   -1    0    0  501    0  0.00000000000E+00  0.00000000000E+00 -0.48560943608E+03  0.48560943609E+03  0.25500000920E-02 0.  1.
    10030    2    1    2    0    0  0.00000000000E+00  0.00000000000E+00 -0.30066800226E+03  0.67055086993E+03  0.59936401425E+03 0.  0.
        4    1    3    3  502    0 -0.13919886735E+03  0.10772850824E+03  0.12101328988E+03  0.21360614548E+03  0.12699999809E+01 0. -1.
       -4    1    3    3    0  502  0.13919886735E+03 -0.10772850824E+03 -0.42168129214E+03  0.45694472445E+03  0.12699999809E+01 0.  1.
</event>
<event>
 5   0  0.3478183E-02  0.5382320E+03  0.7818609E-02  0.1004255E+00
       -1   -1    0    0    0  501  0.00000000000E+00  0.00000000000E+00  0.26174464863E+03  0.26174464868E+03  0.50400001928E-02 0.  1.
        1   -1    0    0  501    0  0.00000000000E+00  0.00000000000E+00 -0.27669499697E+03  0.27669499702E+03  0.50400001928E-02 0. -1.
    10030    2    1    2    0    0  0.00000000000E+00  0.00000000000E+00 -0.14950348341E+02  0.53843964570E+03  0.53823204953E+03 0.  0.
        4    1    3    3  502    0  0.20536329727E+03  0.90133677314E+02  0.14132243239E+03  0.26508829935E+03  0.12699999809E+01 0.  1.
       -4    1    3    3    0  502 -0.20536329727E+03 -0.90133677314E+02 -0.15627278074E+03  0.27335134635E+03  0.12699999809E+01 0. -1.
</event>
<event>
 5   0  0.5755078E-02  0.6037074E+03  0.7818609E-02  0.9897744E-01
        2   -1    0    0  501    0  0.00000000000E+00  0.00000000000E+00  0.27421414002E+04  0.27421414002E+04  0.25500000920E-02 0.  1.
       -2   -1    0    0    0  501  0.00000000000E+00  0.00000000000E+00 -0.33227920081E+02  0.33227920179E+02  0.25500000920E-02 0. -1.
    10030    2    1    2    0    0  0.00000000000E+00  0.00000000000E+00  0.27089134801E+04  0.27753693204E+04  0.60370739745E+03 0.  0.
        2    1    3    3  502    0  0.26370949018E+03 -0.84186402971E+02  0.80115418398E+03  0.84763085843E+03  0.25500000920E-02 0. -1.
       -2    1    3    3    0  502 -0.26370949018E+03  0.84186402971E+02  0.19077592961E+04  0.19277384619E+04  0.25500000920E-02 0.  1.
</event>
<event>
 5   0  0.2388000E-02  0.5675698E+03  0.7818609E-02  0.9975071E-01
        3   -1    0    0  501    0  0.00000000000E+00  0.00000000000E+00  0.17044438003E+03  0.17044440996E+03  0.10100000352E+00 0. -1.
       -3   -1    0    0    0  501  0.00000000000E+00  0.00000000000E+00 -0.47249342496E+03  0.47249343575E+03  0.10100000352E+00 0.  1.
    10030    2    1    2    0    0  0.00000000000E+00  0.00000000000E+00 -0.30204904493E+03  0.64293784571E+03  0.56756977360E+03 0.  0.
        4    1    3    3  502    0 -0.15814205322E+03 -0.28840602261E+02  0.11389251307E+03  0.19701219955E+03  0.12699999809E+01 0. -1.
       -4    1    3    3    0  502  0.15814205322E+03  0.28840602261E+02 -0.41594155800E+03  0.44592564616E+03  0.12699999809E+01 0.  1.
</event>
<event>
 5   0  0.6007360E-02  0.6097170E+03  0.7818609E-02  0.9885449E-01
       -2   -1    0    0    0  501  0.00000000000E+00  0.00000000000E+00  0.12530616324E+03  0.12530616326E+03  0.25500000920E-02 0.  1.
        2   -1    0    0  501    0  0.00000000000E+00  0.00000000000E+00 -0.74169311757E+03  0.74169311757E+03  0.25500000920E-02 0. -1.
    10030    2    1    2    0    0  0.00000000000E+00  0.00000000000E+00 -0.61638695433E+03  0.86699928083E+03  0.60971704544E+03 0.  0.
        4    1    3    3  502    0 -0.29737051579E+03  0.17836002071E+02 -0.40023524250E+03  0.49893607694E+03  0.12699999809E+01 0. -1.
       -4    1    3    3    0  502  0.29737051579E+03 -0.17836002071E+02 -0.21615171183E+03  0.36806320389E+03  0.12699999809E+01 0.  1.
</event>
<event>
 5   0  0.5999117E-02  0.6369252E+03  0.7818609E-02  0.9831627E-01
        2   -1    0    0  501    0  0.00000000000E+00  0.00000000000E+00  0.22663467923E+03  0.22663467924E+03  0.25500000920E-02 0.  1.
       -2   -1    0    0    0  501  0.00000000000E+00  0.00000000000E+00 -0.44749735857E+03  0.44749735858E+03  0.25500000920E-02 0. -1.
    10030    2    1    2    0    0  0.00000000000E+00  0.00000000000E+00 -0.22086267934E+03  0.67413203782E+03  0.63692517716E+03 0.  0.
        5    1    3    3  502    0 -0.67096312135E+01 -0.15291558802E+03  0.18510787930E+03  0.24023990757E+03  0.46999998093E+01 0.  1.
       -5    1    3    3    0  502  0.67096312135E+01  0.15291558802E+03 -0.40597055864E+03  0.43389213025E+03  0.46999998093E+01 0. -1.
</event>
<event>
 5   0  0.2388000E-02  0.6025354E+03  0.7818609E-02  0.9900160E-01
       -4   -1    0    0    0  501  0.00000000000E+00  0.00000000000E+00  0.35638439074E+03  0.35638665360E+03  0.12699999809E+01 0. -1.
        4   -1    0    0  501    0  0.00000000000E+00  0.00000000000E+00 -0.25467046653E+03  0.25467363315E+03  0.12699999809E+01 0.  1.
    10030    2    1    2    0    0  0.00000000000E+00  0.00000000000E+00  0.10171392421E+03  0.61106028675E+03  0.60253543602E+03 0.  0.
        2    1    3    3  502    0 -0.13929444829E+03  0.88517472963E+02  0.30646247649E+03  0.34807691082E+03  0.25500000920E-02 0. -1.
       -2    1    3    3    0  502  0.13929444829E+03 -0.88517472963E+02 -0.20474855229E+03  0.26298337592E+03  0.25500000920E-02 0.  1.
</event>
<event>
 5   0  0.5999117E-02  0.5986123E+03  0.7818609E-02  0.9908289E-01
        2   -1    0    0  501    0  0.00000000000E+00  0.00000000000E+00  0.80479108758E+03  0.80479108759E+03  0.25500000920E-02 0. -1.
       -2   -1    0    0    0  501  0.00000000000E+00  0.00000000000E+00 -0.11131356707E+03  0.11131356710E+03  0.25500000920E-02 0.  1.
    10030    2    1    2    0    0  0.00000000000E+00  0.00000000000E+00  0.69347752051E+03  0.91610465469E+03  0.59861228428E+03 0.  0.
        5    1    3    3  502    0 -0.78609384970E+02 -0.89627711379E+02 -0.73348677451E+02  0.14005242067E+03  0.46999998093E+01 0.  1.
       -5    1    3    3    0  502  0.78609384970E+02  0.89627711379E+02  0.76682619796E+03  0.77605223402E+03  0.46999998093E+01 0. -1.
</event>
<event>
 5   0  0.3703280E-02  0.6008811E+03  0.7818609E-02  0.9903580E-01
       -1   -1    0    0    0  501  0.00000000000E+00  0.00000000000E+00  0.30624281806E+03  0.30624281810E+03  0.50400001928E-02 0.  1.
        1   -1    0    0  501    0  0.00000000000E+00  0.00000000000E+00 -0.29474818703E+03  0.29474818708E+03  0.50400001928E-02 0. -1.
    10030    2    1    2    0    0  0.00000000000E+00  0.00000000000E+00  0.11494631023E+02  0.60099100517E+03  0.60088107123E+03 0.  0.
        5    1    3    3  502    0 -0.22496123082E+03 -0.93095533017E+02  0.18175704351E+03  0.30386188721E+03  0.46999998093E+01 0.  1.
       -5    1    3    3    0  502  0.22496123082E+03  0.93095533017E+02 -0.17026241248E+03  0.29712911796E+03  0.46999998093E+01 0. -1.
</event>
<event>
 5   0  0.3767635E-02  0.5923074E+03  0.7818609E-02  0.9921496E-01
        1   -1    0    0  501    0  0.00000000000E+00  0.00000000000E+00  0.26011343793E+03  0.26011343798E+03  0.50400001928E-02 0.  1.
       -1   -1    0    0    0  501  0.00000000000E+00  0.00000000000E+00 -0.33718755600E+03  0.33718755603E+03  0.50400001928E-02 0. -1.
    10030    2    1    2    0    0  0.00000000000E+00  0.00000000000E+00 -0.77074118065E+02  0.59730099401E+03  0.59230740142E+03 0.  0.
        2    1    3    3  502    0 -0.16504667116E+03 -0.60063857735E+02 -0.27899851469E+03  0.32967899823E+03  0.25500000920E-02 0. -1.
       -2    1    3    3    0  502  0.16504667116E+03  0.60063857735E+02  0.20192439663E+03  0.26762199578E+03  0.25500000920E-02 0.  1.
</event>
<event>
 5   0  0.5872632E-02  0.6076845E+03  0.7818609E-02  0.9889590E-01
       -2   -1    0    0    0  501  0.00000000000E+00  0.00000000000E+00  0.63761495255E+03  0.63761495255E+03  0.25500000920E-02 0.  1.
        2   -1    0    0  501    0  0.00000000000E+00  0.00000000000E+00 -0.14478974540E+03  0.14478974542E+03  0.25500000920E-02 0. -1.
    10030    2    1    2    0    0  0.00000000000E+00  0.00000000000E+00  0.49282520715E+03  0.78240469797E+03  0.60768447948E+03 0.  0.
        1    1    3    3  502    0 -0.63450347635E+02  0.52737542310E+02 -0.13009101288E+03  0.15404826076E+03  0.50400001928E-02 0. -1.
       -1    1    3    3    0  502  0.63450347635E+02 -0.52737542310E+02  0.62291622004E+03  0.62835643722E+03  0.50400001928E-02 0.  1.
</event>
<event>
 5   0  0.3478183E-02  0.5964012E+03  0.7818609E-02  0.9912901E-01
        1   -1    0    0  501    0  0.00000000000E+00  0.00000000000E+00  0.39176852397E+03  0.39176852400E+03  0.50400001928E-02 0.  1.
       -1   -1    0    0    0  501  0.00000000000E+00  0.00000000000E+00 -0.22697992472E+03  0.22697992477E+03  0.50400001928E-02 0. -1.
    10030    2    1    2    0    0  0.00000000000E+00  0.00000000000E+00  0.16478859925E+03  0.61874844877E+03  0.59640117406E+03 0.  0.
        4    1    3    3  502    0 -0.10799399061E+03  0.16149053609E+03 -0.15231274336E+03  0.24686571237E+03  0.12699999809E+01 0. -1.
       -4    1    3    3    0  502  0.10799399061E+03 -0.16149053609E+03  0.31710134261E+03  0.37188273641E+03  0.12699999809E+01 0.  1.
</event>
<event>
 5   0  0.5935451E-02  0.6067963E+03  0.7818609E-02  0.9891405E-01
       -2   -1    0    0    0  501  0.00000000000E+00  0.00000000000E+00  0.14271418020E+03  0.14271418022E+03  0.25500000920E-02 0.  1.
        2   -1    0    0  501    0  0.00000000000E+00  0.00000000000E+00 -0.64499861683E+03  0.64499861683E+03  0.25500000920E-02 0. -1.
    10030    2    1    2    0    0  0.00000000000E+00  0.00000000000E+00 -0.50228443663E+03  0.78771279705E+03  0.60679633763E+03 0.  0.
        3    1    3    3  502    0 -0.99533832718E+02  0.34987230716E+02 -0.62041826584E+03  0.62932497563E+03  0.10100000352E+00 0. -1.
       -3    1    3    3    0  502  0.99533832718E+02 -0.34987230716E+02  0.11813382921E+03  0.15838782142E+03  0.10100000352E+00 0.  1.
</event>
<event>
 5   0  0.3640827E-02  0.6042217E+03  0.7818609E-02  0.9896686E-01
       -1   -1    0    0    0  501  0.00000000000E+00  0.00000000000E+00  0.50928790632E+03  0.50928790635E+03  0.50400001928E-02 0.  1.
        1   -1    0    0  501    0  0.00000000000E+00  0.00000000000E+00 -0.17921288802E+03  0.17921288809E+03  0.50400001928E-02 0. -1.
    10030    2    1    2    0    0  0.00000000000E+00  0.00000000000E+00  0.33007501831E+03  0.68850079444E+03  0.60422166978E+03 0.  0.
        3    1    3    3  502    0  0.19308445463E+03  0.40235299833E+02 -0.95728718791E+02  0.21923613702E+03  0.10100000352E+00 0. -1.
       -3    1    3    3    0  502 -0.19308445463E+03 -0.40235299833E+02  0.42580373710E+03  0.46926465742E+03  0.10100000352E+00 0.  1.
</event>
<event>
 5   0  0.3640827E-02  0.6006823E+03  0.7818609E-02  0.9903992E-01
       -1   -1    0    0    0  501  0.00000000000E+00  0.00000000000E+00  0.66475269333E+02  0.66475269524E+02  0.50400001928E-02 0.  1.
        1   -1    0    0  501    0  0.00000000000E+00  0.00000000000E+00 -0.13569678590E+04  0.13569678590E+04  0.50400001928E-02 0. -1.
    10030    2    1    2    0    0  0.00000000000E+00  0.00000000000E+00 -0.12904925897E+04  0.14234431285E+04  0.60068229222E+03 0.  0.
        3    1    3    3  502    0  0.12744358260E+03 -0.20308201149E+02 -0.12879164283E+04  0.12943658781E+04  0.10100000352E+00 0. -1.
       -3    1    3    3    0  502 -0.12744358260E+03  0.20308201149E+02 -0.25761613497E+01  0.12907725046E+03  0.10100000352E+00 0.  1.
</event>
<event>
 5   0  0.3703280E-02  0.5940101E+03  0.7818609E-02  0.9917912E-01
        1   -1    0    0  501    0  0.00000000000E+00  0.00000000000E+00  0.68795193640E+03  0.68795193642E+03  0.50400001928E-02 0. -1.
       -1   -1    0    0    0  501  0.00000000000E+00  0.00000000000E+00 -0.12822407473E+03  0.12822407483E+03  0.50400001928E-02 0.  1.
    10030    2    1    2    0    0  0.00000000000E+00  0.00000000000E+00  0.55972786167E+03  0.81617601125E+03  0.59401010278E+03 0.  0.
        5    1    3    3  502    0 -0.34864643651E+01  0.12210423521E+03 -0.92054828352E+02  0.15302869375E+03  0.46999998093E+01 0.  1.
       -5    1    3    3    0  502  0.34864643651E+01 -0.12210423521E+03  0.65178269002E+03  0.66314731750E+03  0.46999998093E+01 0. -1.
</event>
<event>
 5   0  0.5755078E-02  0.5987018E+03  0.7818609E-02  0.9908103E-01
       -2   -1    0    0    0  501  0.00000000000E+00  0.00000000000E+00  0.10683428732E+03  0.10683428736E+03  0.25500000920E-02 0. -1.
        2   -1    0    0  501    0  0.00000000000E+00  0.00000000000E+00 -0.83878467414E+03  0.83878467415E+03  0.25500000920E-02 0.  1.
    10030    2    1    2    0    0  0.00000000000E+00  0.00000000000E+00 -0.73195038682E+03  0.94561896150E+03  0.59870180523E+03 0.  0.
        2    1    3    3  502    0  0.13246261034E+03 -0.66038825994E+02  0.44995774218E+02  0.15469999800E+03  0.25500000920E-02 0. -1.
       -2    1    3    3    0  502 -0.13246261034E+03  0.66038825994E+02 -0.77694616103E+03  0.79091896350E+03  0.25500000920E-02 0.  1.
</event>
<event>
 5   0  0.5999117E-02  0.6034482E+03  0.7818609E-02  0.9898278E-01
        2   -1    0    0  501    0  0.00000000000E+00  0.00000000000E+00  0.42815756225E+03  0.42815756226E+03  0.25500000920E-02 0.  1.
       -2   -1    0    0    0  501  0.00000000000E+00  0.00000000000E+00 -0.21262600635E+03  0.21262600637E+03  0.25500000920E-02 0. -1.
    10030    2    1    2    0    0  0.00000000000E+00  0.00000000000E+00  0.21553155590E+03  0.64078356862E+03  0.60344820012E+03 0.  0.
        5    1    3    3  502    0 -0.18448366246E+01  0.14833443753E+03 -0.17118251916E+03  0.22656578216E+03  0.46999998093E+01 0. -1.
       -5    1    3    3    0  502  0.18448366246E+01 -0.14833443753E+03  0.38671407506E+03  0.41421778647E+03  0.46999998093E+01 0.  1.
</event>
<event>
 5   0  0.3478183E-02  0.6028774E+03  0.7818609E-02  0.9899454E-01
        1   -1    0    0  501    0  0.00000000000E+00  0.00000000000E+00  0.78895585114E+03  0.78895585116E+03  0.50400001928E-02 0.  1.
       -1   -1    0    0    0  501  0.00000000000E+00  0.00000000000E+00 -0.11517156581E+03  0.11517156592E+03  0.50400001928E-02 0. -1.
    10030    2    1    2    0    0  0.00000000000E+00  0.00000000000E+00  0.67378428533E+03  0.90412741707E+03  0.60287736991E+03 0.  0.
        4    1    3    3  502    0  0.57501064879E+02  0.18444329938E+03  0.68389382925E+03  0.71066031670E+03  0.12699999809E+01 0.  1.
       -4    1    3    3    0  502 -0.57501064879E+02 -0.18444329938E+03 -0.10109543921E+02  0.19346710037E+03  0.12699999809E+01 0. -1.
</event>
<event>
 5   0  0.6007360E-02  0.5978420E+03  0.7818609E-02  0.9909893E-01
       -2   -1    0    0    0  501  0.00000000000E+00  0.00000000000E+00  0.76712051392E+02  0.76712051435E+02  0.25500000920E-02 0. -1.
        2   -1    0    0  501    0  0.00000000000E+00  0.00000000000E+00 -0.11647945469E+04  0.11647945469E+04  0.25500000920E-02 0.  1.
    10030    2    1    2    0    0  0.00000000000E+00  0.00000000000E+00 -0.10880824955E+04  0.12415065983E+04  0.59784204995E+03 0.  0.
        4    1    3    3  502    0 -0.15085217877E+03 -0.91138097067E+02 -0.10454111240E+04  0.10601644041E+04  0.12699999809E+01 0.  1.
       -4    1    3    3    0  502  0.15085217877E+03  0.91138097067E+02 -0.42671371516E+02  0.18134219427E+03  0.12699999809E+01 0. -1.
</event>
<event>
 5   0  0.3703280E-02  0.6010005E+03  0.7818609E-02  0.9903333E-01
        1   -1    0    0  501    0  0.00000000000E+00  0.00000000000E+00  0.75164973741E+03  0.75164973743E+03  0.50400001928E-02 0. -1.
       -1   -1    0    0    0  501  0.00000000000E+00  0.00000000000E+00 -0.12013626621E+03  0.12013626631E+03  0.50400001928E-02 0.  1.
    10030    2    1    2    0    0  0.00000000000E+00  0.00000000000E+00  0.63151347121E+03  0.87178600375E+03  0.60100047588E+03 0.  0.
        5    1    3    3  502    0 -0.28292937340E+03 -0.40496111095E+02  0.18132094229E+03  0.33850899464E+03  0.46999998093E+01 0.  1.
       -5    1    3    3    0  502  0.28292937340E+03  0.40496111095E+02  0.45019252892E+03  0.53327700910E+03  0.46999998093E+01 0. -1.
</event>
<event>
 5   0  0.5755078E-02  0.6006895E+03  0.7818609E-02  0.9903977E-01
        2   -1    0    0  501    0  0.00000000000E+00  0.00000000000E+00  0.55959692183E+03  0.55959692183E+03  0.25500000920E-02 0. -1.
       -2   -1    0    0    0  501  0.00000000000E+00  0.00000000000E+00 -0.16119988234E+03  0.16119988236E+03  0.25500000920E-02 0.  1.
    10030    2    1    2    0    0  0.00000000000E+00  0.00000000000E+00  0.39839703949E+03  0.72079680419E+03  0.60068946375E+03 0.  0.
        2    1    3    3  502    0 -0.29083631985E+03 -0.66456135474E+02  0.15754844124E+03  0.33737767299E+03  0.25500000920E-02 0. -1.
       -2    1    3    3    0  502  0.29083631985E+03  0.66456135474E+02  0.24084859825E+03  0.38341913120E+03  0.25500000920E-02 0.  1.
</event>
<event>
 5   0  0.5935451E-02  0.5971184E+03  0.7818609E-02  0.9911403E-01
        2   -1    0    0  501    0  0.00000000000E+00  0.00000000000E+00  0.99378802383E+03  0.99378802383E+03  0.25500000920E-02 0.  1.
       -2   -1    0    0    0  501  0.00000000000E+00  0.00000000000E+00 -0.89694766530E+02  0.89694766566E+02  0.25500000920E-02 0. -1.
    10030    2    1    2    0    0  0.00000000000E+00  0.00000000000E+00  0.90409325730E+03  0.10834827904E+04  0.59711836280E+03 0.  0.
        3    1    3    3  502    0 -0.24201819381E+03  0.17481662211E+03  0.45563786232E+03  0.54473803730E+03  0.10100000352E+00 0. -1.
       -3    1    3    3    0  502  0.24201819381E+03 -0.17481662211E+03  0.44845539498E+03  0.53874475310E+03  0.10100000352E+00 0.  1.
</event>
<event>
 5   0  0.3767635E-02  0.6087184E+03  0.7818609E-02  0.9887481E-01
       -1   -1    0    0    0  501  0.00000000000E+00  0.00000000000E+00  0.12190868499E+03  0.12190868510E+03  0.50400001928E-02 0.  1.
        1   -1    0    0  501    0  0.00000000000E+00  0.00000000000E+00 -0.75986806201E+03  0.75986806203E+03  0.50400001928E-02 0. -1.
    10030    2    1    2    0    0  0.00000000000E+00  0.00000000000E+00 -0.63795937702E+03  0.88177674712E+03  0.60871837909E+03 0.  0.
        2    1    3    3  502    0  0.52059375320E+02  0.16605403643E+03 -0.68069078396E+03  0.70258384905E+03  0.25500000920E-02 0. -1.
       -2    1    3    3    0  502 -0.52059375320E+02 -0.16605403643E+03  0.42731406942E+02  0.17919289807E+03  0.25500000920E-02 0.  1.
</event>
<event>
 5   0  0.3703280E-02  0.5970346E+03  0.7818609E-02  0.9911577E-01
        1   -1    0    0  501    0  0.00000000000E+00  0.00000000000E+00  0.18029652484E+04  0.18029652484E+04  0.50400001928E-02 0.  1.
       -1   -1    0    0    0  501  0.00000000000E+00  0.00000000000E+00 -0.49425567633E+02  0.49425567890E+02  0.50400001928E-02 0. -1.
    10030    2    1    2    0    0  0.00000000000E+00  0.00000000000E+00  0.17535396808E+04  0.18523908163E+04  0.59703460894E+03 0.  0.
        5    1    3    3  502    0  0.22263224916E+02 -0.63170848518E+02  0.17792325982E+04  0.17804990693E+04  0.46999998093E+01 0.  1.
       -5    1    3    3    0  502 -0.22263224916E+02  0.63170848518E+02 -0.25692917410E+02  0.71891747019E+02  0.46999998093E+01 0. -1.
</event>
<event>
 5   0  0.5935451E-02  0.6311363E+03  0.7818609E-02  0.9842834E-01
        2   -1    0    0  501    0  0.00000000000E+00  0.00000000000E+00  0.13955509486E+04  0.13955509486E+04  0.25500000920E-02 0. -1.
       -2   -1    0    0    0  501  0.00000000000E+00  0.00000000000E+00 -0.71357657276E+02  0.71357657321E+02  0.25500000920E-02 0.  1.
    10030    2    1    2    0    0  0.00000000000E+00  0.00000000000E+00  0.13241932914E+04  0.14669086060E+04  0.63113626528E+03 0.  0.
        3    1    3    3  502    0  0.25814961969E+03 -0.35251364704E+02  0.24828271362E+03  0.35990026527E+03  0.10100000352E+00 0.  1.
       -3    1    3    3    0  502 -0.25814961969E+03  0.35251364704E+02  0.10759105777E+04  0.11070083407E+04  0.10100000352E+00 0. -1.
</event>
<event>
 5   0  0.5935451E-02  0.5826726E+03  0.7818609E-02  0.9942022E-01
       -2   -1    0    0    0  501  0.00000000000E+00  0.00000000000E+00  0.90689977024E+02  0.90689977060E+02  0.25500000920E-02 0. -1.
        2   -1    0    0  501    0  0.00000000000E+00  0.00000000000E+00 -0.93590091422E+03  0.93590091422E+03  0.25500000920E-02 0.  1.
    10030    2    1    2    0    0  0.00000000000E+00  0.00000000000E+00 -0.84521093719E+03  0.10265908913E+04  0.58267257504E+03 0.  0.
        3    1    3    3  502    0 -0.11218082629E+03  0.19610684817E+03 -0.98525643888E+02  0.24647463640E+03  0.10100000352E+00 0. -1.
       -3    1    3    3    0  502  0.11218082629E+03 -0.19610684817E+03 -0.74668529330E+03  0.78011625488E+03  0.10100000352E+00 0.  1.
</event>
<event>
 5   0  0.5755078E-02  0.5704176E+03  0.7818609E-02  0.9968755E-01
        2   -1    0    0  501    0  0.00000000000E+00  0.00000000000E+00  0.16115533715E+04  0.16115533715E+04  0.25500000920E-02 0. -1.
       -2   -1    0    0    0  501  0.00000000000E+00  0.00000000000E+00 -0.50475559454E+02  0.50475559518E+02  0.25500000920E-02 0.  1.
    10030    2    1    2    0    0  0.00000000000E+00  0.00000000000E+00  0.15610778120E+04  0.16620289310E+04  0.57041759464E+03 0.  0.
        2    1    3    3  502    0 -0.12160105404E+02  0.20565461188E+03  0.13552289842E+04  0.13707980475E+04  0.25500000920E-02 0. -1.
       -2    1    3    3    0  502  0.12160105404E+02 -0.20565461188E+03  0.20584882785E+03  0.29123088347E+03  0.25500000920E-02 0.  1.
</event>
<event>
 5   0  0.3651984E-02  0.5985919E+03  0.7818609E-02  0.9908332E-01
       -1   -1    0    0    0  501  0.00000000000E+00  0.00000000000E+00  0.10797728364E+03  0.10797728375E+03  0.50400001928E-02 0.  1.
        1   -1    0    0  501    0  0.00000000000E+00  0.00000000000E+00 -0.82960099285E+03  0.82960099287E+03  0.50400001928E-02 0. -1.
    10030    2    1    2    0    0  0.00000000000E+00  0.00000000000E+00 -0.72162370921E+03  0.93757827662E+03  0.59859188692E+03 0.  0.
        1    1    3    3  502    0  0.14994025913E+03 -0.24269290206E+03 -0.21901020573E+03  0.35964899035E+03  0.50400001928E-02 0.  1.
       -1    1    3    3    0  502 -0.14994025913E+03  0.24269290206E+03 -0.50261350348E+03  0.57792928627E+03  0.50400001928E-02 0. -1.
</event>
<event>
 5   0  0.6007360E-02  0.5995018E+03  0.7818609E-02  0.9906440E-01
       -2   -1    0    0    0  501  0.00000000000E+00  0.00000000000E+00  0.33267443836E+03  0.33267443837E+03  0.25500000920E-02 0.  1.
        2   -1    0    0  501    0  0.00000000000E+00  0.00000000000E+00 -0.27008564692E+03  0.27008564693E+03  0.25500000920E-02 0. -1.
    10030    2    1    2    0    0  0.00000000000E+00  0.00000000000E+00  0.62588791441E+02  0.60276008530E+03  0.59950176281E+03 0.  0.
        4    1    3    3  502    0  0.25213164945E+03  0.13741069777E+01 -0.13168759106E+03  0.28445648413E+03  0.12699999809E+01 0. -1.
       -4    1    3    3    0  502 -0.25213164945E+03 -0.13741069777E+01  0.19427638250E+03  0.31830360117E+03  0.12699999809E+01 0.  1.
</event>
<event>
 5   0  0.5935451E-02  0.5982068E+03  0.7818609E-02  0.9909133E-01
       -2   -1    0    0    0  501  0.00000000000E+00  0.00000000000E+00  0.30752638264E+03  0.30752638265E+03  0.25500000920E-02 0.  1.
        2   -1    0    0  501    0  0.00000000000E+00  0.00000000000E+00 -0.29091107615E+03  0.29091107616E+03  0.25500000920E-02 0. -1.
    10030    2    1    2    0    0  0.00000000000E+00  0.00000000000E+00  0.16615306484E+02  0.59843745881E+03  0.59820675665E+03 0.  0.
        3    1    3    3  502    0 -0.17666872853E+02 -0.49496373740E+02  0.30287122469E+03  0.30739713460E+03  0.10100000352E+00 0.  1.
       -3    1    3    3    0  502  0.17666872853E+02  0.49496373740E+02 -0.28625591821E+03  0.29104032422E+03  0.10100000352E+00 0. -1.
</event>
<event>
 5   0  0.2388000E-02  0.6079225E+03  0.7818609E-02  0.9889104E-01
       -4   -1    0    0    0  501  0.00000000000E+00  0.00000000000E+00  0.10009996065E+04  0.10010004122E+04  0.12699999809E+01 0. -1.
        4   -1    0    0  501    0  0.00000000000E+00  0.00000000000E+00 -0.92294971284E+02  0.92303708616E+02  0.12699999809E+01 0.  1.
    10030    2    1    2    0    0  0.00000000000E+00  0.00000000000E+00  0.90870463523E+03  0.10933041208E+04  0.60792251679E+03 0.  0.
        1    1    3    3  502    0  0.10145718863E+03  0.27579266762E+03  0.31461455923E+03  0.43050839428E+03  0.50400001928E-02 0.  1.
       -1    1    3    3    0  502 -0.10145718863E+03 -0.27579266762E+03  0.59409007600E+03  0.66279572650E+03  0.50400001928E-02 0. -1.
</event>
<event>
 5   0  0.3478183E-02  0.6028413E+03  0.7818609E-02  0.9899529E-01
        1   -1    0    0  501    0  0.00000000000E+00  0.00000000000E+00  0.52048557924E+03  0.52048557926E+03  0.50400001928E-02 0. -1.
       -1   -1    0    0    0  501  0.00000000000E+00  0.00000000000E+00 -0.17455699114E+03  0.17455699121E+03  0.50400001928E-02 0.  1.
    10030    2    1    2    0    0  0.00000000000E+00  0.00000000000E+00  0.34592858810E+03  0.69504257048E+03  0.60284126162E+03 0.  0.
        4    1    3    3  502    0  0.51860419552E+02  0.27752736929E+03  0.29466326143E+03  0.40809189450E+03  0.12699999809E+01 0. -1.
       -4    1    3    3    0  502 -0.51860419552E+02 -0.27752736929E+03  0.51265326666E+02  0.28695067597E+03  0.12699999809E+01 0.  1.
</event>
<event>
 5   0  0.5872632E-02  0.6028120E+03  0.7818609E-02  0.9899589E-01
        2   -1    0    0  501    0  0.00000000000E+00  0.00000000000E+00  0.97777551616E+03  0.97777551617E+03  0.25500000920E-02 0.  1.
       -2   -1    0    0    0  501  0.00000000000E+00  0.00000000000E+00 -0.92910452894E+02  0.92910452929E+02  0.25500000920E-02 0. -1.
    10030    2    1    2    0    0  0.00000000000E+00  0.00000000000E+00  0.88486506327E+03  0.10706859691E+04  0.60281196424E+03 0.  0.
        1    1    3    3  502    0 -0.13322517550E+03 -0.26620976618E+03  0.52628835741E+03  0.60464536893E+03  0.50400001928E-02 0. -1.
       -1    1    3    3    0  502  0.13322517550E+03  0.26620976618E+03  0.35857670585E+03  0.46604060016E+03  0.50400001928E-02 0.  1.
</event>
<event>
 5   0  0.3703280E-02  0.5979361E+03  0.7818609E-02  0.9909697E-01
       -1   -1    0    0    0  501  0.00000000000E+00  0.00000000000E+00  0.54526716201E+02  0.54526716434E+02  0.50400001928E-02 0.  1.
        1   -1    0    0  501    0  0.00000000000E+00  0.00000000000E+00 -0.16392313531E+04  0.16392313531E+04  0.50400001928E-02 0. -1.
    10030    2    1    2    0    0  0.00000000000E+00  0.00000000000E+00 -0.15847046369E+04  0.16937580696E+04  0.59793612697E+03 0.  0.
        5    1    3    3  502    0 -0.15665612442E+03  0.58860672730E+02 -0.90705834916E+02  0.19040839949E+03  0.46999998093E+01 0.  1.
       -5    1    3    3    0  502  0.15665612442E+03 -0.58860672730E+02 -0.14939988020E+04  0.15033496701E+04  0.46999998093E+01 0. -1.
</event>
<event>
 5   0  0.3478183E-02  0.5807486E+03  0.7818609E-02  0.9946172E-01
       -1   -1    0    0    0  501  0.00000000000E+00  0.00000000000E+00  0.10821558392E+03  0.10821558404E+03  0.50400001928E-02 0. -1.
        1   -1    0    0  501    0  0.00000000000E+00  0.00000000000E+00 -0.77915969834E+03  0.77915969836E+03  0.50400001928E-02 0.  1.
    10030    2    1    2    0    0  0.00000000000E+00  0.00000000000E+00 -0.67094411442E+03  0.88737528240E+03  0.58074855759E+03 0.  0.
        4    1    3    3  502    0  0.74143206917E+02  0.13615111715E+03  0.39682627186E+02  0.16003332663E+03  0.12699999809E+01 0. -1.
       -4    1    3    3    0  502 -0.74143206917E+02 -0.13615111715E+03 -0.71062674161E+03  0.72734195577E+03  0.12699999809E+01 0.  1.
</event>
<event>
 5   0  0.5935451E-02  0.5975386E+03  0.7818609E-02  0.9910526E-01
        2   -1    0    0  501    0  0.00000000000E+00  0.00000000000E+00  0.46303908817E+03  0.46303908818E+03  0.25500000920E-02 0. -1.
       -2   -1    0    0    0  501  0.00000000000E+00  0.00000000000E+00 -0.19277657221E+03  0.19277657223E+03  0.25500000920E-02 0.  1.
    10030    2    1    2    0    0  0.00000000000E+00  0.00000000000E+00  0.27026251596E+03  0.65581566041E+03  0.59753857859E+03 0.  0.
        3    1    3    3  502    0 -0.28217328652E+03 -0.40551187203E+02  0.23327827171E+03  0.36835434660E+03  0.10100000352E+00 0. -1.
       -3    1    3    3    0  502  0.28217328652E+03  0.40551187203E+02  0.36984244254E+02  0.28746131380E+03  0.10100000352E+00 0.  1.
</event>
<event>
 5   0  0.3478183E-02  0.6040250E+03  0.7818609E-02  0.9897091E-01
       -1   -1    0    0    0  501  0.00000000000E+00  0.00000000000E+00  0.30260292148E+03  0.30260292152E+03  0.50400001928E-02 0. -1.
        1   -1    0    0  501    0  0.00000000000E+00  0.00000000000E+00 -0.30142319793E+03  0.30142319797E+03  0.50400001928E-02 0.  1.
    10030    2    1    2    0    0  0.00000000000E+00  0.00000000000E+00  0.11797235497E+01  0.60402611949E+03  0.60402496743E+03 0.  0.
        4    1    3    3  502    0  0.25936561813E+03 -0.15271767889E+03  0.25423638394E+02  0.30206156260E+03  0.12699999809E+01 0. -1.
       -4    1    3    3    0  502 -0.25936561813E+03  0.15271767889E+03 -0.24243914844E+02  0.30196455689E+03  0.12699999809E+01 0.  1.
</event>
<event>
 5   0  0.3651984E-02  0.5974421E+03  0.7818609E-02  0.9910727E-01
        1   -1    0    0  501    0  0.00000000000E+00  0.00000000000E+00  0.81781394660E+02  0.81781394815E+02  0.50400001928E-02 0.  1.
       -1   -1    0    0    0  501  0.00000000000E+00  0.00000000000E+00 -0.10911317259E+04  0.10911317259E+04  0.50400001928E-02 0. -1.
    10030    2    1    2    0    0  0.00000000000E+00  0.00000000000E+00 -0.10093503313E+04  0.11729131207E+04  0.59744212908E+03 0.  0.
        1    1    3    3  502    0 -0.22832412484E+03 -0.15455342486E+03 -0.27898451816E+03  0.39223848424E+03  0.50400001928E-02 0.  1.
       -1    1    3    3    0  502  0.22832412484E+03  0.15455342486E+03 -0.73036581310E+03  0.78067463651E+03  0.50400001928E-02 0. -1.
</event>
<event>
 5   0  0.3767635E-02  0.6000402E+03  0.7818609E-02  0.9905323E-01
       -1   -1    0    0    0  501  0.00000000000E+00  0.00000000000E+00  0.65639576638E+02  0.65639576831E+02  0.50400001928E-02 0. -1.
        1   -1    0    0  501    0  0.00000000000E+00  0.00000000000E+00 -0.13713075233E+04  0.13713075233E+04  0.50400001928E-02 0.  1.
    10030    2    1    2    0    0  0.00000000000E+00  0.00000000000E+00 -0.13056679467E+04  0.14369471001E+04  0.60004015004E+03 0.  0.
        2    1    3    3  502    0 -0.50613321234E+02  0.11733111465E+03 -0.13028833103E+04  0.13091345305E+04  0.25500000920E-02 0.  1.
       -2    1    3    3    0  502  0.50613321234E+02 -0.11733111465E+03 -0.27846363850E+01  0.12781256964E+03  0.25500000920E-02 0. -1.
</event>
<event>
 5   0  0.5872632E-02  0.5915709E+03  0.7818609E-02  0.9923050E-01
       -2   -1    0    0    0  501  0.00000000000E+00  0.00000000000E+00  0.90885648264E+03  0.90885648265E+03  0.25500000920E-02 0.  1.
        2   -1    0    0  501    0  0.00000000000E+00  0.00000000000E+00 -0.96262775095E+02  0.96262775129E+02  0.25500000920E-02 0. -1.
    10030    2    1    2    0    0  0.00000000000E+00  0.00000000000E+00  0.81259370755E+03  0.10051192578E+04  0.59157094993E+03 0.  0.
        1    1    3    3  502    0  0.54485520678E+02 -0.92538195423E+02  0.87456522133E+03  0.88113354037E+03  0.50400001928E-02 0.  1.
       -1    1    3    3    0  502 -0.54485520678E+02  0.92538195423E+02 -0.61971513781E+02  0.12398571741E+03  0.50400001928E-02 0. -1.
</event>
<event>
 5   0  0.3703280E-02  0.6103985E+03  0.7818609E-02  0.9884064E-01
       -1   -1    0    0    0  501  0.00000000000E+00  0.00000000000E+00  0.61799427211E+03  0.61799427213E+03  0.50400001928E-02 0. -1.
        1   -1    0    0  501    0  0.00000000000E+00  0.00000000000E+00 -0.15072402916E+03  0.15072402925E+03  0.50400001928E-02 0.  1.
    10030    2    1    2    0    0  0.00000000000E+00  0.00000000000E+00  0.46727024294E+03  0.76871830138E+03  0.61039851485E+03 0.  0.
        5    1    3    3  502    0  0.13591736616E+03  0.15238169315E+03 -0.51969567196E+02  0.21075254861E+03  0.46999998093E+01 0.  1.
       -5    1    3    3    0  502 -0.13591736616E+03 -0.15238169315E+03  0.51923981014E+03  0.55796575277E+03  0.46999998093E+01 0. -1.
</event>
<event>
 5   0  0.5935451E-02  0.5874455E+03  0.7818609E-02  0.9931800E-01
        2   -1    0    0  501    0  0.00000000000E+00  0.00000000000E+00  0.37707972523E+03  0.37707972524E+03  0.25500000920E-02 0. -1.
       -2   -1    0    0    0  501  0.00000000000E+00  0.00000000000E+00 -0.22879263442E+03  0.22879263444E+03  0.25500000920E-02 0.  1.
    10030    2    1    2    0    0  0.00000000000E+00  0.00000000000E+00  0.14828709081E+03  0.60587235968E+03  0.58744553358E+03 0.  0.
        3    1    3    3  502    0  0.11456015631E+02 -0.23563570160E+03  0.25461117530E+03  0.34710558185E+03  0.10100000352E+00 0. -1.
       -3    1    3    3    0  502 -0.11456015631E+02  0.23563570160E+03 -0.10632408448E+03  0.25876677783E+03  0.10100000352E+00 0.  1.
</event>
<event>
 5   0  0.5755078E-02  0.5986988E+03  0.7818609E-02  0.9908109E-01
        2   -1    0    0  501    0  0.00000000000E+00  0.00000000000E+00  0.99117847432E+03  0.99117847432E+03  0.25500000920E-02 0. -1.
       -2   -1    0    0    0  501  0.00000000000E+00  0.00000000000E+00 -0.90407611168E+02  0.90407611204E+02  0.25500000920E-02 0.  1.
    10030    2    1    2    0    0  0.00000000000E+00  0.00000000000E+00  0.90077086315E+03  0.10815860855E+04  0.59869884959E+03 0.  0.
        2    1    3    3  502    0  0.28450536178E+03 -0.76535375473E+02  0.54613510787E+03  0.62053567233E+03  0.25500000920E-02 0. -1.
       -2    1    3    3    0  502 -0.28450536178E+03  0.76535375473E+02  0.35463575529E+03  0.46105041320E+03  0.25500000920E-02 0.  1.
</event>
<event>
 5   0  0.6007360E-02  0.5693260E+03  0.7818609E-02  0.9971171E-01
        2   -1    0    0  501    0  0.00000000000E+00  0.00000000000E+00  0.64104080779E+03  0.64104080779E+03  0.25500000920E-02 0. -1.
       -2   -1    0    0    0  501  0.00000000000E+00  0.00000000000E+00 -0.12640853374E+03  0.12640853377E+03  0.25500000920E-02 0.  1.
    10030    2    1    2    0    0  0.00000000000E+00  0.00000000000E+00  0.51463227404E+03  0.76744934156E+03  0.56932601765E+03 0.  0.
        4    1    3    3  502    0  0.24346858431E+03  0.11738769856E+03  0.37769297557E+03  0.46444635860E+03  0.12699999809E+01 0. -1.
       -4    1    3    3    0  502 -0.24346858431E+03 -0.11738769856E+03  0.13693929847E+03  0.30300298296E+03  0.12699999809E+01 0.  1.
</event>
<event>
 5   0  0.5935451E-02  0.5962927E+03  0.7818609E-02  0.9913127E-01
        2   -1    0    0  501    0  0.00000000000E+00  0.00000000000E+00  0.19810329052E+03  0.19810329054E+03  0.25500000920E-02 0.  1.
       -2   -1    0    0    0  501  0.00000000000E+00  0.00000000000E+00 -0.44871164670E+03  0.44871164671E+03  0.25500000920E-02 0. -1.
    10030    2    1    2    0    0  0.00000000000E+00  0.00000000000E+00 -0.25060835618E+03  0.64681493724E+03  0.59629272581E+03 0.  0.
        3    1    3    3  502    0 -0.12244468883E+03 -0.48739561429E+02  0.16479291767E+03  0.21100938980E+03  0.10100000352E+00 0.  1.
       -3    1    3    3    0  502  0.12244468883E+03  0.48739561429E+02 -0.41540127384E+03  0.43580554744E+03  0.10100000352E+00 0. -1.
</event>
<event>
 5   0  0.3651984E-02  0.6057359E+03  0.7818609E-02  0.9893577E-01
        1   -1    0    0  501    0  0.00000000000E+00  0.00000000000E+00  0.95010452928E+03  0.95010452929E+03  0.50400001928E-02 0.  1.
       -1   -1    0    0    0  501  0.00000000000E+00  0.00000000000E+00 -0.96546220213E+02  0.96546220345E+02  0.50400001928E-02 0. -1.
    10030    2    1    2    0    0  0.00000000000E+00  0.00000000000E+00  0.85355830907E+03  0.10466507496E+04  0.60573591997E+03 0.  0.
        1    1    3    3  502    0  0.44283198612E+02  0.22852725224E+03  0.91979770165E+02  0.25029179939E+03  0.50400001928E-02 0. -1.
       -1    1    3    3    0  502 -0.44283198612E+02 -0.22852725224E+03  0.76157853890E+03  0.79635895025E+03  0.50400001928E-02 0.  1.
</event>
<event>
 5   0  0.3703280E-02  0.6019092E+03  0.7818609E-02  0.9901453E-01
       -1   -1    0    0    0  501  0.00000000000E+00  0.00000000000E+00  0.15280592117E+04  0.15280592117E+04  0.50400001928E-02 0. -1.
        1   -1    0    0  501    0  0.00000000000E+00  0.00000000000E+00 -0.59273672296E+02  0.59273672510E+02  0.50400001928E-02 0.  1.
    10030    2    1    2    0    0  0.00000000000E+00  0.00000000000E+00  0.14687855394E+04  0.15873328843E+04  0.60190923283E+03 0.  0.
        5    1    3    3  502    0 -0.12550085597E+03  0.23929759988E+03  0.10836330909E+04  0.11168243246E+04  0.46999998093E+01 0. -1.
       -5    1    3    3    0  502  0.12550085597E+03 -0.23929759988E+03  0.38515244850E+03  0.47050855969E+03  0.46999998093E+01 0.  1.
</event>
<event>
 5   0  0.3703280E-02  0.5922028E+03  0.7818609E-02  0.9921716E-01
        1   -1    0    0  501    0  0.00000000000E+00  0.00000000000E+00  0.54944317357E+02  0.54944317589E+02  0.50400001928E-02 0. -1.
       -1   -1    0    0    0  501  0.00000000000E+00  0.00000000000E+00 -0.15957255429E+04  0.15957255429E+04  0.50400001928E-02 0.  1.
    10030    2    1    2    0    0  0.00000000000E+00  0.00000000000E+00 -0.15407812255E+04  0.16506698605E+04  0.59220283971E+03 0.  0.
        5    1    3    3  502    0  0.12146971440E+03 -0.26975767828E+03 -0.73862665006E+03  0.79568556270E+03  0.46999998093E+01 0.  1.
       -5    1    3    3    0  502 -0.12146971440E+03  0.26975767828E+03 -0.80215457544E+03  0.85498429775E+03  0.46999998093E+01 0. -1.
</event>
<event>
 5   0  0.6007360E-02  0.6021716E+03  0.7818609E-02  0.9900911E-01
        2   -1    0    0  501    0  0.00000000000E+00  0.00000000000E+00  0.10994118935E+04  0.10994118935E+04  0.25500000920E-02 0. -1.
       -2   -1    0    0    0  501  0.00000000000E+00  0.00000000000E+00 -0.82455585004E+02  0.82455585043E+02  0.25500000920E-02 0.  1.
    10030    2    1    2    0    0  0.00000000000E+00  0.00000000000E+00  0.10169563085E+04  0.11818674785E+04  0.60217157310E+03 0.  0.
        4    1    3    3  502    0  0.11914552347E+03  0.97853519652E+02  0.90704420539E+00  0.15418625976E+03  0.12699999809E+01 0.  1.
       -4    1    3    3    0  502 -0.11914552347E+03 -0.97853519652E+02  0.10160492643E+04  0.10276812188E+04  0.12699999809E+01 0. -1.
</event>
<event>
 5   0  0.5755078E-02  0.6036486E+03  0.7818609E-02  0.9897865E-01
        2   -1    0    0  501    0  0.00000000000E+00  0.00000000000E+00  0.95079900035E+03  0.95079900036E+03  0.25500000920E-02 0. -1.
       -2   -1    0    0    0  501  0.00000000000E+00  0.00000000000E+00 -0.95811964966E+02  0.95811965000E+02  0.25500000920E-02 0.  1.
    10030    2    1    2    0    0  0.00000000000E+00  0.00000000000E+00  0.85498703539E+03  0.10466109654E+04  0.60364864129E+03 0.  0.
        2    1    3    3  502    0 -0.15279182299E+03  0.12423353311E+02  0.87827778071E+03  0.89155568585E+03  0.25500000920E-02 0. -1.
       -2    1    3    3    0  502  0.15279182299E+03 -0.12423353311E+02 -0.23290745320E+02  0.15505527951E+03  0.25500000920E-02 0.  1.
</event>
<event>
 5   0  0.3767635E-02  0.5878151E+03  0.7818609E-02  0.9931013E-01
        1   -1    0    0  501    0  0.00000000000E+00  0.00000000000E+00  0.52780964301E+03  0.52780964303E+03  0.50400001928E-02 0. -1.
       -1   -1    0    0    0  501  0.00000000000E+00  0.00000000000E+00 -0.16366058797E+03  0.16366058805E+03  0.50400001928E-02 0.  1.
    10030    2    1    2    0    0  0.00000000000E+00  0.00000000000E+00  0.36414905503E+03  0.69147023108E+03  0.58781506121E+03 0.  0.
        2    1    3    3  502    0 -0.48050958273E+02  0.24249777359E+03  0.36906287007E+03  0.44420880997E+03  0.25500000920E-02 0. -1.
       -2    1    3    3    0  502  0.48050958273E+02 -0.24249777359E+03 -0.49138150335E+01  0.24726142111E+03  0.25500000920E-02 0.  1.
</event>
<event>
 5   0  0.2388000E-02  0.5976596E+03  0.7818609E-02  0.9910274E-01
       -4   -1    0    0    0  501  0.00000000000E+00  0.00000000000E+00  0.18308527512E+03  0.18308967984E+03  0.12699999809E+01 0. -1.
        4   -1    0    0  501    0  0.00000000000E+00  0.00000000000E+00 -0.48773563370E+03  0.48773728716E+03  0.12699999809E+01 0.  1.
    10030    2    1    2    0    0  0.00000000000E+00  0.00000000000E+00 -0.30465035859E+03  0.67082696700E+03  0.59765958427E+03 0.  0.
        2    1    3    3  502    0  0.15977920515E+03 -0.22111356486E+03 -0.28923615547E+03  0.39759043827E+03  0.25500000920E-02 0.  1.
       -2    1    3    3    0  502 -0.15977920515E+03  0.22111356486E+03 -0.15414203113E+02  0.27323652873E+03  0.25500000920E-02 0. -1.
</event>
<event>
 5   0  0.5872632E-02  0.6005586E+03  0.7818609E-02  0.9904248E-01
       -2   -1    0    0    0  501  0.00000000000E+00  0.00000000000E+00  0.10949127019E+03  0.10949127021E+03  0.25500000920E-02 0. -1.
        2   -1    0    0  501    0  0.00000000000E+00  0.00000000000E+00 -0.82351452632E+03  0.82351452633E+03  0.25500000920E-02 0.  1.
    10030    2    1    2    0    0  0.00000000000E+00  0.00000000000E+00 -0.71402325614E+03  0.93300579654E+03  0.60055857839E+03 0.  0.
        1    1    3    3  502    0 -0.19504358021E+03 -0.22782635947E+03 -0.38009672428E+03  0.48416977196E+03  0.50400001928E-02 0.  1.
       -1    1    3    3    0  502  0.19504358021E+03  0.22782635947E+03 -0.33392653186E+03  0.44883602458E+03  0.50400001928E-02 0. -1.
</event>
<event>
 5   0  0.3478183E-02  0.6137359E+03  0.7818609E-02  0.9877311E-01
       -1   -1    0    0    0  501  0.00000000000E+00  0.00000000000E+00  0.89933021180E+02  0.89933021321E+02  0.50400001928E-02 0. -1.
        1   -1    0    0  501    0  0.00000000000E+00  0.00000000000E+00 -0.10470897273E+04  0.10470897273E+04  0.50400001928E-02 0.  1.
    10030    2    1    2    0    0  0.00000000000E+00  0.00000000000E+00 -0.95715670615E+03  0.11370227487E+04  0.61373591296E+03 0.  0.
        4    1    3    3  502    0  0.11958167414E+03 -0.27809441632E+03 -0.38539205666E+03  0.49006625207E+03  0.12699999809E+01 0. -1.
       -4    1    3    3    0  502 -0.11958167414E+03  0.27809441632E+03 -0.57176464949E+03  0.64695649660E+03  0.12699999809E+01 0.  1.
</event>
<event>
 5   0  0.3703280E-02  0.5988640E+03  0.7818609E-02  0.9907766E-01
       -1   -1    0    0    0  501  0.00000000000E+00  0.00000000000E+00  0.10617726867E+03  0.10617726879E+03  0.50400001928E-02 0.  1.
        1   -1    0    0  501    0  0.00000000000E+00  0.00000000000E+00 -0.84443230041E+03  0.84443230043E+03  0.50400001928E-02 0. -1.
    10030    2    1    2    0    0  0.00000000000E+00  0.00000000000E+00 -0.73825503175E+03  0.95060956922E+03  0.59886397553E+03 0.  0.
        5    1    3    3  502    0 -0.21599313761E+03  0.11826778002E+03 -0.98824158042E+02  0.26538388703E+03  0.46999998093E+01 0. -1.
       -5    1    3    3    0  502  0.21599313761E+03 -0.11826778002E+03 -0.63943087370E+03  0.68522568219E+03  0.46999998093E+01 0.  1.
</event>
<event>
 5   0  0.3651984E-02  0.6047894E+03  0.7818609E-02  0.9895519E-01
       -1   -1    0    0    0  501  0.00000000000E+00  0.00000000000E+00  0.13123519089E+03  0.13123519099E+03  0.50400001928E-02 0.  1.
        1   -1    0    0  501    0  0.00000000000E+00  0.00000000000E+00 -0.69678383920E+03  0.69678383922E+03  0.50400001928E-02 0. -1.
    10030    2    1    2    0    0  0.00000000000E+00  0.00000000000E+00 -0.56554864831E+03  0.82801903020E+03  0.60478941854E+03 0.  0.
        1    1    3    3  502    0 -0.23688200268E+03 -0.15943615731E+03 -0.41906431085E+03  0.50709749369E+03  0.50400001928E-02 0.  1.
       -1    1    3    3    0  502  0.23688200268E+03  0.15943615731E+03 -0.14648433746E+03  0.32092153652E+03  0.50400001928E-02 0. -1.
</event>
<event>
 5   0  0.3640827E-02  0.6059209E+03  0.7818609E-02  0.9893198E-01
        1   -1    0    0  501    0  0.00000000000E+00  0.00000000000E+00  0.18159964363E+04  0.18159964363E+04  0.50400001928E-02 0. -1.
       -1   -1    0    0    0  501  0.00000000000E+00  0.00000000000E+00 -0.50542524745E+02  0.50542524996E+02  0.50400001928E-02 0.  1.
    10030    2    1    2    0    0  0.00000000000E+00  0.00000000000E+00  0.17654539115E+04  0.18665389613E+04  0.60592093563E+03 0.  0.
        3    1    3    3  502    0 -0.25571223079E+03  0.14324961094E+03  0.64659430671E+03  0.70992492821E+03  0.10100000352E+00 0. -1.
       -3    1    3    3    0  502  0.25571223079E+03 -0.14324961094E+03  0.11188596048E+04  0.11566140331E+04  0.10100000352E+00 0.  1.
</event>
<event>
 5   0  0.5872632E-02  0.6040032E+03  0.7818609E-02  0.9897135E-01
        2   -1    0    0  501    0  0.00000000000E+00  0.00000000000E+00  0.51864737409E+03  0.51864737410E+03  0.25500000920E-02 0.  1.
       -2   -1    0    0    0  501  0.00000000000E+00  0.00000000000E+00 -0.17585159545E+03  0.17585159547E+03  0.25500000920E-02 0. -1.
    10030    2    1    2    0    0  0.00000000000E+00  0.00000000000E+00  0.34279577864E+03  0.69449896957E+03  0.60400320602E+03 0.  0.
        1    1    3    3  502    0  0.18702650236E+03  0.18315466035E+03 -0.17662528005E+01  0.26177788651E+03  0.50400001928E-02 0. -1.
       -1    1    3    3    0  502 -0.18702650236E+03 -0.18315466035E+03  0.34456203144E+03  0.43272108306E+03  0.50400001928E-02 0.  1.
</event>
<event>
 5   0  0.5872632E-02  0.6049960E+03  0.7818609E-02  0.9895095E-01
        2   -1    0    0  501    0  0.00000000000E+00  0.00000000000E+00  0.77485382572E+03  0.77485382572E+03  0.25500000920E-02 0.  1.
       -2   -1    0    0    0  501  0.00000000000E+00  0.00000000000E+00 -0.11809331021E+03  0.11809331023E+03  0.25500000920E-02 0. -1.
    10030    2    1    2    0    0  0.00000000000E+00  0.00000000000E+00  0.65676051551E+03  0.89294713595E+03  0.60499604368E+03 0.  0.
        1    1    3    3  502    0  0.15509896031E+03  0.44307155365E+02  0.70608135573E+03  0.72427183601E+03  0.50400001928E-02 0.  1.
       -1    1    3    3    0  502 -0.15509896031E+03 -0.44307155365E+02 -0.49320840221E+02  0.16867529994E+03  0.50400001928E-02 0. -1.
</event>
<event>
 5   0  0.3703280E-02  0.6005178E+03  0.7818609E-02  0.9904332E-01
        1   -1    0    0  501    0  0.00000000000E+00  0.00000000000E+00  0.68244813960E+03  0.68244813962E+03  0.50400001928E-02 0.  1.
       -1   -1    0    0    0  501  0.00000000000E+00  0.00000000000E+00 -0.13210588923E+03  0.13210588933E+03  0.50400001928E-02 0. -1.
    10030    2    1    2    0    0  0.00000000000E+00  0.00000000000E+00  0.55034225037E+03  0.81455402895E+03  0.60051783782E+03 0.  0.
        5    1    3    3  502    0  0.35196015981E+02  0.29058040188E+03  0.18460944380E+03  0.34609025736E+03  0.46999998093E+01 0. -1.
       -5    1    3    3    0  502 -0.35196015981E+02 -0.29058040188E+03  0.36573280656E+03  0.46846377159E+03  0.46999998093E+01 0.  1.
</event>
<event>
 5   0  0.6007360E-02  0.5977765E+03  0.7818609E-02  0.9910030E-01
       -2   -1    0    0    0  501  0.00000000000E+00  0.00000000000E+00  0.86670739132E+02  0.86670739169E+02  0.25500000920E-02 0.  1.
        2   -1    0    0  501    0  0.00000000000E+00  0.00000000000E+00 -0.10307304812E+04  0.10307304812E+04  0.25500000920E-02 0. -1.
    10030    2    1    2    0    0  0.00000000000E+00  0.00000000000E+00 -0.94405974207E+03  0.11174012204E+04  0.59777645545E+03 0.  0.
        4    1    3    3  502    0 -0.26968233919E+03  0.11350687921E+03 -0.35801734962E+03  0.46237475194E+03  0.12699999809E+01 0.  1.
       -4    1    3    3    0  502  0.26968233919E+03 -0.11350687921E+03 -0.58604239245E+03  0.65502646844E+03  0.12699999809E+01 0. -1.
</event>
<event>
 5   0  0.3767635E-02  0.5879054E+03  0.7818609E-02  0.9930821E-01
       -1   -1    0    0    0  501  0.00000000000E+00  0.00000000000E+00  0.85259738744E+02  0.85259738893E+02  0.50400001928E-02 0.  1.
        1   -1    0    0  501    0  0.00000000000E+00  0.00000000000E+00 -0.10134699180E+04  0.10134699180E+04  0.50400001928E-02 0. -1.
    10030    2    1    2    0    0  0.00000000000E+00  0.00000000000E+00 -0.92821017926E+03  0.10987296569E+04  0.58790536831E+03 0.  0.
        2    1    3    3  502    0  0.15263045271E+02 -0.29234066035E+03 -0.51397880044E+03  0.59149829210E+03  0.25500000920E-02 0.  1.
       -2    1    3    3    0  502 -0.15263045271E+02  0.29234066035E+03 -0.41423137882E+03  0.50723136481E+03  0.25500000920E-02 0. -1.
</event>
<event>
 5   0  0.5999117E-02  0.6035124E+03  0.7818609E-02  0.9898146E-01
        2   -1    0    0  501    0  0.00000000000E+00  0.00000000000E+00  0.49174217448E+03  0.49174217449E+03  0.25500000920E-02 0. -1.
       -2   -1    0    0    0  501  0.00000000000E+00  0.00000000000E+00 -0.18517181661E+03  0.18517181663E+03  0.25500000920E-02 0.  1.
    10030    2    1    2    0    0  0.00000000000E+00  0.00000000000E+00  0.30657035787E+03  0.67691399111E+03  0.60351235865E+03 0.  0.
        5    1    3    3  502    0 -0.12506314198E+03 -0.30372209932E+02 -0.15279993009E+03  0.19983285328E+03  0.46999998093E+01 0.  1.
       -5    1    3    3    0  502  0.12506314198E+03  0.30372209932E+02  0.45937028796E+03  0.47708113783E+03  0.46999998093E+01 0. -1.
</event>
<event>
 5   0  0.5999117E-02  0.6068008E+03  0.7818609E-02  0.9891396E-01
        2   -1    0    0  501    0  0.00000000000E+00  0.00000000000E+00  0.89079169234E+02  0.89079169270E+02  0.25500000920E-02 0.  1.
       -2   -1    0    0    0  501  0.00000000000E+00  0.00000000000E+00 -0.10333705644E+04  0.10333705644E+04  0.25500000920E-02 0. -1.
    10030    2    1    2    0    0  0.00000000000E+00  0.00000000000E+00 -0.94429139516E+03  0.11224497337E+04  0.60680076272E+03 0.  0.
        5    1    3    3  502    0  0.30315936521E+03  0.35144051474E+01 -0.45259132529E+03  0.54477421881E+03  0.46999998093E+01 0.  1.
       -5    1    3    3    0  502 -0.30315936521E+03 -0.35144051474E+01 -0.49170006987E+03  0.57767551486E+03  0.46999998093E+01 0. -1.
</event>
<event>
 5   0  0.5935451E-02  0.5951007E+03  0.7818609E-02  0.9915623E-01
        2   -1    0    0  501    0  0.00000000000E+00  0.00000000000E+00  0.16901225425E+03  0.16901225427E+03  0.25500000920E-02 0. -1.
       -2   -1    0    0    0  501  0.00000000000E+00  0.00000000000E+00 -0.52384492421E+03  0.52384492422E+03  0.25500000920E-02 0.  1.
    10030    2    1    2    0    0  0.00000000000E+00  0.00000000000E+00 -0.35483266996E+03  0.69285717849E+03  0.59510070249E+03 0.  0.
        3    1    3    3  502    0  0.14879025059E+03 -0.16675292130E+03 -0.40613256436E+03  0.46356094040E+03  0.10100000352E+00 0.  1.
       -3    1    3    3    0  502 -0.14879025059E+03  0.16675292130E+03  0.51299894401E+02  0.22929623808E+03  0.10100000352E+00 0. -1.
</event>
<event>
 5   0  0.5999117E-02  0.6009449E+03  0.7818609E-02  0.9903448E-01
       -2   -1    0    0    0  501  0.00000000000E+00  0.00000000000E+00  0.11662872183E+03  0.11662872186E+03  0.25500000920E-02 0.  1.
        2   -1    0    0  501    0  0.00000000000E+00  0.00000000000E+00 -0.77411199699E+03  0.77411199700E+03  0.25500000920E-02 0. -1.
    10030    2    1    2    0    0  0.00000000000E+00  0.00000000000E+00 -0.65748327516E+03  0.89074071886E+03  0.60094489857E+03 0.  0.
        5    1    3    3  502    0 -0.98032286028E+02 -0.25703783388E+03 -0.50773523418E+03  0.57749106934E+03  0.46999998093E+01 0. -1.
       -5    1    3    3    0  502  0.98032286028E+02  0.25703783388E+03 -0.14974804098E+03  0.31324964952E+03  0.46999998093E+01 0.  1.
</event>
<event>
 5   0  0.5755078E-02  0.6036489E+03  0.7818609E-02  0.9897864E-01
        2   -1    0    0  501    0  0.00000000000E+00  0.00000000000E+00  0.98858806998E+03  0.98858806998E+03  0.25500000920E-02 0.  1.
       -2   -1    0    0    0  501  0.00000000000E+00  0.00000000000E+00 -0.92149617459E+02  0.92149617495E+02  0.25500000920E-02 0. -1.
    10030    2    1    2    0    0  0.00000000000E+00  0.00000000000E+00  0.89643845252E+03  0.10807376875E+04  0.60364894597E+03 0.  0.
        2    1    3    3  502    0  0.87261679587E+02 -0.28793925066E+03  0.40531076405E+03  0.50477760276E+03  0.25500000920E-02 0.  1.
       -2    1    3    3    0  502 -0.87261679587E+02  0.28793925066E+03  0.49112768847E+03  0.57596008471E+03  0.25500000920E-02 0. -1.
</event>
<event>
 5   0  0.5999117E-02  0.6050279E+03  0.7818609E-02  0.9895029E-01
       -2   -1    0    0    0  501  0.00000000000E+00  0.00000000000E+00  0.38535342597E+02  0.38535342681E+02  0.25500000920E-02 0.  1.
        2   -1    0    0  501    0  0.00000000000E+00  0.00000000000E+00 -0.23748250306E+04  0.23748250306E+04  0.25500000920E-02 0. -1.
    10030    2    1    2    0    0  0.00000000000E+00  0.00000000000E+00 -0.23362896880E+04  0.24133603733E+04  0.60502792089E+03 0.  0.
        5    1    3    3  502    0 -0.20963452614E+03  0.21302835173E+03 -0.98255039338E+03  0.10270126965E+04  0.46999998093E+01 0. -1.
       -5    1    3    3    0  502  0.20963452614E+03 -0.21302835173E+03 -0.13537392946E+04  0.13863476768E+04  0.46999998093E+01 0.  1.
</event>
<event>
 5   0  0.5755078E-02  0.5433234E+03  0.7818609E-02  0.1003051E+00
       -2   -1    0    0    0  501  0.00000000000E+00  0.00000000000E+00  0.83353893586E+02  0.83353893625E+02  0.25500000920E-02 0.  1.
        2   -1    0    0  501    0  0.00000000000E+00  0.00000000000E+00 -0.88538247591E+03  0.88538247591E+03  0.25500000920E-02 0. -1.
    10030    2    1    2    0    0  0.00000000000E+00  0.00000000000E+00 -0.80202858232E+03  0.96873636954E+03  0.54332339063E+03 0.  0.
        2    1    3    3  502    0  0.22260391256E+02 -0.11662810868E+03  0.34641235975E+02  0.12368369330E+03  0.25500000920E-02 0.  1.
       -2    1    3    3    0  502 -0.22260391256E+02  0.11662810868E+03 -0.83666981830E+03  0.84505267623E+03  0.25500000920E-02 0. -1.
</event>
<event>
 5   0  0.6007360E-02  0.6386477E+03  0.7818609E-02  0.9828317E-01
       -2   -1    0    0    0  501  0.00000000000E+00  0.00000000000E+00  0.21510774599E+03  0.21510774601E+03  0.25500000920E-02 0. -1.
        2   -1    0    0  501    0  0.00000000000E+00  0.00000000000E+00 -0.47403090531E+03  0.47403090531E+03  0.25500000920E-02 0.  1.
    10030    2    1    2    0    0  0.00000000000E+00  0.00000000000E+00 -0.25892315931E+03  0.68913865132E+03  0.63864769499E+03 0.  0.
        4    1    3    3  502    0 -0.52262514684E+02 -0.16585830350E+03 -0.41845159435E+03  0.45314864779E+03  0.12699999809E+01 0.  1.
       -4    1    3    3    0  502  0.52262514684E+02  0.16585830350E+03  0.15952843504E+03  0.23599000353E+03  0.12699999809E+01 0. -1.
</event>
<event>
 5   0  0.5872632E-02  0.6010061E+03  0.7818609E-02  0.9903321E-01
        2   -1    0    0  501    0  0.00000000000E+00  0.00000000000E+00  0.13735962125E+04  0.13735962125E+04  0.25500000920E-02 0. -1.
       -2   -1    0    0    0  501  0.00000000000E+00  0.00000000000E+00 -0.65741359988E+02  0.65741360037E+02  0.25500000920E-02 0.  1.
    10030    2    1    2    0    0  0.00000000000E+00  0.00000000000E+00  0.13078548525E+04  0.14393375725E+04  0.60100610020E+03 0.  0.
        1    1    3    3  502    0  0.11047790817E+03  0.16606493925E+02 -0.14158028178E+02  0.11261258198E+03  0.50400001928E-02 0.  1.
       -1    1    3    3    0  502 -0.11047790817E+03 -0.16606493925E+02  0.13220128807E+04  0.13267249905E+04  0.50400001928E-02 0. -1.
</event>
<event>
 5   0  0.3651984E-02  0.6413640E+03  0.7818609E-02  0.9823120E-01
       -1   -1    0    0    0  501  0.00000000000E+00  0.00000000000E+00  0.18749317940E+03  0.18749317947E+03  0.50400001928E-02 0.  1.
        1   -1    0    0  501    0  0.00000000000E+00  0.00000000000E+00 -0.54848362506E+03  0.54848362508E+03  0.50400001928E-02 0. -1.
    10030    2    1    2    0    0  0.00000000000E+00  0.00000000000E+00 -0.36099044566E+03  0.73597680456E+03  0.64136398011E+03 0.  0.
        1    1    3    3  502    0 -0.18386503934E+03  0.50141260295E+02  0.11545867235E+03  0.22282550060E+03  0.50400001928E-02 0.  1.
       -1    1    3    3    0  502  0.18386503934E+03 -0.50141260295E+02 -0.47644911800E+03  0.51315130395E+03  0.50400001928E-02 0. -1.
</event>
<event>
 5   0  0.3703280E-02  0.5977711E+03  0.7818609E-02  0.9910041E-01
        1   -1    0    0  501    0  0.00000000000E+00  0.00000000000E+00  0.85678872084E+03  0.85678872086E+03  0.50400001928E-02 0.  1.
       -1   -1    0    0    0  501  0.00000000000E+00  0.00000000000E+00 -0.10426441411E+03  0.10426441423E+03  0.50400001928E-02 0. -1.
    10030    2    1    2    0    0  0.00000000000E+00  0.00000000000E+00  0.75252430673E+03  0.96105313509E+03  0.59777110691E+03 0.  0.
        5    1    3    3  502    0 -0.67712214581E+02 -0.24948956082E+03  0.13520753609E+03  0.29177586051E+03  0.46999998093E+01 0.  1.
       -5    1    3    3    0  502  0.67712214581E+02  0.24948956082E+03  0.61731677064E+03  0.66927727458E+03  0.46999998093E+01 0. -1.
</event>
<event>
 5   0  0.3767635E-02  0.6016870E+03  0.7818609E-02  0.9901912E-01
       -1   -1    0    0    0  501  0.00000000000E+00  0.00000000000E+00  0.15220107394E+03  0.15220107403E+03  0.50400001928E-02 0. -1.
        1   -1    0    0  501    0  0.00000000000E+00  0.00000000000E+00 -0.59465286136E+03  0.59465286138E+03  0.50400001928E-02 0.  1.
    10030    2    1    2    0    0  0.00000000000E+00  0.00000000000E+00 -0.44245178742E+03  0.74685393541E+03  0.60168697563E+03 0.  0.
        2    1    3    3  502    0  0.86101139627E+02  0.23644997057E+03 -0.42588365008E+03  0.49467047440E+03  0.25500000920E-02 0.  1.
       -2    1    3    3    0  502 -0.86101139627E+02 -0.23644997057E+03 -0.16568137341E+02  0.25218346101E+03  0.25500000920E-02 0. -1.
</event>
<event>
 5   0  0.3703280E-02  0.5951561E+03  0.7818609E-02  0.9915507E-01
        1   -1    0    0  501    0  0.00000000000E+00  0.00000000000E+00  0.49225598346E+03  0.49225598349E+03  0.50400001928E-02 0.  1.
       -1   -1    0    0    0  501  0.00000000000E+00  0.00000000000E+00 -0.17989155288E+03  0.17989155295E+03  0.50400001928E-02 0. -1.
    10030    2    1    2    0    0  0.00000000000E+00  0.00000000000E+00  0.31236443058E+03  0.67214753644E+03  0.59515609150E+03 0.  0.
        5    1    3    3  502    0 -0.29687037246E+02  0.29436749675E+03  0.12052114503E+03  0.31950114197E+03  0.46999998093E+01 0. -1.
       -5    1    3    3    0  502  0.29687037246E+02 -0.29436749675E+03  0.19184328555E+03  0.35264639447E+03  0.46999998093E+01 0.  1.
</event>
<event>
 5   0  0.5872632E-02  0.6125546E+03  0.7818609E-02  0.9879696E-01
       -2   -1    0    0    0  501  0.00000000000E+00  0.00000000000E+00  0.34361409279E+03  0.34361409280E+03  0.25500000920E-02 0. -1.
        2   -1    0    0  501    0  0.00000000000E+00  0.00000000000E+00 -0.27299749406E+03  0.27299749407E+03  0.25500000920E-02 0.  1.
    10030    2    1    2    0    0  0.00000000000E+00  0.00000000000E+00  0.70616598729E+02  0.61661158687E+03  0.61255460577E+03 0.  0.
        1    1    3    3  502    0 -0.60914707989E+02 -0.71760875584E+02 -0.25807623535E+03  0.27470633082E+03  0.50400001928E-02 0.  1.
       -1    1    3    3    0  502  0.60914707989E+02  0.71760875584E+02  0.32869283408E+03  0.34190525605E+03  0.50400001928E-02 0. -1.
</event>
<event>
 5   0  0.6007360E-02  0.5996879E+03  0.7818609E-02  0.9906054E-01
        2   -1    0    0  501    0  0.00000000000E+00  0.00000000000E+00  0.11021563903E+04  0.11021563903E+04  0.25500000920E-02 0.  1.
       -2   -1    0    0    0  501  0.00000000000E+00  0.00000000000E+00 -0.81573164107E+02  0.81573164146E+02  0.25500000920E-02 0. -1.
    10030    2    1    2    0    0  0.00000000000E+00  0.00000000000E+00  0.10205832262E+04  0.11837295544E+04  0.59968786587E+03 0.  0.
        4    1    3    3  502    0  0.24026244309E+02 -0.27652946272E+03  0.73412778572E+03  0.78485095581E+03  0.12699999809E+01 0.  1.
       -4    1    3    3    0  502 -0.24026244309E+02  0.27652946272E+03  0.28645544043E+03  0.39887859860E+03  0.12699999809E+01 0. -1.
</event>
<event>
 5   0  0.3478183E-02  0.5985035E+03  0.7818609E-02  0.9908516E-01
        1   -1    0    0  501    0  0.00000000000E+00  0.00000000000E+00  0.73754083271E+03  0.73754083272E+03  0.50400001928E-02 0. -1.
       -1   -1    0    0    0  501  0.00000000000E+00  0.00000000000E+00 -0.12141920859E+03  0.12141920870E+03  0.50400001928E-02 0.  1.
    10030    2    1    2    0    0  0.00000000000E+00  0.00000000000E+00  0.61612162411E+03  0.85896004142E+03  0.59850354808E+03 0.  0.
        4    1    3    3  502    0  0.16859505767E+03 -0.37804084835E+02  0.65871652390E+03  0.68100111164E+03  0.12699999809E+01 0. -1.
       -4    1    3    3    0  502 -0.16859505767E+03  0.37804084835E+02 -0.42594899788E+02  0.17795892978E+03  0.12699999809E+01 0.  1.
</event>
<event>
 5   0  0.3767635E-02  0.5984650E+03  0.7818609E-02  0.9908596E-01
        1   -1    0    0  501    0  0.00000000000E+00  0.00000000000E+00  0.33240919932E+03  0.33240919936E+03  0.50400001928E-02 0.  1.
       -1   -1    0    0    0  501  0.00000000000E+00  0.00000000000E+00 -0.26936702828E+03  0.26936702832E+03  0.50400001928E-02 0. -1.
    10030    2    1    2    0    0  0.00000000000E+00  0.00000000000E+00  0.63042171047E+02  0.60177622769E+03  0.59846496379E+03 0.  0.
        2    1    3    3  502    0 -0.25562990870E+03  0.51036127284E+02  0.17926512276E+03  0.31636580212E+03  0.25500000920E-02 0.  1.
       -2    1    3    3    0  502  0.25562990870E+03 -0.51036127284E+02 -0.11622295172E+03  0.28541042556E+03  0.25500000920E-02 0. -1.
</event>
<event>
 5   0  0.3767635E-02  0.6030621E+03  0.7818609E-02  0.9899074E-01
        1   -1    0    0  501    0  0.00000000000E+00  0.00000000000E+00  0.55531240373E+03  0.55531240375E+03  0.50400001928E-02 0.  1.
       -1   -1    0    0    0  501  0.00000000000E+00  0.00000000000E+00 -0.16372939882E+03  0.16372939889E+03  0.50400001928E-02 0. -1.
    10030    2    1    2    0    0  0.00000000000E+00  0.00000000000E+00  0.39158300491E+03  0.71904180264E+03  0.60306207327E+03 0.  0.
        2    1    3    3  502    0  0.83591155940E+02 -0.22871780798E+03 -0.16232183356E+02  0.24405491354E+03  0.25500000920E-02 0. -1.
       -2    1    3    3    0  502 -0.83591155940E+02  0.22871780798E+03  0.40781518827E+03  0.47498688911E+03  0.25500000920E-02 0.  1.
</event>
<event>
 5   0  0.5755078E-02  0.5959134E+03  0.7818609E-02  0.9913921E-01
       -2   -1    0    0    0  501  0.00000000000E+00  0.00000000000E+00  0.18298363480E+03  0.18298363482E+03  0.25500000920E-02 0. -1.
        2   -1    0    0  501    0  0.00000000000E+00  0.00000000000E+00 -0.48517007382E+03  0.48517007382E+03  0.25500000920E-02 0.  1.
    10030    2    1    2    0    0  0.00000000000E+00  0.00000000000E+00 -0.30218643902E+03  0.66815370864E+03  0.59591336153E+03 0.  0.
        2    1    3    3  502    0  0.65334549606E+02  0.37564075803E+02 -0.47430702733E+03  0.48025703466E+03  0.25500000920E-02 0.  1.
       -2    1    3    3    0  502 -0.65334549606E+02 -0.37564075803E+02  0.17212058831E+03  0.18789667398E+03  0.25500000920E-02 0. -1.
</event>
<event>
 5   0  0.3478183E-02  0.5946963E+03  0.7818609E-02  0.9916471E-01
        1   -1    0    0  501    0  0.00000000000E+00  0.00000000000E+00  0.13873211137E+03  0.13873211146E+03  0.50400001928E-02 0.  1.
       -1   -1    0    0    0  501  0.00000000000E+00  0.00000000000E+00 -0.63731403097E+03  0.63731403099E+03  0.50400001928E-02 0. -1.
    10030    2    1    2    0    0  0.00000000000E+00  0.00000000000E+00 -0.49858191960E+03  0.77604614244E+03  0.59469629614E+03 0.  0.
        4    1    3    3  502    0 -0.11047620815E+03 -0.23800773576E+03 -0.43180440738E+03  0.50528144037E+03  0.12699999809E+01 0. -1.
       -4    1    3    3    0  502  0.11047620815E+03  0.23800773576E+03 -0.66777512221E+02  0.27076470207E+03  0.12699999809E+01 0.  1.
</event>
<event>
 5   0  0.3767635E-02  0.5971884E+03  0.7818609E-02  0.9911256E-01
       -1   -1    0    0    0  501  0.00000000000E+00  0.00000000000E+00  0.32785392777E+03  0.32785392781E+03  0.50400001928E-02 0.  1.
        1   -1    0    0  501    0  0.00000000000E+00  0.00000000000E+00 -0.27194578005E+03  0.27194578010E+03  0.50400001928E-02 0. -1.
    10030    2    1    2    0    0  0.00000000000E+00  0.00000000000E+00  0.55908147712E+02  0.59979970791E+03  0.59718838621E+03 0.  0.
        2    1    3    3  502    0 -0.11213566494E+03  0.27654186808E+03  0.38424628873E+02  0.30087582865E+03  0.25500000920E-02 0.  1.
       -2    1    3    3    0  502  0.11213566494E+03 -0.27654186808E+03  0.17483518840E+02  0.29892387926E+03  0.25500000920E-02 0. -1.
</event>
<event>
 5   0  0.3640827E-02  0.5960286E+03  0.7818609E-02  0.9913680E-01
       -1   -1    0    0    0  501  0.00000000000E+00  0.00000000000E+00  0.31242688271E+03  0.31242688276E+03  0.50400001928E-02 0.  1.
        1   -1    0    0  501    0  0.00000000000E+00  0.00000000000E+00 -0.28426659067E+03  0.28426659071E+03  0.50400001928E-02 0. -1.
    10030    2    1    2    0    0  0.00000000000E+00  0.00000000000E+00  0.28160292048E+02  0.59669347347E+03  0.59602860605E+03 0.  0.
        3    1    3    3  502    0 -0.19255463212E+02  0.12336449669E+03  0.28497937745E+03  0.31113152794E+03  0.10100000352E+00 0.  1.
       -3    1    3    3    0  502  0.19255463212E+02 -0.12336449669E+03 -0.25681908540E+03  0.28556194553E+03  0.10100000352E+00 0. -1.
</event>
<event>
 5   0  0.3478183E-02  0.5898487E+03  0.7818609E-02  0.9926693E-01
        1   -1    0    0  501    0  0.00000000000E+00  0.00000000000E+00  0.17664283772E+04  0.17664283772E+04  0.50400001928E-02 0. -1.
       -1   -1    0    0    0  501  0.00000000000E+00  0.00000000000E+00 -0.49240821669E+02  0.49240821927E+02  0.50400001928E-02 0.  1.
    10030    2    1    2    0    0  0.00000000000E+00  0.00000000000E+00  0.17171875555E+04  0.18156691991E+04  0.58984874317E+03 0.  0.
        4    1    3    3  502    0 -0.28573116197E+03 -0.66024865021E+02  0.95481837302E+03  0.99883998622E+03  0.12699999809E+01 0. -1.
       -4    1    3    3    0  502  0.28573116197E+03  0.66024865021E+02  0.76236918253E+03  0.81682921293E+03  0.12699999809E+01 0.  1.
</event>
<event>
 5   0  0.6007360E-02  0.5977289E+03  0.7818609E-02  0.9910129E-01
       -2   -1    0    0    0  501  0.00000000000E+00  0.00000000000E+00  0.49942603861E+03  0.49942603862E+03  0.25500000920E-02 0. -1.
        2   -1    0    0  501    0  0.00000000000E+00  0.00000000000E+00 -0.17884522217E+03  0.17884522219E+03  0.25500000920E-02 0.  1.
    10030    2    1    2    0    0  0.00000000000E+00  0.00000000000E+00  0.32058081645E+03  0.67827126081E+03  0.59772890457E+03 0.  0.
        4    1    3    3  502    0 -0.26810448764E+03 -0.10024858840E+03  0.25782952760E+03  0.38523690630E+03  0.12699999809E+01 0.  1.
       -4    1    3    3    0  502  0.26810448764E+03  0.10024858840E+03  0.62751288843E+02  0.29303435451E+03  0.12699999809E+01 0. -1.
</event>
<event>
 5   0  0.5755078E-02  0.5985830E+03  0.7818609E-02  0.9908350E-01
        2   -1    0    0  501    0  0.00000000000E+00  0.00000000000E+00  0.33257858513E+03  0.33257858514E+03  0.25500000920E-02 0. -1.
       -2   -1    0    0    0  501  0.00000000000E+00  0.00000000000E+00 -0.26933606896E+03  0.26933606897E+03  0.25500000920E-02 0.  1.
    10030    2    1    2    0    0  0.00000000000E+00  0.00000000000E+00  0.63242516173E+02  0.60191465412E+03  0.59858302264E+03 0.  0.
        2    1    3    3  502    0  0.99214848657E+02  0.60691760448E+01  0.31549552493E+03  0.33078368664E+03  0.25500000920E-02 0. -1.
       -2    1    3    3    0  502 -0.99214848657E+02 -0.60691760448E+01 -0.25225300876E+03  0.27113096748E+03  0.25500000920E-02 0.  1.
</event>
<event>
 5   0  0.5999117E-02  0.5915542E+03  0.7818609E-02  0.9923085E-01
        2   -1    0    0  501    0  0.00000000000E+00  0.00000000000E+00  0.42192660396E+03  0.42192660397E+03  0.25500000920E-02 0. -1.
       -2   -1    0    0    0  501  0.00000000000E+00  0.00000000000E+00 -0.20734434038E+03  0.20734434040E+03  0.25500000920E-02 0.  1.
    10030    2    1    2    0    0  0.00000000000E+00  0.00000000000E+00  0.21458226357E+03  0.62927094436E+03  0.59155420173E+03 0.  0.
        5    1    3    3  502    0 -0.25856533044E+03 -0.93615388288E+02  0.22305101806E+03  0.35410975373E+03  0.46999998093E+01 0. -1.
       -5    1    3    3    0  502  0.25856533044E+03  0.93615388288E+02 -0.84687544827E+01  0.27516119064E+03  0.46999998093E+01 0.  1.
</event>
<event>
 5   0  0.5935451E-02  0.6004640E+03  0.7818609E-02  0.9904444E-01
        2   -1    0    0  501    0  0.00000000000E+00  0.00000000000E+00  0.78027625001E+03  0.78027625001E+03  0.25500000920E-02 0.  1.
       -2   -1    0    0    0  501  0.00000000000E+00  0.00000000000E+00 -0.11552223668E+03  0.11552223671E+03  0.25500000920E-02 0. -1.
    10030    2    1    2    0    0  0.00000000000E+00  0.00000000000E+00  0.66475401332E+03  0.89579848672E+03  0.60046401273E+03 0.  0.
        3    1    3    3  502    0  0.35944771006E+02 -0.24773672298E+03  0.85100869195E+02  0.26440060252E+03  0.10100000352E+00 0. -1.
       -3    1    3    3    0  502 -0.35944771006E+02  0.24773672298E+03  0.57965314413E+03  0.63139788420E+03  0.10100000352E+00 0.  1.
</event>
<event>
 5   0  0.5872632E-02  0.5985870E+03  0.7818609E-02  0.9908342E-01
        2   -1    0    0  501    0  0.00000000000E+00  0.00000000000E+00  0.75741077220E+03  0.75741077220E+03  0.25500000920E-02 0. -1.
       -2   -1    0    0    0  501  0.00000000000E+00  0.00000000000E+00 -0.11826686257E+03  0.11826686259E+03  0.25500000920E-02 0.  1.
    10030    2    1    2    0    0  0.00000000000E+00  0.00000000000E+00  0.63914390963E+03  0.87567763479E+03  0.59858698855E+03 0.  0.
        1    1    3    3  502    0 -0.33781777469E+02  0.26733001458E+03  0.51014371832E+03  0.57693427576E+03  0.50400001928E-02 0. -1.
       -1    1    3    3    0  502  0.33781777469E+02 -0.26733001458E+03  0.12900019131E+03  0.29874335903E+03  0.50400001928E-02 0.  1.
</event>
<event>
 5   0  0.3640827E-02  0.6011301E+03  0.7818609E-02  0.9903064E-01
       -1   -1    0    0    0  501  0.00000000000E+00  0.00000000000E+00  0.76308593920E+03  0.76308593922E+03  0.50400001928E-02 0.  1.
        1   -1    0    0  501    0  0.00000000000E+00  0.00000000000E+00 -0.11838685017E+03  0.11838685027E+03  0.50400001928E-02 0. -1.
    10030    2    1    2    0    0  0.00000000000E+00  0.00000000000E+00  0.64469908904E+03  0.88147278949E+03  0.60113007179E+03 0.  0.
        3    1    3    3  502    0  0.12134430775E+03  0.64124100705E+02  0.71445470260E+03  0.72751761050E+03  0.10100000352E+00 0.  1.
       -3    1    3    3    0  502 -0.12134430775E+03 -0.64124100705E+02 -0.69755613564E+02  0.15395517900E+03  0.10100000352E+00 0. -1.
</event>
<event>
 5   0  0.3651984E-02  0.6165085E+03  0.7818609E-02  0.9871736E-01
       -1   -1    0    0    0  501  0.00000000000E+00  0.00000000000E+00  0.50715970620E+02  0.50715970870E+02  0.50400001928E-02 0. -1.
        1   -1    0    0  501    0  0.00000000000E+00  0.00000000000E+00 -0.18735847637E+04  0.18735847637E+04  0.50400001928E-02 0.  1.
    10030    2    1    2    0    0  0.00000000000E+00  0.00000000000E+00 -0.18228687931E+04  0.19243007346E+04  0.61650845923E+03 0.  0.
        1    1    3    3  502    0  0.10078198921E+03 -0.28586299497E+03 -0.10865052596E+04  0.11279930587E+04  0.50400001928E-02 0.  1.
       -1    1    3    3    0  502 -0.10078198921E+03  0.28586299497E+03 -0.73636353345E+03  0.79630767588E+03  0.50400001928E-02 0. -1.
</event>
<event>
 5   0  0.5999117E-02  0.6025003E+03  0.7818609E-02  0.9900232E-01
        2   -1    0    0  501    0  0.00000000000E+00  0.00000000000E+00  0.67462817629E+03  0.67462817629E+03  0.25500000920E-02 0. -1.
       -2   -1    0    0    0  501  0.00000000000E+00  0.00000000000E+00 -0.13452100694E+03  0.13452100697E+03  0.25500000920E-02 0.  1.
    10030    2    1    2    0    0  0.00000000000E+00  0.00000000000E+00  0.54010716935E+03  0.80914918326E+03  0.60250032895E+03 0.  0.
        5    1    3    3  502    0  0.15092923080E+03  0.22289975581E+03  0.45155864260E+03  0.52572923788E+03  0.46999998093E+01 0. -1.
       -5    1    3    3    0  502 -0.15092923080E+03 -0.22289975581E+03  0.88548526742E+02  0.28341994538E+03  0.46999998093E+01 0.  1.
</event>
<event>
 5   0  0.3767635E-02  0.6083114E+03  0.7818609E-02  0.9888311E-01
       -1   -1    0    0    0  501  0.00000000000E+00  0.00000000000E+00  0.87078799832E+02  0.87078799978E+02  0.50400001928E-02 0. -1.
        1   -1    0    0  501    0  0.00000000000E+00  0.00000000000E+00 -0.10623788545E+04  0.10623788545E+04  0.50400001928E-02 0.  1.
    10030    2    1    2    0    0  0.00000000000E+00  0.00000000000E+00 -0.97530005462E+03  0.11494576544E+04  0.60831135351E+03 0.  0.
        2    1    3    3  502    0 -0.27614601444E+03 -0.39362720922E+02 -0.25851361226E+03  0.38030952239E+03  0.25500000920E-02 0. -1.
       -2    1    3    3    0  502  0.27614601444E+03  0.39362720922E+02 -0.71678644236E+03  0.76914813205E+03  0.25500000920E-02 0.  1.
</event>
<event>
 5   0  0.5872632E-02  0.5951379E+03  0.7818609E-02  0.9915545E-01
       -2   -1    0    0    0  501  0.00000000000E+00  0.00000000000E+00  0.18317802914E+03  0.18317802916E+03  0.25500000920E-02 0.  1.
        2   -1    0    0  501    0  0.00000000000E+00  0.00000000000E+00 -0.48339462844E+03  0.48339462845E+03  0.25500000920E-02 0. -1.
    10030    2    1    2    0    0  0.00000000000E+00  0.00000000000E+00 -0.30021659930E+03  0.66657265761E+03  0.59513788434E+03 0.  0.
        1    1    3    3  502    0 -0.12747947551E+02 -0.29540111504E+03 -0.11257563409E+03  0.31638205125E+03  0.50400001928E-02 0.  1.
       -1    1    3    3    0  502  0.12747947551E+02  0.29540111504E+03 -0.18764096521E+03  0.35019060636E+03  0.50400001928E-02 0. -1.
</event>
<event>
 5   0  0.2388000E-02  0.5957172E+03  0.7818609E-02  0.9914332E-01
       -3   -1    0    0    0  501  0.00000000000E+00  0.00000000000E+00  0.55816143119E+03  0.55816144033E+03  0.10100000352E+00 0. -1.
        3   -1    0    0  501    0  0.00000000000E+00  0.00000000000E+00 -0.15894994353E+03  0.15894997562E+03  0.10100000352E+00 0.  1.
    10030    2    1    2    0    0  0.00000000000E+00  0.00000000000E+00  0.39921148766E+03  0.71711141595E+03  0.59571719045E+03 0.  0.
        3    1    3    3  502    0  0.91980772214E+02 -0.94088751647E+02 -0.12206799788E+03  0.17948192653E+03  0.10100000352E+00 0.  1.
       -3    1    3    3    0  502 -0.91980772214E+02  0.94088751647E+02  0.52127948554E+03  0.53762948942E+03  0.10100000352E+00 0. -1.
</event>
<event>
 5   0  0.5935451E-02  0.5965887E+03  0.7818609E-02  0.9912509E-01
        2   -1    0    0  501    0  0.00000000000E+00  0.00000000000E+00  0.12051582135E+04  0.12051582135E+04  0.25500000920E-02 0.  1.
       -2   -1    0    0    0  501  0.00000000000E+00  0.00000000000E+00 -0.73832225680E+02  0.73832225724E+02  0.25500000920E-02 0. -1.
    10030    2    1    2    0    0  0.00000000000E+00  0.00000000000E+00  0.11313259878E+04  0.12789904392E+04  0.59658867985E+03 0.  0.
        3    1    3    3  502    0 -0.13899862171E+03  0.94762219577E+02  0.10937573492E+04  0.11066190150E+04  0.10100000352E+00 0.  1.
       -3    1    3    3    0  502  0.13899862171E+03 -0.94762219577E+02  0.37568638600E+02  0.17237142427E+03  0.10100000352E+00 0. -1.
</event>
<event>
 5   0  0.2388000E-02  0.5943426E+03  0.7818609E-02  0.9917213E-01
        3   -1    0    0  501    0  0.00000000000E+00  0.00000000000E+00  0.10749275671E+04  0.10749275718E+04  0.10100000352E+00 0. -1.
       -3   -1    0    0    0  501  0.00000000000E+00  0.00000000000E+00 -0.82155056783E+02  0.82155118867E+02  0.10100000352E+00 0.  1.
    10030    2    1    2    0    0  0.00000000000E+00  0.00000000000E+00  0.99277251031E+03  0.11570826907E+04  0.59434257453E+03 0.  0.
        1    1    3    3  502    0  0.18757862991E+03 -0.16010329142E+03  0.17358852842E+03  0.30158213400E+03  0.50400001928E-02 0.  1.
       -1    1    3    3    0  502 -0.18757862991E+03  0.16010329142E+03  0.81918398188E+03  0.85550055670E+03  0.50400001928E-02 0. -1.
</event>
<event>
 5   0  0.3651984E-02  0.5995953E+03  0.7818609E-02  0.9906246E-01
        1   -1    0    0  501    0  0.00000000000E+00  0.00000000000E+00  0.36349568912E+03  0.36349568915E+03  0.50400001928E-02 0. -1.
       -1   -1    0    0    0  501  0.00000000000E+00  0.00000000000E+00 -0.24726189417E+03  0.24726189422E+03  0.50400001928E-02 0.  1.
    10030    2    1    2    0    0  0.00000000000E+00  0.00000000000E+00  0.11623379495E+03  0.61075758337E+03  0.59959530565E+03 0.  0.
        1    1    3    3  502    0  0.27489183382E+03 -0.11805616049E+03  0.38368995037E+02  0.30162055159E+03  0.50400001928E-02 0.  1.
       -1    1    3    3    0  502 -0.27489183382E+03  0.11805616049E+03  0.77864799911E+02  0.30913703179E+03  0.50400001928E-02 0. -1.
</event>
<event>
 5   0  0.5935451E-02  0.5999951E+03  0.7818609E-02  0.9905416E-01
       -2   -1    0    0    0  501  0.00000000000E+00  0.00000000000E+00  0.50486332270E+02  0.50486332334E+02  0.25500000920E-02 0.  1.
        2   -1    0    0  501    0  0.00000000000E+00  0.00000000000E+00 -0.17826317081E+04  0.17826317081E+04  0.25500000920E-02 0. -1.
    10030    2    1    2    0    0  0.00000000000E+00  0.00000000000E+00 -0.17321453758E+04  0.18331180404E+04  0.59999512262E+03 0.  0.
        3    1    3    3  502    0  0.18613714570E+03  0.21251967950E+03 -0.11744363600E+04  0.12079372604E+04  0.10100000352E+00 0. -1.
       -3    1    3    3    0  502 -0.18613714570E+03 -0.21251967950E+03 -0.55770901587E+03  0.62518078007E+03  0.10100000352E+00 0.  1.
</event>
<event>
 5   0  0.5872632E-02  0.5969921E+03  0.7818609E-02  0.9911666E-01
        2   -1    0    0  501    0  0.00000000000E+00  0.00000000000E+00  0.74399105133E+03  0.74399105133E+03  0.25500000920E-02 0. -1.
       -2   -1    0    0    0  501  0.00000000000E+00  0.00000000000E+00 -0.11975936657E+03  0.11975936659E+03  0.25500000920E-02 0.  1.
    10030    2    1    2    0    0  0.00000000000E+00  0.00000000000E+00  0.62423168476E+03  0.86375041792E+03  0.59699211737E+03 0.  0.
        1    1    3    3  502    0 -0.51296841412E+02  0.24398677667E+03  0.54958667724E+03  0.60349517724E+03  0.50400001928E-02 0. -1.
       -1    1    3    3    0  502  0.51296841412E+02 -0.24398677667E+03  0.74645007526E+02  0.26025524069E+03  0.50400001928E-02 0.  1.
</event>
<event>
 5   0  0.3767635E-02  0.6026421E+03  0.7818609E-02  0.9899940E-01
       -1   -1    0    0    0  501  0.00000000000E+00  0.00000000000E+00  0.38627258977E+03  0.38627258980E+03  0.50400001928E-02 0. -1.
        1   -1    0    0  501    0  0.00000000000E+00  0.00000000000E+00 -0.23505262282E+03  0.23505262287E+03  0.50400001928E-02 0.  1.
    10030    2    1    2    0    0  0.00000000000E+00  0.00000000000E+00  0.15121996695E+03  0.62132521267E+03  0.60264213386E+03 0.  0.
        2    1    3    3  502    0  0.11482484764E+03  0.96807253625E+02  0.34493246973E+03  0.37621110918E+03  0.25500000920E-02 0. -1.
       -2    1    3    3    0  502 -0.11482484764E+03 -0.96807253625E+02 -0.19371250279E+03  0.24511410349E+03  0.25500000920E-02 0.  1.
</event>
<event>
 5   0  0.6007360E-02  0.6103580E+03  0.7818609E-02  0.9884146E-01
       -2   -1    0    0    0  501  0.00000000000E+00  0.00000000000E+00  0.72007425287E+02  0.72007425332E+02  0.25500000920E-02 0. -1.
        2   -1    0    0  501    0  0.00000000000E+00  0.00000000000E+00 -0.12933975833E+04  0.12933975833E+04  0.25500000920E-02 0.  1.
    10030    2    1    2    0    0  0.00000000000E+00  0.00000000000E+00 -0.12213901580E+04  0.13654050087E+04  0.61035802569E+03 0.  0.
        4    1    3    3  502    0  0.18651764757E+03  0.24097369766E+03 -0.57356661203E+03  0.64949012860E+03  0.12699999809E+01 0. -1.
       -4    1    3    3    0  502 -0.18651764757E+03 -0.24097369766E+03 -0.64782354600E+03  0.71591488005E+03  0.12699999809E+01 0.  1.
</event>
<event>
 5   0  0.5755078E-02  0.6012200E+03  0.7818609E-02  0.9902878E-01
        2   -1    0    0  501    0  0.00000000000E+00  0.00000000000E+00  0.23347917029E+03  0.23347917030E+03  0.25500000920E-02 0. -1.
       -2   -1    0    0    0  501  0.00000000000E+00  0.00000000000E+00 -0.38704256955E+03  0.38704256955E+03  0.25500000920E-02 0.  1.
    10030    2    1    2    0    0  0.00000000000E+00  0.00000000000E+00 -0.15356339926E+03  0.62052173985E+03  0.60122001966E+03 0.  0.
        2    1    3    3  502    0 -0.22391578273E+02 -0.18431726775E+03  0.16722341924E+03  0.24987578898E+03  0.25500000920E-02 0. -1.
       -2    1    3    3    0  502  0.22391578273E+02  0.18431726775E+03 -0.32078681850E+03  0.37064595087E+03  0.25500000920E-02 0.  1.
</event>
<event>
 5   0  0.3640827E-02  0.5987876E+03  0.7818609E-02  0.9907925E-01
        1   -1    0    0  501    0  0.00000000000E+00  0.00000000000E+00  0.14067629046E+04  0.14067629046E+04  0.50400001928E-02 0.  1.
       -1   -1    0    0    0  501  0.00000000000E+00  0.00000000000E+00 -0.63718370282E+02  0.63718370481E+02  0.50400001928E-02 0. -1.
    10030    2    1    2    0    0  0.00000000000E+00  0.00000000000E+00  0.13430445343E+04  0.14704812751E+04  0.59878757438E+03 0.  0.
        3    1    3    3  502    0 -0.28802197318E+03 -0.81580496428E+02  0.65934326545E+03  0.72411710816E+03  0.10100000352E+00 0. -1.
       -3    1    3    3    0  502  0.28802197318E+03  0.81580496428E+02  0.68370126888E+03  0.74636416694E+03  0.10100000352E+00 0.  1.
</event>
<event>
 5   0  0.3478183E-02  0.6004767E+03  0.7818609E-02  0.9904418E-01
       -1   -1    0    0    0  501  0.00000000000E+00  0.00000000000E+00  0.49804912104E+03  0.49804912107E+03  0.50400001928E-02 0.  1.
        1   -1    0    0  501    0  0.00000000000E+00  0.00000000000E+00 -0.18099229474E+03  0.18099229481E+03  0.50400001928E-02 0. -1.
    10030    2    1    2    0    0  0.00000000000E+00  0.00000000000E+00  0.31705682630E+03  0.67904141588E+03  0.60047665514E+03 0.  0.
        4    1    3    3  502    0  0.21401014539E+03  0.89933568366E+02 -0.56785661081E+02  0.23898663823E+03  0.12699999809E+01 0. -1.
       -4    1    3    3    0  502 -0.21401014539E+03 -0.89933568366E+02  0.37384248739E+03  0.44005477764E+03  0.12699999809E+01 0.  1.
</event>
<event>
 5   0  0.3703280E-02  0.5277431E+03  0.7818609E-02  0.1006781E+00
        1   -1    0    0  501    0  0.00000000000E+00  0.00000000000E+00  0.81439483267E+03  0.81439483268E+03  0.50400001928E-02 0.  1.
       -1   -1    0    0    0  501  0.00000000000E+00  0.00000000000E+00 -0.85496863719E+02  0.85496863868E+02  0.50400001928E-02 0. -1.
    10030    2    1    2    0    0  0.00000000000E+00  0.00000000000E+00  0.72889796895E+03  0.89989169655E+03  0.52774313485E+03 0.  0.
        5    1    3    3  502    0  0.90079782423E+02 -0.21541936879E+03  0.57388829208E+03  0.61958835805E+03  0.46999998093E+01 0.  1.
       -5    1    3    3    0  502 -0.90079782423E+02  0.21541936879E+03  0.15500967687E+03  0.28030333850E+03  0.46999998093E+01 0. -1.
</event>
<event>
 5   0  0.3478183E-02  0.5995690E+03  0.7818609E-02  0.9906301E-01
       -1   -1    0    0    0  501  0.00000000000E+00  0.00000000000E+00  0.53230162185E+03  0.53230162187E+03  0.50400001928E-02 0. -1.
        1   -1    0    0  501    0  0.00000000000E+00  0.00000000000E+00 -0.16883426540E+03  0.16883426547E+03  0.50400001928E-02 0.  1.
    10030    2    1    2    0    0  0.00000000000E+00  0.00000000000E+00  0.36346735645E+03  0.70113588734E+03  0.59956902298E+03 0.  0.
        4    1    3    3  502    0 -0.83260041269E+02 -0.19252664327E+03  0.43218842226E+03  0.48040315161E+03  0.12699999809E+01 0. -1.
       -4    1    3    3    0  502  0.83260041269E+02  0.19252664327E+03 -0.68721065807E+02  0.22073273573E+03  0.12699999809E+01 0.  1.
</event>
<event>
 5   0  0.3651984E-02  0.6086144E+03  0.7818609E-02  0.9887693E-01
       -1   -1    0    0    0  501  0.00000000000E+00  0.00000000000E+00  0.13686421228E+03  0.13686421238E+03  0.50400001928E-02 0. -1.
        1   -1    0    0  501    0  0.00000000000E+00  0.00000000000E+00 -0.67660409437E+03  0.67660409439E+03  0.50400001928E-02 0.  1.
    10030    2    1    2    0    0  0.00000000000E+00  0.00000000000E+00 -0.53973988208E+03  0.81346830676E+03  0.60861444757E+03 0.  0.
        1    1    3    3  502    0  0.27586747685E+02 -0.15727620797E+03 -0.61611152406E+03  0.63646700178E+03  0.50400001928E-02 0.  1.
       -1    1    3    3    0  502 -0.27586747685E+02  0.15727620797E+03  0.76371641980E+02  0.17700130499E+03  0.50400001928E-02 0. -1.
</event>
<event>
 5   0  0.5999117E-02  0.6001787E+03  0.7818609E-02  0.9905035E-01
       -2   -1    0    0    0  501  0.00000000000E+00  0.00000000000E+00  0.76126509765E+02  0.76126509807E+02  0.25500000920E-02 0.  1.
        2   -1    0    0  501    0  0.00000000000E+00  0.00000000000E+00 -0.11829468856E+04  0.11829468856E+04  0.25500000920E-02 0. -1.
    10030    2    1    2    0    0  0.00000000000E+00  0.00000000000E+00 -0.11068203758E+04  0.12590733954E+04  0.60017869894E+03 0.  0.
        5    1    3    3  502    0 -0.22425480728E+03 -0.87358754211E+02 -0.17749577270E+03  0.29907960453E+03  0.46999998093E+01 0.  1.
       -5    1    3    3    0  502  0.22425480728E+03  0.87358754211E+02 -0.92932460314E+03  0.95999379088E+03  0.46999998093E+01 0. -1.
</event>
<event>
 5   0  0.3478183E-02  0.5973537E+03  0.7818609E-02  0.9910912E-01
        1   -1    0    0  501    0  0.00000000000E+00  0.00000000000E+00  0.16805158787E+04  0.16805158787E+04  0.50400001928E-02 0. -1.
       -1   -1    0    0    0  501  0.00000000000E+00  0.00000000000E+00 -0.53083618260E+02  0.53083618499E+02  0.50400001928E-02 0.  1.
    10030    2    1    2    0    0  0.00000000000E+00  0.00000000000E+00  0.16274322605E+04  0.17335994972E+04  0.59735370962E+03 0.  0.
        4    1    3    3  502    0  0.19950272005E+02 -0.92288585704E+02  0.16360549412E+04  0.16387777701E+04  0.12699999809E+01 0. -1.
       -4    1    3    3    0  502 -0.19950272005E+02  0.92288585704E+02 -0.86226807342E+01  0.94821727085E+02  0.12699999809E+01 0.  1.
</event>
<event>
 5   0  0.5999117E-02  0.6131621E+03  0.7818609E-02  0.9878469E-01
       -2   -1    0    0    0  501  0.00000000000E+00  0.00000000000E+00  0.11927070207E+03  0.11927070210E+03  0.25500000920E-02 0. -1.
        2   -1    0    0  501    0  0.00000000000E+00  0.00000000000E+00 -0.78805549484E+03  0.78805549485E+03  0.25500000920E-02 0.  1.
    10030    2    1    2    0    0  0.00000000000E+00  0.00000000000E+00 -0.66878479277E+03  0.90732619694E+03  0.61316207369E+03 0.  0.
        5    1    3    3  502    0 -0.51029576360E+02 -0.30043725686E+03 -0.38354322878E+03  0.48989188737E+03  0.46999998093E+01 0. -1.
       -5    1    3    3    0  502  0.51029576360E+02  0.30043725686E+03 -0.28524156400E+03  0.41743430957E+03  0.46999998093E+01 0.  1.
</event>
<event>
 5   0  0.5935451E-02  0.6005551E+03  0.7818609E-02  0.9904255E-01
        2   -1    0    0  501    0  0.00000000000E+00  0.00000000000E+00  0.40990705857E+03  0.40990705858E+03  0.25500000920E-02 0.  1.
       -2   -1    0    0    0  501  0.00000000000E+00  0.00000000000E+00 -0.21996838181E+03  0.21996838182E+03  0.25500000920E-02 0. -1.
    10030    2    1    2    0    0  0.00000000000E+00  0.00000000000E+00  0.18993867676E+03  0.62987544040E+03  0.60055505117E+03 0.  0.
        3    1    3    3  502    0 -0.28940177325E+03 -0.79846680704E+02  0.10140943005E+03  0.31687972716E+03  0.10100000352E+00 0.  1.
       -3    1    3    3    0  502  0.28940177325E+03  0.79846680704E+02  0.88529246710E+02  0.31299571324E+03  0.10100000352E+00 0. -1.
</event>
<event>
 5   0  0.5935451E-02  0.5892648E+03  0.7818609E-02  0.9927932E-01
        2   -1    0    0  501    0  0.00000000000E+00  0.00000000000E+00  0.77214225061E+03  0.77214225062E+03  0.25500000920E-02 0. -1.
       -2   -1    0    0    0  501  0.00000000000E+00  0.00000000000E+00 -0.11242520336E+03  0.11242520339E+03  0.25500000920E-02 0.  1.
    10030    2    1    2    0    0  0.00000000000E+00  0.00000000000E+00  0.65971704725E+03  0.88456745401E+03  0.58926479468E+03 0.  0.
        3    1    3    3  502    0 -0.39372706217E+02 -0.97997971513E+02 -0.83034584759E+02  0.13434494737E+03  0.10100000352E+00 0.  1.
       -3    1    3    3    0  502  0.39372706217E+02  0.97997971513E+02  0.74275163201E+03  0.75022250664E+03  0.10100000352E+00 0. -1.
</event>
<event>
 5   0  0.3703280E-02  0.5799634E+03  0.7818609E-02  0.9947870E-01
       -1   -1    0    0    0  501  0.00000000000E+00  0.00000000000E+00  0.14979206911E+03  0.14979206919E+03  0.50400001928E-02 0. -1.
        1   -1    0    0  501    0  0.00000000000E+00  0.00000000000E+00 -0.56137416907E+03  0.56137416910E+03  0.50400001928E-02 0.  1.
    10030    2    1    2    0    0  0.00000000000E+00  0.00000000000E+00 -0.41158209997E+03  0.71116623829E+03  0.57996344150E+03 0.  0.
        5    1    3    3  502    0  0.22864735655E+03  0.52837356149E+02 -0.41459507829E+03  0.47642687666E+03  0.46999998093E+01 0.  1.
       -5    1    3    3    0  502 -0.22864735655E+03 -0.52837356149E+02  0.30129783221E+01  0.23473936163E+03  0.46999998093E+01 0. -1.
</event>
<event>
 5   0  0.5999117E-02  0.5919512E+03  0.7818609E-02  0.9922247E-01
       -2   -1    0    0    0  501  0.00000000000E+00  0.00000000000E+00  0.42221215151E+03  0.42221215152E+03  0.25500000920E-02 0. -1.
        2   -1    0    0  501    0  0.00000000000E+00  0.00000000000E+00 -0.20748229081E+03  0.20748229083E+03  0.25500000920E-02 0.  1.
    10030    2    1    2    0    0  0.00000000000E+00  0.00000000000E+00  0.21472986070E+03  0.62969444234E+03  0.59195116154E+03 0.  0.
        5    1    3    3  502    0  0.12919338946E+03 -0.35730565182E+02  0.38802819248E+03  0.41055520131E+03  0.46999998093E+01 0. -1.
       -5    1    3    3    0  502 -0.12919338946E+03  0.35730565182E+02 -0.17329833177E+03  0.21913924104E+03  0.46999998093E+01 0.  1.
</event>
<event>
 5   0  0.5935451E-02  0.6057102E+03  0.7818609E-02  0.9893629E-01
        2   -1    0    0  501    0  0.00000000000E+00  0.00000000000E+00  0.20366109273E+04  0.20366109273E+04  0.25500000920E-02 0.  1.
       -2   -1    0    0    0  501  0.00000000000E+00  0.00000000000E+00 -0.45036200917E+02  0.45036200989E+02  0.25500000920E-02 0. -1.
    10030    2    1    2    0    0  0.00000000000E+00  0.00000000000E+00  0.19915747264E+04  0.20816471283E+04  0.60571022441E+03 0.  0.
        3    1    3    3  502    0  0.26092635906E+03 -0.54224549658E+02  0.14902232535E+04  0.15138653249E+04  0.10100000352E+00 0.  1.
       -3    1    3    3    0  502 -0.26092635906E+03  0.54224549658E+02  0.50135147293E+03  0.56778180338E+03  0.10100000352E+00 0. -1.
</event>
<event>
 5   0  0.3651984E-02  0.5995499E+03  0.7818609E-02  0.9906340E-01
        1   -1    0    0  501    0  0.00000000000E+00  0.00000000000E+00  0.71044632525E+03  0.71044632527E+03  0.50400001928E-02 0. -1.
       -1   -1    0    0    0  501  0.00000000000E+00  0.00000000000E+00 -0.12649095280E+03  0.12649095290E+03  0.50400001928E-02 0.  1.
    10030    2    1    2    0    0  0.00000000000E+00  0.00000000000E+00  0.58395537244E+03  0.83693727817E+03  0.59954994003E+03 0.  0.
        1    1    3    3  502    0  0.14371887779E+03  0.16969258040E+03  0.57260847721E+03  0.61427286760E+03  0.50400001928E-02 0. -1.
       -1    1    3    3    0  502 -0.14371887779E+03 -0.16969258040E+03  0.11346895235E+02  0.22266441057E+03  0.50400001928E-02 0.  1.
</event>
<event>
 5   0  0.3640827E-02  0.5986878E+03  0.7818609E-02  0.9908132E-01
       -1   -1    0    0    0  501  0.00000000000E+00  0.00000000000E+00  0.33321671911E+03  0.33321671915E+03  0.50400001928E-02 0.  1.
        1   -1    0    0  501    0  0.00000000000E+00  0.00000000000E+00 -0.26891441299E+03  0.26891441304E+03  0.50400001928E-02 0. -1.
    10030    2    1    2    0    0  0.00000000000E+00  0.00000000000E+00  0.64302306118E+02  0.60213113218E+03  0.59868782664E+03 0.  0.
        3    1    3    3  502    0  0.83951338638E+02 -0.29219110794E+02 -0.25533402749E+03  0.27036467870E+03  0.10100000352E+00 0. -1.
       -3    1    3    3    0  502 -0.83951338638E+02  0.29219110794E+02  0.31963633361E+03  0.33176645348E+03  0.10100000352E+00 0.  1.
</event>
<event>
 5   0  0.3767635E-02  0.6124783E+03  0.7818609E-02  0.9879850E-01
       -1   -1    0    0    0  501  0.00000000000E+00  0.00000000000E+00  0.40963626192E+03  0.40963626196E+03  0.50400001928E-02 0. -1.
        1   -1    0    0  501    0  0.00000000000E+00  0.00000000000E+00 -0.22894072829E+03  0.22894072835E+03  0.50400001928E-02 0.  1.
    10030    2    1    2    0    0  0.00000000000E+00  0.00000000000E+00  0.18069553363E+03  0.63857699030E+03  0.61247832343E+03 0.  0.
        2    1    3    3  502    0 -0.85135440241E+02  0.15471780274E+03 -0.17050686231E+03  0.24547552174E+03  0.25500000920E-02 0.  1.
       -2    1    3    3    0  502  0.85135440241E+02 -0.15471780274E+03  0.35120239594E+03  0.39310146857E+03  0.25500000920E-02 0. -1.
</event>
<event>
 5   0  0.2388000E-02  0.6001883E+03  0.7818609E-02  0.9905016E-01
       -3   -1    0    0    0  501  0.00000000000E+00  0.00000000000E+00  0.60604236438E+03  0.60604237279E+03  0.10100000352E+00 0.  1.
        3   -1    0    0  501    0  0.00000000000E+00  0.00000000000E+00 -0.14859765319E+03  0.14859768751E+03  0.10100000352E+00 0. -1.
    10030    2    1    2    0    0  0.00000000000E+00  0.00000000000E+00  0.45744471119E+03  0.75464006030E+03  0.60018826781E+03 0.  0.
        1    1    3    3  502    0 -0.83075794309E+02 -0.21338734962E+03  0.47259664936E+03  0.52515077987E+03  0.50400001928E-02 0.  1.
       -1    1    3    3    0  502  0.83075794309E+02  0.21338734962E+03 -0.15151938175E+02  0.22948928044E+03  0.50400001928E-02 0. -1.
</event>
<event>
 5   0  0.5872632E-02  0.5975882E+03  0.7818609E-02  0.9910422E-01
       -2   -1    0    0    0  501  0.00000000000E+00  0.00000000000E+00  0.11503033487E+04  0.11503033487E+04  0.25500000920E-02 0.  1.
        2   -1    0    0  501    0  0.00000000000E+00  0.00000000000E+00 -0.77612489704E+02  0.77612489746E+02  0.25500000920E-02 0. -1.
    10030    2    1    2    0    0  0.00000000000E+00  0.00000000000E+00  0.10726908590E+04  0.12279158385E+04  0.59758817537E+03 0.  0.
        1    1    3    3  502    0  0.25478203983E+03 -0.10984535190E+03  0.30847699853E+03  0.41489510457E+03  0.50400001928E-02 0. -1.
       -1    1    3    3    0  502 -0.25478203983E+03  0.10984535190E+03  0.76421386049E+03  0.81302073390E+03  0.50400001928E-02 0.  1.
</event>
<event>
 5   0  0.5999117E-02  0.6061156E+03  0.7818609E-02  0.9892799E-01
        2   -1    0    0  501    0  0.00000000000E+00  0.00000000000E+00  0.76055537057E+03  0.76055537057E+03  0.25500000920E-02 0. -1.
       -2   -1    0    0    0  501  0.00000000000E+00  0.00000000000E+00 -0.12075916392E+03  0.12075916395E+03  0.25500000920E-02 0.  1.
    10030    2    1    2    0    0  0.00000000000E+00  0.00000000000E+00  0.63979620664E+03  0.88131453452E+03  0.60611560178E+03 0.  0.
        5    1    3    3  502    0 -0.15456796209E+03 -0.22198951714E+03  0.12132039723E+03  0.29649844756E+03  0.46999998093E+01 0.  1.
       -5    1    3    3    0  502  0.15456796209E+03  0.22198951714E+03  0.51847580942E+03  0.58481608696E+03  0.46999998093E+01 0. -1.
</event>
<event>
 5   0  0.5755078E-02  0.5999788E+03  0.7818609E-02  0.9905450E-01
        2   -1    0    0  501    0  0.00000000000E+00  0.00000000000E+00  0.21729158234E+03  0.21729158236E+03  0.25500000920E-02 0.  1.
       -2   -1    0    0    0  501  0.00000000000E+00  0.00000000000E+00 -0.41416069889E+03  0.41416069890E+03  0.25500000920E-02 0. -1.
    10030    2    1    2    0    0  0.00000000000E+00  0.00000000000E+00 -0.19686911655E+03  0.63145228126E+03  0.59997877834E+03 0.  0.
        2    1    3    3  502    0 -0.69298391039E+02  0.85444992777E+02  0.19529452395E+03  0.22414964841E+03  0.25500000920E-02 0.  1.
       -2    1    3    3    0  502  0.69298391039E+02 -0.85444992777E+02 -0.39216364050E+03  0.40730263285E+03  0.25500000920E-02 0. -1.
</event>
<event>
 5   0  0.5935451E-02  0.5817250E+03  0.7818609E-02  0.9944063E-01
       -2   -1    0    0    0  501  0.00000000000E+00  0.00000000000E+00  0.58910185094E+03  0.58910185095E+03  0.25500000920E-02 0.  1.
        2   -1    0    0  501    0  0.00000000000E+00  0.00000000000E+00 -0.14361013219E+03  0.14361013222E+03  0.25500000920E-02 0. -1.
    10030    2    1    2    0    0  0.00000000000E+00  0.00000000000E+00  0.44549171875E+03  0.73271198317E+03  0.58172500273E+03 0.  0.
        3    1    3    3  502    0 -0.20480261437E+02  0.16083333332E+03  0.52690625121E+03  0.55128668584E+03  0.10100000352E+00 0.  1.
       -3    1    3    3    0  502  0.20480261437E+02 -0.16083333332E+03 -0.81414532462E+02  0.18142529733E+03  0.10100000352E+00 0. -1.
</event>
<event>
 5   0  0.3767635E-02  0.5843131E+03  0.7818609E-02  0.9938497E-01
       -1   -1    0    0    0  501  0.00000000000E+00  0.00000000000E+00  0.13312360502E+03  0.13312360512E+03  0.50400001928E-02 0. -1.
        1   -1    0    0  501    0  0.00000000000E+00  0.00000000000E+00 -0.64117437258E+03  0.64117437260E+03  0.50400001928E-02 0.  1.
    10030    2    1    2    0    0  0.00000000000E+00  0.00000000000E+00 -0.50805076755E+03  0.77429797772E+03  0.58431308036E+03 0.  0.
        2    1    3    3  502    0  0.27234830729E+03  0.29782358916E+02 -0.11957172506E+03  0.29892806297E+03  0.25500000920E-02 0.  1.
       -2    1    3    3    0  502 -0.27234830729E+03 -0.29782358916E+02 -0.38847904249E+03  0.47536991475E+03  0.25500000920E-02 0. -1.
</event>
<event>
 5   0  0.3651984E-02  0.6210917E+03  0.7818609E-02  0.9862589E-01
        1   -1    0    0  501    0  0.00000000000E+00  0.00000000000E+00  0.53306239396E+03  0.53306239399E+03  0.50400001928E-02 0.  1.
       -1   -1    0    0    0  501  0.00000000000E+00  0.00000000000E+00 -0.18091449876E+03  0.18091449883E+03  0.50400001928E-02 0. -1.
    10030    2    1    2    0    0  0.00000000000E+00  0.00000000000E+00  0.35214789521E+03  0.71397689281E+03  0.62109167067E+03 0.  0.
        1    1    3    3  502    0 -0.15421431939E+03 -0.28569838976E+00 -0.13378634085E+03  0.20415906287E+03  0.50400001928E-02 0. -1.
       -1    1    3    3    0  502  0.15421431939E+03  0.28569838976E+00  0.48593423606E+03  0.50981782994E+03  0.50400001928E-02 0.  1.
</event>
<event>
 5   0  0.5935451E-02  0.6006549E+03  0.7818609E-02  0.9904048E-01
       -2   -1    0    0    0  501  0.00000000000E+00  0.00000000000E+00  0.72336363120E+02  0.72336363165E+02  0.25500000920E-02 0.  1.
        2   -1    0    0  501    0  0.00000000000E+00  0.00000000000E+00 -0.12469051780E+04  0.12469051780E+04  0.25500000920E-02 0. -1.
    10030    2    1    2    0    0  0.00000000000E+00  0.00000000000E+00 -0.11745688148E+04  0.13192415411E+04  0.60065492843E+03 0.  0.
        3    1    3    3  502    0 -0.28012581134E+03  0.60387841200E+02 -0.78470352442E+03  0.83539020402E+03  0.10100000352E+00 0.  1.
       -3    1    3    3    0  502  0.28012581134E+03 -0.60387841200E+02 -0.38986529043E+03  0.48385133711E+03  0.10100000352E+00 0. -1.
</event>
<event>
 5   0  0.5999117E-02  0.6081853E+03  0.7818609E-02  0.9888568E-01
       -2   -1    0    0    0  501  0.00000000000E+00  0.00000000000E+00  0.41852725737E+02  0.41852725815E+02  0.25500000920E-02 0. -1.
        2   -1    0    0  501    0  0.00000000000E+00  0.00000000000E+00 -0.22094698055E+04  0.22094698055E+04  0.25500000920E-02 0.  1.
    10030    2    1    2    0    0  0.00000000000E+00  0.00000000000E+00 -0.21676170798E+04  0.22513225313E+04  0.60818528059E+03 0.  0.
        5    1    3    3  502    0 -0.27692383629E+03  0.11639353167E+03 -0.12580632759E+04  0.12934371115E+04  0.46999998093E+01 0.  1.
       -5    1    3    3    0  502  0.27692383629E+03 -0.11639353167E+03 -0.90955380386E+03  0.95788541979E+03  0.46999998093E+01 0. -1.
</event>
<event>
 5   0  0.3640827E-02  0.6021223E+03  0.7818609E-02  0.9901013E-01
       -1   -1    0    0    0  501  0.00000000000E+00  0.00000000000E+00  0.43557129706E+03  0.43557129709E+03  0.50400001928E-02 0. -1.
        1   -1    0    0  501    0  0.00000000000E+00  0.00000000000E+00 -0.20808948198E+03  0.20808948204E+03  0.50400001928E-02 0.  1.
    10030    2    1    2    0    0  0.00000000000E+00  0.00000000000E+00  0.22748181508E+03  0.64366077912E+03  0.60212226532E+03 0.  0.
        3    1    3    3  502    0 -0.40879323591E+02  0.60587556012E+02  0.42594331319E+03  0.43216858666E+03  0.10100000352E+00 0. -1.
       -3    1    3    3    0  502  0.40879323591E+02 -0.60587556012E+02 -0.19846149811E+03  0.21149219247E+03  0.10100000352E+00 0.  1.
</event>
<event>
 5   0  0.3767635E-02  0.5989519E+03  0.7818609E-02  0.9907583E-01
       -1   -1    0    0    0  501  0.00000000000E+00  0.00000000000E+00  0.21863699946E+03  0.21863699952E+03  0.50400001928E-02 0. -1.
        1   -1    0    0  501    0  0.00000000000E+00  0.00000000000E+00 -0.41020429153E+03  0.41020429156E+03  0.50400001928E-02 0.  1.
    10030    2    1    2    0    0  0.00000000000E+00  0.00000000000E+00 -0.19156729207E+03  0.62884129108E+03  0.59895186949E+03 0.  0.
        2    1    3    3  502    0  0.28010290710E+03 -0.30649660380E+02  0.10711886095E+02  0.28197834094E+03  0.25500000920E-02 0. -1.
       -2    1    3    3    0  502 -0.28010290710E+03  0.30649660380E+02 -0.20227917817E+03  0.34686295014E+03  0.25500000920E-02 0.  1.
</event>
<event>
 5   0  0.3767635E-02  0.6157138E+03  0.7818609E-02  0.9873331E-01
        1   -1    0    0  501    0  0.00000000000E+00  0.00000000000E+00  0.49226243613E+03  0.49226243616E+03  0.50400001928E-02 0.  1.
       -1   -1    0    0    0  501  0.00000000000E+00  0.00000000000E+00 -0.19253115764E+03  0.19253115771E+03  0.50400001928E-02 0. -1.
    10030    2    1    2    0    0  0.00000000000E+00  0.00000000000E+00  0.29973127849E+03  0.68479359386E+03  0.61571375402E+03 0.  0.
        2    1    3    3  502    0  0.16731414275E+03  0.11919605938E+03  0.40488132647E+03  0.45401609164E+03  0.25500000920E-02 0.  1.
       -2    1    3    3    0  502 -0.16731414275E+03 -0.11919605938E+03 -0.10515004798E+03  0.23077750222E+03  0.25500000920E-02 0. -1.
</event>
<event>
 5   0  0.6007360E-02  0.6010419E+03  0.7818609E-02  0.9903247E-01
       -2   -1    0    0    0  501  0.00000000000E+00  0.00000000000E+00  0.19978758042E+03  0.19978758044E+03  0.25500000920E-02 0.  1.
        2   -1    0    0  501    0  0.00000000000E+00  0.00000000000E+00 -0.45204434415E+03  0.45204434416E+03  0.25500000920E-02 0. -1.
    10030    2    1    2    0    0  0.00000000000E+00  0.00000000000E+00 -0.25225676373E+03  0.65183192460E+03  0.60104191458E+03 0.  0.
        4    1    3    3  502    0  0.25402653921E+03 -0.80216697860E+02 -0.27697585463E+03  0.38429342720E+03  0.12699999809E+01 0. -1.
       -4    1    3    3    0  502 -0.25402653921E+03  0.80216697860E+02  0.24719090903E+02  0.26753849740E+03  0.12699999809E+01 0.  1.
</event>
<event>
 5   0  0.2388000E-02  0.5957482E+03  0.7818609E-02  0.9914267E-01
       -3   -1    0    0    0  501  0.00000000000E+00  0.00000000000E+00  0.26287628660E+03  0.26287630601E+03  0.10100000352E+00 0. -1.
        3   -1    0    0  501    0  0.00000000000E+00  0.00000000000E+00 -0.33753123145E+03  0.33753124656E+03  0.10100000352E+00 0.  1.
    10030    2    1    2    0    0  0.00000000000E+00  0.00000000000E+00 -0.74654944846E+02  0.60040755257E+03  0.59574815853E+03 0.  0.
        3    1    3    3  502    0 -0.29351487751E+03 -0.47630549659E+02 -0.55052071747E+02  0.30240766093E+03  0.10100000352E+00 0. -1.
       -3    1    3    3    0  502  0.29351487751E+03  0.47630549659E+02 -0.19602873100E+02  0.29799989164E+03  0.10100000352E+00 0.  1.
</event>
<event>
 5   0  0.3703280E-02  0.5995922E+03  0.7818609E-02  0.9906252E-01
       -1   -1    0    0    0  501  0.00000000000E+00  0.00000000000E+00  0.81057605145E+02  0.81057605301E+02  0.50400001928E-02 0.  1.
        1   -1    0    0  501    0  0.00000000000E+00  0.00000000000E+00 -0.11088128259E+04  0.11088128260E+04  0.50400001928E-02 0. -1.
    10030    2    1    2    0    0  0.00000000000E+00  0.00000000000E+00 -0.10277552208E+04  0.11898704313E+04  0.59959223585E+03 0.  0.
        5    1    3    3  502    0 -0.27095013528E+03  0.10283876229E+03 -0.66586536926E+03  0.72621523450E+03  0.46999998093E+01 0. -1.
       -5    1    3    3    0  502  0.27095013528E+03 -0.10283876229E+03 -0.36188985153E+03  0.46365519675E+03  0.46999998093E+01 0.  1.
</event>
<event>
 5   0  0.5999117E-02  0.5980461E+03  0.7818609E-02  0.9909468E-01
        2   -1    0    0  501    0  0.00000000000E+00  0.00000000000E+00  0.19854809381E+03  0.19854809382E+03  0.25500000920E-02 0.  1.
       -2   -1    0    0    0  501  0.00000000000E+00  0.00000000000E+00 -0.45034321223E+03  0.45034321224E+03  0.25500000920E-02 0. -1.
    10030    2    1    2    0    0  0.00000000000E+00  0.00000000000E+00 -0.25179511842E+03  0.64889130606E+03  0.59804610643E+03 0.  0.
        5    1    3    3  502    0 -0.88808680710E+02  0.23535639953E+03 -0.30123163807E+03  0.39248210958E+03  0.46999998093E+01 0. -1.
       -5    1    3    3    0  502  0.88808680710E+02 -0.23535639953E+03  0.49436519646E+02  0.25640919648E+03  0.46999998093E+01 0.  1.
</event>
<event>
 5   0  0.3767635E-02  0.5988454E+03  0.7818609E-02  0.9907804E-01
       -1   -1    0    0    0  501  0.00000000000E+00  0.00000000000E+00  0.95777334372E+02  0.95777334505E+02  0.50400001928E-02 0. -1.
        1   -1    0    0  501    0  0.00000000000E+00  0.00000000000E+00 -0.93606664605E+03  0.93606664606E+03  0.50400001928E-02 0.  1.
    10030    2    1    2    0    0  0.00000000000E+00  0.00000000000E+00 -0.84028931167E+03  0.10318439806E+04  0.59884544994E+03 0.  0.
        2    1    3    3  502    0 -0.25368749487E+03 -0.20536771782E+02 -0.69190096769E+03  0.73722863017E+03  0.25500000920E-02 0.  1.
       -2    1    3    3    0  502  0.25368749487E+03  0.20536771782E+02 -0.14838834399E+03  0.29461535040E+03  0.25500000920E-02 0. -1.
</event>
<event>
 5   0  0.2388000E-02  0.5986097E+03  0.7818609E-02  0.9908295E-01
        3   -1    0    0  501    0  0.00000000000E+00  0.00000000000E+00  0.52719982676E+03  0.52719983643E+03  0.10100000352E+00 0. -1.
       -3   -1    0    0    0  501  0.00000000000E+00  0.00000000000E+00 -0.16992302555E+03  0.16992305557E+03  0.10100000352E+00 0.  1.
    10030    2    1    2    0    0  0.00000000000E+00  0.00000000000E+00  0.35727680120E+03  0.69712289200E+03  0.59860973419E+03 0.  0.
        5    1    3    3  502    0  0.17489857467E+03  0.66378586864E+02 -0.93396970440E+02  0.20914280361E+03  0.46999998093E+01 0.  1.
       -5    1    3    3    0  502 -0.17489857467E+03 -0.66378586864E+02  0.45067377164E+03  0.48798008839E+03  0.46999998093E+01 0. -1.
</event>
<event>
 5   0  0.2388000E-02  0.5988878E+03  0.7818609E-02  0.9907716E-01
       -3   -1    0    0    0  501  0.00000000000E+00  0.00000000000E+00  0.68130029944E+02  0.68130104809E+02  0.10100000352E+00 0.  1.
        3   -1    0    0  501    0  0.00000000000E+00  0.00000000000E+00 -0.13161095442E+04  0.13161095481E+04  0.10100000352E+00 0. -1.
    10030    2    1    2    0    0  0.00000000000E+00  0.00000000000E+00 -0.12479795142E+04  0.13842396529E+04  0.59888775961E+03 0.  0.
        3    1    3    3  502    0  0.50607123178E+02 -0.16981645641E+03 -0.11819208902E+04  0.11951299974E+04  0.10100000352E+00 0. -1.
       -3    1    3    3    0  502 -0.50607123178E+02  0.16981645641E+03 -0.66058624043E+02  0.18910965548E+03  0.10100000352E+00 0.  1.
</event>
<event>
 5   0  0.5872632E-02  0.5668500E+03  0.7818609E-02  0.9976674E-01
        2   -1    0    0  501    0  0.00000000000E+00  0.00000000000E+00  0.10368894114E+04  0.10368894114E+04  0.25500000920E-02 0.  1.
       -2   -1    0    0    0  501  0.00000000000E+00  0.00000000000E+00 -0.77471828823E+02  0.77471828865E+02  0.25500000920E-02 0. -1.
    10030    2    1    2    0    0  0.00000000000E+00  0.00000000000E+00  0.95941758255E+03  0.11143612402E+04  0.56684995902E+03 0.  0.
        1    1    3    3  502    0 -0.15975278550E+03  0.23152352903E+03  0.41144923456E+03  0.49841204802E+03  0.50400001928E-02 0.  1.
       -1    1    3    3    0  502  0.15975278550E+03 -0.23152352903E+03  0.54796834799E+03  0.61594919222E+03  0.50400001928E-02 0. -1.
</event>
<event>
 5   0  0.3640827E-02  0.6073200E+03  0.7818609E-02  0.9890335E-01
       -1   -1    0    0    0  501  0.00000000000E+00  0.00000000000E+00  0.56494488124E+03  0.56494488126E+03  0.50400001928E-02 0. -1.
        1   -1    0    0  501    0  0.00000000000E+00  0.00000000000E+00 -0.16321841926E+03  0.16321841934E+03  0.50400001928E-02 0.  1.
    10030    2    1    2    0    0  0.00000000000E+00  0.00000000000E+00  0.40172646198E+03  0.72816330060E+03  0.60732004913E+03 0.  0.
        3    1    3    3  502    0  0.18269236667E+03  0.12051827809E+03  0.45324236055E+03  0.50331878943E+03  0.10100000352E+00 0. -1.
       -3    1    3    3    0  502 -0.18269236667E+03 -0.12051827809E+03 -0.51515898573E+02  0.22484451116E+03  0.10100000352E+00 0.  1.
</event>
<event>
 5   0  0.2388000E-02  0.5937278E+03  0.7818609E-02  0.9918505E-01
       -4   -1    0    0    0  501  0.00000000000E+00  0.00000000000E+00  0.40377631470E+03  0.40377831196E+03  0.12699999809E+01 0.  1.
        4   -1    0    0  501    0  0.00000000000E+00  0.00000000000E+00 -0.21825547975E+03  0.21825917470E+03  0.12699999809E+01 0. -1.
    10030    2    1    2    0    0  0.00000000000E+00  0.00000000000E+00  0.18552083495E+03  0.62203748666E+03  0.59372776136E+03 0.  0.
        4    1    3    3  502    0 -0.52486386005E+01  0.86336387786E+02 -0.20476084464E+03  0.22228390958E+03  0.12699999809E+01 0. -1.
       -4    1    3    3    0  502  0.52486386005E+01 -0.86336387786E+02  0.39028167959E+03  0.39975357708E+03  0.12699999809E+01 0.  1.
</event>
<event>
 5   0  0.5755078E-02  0.5955611E+03  0.7818609E-02  0.9914658E-01
        2   -1    0    0  501    0  0.00000000000E+00  0.00000000000E+00  0.65023419746E+03  0.65023419747E+03  0.25500000920E-02 0.  1.
       -2   -1    0    0    0  501  0.00000000000E+00  0.00000000000E+00 -0.13637124387E+03  0.13637124389E+03  0.25500000920E-02 0. -1.
    10030    2    1    2    0    0  0.00000000000E+00  0.00000000000E+00  0.51386295359E+03  0.78660544136E+03  0.59556106765E+03 0.  0.
        2    1    3    3  502    0 -0.25449548159E+03 -0.13226080678E+03  0.36269602246E+03  0.46239515122E+03  0.25500000920E-02 0.  1.
       -2    1    3    3    0  502  0.25449548159E+03  0.13226080678E+03  0.15116693114E+03  0.32421029014E+03  0.25500000920E-02 0. -1.
</event>
<event>
 5   0  0.5755078E-02  0.5944915E+03  0.7818609E-02  0.9916901E-01
        2   -1    0    0  501    0  0.00000000000E+00  0.00000000000E+00  0.57757063885E+02  0.57757063941E+02  0.25500000920E-02 0. -1.
       -2   -1    0    0    0  501  0.00000000000E+00  0.00000000000E+00 -0.15297700836E+04  0.15297700836E+04  0.25500000920E-02 0.  1.
    10030    2    1    2    0    0  0.00000000000E+00  0.00000000000E+00 -0.14720130197E+04  0.15875271476E+04  0.59449147511E+03 0.  0.
        2    1    3    3  502    0 -0.75434571816E+02  0.22318251772E+03 -0.12200351885E+04  0.12425726023E+04  0.25500000920E-02 0.  1.
       -2    1    3    3    0  502  0.75434571816E+02 -0.22318251772E+03 -0.25197783120E+03  0.34495454521E+03  0.25500000920E-02 0. -1.
</event>
<event>
 5   0  0.6007360E-02  0.6072893E+03  0.7818609E-02  0.9890397E-01
        2   -1    0    0  501    0  0.00000000000E+00  0.00000000000E+00  0.14199665359E+04  0.14199665359E+04  0.25500000920E-02 0. -1.
       -2   -1    0    0    0  501  0.00000000000E+00  0.00000000000E+00 -0.64931163103E+02  0.64931163153E+02  0.25500000920E-02 0.  1.
    10030    2    1    2    0    0  0.00000000000E+00  0.00000000000E+00  0.13550353728E+04  0.14848976991E+04  0.60728931748E+03 0.  0.
        4    1    3    3  502    0  0.59778563698E+02  0.18547350422E+02  0.14040157777E+04  0.14054107577E+04  0.12699999809E+01 0. -1.
       -4    1    3    3    0  502 -0.59778563698E+02 -0.18547350422E+02 -0.48980404897E+02  0.79486941376E+02  0.12699999809E+01 0.  1.
</event>
<event>
 5   0  0.5755078E-02  0.6008908E+03  0.7818609E-02  0.9903560E-01
       -2   -1    0    0    0  501  0.00000000000E+00  0.00000000000E+00  0.38029237511E+02  0.38029237597E+02  0.25500000920E-02 0.  1.
        2   -1    0    0  501    0  0.00000000000E+00  0.00000000000E+00 -0.23736322889E+04  0.23736322889E+04  0.25500000920E-02 0. -1.
    10030    2    1    2    0    0  0.00000000000E+00  0.00000000000E+00 -0.23356030514E+04  0.24116615265E+04  0.60089075940E+03 0.  0.
        2    1    3    3  502    0 -0.26093106724E+03  0.14412705093E+03 -0.10171064019E+04  0.10598882306E+04  0.25500000920E-02 0. -1.
       -2    1    3    3    0  502  0.26093106724E+03 -0.14412705093E+03 -0.13184966495E+04  0.13517732959E+04  0.25500000920E-02 0.  1.
</event>
<event>
 5   0  0.5755078E-02  0.5845225E+03  0.7818609E-02  0.9938048E-01
       -2   -1    0    0    0  501  0.00000000000E+00  0.00000000000E+00  0.41835581587E+02  0.41835581665E+02  0.25500000920E-02 0.  1.
        2   -1    0    0  501    0  0.00000000000E+00  0.00000000000E+00 -0.20417222978E+04  0.20417222978E+04  0.25500000920E-02 0. -1.
    10030    2    1    2    0    0  0.00000000000E+00  0.00000000000E+00 -0.19998867162E+04  0.20835578795E+04  0.58452250547E+03 0.  0.
        2    1    3    3  502    0 -0.19523218326E+03  0.20225157023E+03 -0.71488351442E+03  0.76816648081E+03  0.25500000920E-02 0. -1.
       -2    1    3    3    0  502  0.19523218326E+03 -0.20225157023E+03 -0.12850032018E+04  0.13153913986E+04  0.25500000920E-02 0.  1.
</event>
<event>
 5   0  0.5935451E-02  0.5975241E+03  0.7818609E-02  0.9910556E-01
        2   -1    0    0  501    0  0.00000000000E+00  0.00000000000E+00  0.26120641718E+04  0.26120641718E+04  0.25500000920E-02 0. -1.
       -2   -1    0    0    0  501  0.00000000000E+00  0.00000000000E+00 -0.34171733615E+02  0.34171733710E+02  0.25500000920E-02 0.  1.
    10030    2    1    2    0    0  0.00000000000E+00  0.00000000000E+00  0.25778924382E+04  0.26462359055E+04  0.59752409556E+03 0.  0.
        3    1    3    3  502    0  0.61214540144E+02 -0.15941469914E+03  0.20325857335E+03  0.26547000597E+03  0.10100000352E+00 0.  1.
       -3    1    3    3    0  502 -0.61214540144E+02  0.15941469914E+03  0.23746338649E+04  0.23807658996E+04  0.10100000352E+00 0. -1.
</event>
<event>
 5   0  0.3767635E-02  0.6019556E+03  0.7818609E-02  0.9901357E-01
       -1   -1    0    0    0  501  0.00000000000E+00  0.00000000000E+00  0.46985929106E+03  0.46985929109E+03  0.50400001928E-02 0.  1.
        1   -1    0    0  501    0  0.00000000000E+00  0.00000000000E+00 -0.19279734416E+03  0.19279734423E+03  0.50400001928E-02 0. -1.
    10030    2    1    2    0    0  0.00000000000E+00  0.00000000000E+00  0.27706194690E+03  0.66265663532E+03  0.60195555808E+03 0.  0.
        2    1    3    3  502    0 -0.22997988963E+03  0.16635288681E+03  0.24874472575E+03  0.37740955364E+03  0.25500000920E-02 0.  1.
       -2    1    3    3    0  502  0.22997988963E+03 -0.16635288681E+03  0.28317221155E+02  0.28524708168E+03  0.25500000920E-02 0. -1.
</event>
<event>
 5   0  0.3651984E-02  0.5995599E+03  0.7818609E-02  0.9906320E-01
       -1   -1    0    0    0  501  0.00000000000E+00  0.00000000000E+00  0.21277486913E+03  0.21277486919E+03  0.50400001928E-02 0. -1.
        1   -1    0    0  501    0  0.00000000000E+00  0.00000000000E+00 -0.42236200496E+03  0.42236200499E+03  0.50400001928E-02 0.  1.
    10030    2    1    2    0    0  0.00000000000E+00  0.00000000000E+00 -0.20958713584E+03  0.63513687418E+03  0.59955990646E+03 0.  0.
        1    1    3    3  502    0 -0.29103101693E+03 -0.42571513042E+02 -0.16616789246E+03  0.33782118798E+03  0.50400001928E-02 0. -1.
       -1    1    3    3    0  502  0.29103101693E+03  0.42571513042E+02 -0.43419243378E+02  0.29731568620E+03  0.50400001928E-02 0.  1.
</event>
<event>
 5   0  0.3640827E-02  0.5998924E+03  0.7818609E-02  0.9905629E-01
        1   -1    0    0  501    0  0.00000000000E+00  0.00000000000E+00  0.70121933831E+03  0.70121933833E+03  0.50400001928E-02 0. -1.
       -1   -1    0    0    0  501  0.00000000000E+00  0.00000000000E+00 -0.12830182239E+03  0.12830182249E+03  0.50400001928E-02 0.  1.
    10030    2    1    2    0    0  0.00000000000E+00  0.00000000000E+00  0.57291751592E+03  0.82952116081E+03  0.59989238718E+03 0.  0.
        3    1    3    3  502    0  0.12976823912E+02  0.89635086298E+02  0.68185949374E+03  0.68784825802E+03  0.10100000352E+00 0. -1.
       -3    1    3    3    0  502 -0.12976823912E+02 -0.89635086298E+02 -0.10894197782E+03  0.14167290280E+03  0.10100000352E+00 0.  1.
</event>
<event>
 5   0  0.2388000E-02  0.5920621E+03  0.7818609E-02  0.9922013E-01
       -3   -1    0    0    0  501  0.00000000000E+00  0.00000000000E+00  0.16103613295E+03  0.16103616463E+03  0.10100000352E+00 0.  1.
        3   -1    0    0  501    0  0.00000000000E+00  0.00000000000E+00 -0.54419071823E+03  0.54419072760E+03  0.10100000352E+00 0. -1.
    10030    2    1    2    0    0  0.00000000000E+00  0.00000000000E+00 -0.38315458527E+03  0.70522689223E+03  0.59206210258E+03 0.  0.
        4    1    3    3  502    0 -0.77583221966E+02 -0.28967793570E+02  0.14695389892E+03  0.16868713852E+03  0.12699999809E+01 0.  1.
       -4    1    3    3    0  502  0.77583221966E+02  0.28967793570E+02 -0.53010848419E+03  0.53653975371E+03  0.12699999809E+01 0. -1.
</event>
<event>
 5   0  0.3767635E-02  0.6003949E+03  0.7818609E-02  0.9904587E-01
        1   -1    0    0  501    0  0.00000000000E+00  0.00000000000E+00  0.13367691560E+04  0.13367691560E+04  0.50400001928E-02 0. -1.
       -1   -1    0    0    0  501  0.00000000000E+00  0.00000000000E+00 -0.67415167328E+02  0.67415167516E+02  0.50400001928E-02 0.  1.
    10030    2    1    2    0    0  0.00000000000E+00  0.00000000000E+00  0.12693539887E+04  0.14041843236E+04  0.60039492494E+03 0.  0.
        2    1    3    3  502    0  0.14304828698E+03  0.17372168850E+03  0.16999449920E+03  0.28202866384E+03  0.25500000920E-02 0.  1.
       -2    1    3    3    0  502 -0.14304828698E+03 -0.17372168850E+03  0.10993594895E+04  0.11221556597E+04  0.25500000920E-02 0. -1.
</event>
<event>
 5   0  0.3651984E-02  0.5991442E+03  0.7818609E-02  0.9907183E-01
       -1   -1    0    0    0  501  0.00000000000E+00  0.00000000000E+00  0.78503886014E+02  0.78503886175E+02  0.50400001928E-02 0.  1.
        1   -1    0    0  501    0  0.00000000000E+00  0.00000000000E+00 -0.11431719145E+04  0.11431719145E+04  0.50400001928E-02 0. -1.
    10030    2    1    2    0    0  0.00000000000E+00  0.00000000000E+00 -0.10646680285E+04  0.12216758007E+04  0.59914418223E+03 0.  0.
        1    1    3    3  502    0  0.13153506885E+03  0.18070889056E+02 -0.10799027611E+04  0.10880340090E+04  0.50400001928E-02 0. -1.
       -1    1    3    3    0  502 -0.13153506885E+03 -0.18070889056E+02  0.15234732625E+02  0.13364179164E+03  0.50400001928E-02 0.  1.
</event>
<event>
 5   0  0.6007360E-02  0.5762885E+03  0.7818609E-02  0.9955859E-01
       -2   -1    0    0    0  501  0.00000000000E+00  0.00000000000E+00  0.64924924718E+02  0.64924924768E+02  0.25500000920E-02 0.  1.
        2   -1    0    0  501    0  0.00000000000E+00  0.00000000000E+00 -0.12788171989E+04  0.12788171989E+04  0.25500000920E-02 0. -1.
    10030    2    1    2    0    0  0.00000000000E+00  0.00000000000E+00 -0.12138922742E+04  0.13437421237E+04  0.57628850554E+03 0.  0.
        4    1    3    3  502    0 -0.74646404968E+02  0.49599752411E+02  0.31592436804E+02  0.95036393961E+02  0.12699999809E+01 0.  1.
       -4    1    3    3    0  502  0.74646404968E+02 -0.49599752411E+02 -0.12454847110E+04  0.12487057297E+04  0.12699999809E+01 0. -1.
</event>
<event>
 5   0  0.6007360E-02  0.6015533E+03  0.7818609E-02  0.9902189E-01
        2   -1    0    0  501    0  0.00000000000E+00  0.00000000000E+00  0.10539890472E+04  0.10539890472E+04  0.25500000920E-02 0.  1.
       -2   -1    0    0    0  501  0.00000000000E+00  0.00000000000E+00 -0.85832584358E+02  0.85832584396E+02  0.25500000920E-02 0. -1.
    10030    2    1    2    0    0  0.00000000000E+00  0.00000000000E+00  0.96815646283E+03  0.11398216316E+04  0.60155333539E+03 0.  0.
        4    1    3    3  502    0 -0.26396220900E+03  0.97119929584E+02  0.68600231192E+03  0.74142370705E+03  0.12699999809E+01 0.  1.
       -4    1    3    3    0  502  0.26396220900E+03 -0.97119929584E+02  0.28215415091E+03  0.39839792454E+03  0.12699999809E+01 0. -1.
</event>
<event>
 5   0  0.5755078E-02  0.5905042E+03  0.7818609E-02  0.9925305E-01
       -2   -1    0    0    0  501  0.00000000000E+00  0.00000000000E+00  0.36756372969E+03  0.36756372970E+03  0.25500000920E-02 0.  1.
        2   -1    0    0  501    0  0.00000000000E+00  0.00000000000E+00 -0.23716647249E+03  0.23716647250E+03  0.25500000920E-02 0. -1.
    10030    2    1    2    0    0  0.00000000000E+00  0.00000000000E+00  0.13039725720E+03  0.60473020220E+03  0.59050416829E+03 0.  0.
        2    1    3    3  502    0  0.51884811155E+02 -0.20272513479E+03 -0.14810826212E+03  0.25636998892E+03  0.25500000920E-02 0. -1.
       -2    1    3    3    0  502 -0.51884811155E+02  0.20272513479E+03  0.27850551932E+03  0.34836021329E+03  0.25500000920E-02 0.  1.
</event>
<event>
 5   0  0.3703280E-02  0.6086917E+03  0.7818609E-02  0.9887536E-01
        1   -1    0    0  501    0  0.00000000000E+00  0.00000000000E+00  0.43525615492E+03  0.43525615495E+03  0.50400001928E-02 0.  1.
       -1   -1    0    0    0  501  0.00000000000E+00  0.00000000000E+00 -0.21280890214E+03  0.21280890220E+03  0.50400001928E-02 0. -1.
    10030    2    1    2    0    0  0.00000000000E+00  0.00000000000E+00  0.22244725278E+03  0.64806505715E+03  0.60869166088E+03 0.  0.
        5    1    3    3  502    0 -0.26892862812E+02 -0.91620726857E+02 -0.19640725461E+03  0.21843874043E+03  0.46999998093E+01 0. -1.
       -5    1    3    3    0  502  0.26892862812E+02  0.91620726857E+02  0.41885450739E+03  0.42962631672E+03  0.46999998093E+01 0.  1.
</event>
<event>
 5   0  0.3478183E-02  0.6003609E+03  0.7818609E-02  0.9904658E-01
        1   -1    0    0  501    0  0.00000000000E+00  0.00000000000E+00  0.94795285122E+03  0.94795285124E+03  0.50400001928E-02 0.  1.
       -1   -1    0    0    0  501  0.00000000000E+00  0.00000000000E+00 -0.95055689014E+02  0.95055689148E+02  0.50400001928E-02 0. -1.
    10030    2    1    2    0    0  0.00000000000E+00  0.00000000000E+00  0.85289716221E+03  0.10430085404E+04  0.60036092978E+03 0.  0.
        4    1    3    3  502    0  0.42627924558E+01  0.29254393575E+03  0.30982170540E+03  0.42613522241E+03  0.12699999809E+01 0. -1.
       -4    1    3    3    0  502 -0.42627924558E+01 -0.29254393575E+03  0.54307545681E+03  0.61687331798E+03  0.12699999809E+01 0.  1.
</event>
<event>
 5   0  0.3640827E-02  0.5853400E+03  0.7818609E-02  0.9936297E-01
        1   -1    0    0  501    0  0.00000000000E+00  0.00000000000E+00  0.48655530085E+03  0.48655530087E+03  0.50400001928E-02 0.  1.
       -1   -1    0    0    0  501  0.00000000000E+00  0.00000000000E+00 -0.17604518762E+03  0.17604518769E+03  0.50400001928E-02 0. -1.
    10030    2    1    2    0    0  0.00000000000E+00  0.00000000000E+00  0.31051011323E+03  0.66260048856E+03  0.58533996705E+03 0.  0.
        3    1    3    3  502    0  0.17083434227E+03  0.32689526831E+02 -0.11119091658E+03  0.20643741859E+03  0.10100000352E+00 0. -1.
       -3    1    3    3    0  502 -0.17083434227E+03 -0.32689526831E+02  0.42170102981E+03  0.45616306997E+03  0.10100000352E+00 0.  1.
</event>
<event>
 5   0  0.2388000E-02  0.5930857E+03  0.7818609E-02  0.9919856E-01
       -3   -1    0    0    0  501  0.00000000000E+00  0.00000000000E+00  0.36471631526E+03  0.36471632924E+03  0.10100000352E+00 0. -1.
        3   -1    0    0  501    0  0.00000000000E+00  0.00000000000E+00 -0.24111246998E+03  0.24111249113E+03  0.10100000352E+00 0.  1.
    10030    2    1    2    0    0  0.00000000000E+00  0.00000000000E+00  0.12360384528E+03  0.60582882038E+03  0.59308570125E+03 0.  0.
        4    1    3    3  502    0  0.17407761944E+03  0.18025057608E+03 -0.10016971180E+03  0.26986824901E+03  0.12699999809E+01 0.  1.
       -4    1    3    3    0  502 -0.17407761944E+03 -0.18025057608E+03  0.22377355708E+03  0.33596057136E+03  0.12699999809E+01 0. -1.
</event>
<event>
 5   0  0.3478183E-02  0.5995644E+03  0.7818609E-02  0.9906310E-01
        1   -1    0    0  501    0  0.00000000000E+00  0.00000000000E+00  0.92997465201E+03  0.92997465203E+03  0.50400001928E-02 0.  1.
       -1   -1    0    0    0  501  0.00000000000E+00  0.00000000000E+00 -0.96636353326E+02  0.96636353457E+02  0.50400001928E-02 0. -1.
    10030    2    1    2    0    0  0.00000000000E+00  0.00000000000E+00  0.83333829869E+03  0.10266110055E+04  0.59956437229E+03 0.  0.
        4    1    3    3  502    0 -0.29058081214E+03  0.68656222590E+02  0.37082461581E+03  0.47609179144E+03  0.12699999809E+01 0.  1.
       -4    1    3    3    0  502  0.29058081214E+03 -0.68656222590E+02  0.46251368288E+03  0.55051921405E+03  0.12699999809E+01 0. -1.
</event>
<event>
 5   0  0.3767635E-02  0.5994672E+03  0.7818609E-02  0.9906512E-01
        1   -1    0    0  501    0  0.00000000000E+00  0.00000000000E+00  0.15561544063E+04  0.15561544063E+04  0.50400001928E-02 0.  1.
       -1   -1    0    0    0  501  0.00000000000E+00  0.00000000000E+00 -0.57732211290E+02  0.57732211510E+02  0.50400001928E-02 0. -1.
    10030    2    1    2    0    0  0.00000000000E+00  0.00000000000E+00  0.14984221950E+04  0.16138866178E+04  0.59946721400E+03 0.  0.
        2    1    3    3  502    0 -0.24182244582E+02  0.16928347782E+03  0.86477892050E+02  0.19162490087E+03  0.25500000920E-02 0. -1.
       -2    1    3    3    0  502  0.24182244582E+02 -0.16928347782E+03  0.14119443029E+04  0.14222617169E+04  0.25500000920E-02 0.  1.
</event>
<event>
 5   0  0.5872632E-02  0.5633895E+03  0.7818609E-02  0.9984414E-01
       -2   -1    0    0    0  501  0.00000000000E+00  0.00000000000E+00  0.69639689348E+02  0.69639689394E+02  0.25500000920E-02 0. -1.
        2   -1    0    0  501    0  0.00000000000E+00  0.00000000000E+00 -0.11394643335E+04  0.11394643335E+04  0.25500000920E-02 0.  1.
    10030    2    1    2    0    0  0.00000000000E+00  0.00000000000E+00 -0.10698246442E+04  0.12091040229E+04  0.56338953572E+03 0.  0.
        1    1    3    3  502    0  0.12149935615E+01 -0.11894042845E+03 -0.10829252603E+04  0.10894381218E+04  0.50400001928E-02 0.  1.
       -1    1    3    3    0  502 -0.12149935615E+01  0.11894042845E+03  0.13100616137E+02  0.11966590115E+03  0.50400001928E-02 0. -1.
</event>
<event>
 5   0  0.5755078E-02  0.5997142E+03  0.7818609E-02  0.9905999E-01
        2   -1    0    0  501    0  0.00000000000E+00  0.00000000000E+00  0.15640175711E+03  0.15640175713E+03  0.25500000920E-02 0.  1.
       -2   -1    0    0    0  501  0.00000000000E+00  0.00000000000E+00 -0.57489295365E+03  0.57489295366E+03  0.25500000920E-02 0. -1.
    10030    2    1    2    0    0  0.00000000000E+00  0.00000000000E+00 -0.41849119654E+03  0.73129471079E+03  0.59971415895E+03 0.  0.
        2    1    3    3  502    0 -0.18197067848E+03 -0.75527179044E+02  0.66395562244E+02  0.20790876194E+03  0.25500000920E-02 0.  1.
       -2    1    3    3    0  502  0.18197067848E+03  0.75527179044E+02 -0.48488675879E+03  0.52338594885E+03  0.25500000920E-02 0. -1.
</event>
<event>
 5   0  0.5935451E-02  0.6006464E+03  0.7818609E-02  0.9904066E-01
        2   -1    0    0  501    0  0.00000000000E+00  0.00000000000E+00  0.64975181120E+03  0.64975181121E+03  0.25500000920E-02 0. -1.
       -2   -1    0    0    0  501  0.00000000000E+00  0.00000000000E+00 -0.13881304041E+03  0.13881304043E+03  0.25500000920E-02 0.  1.
    10030    2    1    2    0    0  0.00000000000E+00  0.00000000000E+00  0.51093877080E+03  0.78856485164E+03  0.60064639992E+03 0.  0.
        3    1    3    3  502    0 -0.20507088886E+03  0.17950638064E+03  0.42110535637E+03  0.50160376944E+03  0.10100000352E+00 0. -1.
       -3    1    3    3    0  502  0.20507088886E+03 -0.17950638064E+03  0.89833414426E+02  0.28696108220E+03  0.10100000352E+00 0.  1.
</event>
<event>
 5   0  0.5999117E-02  0.6005669E+03  0.7818609E-02  0.9904231E-01
        2   -1    0    0  501    0  0.00000000000E+00  0.00000000000E+00  0.88120375192E+03  0.88120375192E+03  0.25500000920E-02 0. -1.
       -2   -1    0    0    0  501  0.00000000000E+00  0.00000000000E+00 -0.10232611253E+03  0.10232611256E+03  0.25500000920E-02 0.  1.
    10030    2    1    2    0    0  0.00000000000E+00  0.00000000000E+00  0.77887763939E+03  0.98352986448E+03  0.60056691317E+03 0.  0.
        5    1    3    3  502    0 -0.57184691791E+02  0.28451839601E+03  0.26335683031E+03  0.39191799744E+03  0.46999998093E+01 0. -1.
       -5    1    3    3    0  502  0.57184691791E+02 -0.28451839601E+03  0.51552080908E+03  0.59161186705E+03  0.46999998093E+01 0.  1.
</event>
<event>
 5   0  0.2388000E-02  0.6101391E+03  0.7818609E-02  0.9884591E-01
       -3   -1    0    0    0  501  0.00000000000E+00  0.00000000000E+00  0.83443785615E+03  0.83443786227E+03  0.10100000352E+00 0.  1.
        3   -1    0    0  501    0  0.00000000000E+00  0.00000000000E+00 -0.11153305893E+03  0.11153310466E+03  0.10100000352E+00 0. -1.
    10030    2    1    2    0    0  0.00000000000E+00  0.00000000000E+00  0.72290479723E+03  0.94597096693E+03  0.61013910251E+03 0.  0.
        1    1    3    3  502    0  0.10340477658E+03 -0.27326733928E+03  0.22540509861E+03  0.36901903073E+03  0.50400001928E-02 0. -1.
       -1    1    3    3    0  502 -0.10340477658E+03  0.27326733928E+03  0.49749969861E+03  0.57695193620E+03  0.50400001928E-02 0.  1.
</event>
<event>
 5   0  0.3640827E-02  0.6017004E+03  0.7818609E-02  0.9901885E-01
       -1   -1    0    0    0  501  0.00000000000E+00  0.00000000000E+00  0.13976853134E+03  0.13976853143E+03  0.50400001928E-02 0. -1.
        1   -1    0    0  501    0  0.00000000000E+00  0.00000000000E+00 -0.64757670182E+03  0.64757670184E+03  0.50400001928E-02 0.  1.
    10030    2    1    2    0    0  0.00000000000E+00  0.00000000000E+00 -0.50780817048E+03  0.78734523327E+03  0.60170040580E+03 0.  0.
        3    1    3    3  502    0 -0.52223218234E+02 -0.85602097113E+02  0.11725809240E+03  0.15428692099E+03  0.10100000352E+00 0. -1.
       -3    1    3    3    0  502  0.52223218234E+02  0.85602097113E+02 -0.62506626288E+03  0.63305831228E+03  0.10100000352E+00 0.  1.
</event>
<event>
 5   0  0.3767635E-02  0.5927224E+03  0.7818609E-02  0.9920621E-01
        1   -1    0    0  501    0  0.00000000000E+00  0.00000000000E+00  0.37301925196E+03  0.37301925199E+03  0.50400001928E-02 0. -1.
       -1   -1    0    0    0  501  0.00000000000E+00  0.00000000000E+00 -0.23545694993E+03  0.23545694999E+03  0.50400001928E-02 0.  1.
    10030    2    1    2    0    0  0.00000000000E+00  0.00000000000E+00  0.13756230203E+03  0.60847620198E+03  0.59272244890E+03 0.  0.
        2    1    3    3  502    0 -0.24040681300E+02  0.26278575150E+03 -0.69695402086E+02  0.27293177650E+03  0.25500000920E-02 0.  1.
       -2    1    3    3    0  502  0.24040681300E+02 -0.26278575150E+03  0.20725770411E+03  0.33554442547E+03  0.25500000920E-02 0. -1.
</event>
<event>
 5   0  0.3640827E-02  0.6047341E+03  0.7818609E-02  0.9895633E-01
       -1   -1    0    0    0  501  0.00000000000E+00  0.00000000000E+00  0.82659358132E+02  0.82659358286E+02  0.50400001928E-02 0.  1.
        1   -1    0    0  501    0  0.00000000000E+00  0.00000000000E+00 -0.11060554589E+04  0.11060554589E+04  0.50400001928E-02 0. -1.
    10030    2    1    2    0    0  0.00000000000E+00  0.00000000000E+00 -0.10233961008E+04  0.11887148172E+04  0.60473410484E+03 0.  0.
        3    1    3    3  502    0 -0.12981145133E+02 -0.21357725057E+03 -0.93164641134E+03  0.95590208602E+03  0.10100000352E+00 0. -1.
       -3    1    3    3    0  502  0.12981145133E+02  0.21357725057E+03 -0.91749689431E+02  0.23281273118E+03  0.10100000352E+00 0.  1.
</event>
<event>
 5   0  0.5755078E-02  0.5952442E+03  0.7818609E-02  0.9915322E-01
        2   -1    0    0  501    0  0.00000000000E+00  0.00000000000E+00  0.23324643419E+03  0.23324643420E+03  0.25500000920E-02 0.  1.
       -2   -1    0    0    0  501  0.00000000000E+00  0.00000000000E+00 -0.37976533268E+03  0.37976533269E+03  0.25500000920E-02 0. -1.
    10030    2    1    2    0    0  0.00000000000E+00  0.00000000000E+00 -0.14651889849E+03  0.61301176689E+03  0.59524418412E+03 0.  0.
        2    1    3    3  502    0 -0.13892993634E+03  0.11468573990E+03  0.17071825391E+03  0.24819159610E+03  0.25500000920E-02 0.  1.
       -2    1    3    3    0  502  0.13892993634E+03 -0.11468573990E+03 -0.31723715240E+03  0.36482017079E+03  0.25500000920E-02 0. -1.
</event>
<event>
 5   0  0.5872632E-02  0.6113659E+03  0.7818609E-02  0.9882102E-01
       -2   -1    0    0    0  501  0.00000000000E+00  0.00000000000E+00  0.67136699862E+03  0.67136699863E+03  0.25500000920E-02 0. -1.
        2   -1    0    0  501    0  0.00000000000E+00  0.00000000000E+00 -0.13918181066E+03  0.13918181068E+03  0.25500000920E-02 0.  1.
    10030    2    1    2    0    0  0.00000000000E+00  0.00000000000E+00  0.53218518796E+03  0.81054880931E+03  0.61136592805E+03 0.  0.
        1    1    3    3  502    0 -0.64079874163E+02 -0.19666686136E+03 -0.32309534745E+02  0.20935135703E+03  0.50400001928E-02 0.  1.
       -1    1    3    3    0  502  0.64079874163E+02  0.19666686136E+03  0.56449472271E+03  0.60119745227E+03  0.50400001928E-02 0. -1.
</event>
<event>
 5   0  0.5872632E-02  0.6017410E+03  0.7818609E-02  0.9901801E-01
        2   -1    0    0  501    0  0.00000000000E+00  0.00000000000E+00  0.85559795190E+03  0.85559795190E+03  0.25500000920E-02 0.  1.
       -2   -1    0    0    0  501  0.00000000000E+00  0.00000000000E+00 -0.10580093883E+03  0.10580093886E+03  0.25500000920E-02 0. -1.
    10030    2    1    2    0    0  0.00000000000E+00  0.00000000000E+00  0.74979701307E+03  0.96139889076E+03  0.60174102931E+03 0.  0.
        1    1    3    3  502    0 -0.15220218033E+03  0.21664647988E+03  0.14657969287E+03  0.30263312332E+03  0.50400001928E-02 0. -1.
       -1    1    3    3    0  502  0.15220218033E+03 -0.21664647988E+03  0.60321732020E+03  0.65876576744E+03  0.50400001928E-02 0.  1.
</event>
<event>
 5   0  0.5935451E-02  0.6009767E+03  0.7818609E-02  0.9903382E-01
        2   -1    0    0  501    0  0.00000000000E+00  0.00000000000E+00  0.86903801128E+03  0.86903801128E+03  0.25500000920E-02 0.  1.
       -2   -1    0    0    0  501  0.00000000000E+00  0.00000000000E+00 -0.10390022253E+03  0.10390022256E+03  0.25500000920E-02 0. -1.
    10030    2    1    2    0    0  0.00000000000E+00  0.00000000000E+00  0.76513778875E+03  0.97293823384E+03  0.60097668100E+03 0.  0.
        3    1    3    3  502    0 -0.19179023438E+03 -0.45400203270E+02  0.15359095427E+02  0.19768809897E+03  0.10100000352E+00 0. -1.
       -3    1    3    3    0  502  0.19179023438E+03  0.45400203270E+02  0.74977869332E+03  0.77525013487E+03  0.10100000352E+00 0.  1.
</event>
<event>
 5   0  0.3478183E-02  0.5807208E+03  0.7818609E-02  0.9946232E-01
       -1   -1    0    0    0  501  0.00000000000E+00  0.00000000000E+00  0.23979107708E+03  0.23979107713E+03  0.50400001928E-02 0. -1.
        1   -1    0    0  501    0  0.00000000000E+00  0.00000000000E+00 -0.35159420482E+03  0.35159420486E+03  0.50400001928E-02 0.  1.
    10030    2    1    2    0    0  0.00000000000E+00  0.00000000000E+00 -0.11180312774E+03  0.59138528198E+03  0.58072076971E+03 0.  0.
        4    1    3    3  502    0 -0.21242793671E+03  0.48527888357E+01  0.14561716413E+03  0.25759493248E+03  0.12699999809E+01 0. -1.
       -4    1    3    3    0  502  0.21242793671E+03 -0.48527888357E+01 -0.25742029187E+03  0.33379034950E+03  0.12699999809E+01 0.  1.
</event>
<event>
 5   0  0.5935451E-02  0.6068226E+03  0.7818609E-02  0.9891352E-01
       -2   -1    0    0    0  501  0.00000000000E+00  0.00000000000E+00  0.19692376156E+03  0.19692376157E+03  0.25500000920E-02 0.  1.
        2   -1    0    0  501    0  0.00000000000E+00  0.00000000000E+00 -0.46748246839E+03  0.46748246840E+03  0.25500000920E-02 0. -1.
    10030    2    1    2    0    0  0.00000000000E+00  0.00000000000E+00 -0.27055870684E+03  0.66440622997E+03  0.60682256433E+03 0.  0.
        3    1    3    3  502    0  0.29441826890E+03 -0.16392994235E+02 -0.57030455516E+02  0.30033869278E+03  0.10100000352E+00 0. -1.
       -3    1    3    3    0  502 -0.29441826890E+03  0.16392994235E+02 -0.21352825132E+03  0.36406753719E+03  0.10100000352E+00 0.  1.
</event>
<event>
 5   0  0.3767635E-02  0.5896823E+03  0.7818609E-02  0.9927046E-01
       -1   -1    0    0    0  501  0.00000000000E+00  0.00000000000E+00  0.27326408943E+03  0.27326408948E+03  0.50400001928E-02 0. -1.
        1   -1    0    0  501    0  0.00000000000E+00  0.00000000000E+00 -0.31812192508E+03  0.31812192512E+03  0.50400001928E-02 0.  1.
    10030    2    1    2    0    0  0.00000000000E+00  0.00000000000E+00 -0.44857835651E+02  0.59138601460E+03  0.58968228128E+03 0.  0.
        2    1    3    3  502    0 -0.54165515206E+02 -0.17879611663E+03  0.20632953260E+03  0.27834121216E+03  0.25500000920E-02 0. -1.
       -2    1    3    3    0  502  0.54165515206E+02  0.17879611663E+03 -0.25118736825E+03  0.31304480244E+03  0.25500000920E-02 0.  1.
</event>
<event>
 5   0  0.5999117E-02  0.5990491E+03  0.7818609E-02  0.9907381E-01
        2   -1    0    0  501    0  0.00000000000E+00  0.00000000000E+00  0.14906026719E+04  0.14906026719E+04  0.25500000920E-02 0. -1.
       -2   -1    0    0    0  501  0.00000000000E+00  0.00000000000E+00 -0.60187029484E+02  0.60187029538E+02  0.25500000920E-02 0.  1.
    10030    2    1    2    0    0  0.00000000000E+00  0.00000000000E+00  0.14304156424E+04  0.15507897014E+04  0.59904906980E+03 0.  0.
        5    1    3    3  502    0  0.24673112045E+03  0.16307918060E+03  0.59318467570E+03  0.66284328044E+03  0.46999998093E+01 0.  1.
       -5    1    3    3    0  502 -0.24673112045E+03 -0.16307918060E+03  0.83723096671E+03  0.88794642100E+03  0.46999998093E+01 0. -1.
</event>
<event>
 5   0  0.5935451E-02  0.6014399E+03  0.7818609E-02  0.9902423E-01
       -2   -1    0    0    0  501  0.00000000000E+00  0.00000000000E+00  0.55931388762E+02  0.55931388820E+02  0.25500000920E-02 0. -1.
        2   -1    0    0  501    0  0.00000000000E+00  0.00000000000E+00 -0.16168466374E+04  0.16168466374E+04  0.25500000920E-02 0.  1.
    10030    2    1    2    0    0  0.00000000000E+00  0.00000000000E+00 -0.15609152486E+04  0.16727780262E+04  0.60143986530E+03 0.  0.
        3    1    3    3  502    0 -0.12050904514E+03 -0.24928686760E+03 -0.11067834840E+04  0.11408926606E+04  0.10100000352E+00 0.  1.
       -3    1    3    3    0  502  0.12050904514E+03  0.24928686760E+03 -0.45413176460E+03  0.53188536559E+03  0.10100000352E+00 0. -1.
</event>
<event>
 5   0  0.3767635E-02  0.6013955E+03  0.7818609E-02  0.9902515E-01
        1   -1    0    0  501    0  0.00000000000E+00  0.00000000000E+00  0.53743136747E+03  0.53743136750E+03  0.50400001928E-02 0.  1.
       -1   -1    0    0    0  501  0.00000000000E+00  0.00000000000E+00 -0.16824314113E+03  0.16824314120E+03  0.50400001928E-02 0. -1.
    10030    2    1    2    0    0  0.00000000000E+00  0.00000000000E+00  0.36918822635E+03  0.70567450870E+03  0.60139551524E+03 0.  0.
        2    1    3    3  502    0 -0.70180735147E+02  0.90324007789E+02  0.51090634591E+03  0.52355425341E+03  0.25500000920E-02 0.  1.
       -2    1    3    3    0  502  0.70180735147E+02 -0.90324007789E+02 -0.14171811956E+03  0.18212025529E+03  0.25500000920E-02 0. -1.
</event>
<event>
 5   0  0.3767635E-02  0.5910801E+03  0.7818609E-02  0.9924087E-01
       -1   -1    0    0    0  501  0.00000000000E+00  0.00000000000E+00  0.10835317605E+03  0.10835317617E+03  0.50400001928E-02 0. -1.
        1   -1    0    0  501    0  0.00000000000E+00  0.00000000000E+00 -0.80610399303E+03  0.80610399304E+03  0.50400001928E-02 0.  1.
    10030    2    1    2    0    0  0.00000000000E+00  0.00000000000E+00 -0.69775081698E+03  0.91445716921E+03  0.59108012293E+03 0.  0.
        2    1    3    3  502    0 -0.11647253044E+03 -0.25990390088E+03 -0.22678186268E+03  0.36406853927E+03  0.25500000920E-02 0. -1.
       -2    1    3    3    0  502  0.11647253044E+03  0.25990390088E+03 -0.47096895430E+03  0.55038862994E+03  0.25500000920E-02 0.  1.
</event>
<event>
 5   0  0.2388000E-02  0.5998243E+03  0.7818609E-02  0.9905771E-01
       -3   -1    0    0    0  501  0.00000000000E+00  0.00000000000E+00  0.19989266991E+03  0.19989269543E+03  0.10100000352E+00 0.  1.
        3   -1    0    0  501    0  0.00000000000E+00  0.00000000000E+00 -0.44997794496E+03  0.44997795629E+03  0.10100000352E+00 0. -1.
    10030    2    1    2    0    0  0.00000000000E+00  0.00000000000E+00 -0.25008527504E+03  0.64987065172E+03  0.59982432360E+03 0.  0.
        1    1    3    3  502    0 -0.14143069611E+02 -0.40724946878E+02  0.19651815672E+03  0.20119128625E+03  0.50400001928E-02 0.  1.
       -1    1    3    3    0  502  0.14143069611E+02  0.40724946878E+02 -0.44660343176E+03  0.44867936548E+03  0.50400001928E-02 0. -1.
</event>
<event>
 5   0  0.3703280E-02  0.5966609E+03  0.7818609E-02  0.9912358E-01
       -1   -1    0    0    0  501  0.00000000000E+00  0.00000000000E+00  0.19269565740E+03  0.19269565747E+03  0.50400001928E-02 0.  1.
        1   -1    0    0  501    0  0.00000000000E+00  0.00000000000E+00 -0.46187367934E+03  0.46187367937E+03  0.50400001928E-02 0. -1.
    10030    2    1    2    0    0  0.00000000000E+00  0.00000000000E+00 -0.26917802194E+03  0.65456933683E+03  0.59666088294E+03 0.  0.
        5    1    3    3  502    0 -0.72819291114E+02  0.17669345774E+03  0.11667169720E+03  0.22395892948E+03  0.46999998093E+01 0.  1.
       -5    1    3    3    0  502  0.72819291114E+02 -0.17669345774E+03 -0.38584971914E+03  0.43061040736E+03  0.46999998093E+01 0. -1.
</event>
<event>
 5   0  0.5755078E-02  0.5973376E+03  0.7818609E-02  0.9910945E-01
       -2   -1    0    0    0  501  0.00000000000E+00  0.00000000000E+00  0.60671222936E+02  0.60671222990E+02  0.25500000920E-02 0. -1.
        2   -1    0    0  501    0  0.00000000000E+00  0.00000000000E+00 -0.14702696011E+04  0.14702696011E+04  0.25500000920E-02 0.  1.
    10030    2    1    2    0    0  0.00000000000E+00  0.00000000000E+00 -0.14095983781E+04  0.15309408241E+04  0.59733760902E+03 0.  0.
        2    1    3    3  502    0 -0.33796547311E+02  0.16374502619E+03 -0.70511955256E+02  0.18145681595E+03  0.25500000920E-02 0. -1.
       -2    1    3    3    0  502  0.33796547311E+02 -0.16374502619E+03 -0.13390864229E+04  0.13494840081E+04  0.25500000920E-02 0.  1.
</event>
<event>
 5   0  0.5755078E-02  0.6121209E+03  0.7818609E-02  0.9880573E-01
        2   -1    0    0  501    0  0.00000000000E+00  0.00000000000E+00  0.24391394762E+03  0.24391394764E+03  0.25500000920E-02 0.  1.
       -2   -1    0    0    0  501  0.00000000000E+00  0.00000000000E+00 -0.38404117734E+03  0.38404117734E+03  0.25500000920E-02 0. -1.
    10030    2    1    2    0    0  0.00000000000E+00  0.00000000000E+00 -0.14012722971E+03  0.62795512498E+03  0.61212090185E+03 0.  0.
        2    1    3    3  502    0  0.28233757134E+03  0.11749980727E+03 -0.57403777886E+02  0.31115253915E+03  0.25500000920E-02 0. -1.
       -2    1    3    3    0  502 -0.28233757134E+03 -0.11749980727E+03 -0.82723451826E+02  0.31680258583E+03  0.25500000920E-02 0.  1.
</event>
<event>
 5   0  0.3640827E-02  0.6184990E+03  0.7818609E-02  0.9867753E-01
       -1   -1    0    0    0  501  0.00000000000E+00  0.00000000000E+00  0.71854598121E+02  0.71854598297E+02  0.50400001928E-02 0.  1.
        1   -1    0    0  501    0  0.00000000000E+00  0.00000000000E+00 -0.13309552679E+04  0.13309552679E+04  0.50400001928E-02 0. -1.
    10030    2    1    2    0    0  0.00000000000E+00  0.00000000000E+00 -0.12591006697E+04  0.14028098662E+04  0.61849900896E+03 0.  0.
        3    1    3    3  502    0  0.60921726336E+02  0.29670297740E+03 -0.48806943898E+03  0.57441788012E+03  0.10100000352E+00 0. -1.
       -3    1    3    3    0  502 -0.60921726336E+02 -0.29670297740E+03 -0.77103123077E+03  0.82839198605E+03  0.10100000352E+00 0.  1.
</event>
<event>
 5   0  0.6007360E-02  0.6022555E+03  0.7818609E-02  0.9900738E-01
        2   -1    0    0  501    0  0.00000000000E+00  0.00000000000E+00  0.13806073750E+04  0.13806073750E+04  0.25500000920E-02 0. -1.
       -2   -1    0    0    0  501  0.00000000000E+00  0.00000000000E+00 -0.65679727635E+02  0.65679727685E+02  0.25500000920E-02 0.  1.
    10030    2    1    2    0    0  0.00000000000E+00  0.00000000000E+00  0.13149276473E+04  0.14462871026E+04  0.60225548199E+03 0.  0.
        4    1    3    3  502    0  0.81982257562E+02 -0.13131445004E+03  0.37202292226E+02  0.15921745756E+03  0.12699999809E+01 0.  1.
       -4    1    3    3    0  502 -0.81982257562E+02  0.13131445004E+03  0.12777253551E+04  0.12870696451E+04  0.12699999809E+01 0. -1.
</event>
<event>
 5   0  0.3651984E-02  0.6323230E+03  0.7818609E-02  0.9840526E-01
       -1   -1    0    0    0  501  0.00000000000E+00  0.00000000000E+00  0.56075833495E+03  0.56075833497E+03  0.50400001928E-02 0.  1.
        1   -1    0    0  501    0  0.00000000000E+00  0.00000000000E+00 -0.17825518957E+03  0.17825518964E+03  0.50400001928E-02 0. -1.
    10030    2    1    2    0    0  0.00000000000E+00  0.00000000000E+00  0.38250314538E+03  0.73901352461E+03  0.63232296600E+03 0.  0.
        1    1    3    3  502    0  0.20751780804E+03 -0.18012745564E+03  0.85089234924E+01  0.27492170292E+03  0.50400001928E-02 0. -1.
       -1    1    3    3    0  502 -0.20751780804E+03  0.18012745564E+03  0.37399422189E+03  0.46409182169E+03  0.50400001928E-02 0.  1.
</event>
<event>
 5   0  0.5755078E-02  0.6098455E+03  0.7818609E-02  0.9885188E-01
       -2   -1    0    0    0  501  0.00000000000E+00  0.00000000000E+00  0.60889997847E+02  0.60889997901E+02  0.25500000920E-02 0.  1.
        2   -1    0    0  501    0  0.00000000000E+00  0.00000000000E+00 -0.15269812082E+04  0.15269812082E+04  0.25500000920E-02 0. -1.
    10030    2    1    2    0    0  0.00000000000E+00  0.00000000000E+00 -0.14660912104E+04  0.15878712061E+04  0.60984549691E+03 0.  0.
        2    1    3    3  502    0  0.10469216233E+03 -0.19689416774E+03 -0.12745339490E+04  0.12938951076E+04  0.25500000920E-02 0. -1.
       -2    1    3    3    0  502 -0.10469216233E+03  0.19689416774E+03 -0.19155726134E+03  0.29397609856E+03  0.25500000920E-02 0.  1.
</event>
<event>
 5   0  0.3640827E-02  0.6060027E+03  0.7818609E-02  0.9893030E-01
       -1   -1    0    0    0  501  0.00000000000E+00  0.00000000000E+00  0.46163791177E+02  0.46163791452E+02  0.50400001928E-02 0. -1.
        1   -1    0    0  501    0  0.00000000000E+00  0.00000000000E+00 -0.19887839609E+04  0.19887839609E+04  0.50400001928E-02 0.  1.
    10030    2    1    2    0    0  0.00000000000E+00  0.00000000000E+00 -0.19426201697E+04  0.20349477523E+04  0.60600266584E+03 0.  0.
        3    1    3    3  502    0 -0.22024115987E+03 -0.17955404051E+03 -0.13245211764E+04  0.13546594328E+04  0.10100000352E+00 0. -1.
       -3    1    3    3    0  502  0.22024115987E+03  0.17955404051E+03 -0.61809899330E+03  0.68028831953E+03  0.10100000352E+00 0.  1.
</event>
<event>
 5   0  0.2388000E-02  0.5988521E+03  0.7818609E-02  0.9907790E-01
        3   -1    0    0  501    0  0.00000000000E+00  0.00000000000E+00  0.14239252205E+03  0.14239255787E+03  0.10100000352E+00 0. -1.
       -3   -1    0    0    0  501  0.00000000000E+00  0.00000000000E+00 -0.62963938531E+03  0.62963939341E+03  0.10100000352E+00 0.  1.
    10030    2    1    2    0    0  0.00000000000E+00  0.00000000000E+00 -0.48724686326E+03  0.77203195128E+03  0.59885209196E+03 0.  0.
        1    1    3    3  502    0 -0.28572392835E+03 -0.71402414160E+01 -0.12855453399E+03  0.31339338620E+03  0.50400001928E-02 0. -1.
       -1    1    3    3    0  502  0.28572392835E+03  0.71402414160E+01 -0.35869232926E+03  0.45863856508E+03  0.50400001928E-02 0.  1.
</event>
<event>
 5   0  0.5872632E-02  0.5978734E+03  0.7818609E-02  0.9909828E-01
        2   -1    0    0  501    0  0.00000000000E+00  0.00000000000E+00  0.90470968848E+03  0.90470968848E+03  0.25500000920E-02 0.  1.
       -2   -1    0    0    0  501  0.00000000000E+00  0.00000000000E+00 -0.98775483068E+02  0.98775483101E+02  0.25500000920E-02 0. -1.
    10030    2    1    2    0    0  0.00000000000E+00  0.00000000000E+00  0.80593420541E+03  0.10034851716E+04  0.59787335292E+03 0.  0.
        1    1    3    3  502    0 -0.47563347761E+02 -0.25921190651E+03  0.63979778100E+03  0.69194962615E+03  0.50400001928E-02 0.  1.
       -1    1    3    3    0  502  0.47563347761E+02  0.25921190651E+03  0.16613642441E+03  0.31153554544E+03  0.50400001928E-02 0. -1.
</event>
<event>
 5   0  0.5999117E-02  0.5990572E+03  0.7818609E-02  0.9907364E-01
       -2   -1    0    0    0  501  0.00000000000E+00  0.00000000000E+00  0.38462437014E+03  0.38462437015E+03  0.25500000920E-02 0.  1.
        2   -1    0    0  501    0  0.00000000000E+00  0.00000000000E+00 -0.23325976445E+03  0.23325976446E+03  0.25500000920E-02 0. -1.
    10030    2    1    2    0    0  0.00000000000E+00  0.00000000000E+00  0.15136460570E+03  0.61788413461E+03  0.59905722594E+03 0.  0.
        5    1    3    3  502    0  0.19258413923E+03 -0.18203133496E+03  0.21960707965E+03  0.34419967609E+03  0.46999998093E+01 0.  1.
       -5    1    3    3    0  502 -0.19258413923E+03  0.18203133496E+03 -0.68242473952E+02  0.27368445853E+03  0.46999998093E+01 0. -1.
</event>
<event>
 5   0  0.3651984E-02  0.6034741E+03  0.7818609E-02  0.9898224E-01
       -1   -1    0    0    0  501  0.00000000000E+00  0.00000000000E+00  0.11295855611E+03  0.11295855622E+03  0.50400001928E-02 0. -1.
        1   -1    0    0  501    0  0.00000000000E+00  0.00000000000E+00 -0.80600578291E+03  0.80600578293E+03  0.50400001928E-02 0.  1.
    10030    2    1    2    0    0  0.00000000000E+00  0.00000000000E+00 -0.69304722680E+03  0.91896433915E+03  0.60347410719E+03 0.  0.
        1    1    3    3  502    0  0.28056567885E+03  0.10983006417E+03 -0.32171071669E+03  0.44076924621E+03  0.50400001928E-02 0. -1.
       -1    1    3    3    0  502 -0.28056567885E+03 -0.10983006417E+03 -0.37133651011E+03  0.47819509294E+03  0.50400001928E-02 0.  1.
</event>
<event>
 5   0  0.3767635E-02  0.6001167E+03  0.7818609E-02  0.9905164E-01
       -1   -1    0    0    0  501  0.00000000000E+00  0.00000000000E+00  0.25761057288E+03  0.25761057293E+03  0.50400001928E-02 0. -1.
        1   -1    0    0  501    0  0.00000000000E+00  0.00000000000E+00 -0.34950044902E+03  0.34950044906E+03  0.50400001928E-02 0.  1.
    10030    2    1    2    0    0  0.00000000000E+00  0.00000000000E+00 -0.91889876145E+02  0.60711102199E+03  0.60011669172E+03 0.  0.
        2    1    3    3  502    0  0.86244654051E+02  0.23913390442E+03 -0.20721379999E+03  0.32796451563E+03  0.25500000920E-02 0.  1.
       -2    1    3    3    0  502 -0.86244654051E+02 -0.23913390442E+03  0.11532392385E+03  0.27914650636E+03  0.25500000920E-02 0. -1.
</event>
<event>
 5   0  0.3478183E-02  0.6060900E+03  0.7818609E-02  0.9892851E-01
        1   -1    0    0  501    0  0.00000000000E+00  0.00000000000E+00  0.19430812004E+03  0.19430812011E+03  0.50400001928E-02 0. -1.
       -1   -1    0    0    0  501  0.00000000000E+00  0.00000000000E+00 -0.47263211384E+03  0.47263211387E+03  0.50400001928E-02 0.  1.
    10030    2    1    2    0    0  0.00000000000E+00  0.00000000000E+00 -0.27832399380E+03  0.66694023398E+03  0.60608995221E+03 0.  0.
        4    1    3    3  502    0  0.15204637582E+03 -0.76164082290E+02  0.13685061354E+03  0.21828598479E+03  0.12699999809E+01 0. -1.
       -4    1    3    3    0  502 -0.15204637582E+03  0.76164082290E+02 -0.41517460734E+03  0.44865424919E+03  0.12699999809E+01 0.  1.
</event>
<event>
 5   0  0.5755078E-02  0.5901133E+03  0.7818609E-02  0.9926133E-01
        2   -1    0    0  501    0  0.00000000000E+00  0.00000000000E+00  0.40105779404E+03  0.40105779404E+03  0.25500000920E-02 0.  1.
       -2   -1    0    0    0  501  0.00000000000E+00  0.00000000000E+00 -0.21707201141E+03  0.21707201142E+03  0.25500000920E-02 0. -1.
    10030    2    1    2    0    0  0.00000000000E+00  0.00000000000E+00  0.18398578263E+03  0.61812980546E+03  0.59011328420E+03 0.  0.
        2    1    3    3  502    0 -0.70926284705E+02  0.18106399764E+03 -0.14045183075E+03  0.23987793953E+03  0.25500000920E-02 0. -1.
       -2    1    3    3    0  502  0.70926284705E+02 -0.18106399764E+03  0.32443761338E+03  0.37825186594E+03  0.25500000920E-02 0.  1.
</event>
<event>
 5   0  0.5755078E-02  0.5953152E+03  0.7818609E-02  0.9915173E-01
       -2   -1    0    0    0  501  0.00000000000E+00  0.00000000000E+00  0.14312579205E+03  0.14312579208E+03  0.25500000920E-02 0.  1.
        2   -1    0    0  501    0  0.00000000000E+00  0.00000000000E+00 -0.61903624326E+03  0.61903624327E+03  0.25500000920E-02 0. -1.
    10030    2    1    2    0    0  0.00000000000E+00  0.00000000000E+00 -0.47591045121E+03  0.76216203534E+03  0.59531521948E+03 0.  0.
        2    1    3    3  502    0  0.17021551966E+02  0.13126894239E+03  0.10337152126E+03  0.16794921816E+03  0.25500000920E-02 0.  1.
       -2    1    3    3    0  502 -0.17021551966E+02 -0.13126894239E+03 -0.57928197247E+03  0.59421281718E+03  0.25500000920E-02 0. -1.
</event>
<event>
 5   0  0.6007360E-02  0.5976451E+03  0.7818609E-02  0.9910304E-01
        2   -1    0    0  501    0  0.00000000000E+00  0.00000000000E+00  0.10890036465E+04  0.10890036465E+04  0.25500000920E-02 0.  1.
       -2   -1    0    0    0  501  0.00000000000E+00  0.00000000000E+00 -0.81996882050E+02  0.81996882090E+02  0.25500000920E-02 0. -1.
    10030    2    1    2    0    0  0.00000000000E+00  0.00000000000E+00  0.10070067645E+04  0.11710005286E+04  0.59764505714E+03 0.  0.
        4    1    3    3  502    0 -0.11485279484E+03  0.27389676260E+03  0.56797458146E+03  0.64094253965E+03  0.12699999809E+01 0. -1.
       -4    1    3    3    0  502  0.11485279484E+03 -0.27389676260E+03  0.43903218300E+03  0.53005798896E+03  0.12699999809E+01 0.  1.
</event>
<event>
 5   0  0.2388000E-02  0.6110989E+03  0.7818609E-02  0.9882643E-01
       -3   -1    0    0    0  501  0.00000000000E+00  0.00000000000E+00  0.21264517389E+03  0.21264519787E+03  0.10100000352E+00 0.  1.
        3   -1    0    0  501    0  0.00000000000E+00  0.00000000000E+00 -0.43904334599E+03  0.43904335760E+03  0.10100000352E+00 0. -1.
    10030    2    1    2    0    0  0.00000000000E+00  0.00000000000E+00 -0.22639817210E+03  0.65168855547E+03  0.61109887989E+03 0.  0.
        3    1    3    3  502    0 -0.84538700234E+02 -0.16563559383E+03 -0.37174512382E+03  0.41566379331E+03  0.10100000352E+00 0. -1.
       -3    1    3    3    0  502  0.84538700234E+02  0.16563559383E+03  0.14534695172E+03  0.23602476217E+03  0.10100000352E+00 0.  1.
</event>
<event>
 5   0  0.5999117E-02  0.6015865E+03  0.7818609E-02  0.9902120E-01
        2   -1    0    0  501    0  0.00000000000E+00  0.00000000000E+00  0.85725088086E+03  0.85725088086E+03  0.25500000920E-02 0. -1.
       -2   -1    0    0    0  501  0.00000000000E+00  0.00000000000E+00 -0.10554272504E+03  0.10554272507E+03  0.25500000920E-02 0.  1.
    10030    2    1    2    0    0  0.00000000000E+00  0.00000000000E+00  0.75170815582E+03  0.96279360593E+03  0.60158654912E+03 0.  0.
        5    1    3    3  502    0 -0.74128437044E+02  0.18186105974E+03  0.74040677629E+03  0.76602399088E+03  0.46999998093E+01 0. -1.
       -5    1    3    3    0  502  0.74128437044E+02 -0.18186105974E+03  0.11301379529E+02  0.19676961505E+03  0.46999998093E+01 0.  1.
</event>
<event>
 5   0  0.5755078E-02  0.6004779E+03  0.7818609E-02  0.9904415E-01
        2   -1    0    0  501    0  0.00000000000E+00  0.00000000000E+00  0.79503937107E+03  0.79503937108E+03  0.25500000920E-02 0. -1.
       -2   -1    0    0    0  501  0.00000000000E+00  0.00000000000E+00 -0.11338233128E+03  0.11338233131E+03  0.25500000920E-02 0.  1.
    10030    2    1    2    0    0  0.00000000000E+00  0.00000000000E+00  0.68165703979E+03  0.90842170239E+03  0.60047786760E+03 0.  0.
        2    1    3    3  502    0  0.88019718233E+01  0.19918345807E+03  0.68043098300E+03  0.70904008864E+03  0.25500000920E-02 0. -1.
       -2    1    3    3    0  502 -0.88019718233E+01 -0.19918345807E+03  0.12260567913E+01  0.19938161375E+03  0.25500000920E-02 0.  1.
</event>
<event>
 5   0  0.5872632E-02  0.5979909E+03  0.7818609E-02  0.9909583E-01
       -2   -1    0    0    0  501  0.00000000000E+00  0.00000000000E+00  0.28353385124E+03  0.28353385125E+03  0.25500000920E-02 0. -1.
        2   -1    0    0  501    0  0.00000000000E+00  0.00000000000E+00 -0.31530023277E+03  0.31530023278E+03  0.25500000920E-02 0.  1.
    10030    2    1    2    0    0  0.00000000000E+00  0.00000000000E+00 -0.31766381528E+02  0.59883408403E+03  0.59799093405E+03 0.  0.
        1    1    3    3  502    0  0.10337066310E+03 -0.24873804129E+03  0.11407722463E+03  0.29252302538E+03  0.50400001928E-02 0. -1.
       -1    1    3    3    0  502 -0.10337066310E+03  0.24873804129E+03 -0.14584360615E+03  0.30631105866E+03  0.50400001928E-02 0.  1.
</event>
<event>
 5   0  0.6007360E-02  0.5947156E+03  0.7818609E-02  0.9916431E-01
       -2   -1    0    0    0  501  0.00000000000E+00  0.00000000000E+00  0.78417628147E+02  0.78417628189E+02  0.25500000920E-02 0. -1.
        2   -1    0    0  501    0  0.00000000000E+00  0.00000000000E+00 -0.11275738587E+04  0.11275738587E+04  0.25500000920E-02 0.  1.
    10030    2    1    2    0    0  0.00000000000E+00  0.00000000000E+00 -0.10491562306E+04  0.12059914869E+04  0.59471562142E+03 0.  0.
        4    1    3    3  502    0  0.89290403912E+02 -0.24913852897E+03 -0.79947854307E+03  0.84214626792E+03  0.12699999809E+01 0.  1.
       -4    1    3    3    0  502 -0.89290403912E+02  0.24913852897E+03 -0.24967768752E+03  0.36384521901E+03  0.12699999809E+01 0. -1.
</event>
<event>
 5   0  0.6007360E-02  0.5906209E+03  0.7818609E-02  0.9925058E-01
       -2   -1    0    0    0  501  0.00000000000E+00  0.00000000000E+00  0.31603561986E+03  0.31603561987E+03  0.25500000920E-02 0.  1.
        2   -1    0    0  501    0  0.00000000000E+00  0.00000000000E+00 -0.27594437858E+03  0.27594437859E+03  0.25500000920E-02 0. -1.
    10030    2    1    2    0    0  0.00000000000E+00  0.00000000000E+00  0.40091241285E+02  0.59197999846E+03  0.59062086904E+03 0.  0.
        4    1    3    3  502    0 -0.19016570653E+03 -0.62989744276E+02 -0.19742356435E+03  0.28126212060E+03  0.12699999809E+01 0. -1.
       -4    1    3    3    0  502  0.19016570653E+03  0.62989744276E+02  0.23751480563E+03  0.31071787786E+03  0.12699999809E+01 0.  1.
</event>
<event>
 5   0  0.5999117E-02  0.6010658E+03  0.7818609E-02  0.9903197E-01
        2   -1    0    0  501    0  0.00000000000E+00  0.00000000000E+00  0.34607709349E+03  0.34607709350E+03  0.25500000920E-02 0.  1.
       -2   -1    0    0    0  501  0.00000000000E+00  0.00000000000E+00 -0.26098236689E+03  0.26098236690E+03  0.25500000920E-02 0. -1.
    10030    2    1    2    0    0  0.00000000000E+00  0.00000000000E+00  0.85094726602E+02  0.60705946040E+03  0.60106578340E+03 0.  0.
        5    1    3    3  502    0  0.20954007132E+03 -0.18275200569E+03  0.15766904491E+03  0.31966694354E+03  0.46999998093E+01 0.  1.
       -5    1    3    3    0  502 -0.20954007132E+03  0.18275200569E+03 -0.72574318309E+02  0.28739251686E+03  0.46999998093E+01 0. -1.
</event>
<event>
 5   0  0.3767635E-02  0.6021497E+03  0.7818609E-02  0.9900956E-01
       -1   -1    0    0    0  501  0.00000000000E+00  0.00000000000E+00  0.75314435905E+02  0.75314436074E+02  0.50400001928E-02 0. -1.
        1   -1    0    0  501    0  0.00000000000E+00  0.00000000000E+00 -0.12035681717E+04  0.12035681717E+04  0.50400001928E-02 0.  1.
    10030    2    1    2    0    0  0.00000000000E+00  0.00000000000E+00 -0.11282537358E+04  0.12788826078E+04  0.60214967588E+03 0.  0.
        2    1    3    3  502    0 -0.29332510724E+03  0.60780538876E+02 -0.62827190599E+03  0.69603123515E+03  0.25500000920E-02 0. -1.
       -2    1    3    3    0  502  0.29332510724E+03 -0.60780538876E+02 -0.49998182984E+03  0.58285137266E+03  0.25500000920E-02 0.  1.
</event>
<event>
 5   0  0.5999117E-02  0.6257115E+03  0.7818609E-02  0.9853453E-01
       -2   -1    0    0    0  501  0.00000000000E+00  0.00000000000E+00  0.25451359679E+03  0.25451359681E+03  0.25500000920E-02 0. -1.
        2   -1    0    0  501    0  0.00000000000E+00  0.00000000000E+00 -0.38457168555E+03  0.38457168556E+03  0.25500000920E-02 0.  1.
    10030    2    1    2    0    0  0.00000000000E+00  0.00000000000E+00 -0.13005808876E+03  0.63908528237E+03  0.62571150835E+03 0.  0.
        5    1    3    3  502    0  0.17812852033E+03  0.12382766186E+03  0.16516233570E+03  0.27269717037E+03  0.46999998093E+01 0. -1.
       -5    1    3    3    0  502 -0.17812852033E+03 -0.12382766186E+03 -0.29522042446E+03  0.36638811200E+03  0.46999998093E+01 0.  1.
</event>
<event>
 5   0  0.5935451E-02  0.5968727E+03  0.7818609E-02  0.9911916E-01
       -2   -1    0    0    0  501  0.00000000000E+00  0.00000000000E+00  0.50880050371E+03  0.50880050371E+03  0.25500000920E-02 0.  1.
        2   -1    0    0  501    0  0.00000000000E+00  0.00000000000E+00 -0.17504748001E+03  0.17504748003E+03  0.25500000920E-02 0. -1.
    10030    2    1    2    0    0  0.00000000000E+00  0.00000000000E+00  0.33375302369E+03  0.68384798374E+03  0.59687266988E+03 0.  0.
        3    1    3    3  502    0  0.44546212908E+02  0.25791741033E+03  0.33115223210E+03  0.42209900102E+03  0.10100000352E+00 0.  1.
       -3    1    3    3    0  502 -0.44546212908E+02 -0.25791741033E+03  0.26007915909E+01  0.26174898272E+03  0.10100000352E+00 0. -1.
</event>
<event>
 5   0  0.2388000E-02  0.6013893E+03  0.7818609E-02  0.9902528E-01
       -4   -1    0    0    0  501  0.00000000000E+00  0.00000000000E+00  0.26495567440E+03  0.26495871810E+03  0.12699999809E+01 0. -1.
        4   -1    0    0  501    0  0.00000000000E+00  0.00000000000E+00 -0.34124811914E+03  0.34125048237E+03  0.12699999809E+01 0.  1.
    10030    2    1    2    0    0  0.00000000000E+00  0.00000000000E+00 -0.76292444743E+02  0.60620920047E+03  0.60138927294E+03 0.  0.
        2    1    3    3  502    0 -0.86880209432E+01  0.14279234733E+03  0.22845817731E+03  0.26955198933E+03  0.25500000920E-02 0. -1.
       -2    1    3    3    0  502  0.86880209432E+01 -0.14279234733E+03 -0.30475062206E+03  0.33665721114E+03  0.25500000920E-02 0.  1.
</event>
<event>
 5   0  0.3478183E-02  0.6067310E+03  0.7818609E-02  0.9891539E-01
        1   -1    0    0  501    0  0.00000000000E+00  0.00000000000E+00  0.40822324508E+03  0.40822324511E+03  0.50400001928E-02 0.  1.
       -1   -1    0    0    0  501  0.00000000000E+00  0.00000000000E+00 -0.22544192191E+03  0.22544192197E+03  0.50400001928E-02 0. -1.
    10030    2    1    2    0    0  0.00000000000E+00  0.00000000000E+00  0.18278132317E+03  0.63366516708E+03  0.60673102103E+03 0.  0.
        4    1    3    3  502    0  0.99760985402E+02  0.59080521895E+02  0.38416764951E+03  0.40128438558E+03  0.12699999809E+01 0.  1.
       -4    1    3    3    0  502 -0.99760985402E+02 -0.59080521895E+02 -0.20138632634E+03  0.23238078151E+03  0.12699999809E+01 0. -1.
</event>
<event>
 5   0  0.3703280E-02  0.6084881E+03  0.7818609E-02  0.9887951E-01
       -1   -1    0    0    0  501  0.00000000000E+00  0.00000000000E+00  0.96741184483E+02  0.96741184615E+02  0.50400001928E-02 0.  1.
        1   -1    0    0  501    0  0.00000000000E+00  0.00000000000E+00 -0.95682561843E+03  0.95682561844E+03  0.50400001928E-02 0. -1.
    10030    2    1    2    0    0  0.00000000000E+00  0.00000000000E+00 -0.86008443395E+03  0.10535668031E+04  0.60848810587E+03 0.  0.
        5    1    3    3  502    0 -0.24118863454E+03  0.18533870372E+03 -0.42230644757E+03  0.52046826818E+03  0.46999998093E+01 0.  1.
       -5    1    3    3    0  502  0.24118863454E+03 -0.18533870372E+03 -0.43777798638E+03  0.53309853487E+03  0.46999998093E+01 0. -1.
</event>
<event>
 5   0  0.3703280E-02  0.6018036E+03  0.7818609E-02  0.9901671E-01
       -1   -1    0    0    0  501  0.00000000000E+00  0.00000000000E+00  0.11386239766E+03  0.11386239777E+03  0.50400001928E-02 0.  1.
        1   -1    0    0  501    0  0.00000000000E+00  0.00000000000E+00 -0.79518708196E+03  0.79518708198E+03  0.50400001928E-02 0. -1.
    10030    2    1    2    0    0  0.00000000000E+00  0.00000000000E+00 -0.68132468430E+03  0.90904947975E+03  0.60180364837E+03 0.  0.
        5    1    3    3  502    0  0.86625994842E+02 -0.27668904429E+03 -0.21926395579E+03  0.36353770440E+03  0.46999998093E+01 0.  1.
       -5    1    3    3    0  502 -0.86625994842E+02  0.27668904429E+03 -0.46206072852E+03  0.54551177535E+03  0.46999998093E+01 0. -1.
</event>
<event>
 5   0  0.2388000E-02  0.5969259E+03  0.7818609E-02  0.9911804E-01
       -3   -1    0    0    0  501  0.00000000000E+00  0.00000000000E+00  0.12743050811E+03  0.12743054814E+03  0.10100000352E+00 0. -1.
        3   -1    0    0  501    0  0.00000000000E+00  0.00000000000E+00 -0.69904849603E+03  0.69904850333E+03  0.10100000352E+00 0.  1.
    10030    2    1    2    0    0  0.00000000000E+00  0.00000000000E+00 -0.57161798792E+03  0.82647905146E+03  0.59692587345E+03 0.  0.
        4    1    3    3  502    0  0.28563282999E+03 -0.34494936057E+02 -0.39572673340E+03  0.48926196930E+03  0.12699999809E+01 0.  1.
       -4    1    3    3    0  502 -0.28563282999E+03  0.34494936057E+02 -0.17589125453E+03  0.33721708216E+03  0.12699999809E+01 0. -1.
</event>
<event>
 5   0  0.5872632E-02  0.5983648E+03  0.7818609E-02  0.9908804E-01
       -2   -1    0    0    0  501  0.00000000000E+00  0.00000000000E+00  0.78437533681E+02  0.78437533722E+02  0.25500000920E-02 0. -1.
        2   -1    0    0  501    0  0.00000000000E+00  0.00000000000E+00 -0.11411640525E+04  0.11411640525E+04  0.25500000920E-02 0.  1.
    10030    2    1    2    0    0  0.00000000000E+00  0.00000000000E+00 -0.10627265188E+04  0.12196015863E+04  0.59836475108E+03 0.  0.
        1    1    3    3  502    0  0.38140210851E+02  0.17757021773E+03 -0.46778971216E+02  0.18754767416E+03  0.50400001928E-02 0. -1.
       -1    1    3    3    0  502 -0.38140210851E+02 -0.17757021773E+03 -0.10159475476E+04  0.10320539121E+04  0.50400001928E-02 0.  1.
</event>
<event>
 5   0  0.5872632E-02  0.5984672E+03  0.7818609E-02  0.9908591E-01
       -2   -1    0    0    0  501  0.00000000000E+00  0.00000000000E+00  0.14556777422E+03  0.14556777424E+03  0.25500000920E-02 0.  1.
        2   -1    0    0  501    0  0.00000000000E+00  0.00000000000E+00 -0.61511384898E+03  0.61511384898E+03  0.25500000920E-02 0. -1.
    10030    2    1    2    0    0  0.00000000000E+00  0.00000000000E+00 -0.46954607476E+03  0.76068162322E+03  0.59846722181E+03 0.  0.
        1    1    3    3  502    0 -0.13540813626E+03 -0.12056346688E+03 -0.53735187662E+03  0.56711370310E+03  0.50400001928E-02 0. -1.
       -1    1    3    3    0  502  0.13540813626E+03  0.12056346688E+03  0.67805801860E+02  0.19356792012E+03  0.50400001928E-02 0.  1.
</event>
<event>
 5   0  0.3478183E-02  0.5973401E+03  0.7818609E-02  0.9910940E-01
        1   -1    0    0  501    0  0.00000000000E+00  0.00000000000E+00  0.56237788362E+03  0.56237788364E+03  0.50400001928E-02 0.  1.
       -1   -1    0    0    0  501  0.00000000000E+00  0.00000000000E+00 -0.15861897618E+03  0.15861897626E+03  0.50400001928E-02 0. -1.
    10030    2    1    2    0    0  0.00000000000E+00  0.00000000000E+00  0.40375890743E+03  0.72099685990E+03  0.59734011807E+03 0.  0.
        4    1    3    3  502    0 -0.21936240592E+03  0.42529956421E+02  0.44107971692E+03  0.49445079826E+03  0.12699999809E+01 0.  1.
       -4    1    3    3    0  502  0.21936240592E+03 -0.42529956421E+02 -0.37320809488E+02  0.22654606164E+03  0.12699999809E+01 0. -1.
</event>
<event>
 5   0  0.5755078E-02  0.5916412E+03  0.7818609E-02  0.9922901E-01
        2   -1    0    0  501    0  0.00000000000E+00  0.00000000000E+00  0.17191656010E+03  0.17191656012E+03  0.25500000920E-02 0.  1.
       -2   -1    0    0    0  501  0.00000000000E+00  0.00000000000E+00 -0.50902505014E+03  0.50902505014E+03  0.25500000920E-02 0. -1.
    10030    2    1    2    0    0  0.00000000000E+00  0.00000000000E+00 -0.33710849004E+03  0.68094161026E+03  0.59164122788E+03 0.  0.
        2    1    3    3  502    0 -0.40551473473E+02 -0.26329467327E+03 -0.31657977986E+03  0.41375266041E+03  0.25500000920E-02 0. -1.
       -2    1    3    3    0  502  0.40551473473E+02  0.26329467327E+03 -0.20528710179E+02  0.26718894985E+03  0.25500000920E-02 0.  1.
</event>
<event>
 5   0  0.3703280E-02  0.5426082E+03  0.7818609E-02  0.1003219E+00
       -1   -1    0    0    0  501  0.00000000000E+00  0.00000000000E+00  0.87243890969E+02  0.87243891114E+02  0.50400001928E-02 0.  1.
        1   -1    0    0  501    0  0.00000000000E+00  0.00000000000E+00 -0.84367985012E+03  0.84367985013E+03  0.50400001928E-02 0. -1.
    10030    2    1    2    0    0  0.00000000000E+00  0.00000000000E+00 -0.75643595915E+03  0.93092374125E+03  0.54260819357E+03 0.  0.
        5    1    3    3  502    0 -0.21322519191E+03 -0.13746991825E+03 -0.54296346449E+03  0.59932826953E+03  0.46999998093E+01 0.  1.
       -5    1    3    3    0  502  0.21322519191E+03  0.13746991825E+03 -0.21347249466E+03  0.33159547172E+03  0.46999998093E+01 0. -1.
</event>
<event>
 5   0  0.5999117E-02  0.6019122E+03  0.7818609E-02  0.9901447E-01
        2   -1    0    0  501    0  0.00000000000E+00  0.00000000000E+00  0.21883907415E+04  0.21883907415E+04  0.25500000920E-02 0.  1.
       -2   -1    0    0    0  501  0.00000000000E+00  0.00000000000E+00 -0.41388663429E+02  0.41388663507E+02  0.25500000920E-02 0. -1.
    10030    2    1    2    0    0  0.00000000000E+00  0.00000000000E+00  0.21470020781E+04  0.22297794050E+04  0.60191217944E+03 0.  0.
        5    1    3    3  502    0  0.15083184612E+03  0.21216304656E+03  0.51426892077E+03  0.57641826567E+03  0.46999998093E+01 0. -1.
       -5    1    3    3    0  502 -0.15083184612E+03 -0.21216304656E+03  0.16327331573E+04  0.16533611394E+04  0.46999998093E+01 0.  1.
</event>
<event>
 5   0  0.5999117E-02  0.6000342E+03  0.7818609E-02  0.9905335E-01
        2   -1    0    0  501    0  0.00000000000E+00  0.00000000000E+00  0.34953778610E+03  0.34953778611E+03  0.25500000920E-02 0.  1.
       -2   -1    0    0    0  501  0.00000000000E+00  0.00000000000E+00 -0.25751223362E+03  0.25751223363E+03  0.25500000920E-02 0. -1.
    10030    2    1    2    0    0  0.00000000000E+00  0.00000000000E+00  0.92025552477E+02  0.60705001974E+03  0.60003418582E+03 0.  0.
        5    1    3    3  502    0 -0.12291929415E+03 -0.12236325357E+03 -0.20160655196E+03  0.26598723746E+03  0.46999998093E+01 0. -1.
       -5    1    3    3    0  502  0.12291929415E+03  0.12236325357E+03  0.29363210444E+03  0.34106278228E+03  0.46999998093E+01 0.  1.
</event>
<event>
 5   0  0.3651984E-02  0.5960738E+03  0.7818609E-02  0.9913585E-01
       -1   -1    0    0    0  501  0.00000000000E+00  0.00000000000E+00  0.79956326308E+02  0.79956326467E+02  0.50400001928E-02 0. -1.
        1   -1    0    0  501    0  0.00000000000E+00  0.00000000000E+00 -0.11109313606E+04  0.11109313606E+04  0.50400001928E-02 0.  1.
    10030    2    1    2    0    0  0.00000000000E+00  0.00000000000E+00 -0.10309750343E+04  0.11908876871E+04  0.59607378897E+03 0.  0.
        1    1    3    3  502    0  0.44891334907E+02 -0.16924249015E+03 -0.33637512261E+02  0.17829676015E+03  0.50400001928E-02 0. -1.
       -1    1    3    3    0  502 -0.44891334907E+02  0.16924249015E+03 -0.99733752202E+03  0.10125909269E+04  0.50400001928E-02 0.  1.
</event>
<event>
 5   0  0.3478183E-02  0.6057763E+03  0.7818609E-02  0.9893494E-01
       -1   -1    0    0    0  501  0.00000000000E+00  0.00000000000E+00  0.15911884520E+03  0.15911884528E+03  0.50400001928E-02 0. -1.
        1   -1    0    0  501    0  0.00000000000E+00  0.00000000000E+00 -0.57655795525E+03  0.57655795527E+03  0.50400001928E-02 0.  1.
    10030    2    1    2    0    0  0.00000000000E+00  0.00000000000E+00 -0.41743911005E+03  0.73567680055E+03  0.60577631538E+03 0.  0.
        4    1    3    3  502    0 -0.65875594172E+02 -0.21336890475E+03  0.39791461777E+02  0.22682781300E+03  0.12699999809E+01 0. -1.
       -4    1    3    3    0  502  0.65875594172E+02  0.21336890475E+03 -0.45723057182E+03  0.50884898755E+03  0.12699999809E+01 0.  1.
</event>
<event>
 5   0  0.5935451E-02  0.5981634E+03  0.7818609E-02  0.9909224E-01
       -2   -1    0    0    0  501  0.00000000000E+00  0.00000000000E+00  0.19967988710E+03  0.19967988711E+03  0.25500000920E-02 0. -1.
        2   -1    0    0  501    0  0.00000000000E+00  0.00000000000E+00 -0.44796635973E+03  0.44796635974E+03  0.25500000920E-02 0.  1.
    10030    2    1    2    0    0  0.00000000000E+00  0.00000000000E+00 -0.24828647263E+03  0.64764624685E+03  0.59816342965E+03 0.  0.
        3    1    3    3  502    0  0.49255036726E+02 -0.20793303199E+03 -0.35070877427E+03  0.41068096984E+03  0.10100000352E+00 0.  1.
       -3    1    3    3    0  502 -0.49255036726E+02  0.20793303199E+03  0.10242230164E+03  0.23696527701E+03  0.10100000352E+00 0. -1.
</event>
<event>
 5   0  0.5872632E-02  0.5558409E+03  0.7818609E-02  0.1000151E+00
       -2   -1    0    0    0  501  0.00000000000E+00  0.00000000000E+00  0.20605746292E+03  0.20605746293E+03  0.25500000920E-02 0.  1.
        2   -1    0    0  501    0  0.00000000000E+00  0.00000000000E+00 -0.37484581809E+03  0.37484581810E+03  0.25500000920E-02 0. -1.
    10030    2    1    2    0    0  0.00000000000E+00  0.00000000000E+00 -0.16878835517E+03  0.58090328103E+03  0.55584090626E+03 0.  0.
        1    1    3    3  502    0  0.18467142324E+03 -0.17647839776E+03 -0.19883796759E+03  0.32370464443E+03  0.50400001928E-02 0.  1.
       -1    1    3    3    0  502 -0.18467142324E+03  0.17647839776E+03  0.30049612420E+02  0.25719863661E+03  0.50400001928E-02 0. -1.
</event>
<event>
 5   0  0.5999117E-02  0.6055250E+03  0.7818609E-02  0.9894009E-01
       -2   -1    0    0    0  501  0.00000000000E+00  0.00000000000E+00  0.63048569792E+02  0.63048569843E+02  0.25500000920E-02 0.  1.
        2   -1    0    0  501    0  0.00000000000E+00  0.00000000000E+00 -0.14538813970E+04  0.14538813970E+04  0.25500000920E-02 0. -1.
    10030    2    1    2    0    0  0.00000000000E+00  0.00000000000E+00 -0.13908328272E+04  0.15169299669E+04  0.60552503754E+03 0.  0.
        5    1    3    3  502    0  0.27280275680E+03  0.10093271471E+03 -0.48530785778E+03  0.56582202488E+03  0.46999998093E+01 0.  1.
       -5    1    3    3    0  502 -0.27280275680E+03 -0.10093271471E+03 -0.90552496946E+03  0.95110794200E+03  0.46999998093E+01 0. -1.
</event>
<event>
 5   0  0.2388000E-02  0.6034123E+03  0.7818609E-02  0.9898352E-01
       -4   -1    0    0    0  501  0.00000000000E+00  0.00000000000E+00  0.12844582973E+04  0.12844589252E+04  0.12699999809E+01 0. -1.
        4   -1    0    0  501    0  0.00000000000E+00  0.00000000000E+00 -0.70861351379E+02  0.70872731140E+02  0.12699999809E+01 0.  1.
    10030    2    1    2    0    0  0.00000000000E+00  0.00000000000E+00  0.12135969460E+04  0.13553316563E+04  0.60341225660E+03 0.  0.
        2    1    3    3  502    0 -0.97598630259E+02 -0.19896580347E+03  0.10666413644E+04  0.10894203430E+04  0.25500000920E-02 0. -1.
       -2    1    3    3    0  502  0.97598630259E+02  0.19896580347E+03  0.14695558157E+03  0.26591131330E+03  0.25500000920E-02 0.  1.
</event>
<event>
 5   0  0.5935451E-02  0.6129237E+03  0.7818609E-02  0.9878950E-01
        2   -1    0    0  501    0  0.00000000000E+00  0.00000000000E+00  0.17147362162E+03  0.17147362164E+03  0.25500000920E-02 0. -1.
       -2   -1    0    0    0  501  0.00000000000E+00  0.00000000000E+00 -0.54771616452E+03  0.54771616453E+03  0.25500000920E-02 0.  1.
    10030    2    1    2    0    0  0.00000000000E+00  0.00000000000E+00 -0.37624254291E+03  0.71918978617E+03  0.61292372889E+03 0.  0.
        3    1    3    3  502    0 -0.15798909087E+01  0.21805533406E+03 -0.44078760533E+03  0.49177672574E+03  0.10100000352E+00 0.  1.
       -3    1    3    3    0  502  0.15798909087E+01 -0.21805533406E+03  0.64545062421E+02  0.22741306042E+03  0.10100000352E+00 0. -1.
</event>
<event>
 5   0  0.6007360E-02  0.5934338E+03  0.7818609E-02  0.9919123E-01
       -2   -1    0    0    0  501  0.00000000000E+00  0.00000000000E+00  0.10412660919E+03  0.10412660922E+03  0.25500000920E-02 0.  1.
        2   -1    0    0  501    0  0.00000000000E+00  0.00000000000E+00 -0.84551806371E+03  0.84551806371E+03  0.25500000920E-02 0. -1.
    10030    2    1    2    0    0  0.00000000000E+00  0.00000000000E+00 -0.74139145452E+03  0.94964467293E+03  0.59343383455E+03 0.  0.
        4    1    3    3  502    0 -0.27445355497E+02  0.25920405947E+03 -0.59756702706E+03  0.65194168199E+03  0.12699999809E+01 0. -1.
       -4    1    3    3    0  502  0.27445355497E+02 -0.25920405947E+03 -0.14382442746E+03  0.29770299094E+03  0.12699999809E+01 0.  1.
</event>
<event>
 5   0  0.3703280E-02  0.5990556E+03  0.7818609E-02  0.9907367E-01
        1   -1    0    0  501    0  0.00000000000E+00  0.00000000000E+00  0.79098215222E+03  0.79098215223E+03  0.50400001928E-02 0.  1.
       -1   -1    0    0    0  501  0.00000000000E+00  0.00000000000E+00 -0.11342467474E+03  0.11342467485E+03  0.50400001928E-02 0. -1.
    10030    2    1    2    0    0  0.00000000000E+00  0.00000000000E+00  0.67755747748E+03  0.90440682708E+03  0.59905556803E+03 0.  0.
        5    1    3    3  502    0 -0.48717000657E+02  0.28676430187E+03  0.23109325911E+03  0.37152832380E+03  0.46999998093E+01 0. -1.
       -5    1    3    3    0  502  0.48717000657E+02 -0.28676430187E+03  0.44646421837E+03  0.53287850329E+03  0.46999998093E+01 0.  1.
</event>
<event>
 5   0  0.5935451E-02  0.6024397E+03  0.7818609E-02  0.9900357E-01
        2   -1    0    0  501    0  0.00000000000E+00  0.00000000000E+00  0.67696267021E+03  0.67696267022E+03  0.25500000920E-02 0.  1.
       -2   -1    0    0    0  501  0.00000000000E+00  0.00000000000E+00 -0.13403012197E+03  0.13403012199E+03  0.25500000920E-02 0. -1.
    10030    2    1    2    0    0  0.00000000000E+00  0.00000000000E+00  0.54293254824E+03  0.81099279221E+03  0.60243967090E+03 0.  0.
        3    1    3    3  502    0 -0.12261762453E+02 -0.24370352289E+03  0.33715244917E+02  0.24633003436E+03  0.10100000352E+00 0. -1.
       -3    1    3    3    0  502  0.12261762453E+02  0.24370352289E+03  0.50921730332E+03  0.56466275784E+03  0.10100000352E+00 0.  1.
</event>
<event>
 5   0  0.6007360E-02  0.5983763E+03  0.7818609E-02  0.9908780E-01
        2   -1    0    0  501    0  0.00000000000E+00  0.00000000000E+00  0.37016656152E+03  0.37016656153E+03  0.25500000920E-02 0. -1.
       -2   -1    0    0    0  501  0.00000000000E+00  0.00000000000E+00 -0.24181967658E+03  0.24181967660E+03  0.25500000920E-02 0.  1.
    10030    2    1    2    0    0  0.00000000000E+00  0.00000000000E+00  0.12834688494E+03  0.61198623813E+03  0.59837633040E+03 0.  0.
        4    1    3    3  502    0 -0.11032098351E+03  0.88182479979E+02  0.33392433010E+03  0.36256577378E+03  0.12699999809E+01 0. -1.
       -4    1    3    3    0  502  0.11032098351E+03 -0.88182479979E+02 -0.20557744516E+03  0.24942046435E+03  0.12699999809E+01 0.  1.
</event>
<event>
 5   0  0.5872632E-02  0.5795833E+03  0.7818609E-02  0.9948694E-01
        2   -1    0    0  501    0  0.00000000000E+00  0.00000000000E+00  0.70017065444E+02  0.70017065491E+02  0.25500000920E-02 0. -1.
       -2   -1    0    0    0  501  0.00000000000E+00  0.00000000000E+00 -0.11994103443E+04  0.11994103443E+04  0.25500000920E-02 0.  1.
    10030    2    1    2    0    0  0.00000000000E+00  0.00000000000E+00 -0.11293932788E+04  0.12694274098E+04  0.57958327306E+03 0.  0.
        1    1    3    3  502    0  0.25438501997E+03  0.86335461781E+01 -0.26126384936E+03  0.36475344483E+03  0.50400001928E-02 0. -1.
       -1    1    3    3    0  502 -0.25438501997E+03 -0.86335461781E+01 -0.86812942948E+03  0.90467396495E+03  0.50400001928E-02 0.  1.
</event>
<event>
 5   0  0.3478183E-02  0.6040072E+03  0.7818609E-02  0.9897127E-01
        1   -1    0    0  501    0  0.00000000000E+00  0.00000000000E+00  0.68012563449E+03  0.68012563451E+03  0.50400001928E-02 0.  1.
       -1   -1    0    0    0  501  0.00000000000E+00  0.00000000000E+00 -0.13410196642E+03  0.13410196652E+03  0.50400001928E-02 0. -1.
    10030    2    1    2    0    0  0.00000000000E+00  0.00000000000E+00  0.54602366807E+03  0.81422760102E+03  0.60400723520E+03 0.  0.
        4    1    3    3  502    0 -0.77830731943E+02  0.20605516253E+03  0.55153267562E+03  0.59389077954E+03  0.12699999809E+01 0.  1.
       -4    1    3    3    0  502  0.77830731943E+02 -0.20605516253E+03 -0.55090075567E+01  0.22033682149E+03  0.12699999809E+01 0. -1.
</event>
<event>
 5   0  0.5935451E-02  0.6013480E+03  0.7818609E-02  0.9902613E-01
        2   -1    0    0  501    0  0.00000000000E+00  0.00000000000E+00  0.48250911982E+03  0.48250911983E+03  0.25500000920E-02 0. -1.
       -2   -1    0    0    0  501  0.00000000000E+00  0.00000000000E+00 -0.18736400150E+03  0.18736400152E+03  0.25500000920E-02 0.  1.
    10030    2    1    2    0    0  0.00000000000E+00  0.00000000000E+00  0.29514511832E+03  0.66987312135E+03  0.60134795072E+03 0.  0.
        3    1    3    3  502    0  0.21518680593E+03 -0.17656706140E+02  0.38067285574E+03  0.43764021070E+03  0.10100000352E+00 0. -1.
       -3    1    3    3    0  502 -0.21518680593E+03  0.17656706140E+02 -0.85527737422E+02  0.23223291065E+03  0.10100000352E+00 0.  1.
</event>
<event>
 5   0  0.5999117E-02  0.6049995E+03  0.7818609E-02  0.9895088E-01
        2   -1    0    0  501    0  0.00000000000E+00  0.00000000000E+00  0.29963555208E+03  0.29963555209E+03  0.25500000920E-02 0. -1.
       -2   -1    0    0    0  501  0.00000000000E+00  0.00000000000E+00 -0.30539128378E+03  0.30539128379E+03  0.25500000920E-02 0.  1.
    10030    2    1    2    0    0  0.00000000000E+00  0.00000000000E+00 -0.57557316955E+01  0.60502683588E+03  0.60499945759E+03 0.  0.
        5    1    3    3  502    0  0.19992099468E+03  0.21572462130E+03  0.67683668796E+02  0.30184215307E+03  0.46999998093E+01 0.  1.
       -5    1    3    3    0  502 -0.19992099468E+03 -0.21572462130E+03 -0.73439400491E+02  0.30318468281E+03  0.46999998093E+01 0. -1.
</event>
<event>
 5   0  0.3651984E-02  0.5936568E+03  0.7818609E-02  0.9918654E-01
        1   -1    0    0  501    0  0.00000000000E+00  0.00000000000E+00  0.25547346068E+03  0.25547346073E+03  0.50400001928E-02 0. -1.
       -1   -1    0    0    0  501  0.00000000000E+00  0.00000000000E+00 -0.34487771558E+03  0.34487771562E+03  0.50400001928E-02 0.  1.
    10030    2    1    2    0    0  0.00000000000E+00  0.00000000000E+00 -0.89404254899E+02  0.60035117635E+03  0.59365681513E+03 0.  0.
        1    1    3    3  502    0 -0.62842981361E+02  0.65386984917E+02  0.24111975488E+03  0.25761101359E+03  0.50400001928E-02 0. -1.
       -1    1    3    3    0  502  0.62842981361E+02 -0.65386984917E+02 -0.33052400978E+03  0.34274016276E+03  0.50400001928E-02 0.  1.
</event>
<event>
 5   0  0.2388000E-02  0.5983682E+03  0.7818609E-02  0.9908797E-01
        3   -1    0    0  501    0  0.00000000000E+00  0.00000000000E+00  0.25576312689E+03  0.25576314684E+03  0.10100000352E+00 0.  1.
       -3   -1    0    0    0  501  0.00000000000E+00  0.00000000000E+00 -0.34997658196E+03  0.34997659654E+03  0.10100000352E+00 0. -1.
    10030    2    1    2    0    0  0.00000000000E+00  0.00000000000E+00 -0.94213455069E+02  0.60573974337E+03  0.59836816558E+03 0.  0.
        2    1    3    3  502    0  0.18173291915E+01  0.51071910964E+02  0.25131205861E+03  0.25645544171E+03  0.25500000920E-02 0.  1.
       -2    1    3    3    0  502 -0.18173291915E+01 -0.51071910964E+02 -0.34552551368E+03  0.34928430166E+03  0.25500000920E-02 0. -1.
</event>
<event>
 5   0  0.3478183E-02  0.5688814E+03  0.7818609E-02  0.9972157E-01
       -1   -1    0    0    0  501  0.00000000000E+00  0.00000000000E+00  0.10181610572E+03  0.10181610585E+03  0.50400001928E-02 0. -1.
        1   -1    0    0  501    0  0.00000000000E+00  0.00000000000E+00 -0.79463385595E+03  0.79463385597E+03  0.50400001928E-02 0.  1.
    10030    2    1    2    0    0  0.00000000000E+00  0.00000000000E+00 -0.69281775023E+03  0.89644996182E+03  0.56888144547E+03 0.  0.
        4    1    3    3  502    0  0.97352399329E+02 -0.63287351181E+02 -0.75558051918E+03  0.76445164160E+03  0.12699999809E+01 0.  1.
       -4    1    3    3    0  502 -0.97352399329E+02  0.63287351181E+02  0.62762768949E+02  0.13199832022E+03  0.12699999809E+01 0. -1.
</event>
<event>
 5   0  0.6007360E-02  0.5810789E+03  0.7818609E-02  0.9945458E-01
        2   -1    0    0  501    0  0.00000000000E+00  0.00000000000E+00  0.27698350531E+03  0.27698350532E+03  0.25500000920E-02 0. -1.
       -2   -1    0    0    0  501  0.00000000000E+00  0.00000000000E+00 -0.30475879040E+03  0.30475879041E+03  0.25500000920E-02 0.  1.
    10030    2    1    2    0    0  0.00000000000E+00  0.00000000000E+00 -0.27775285093E+02  0.58174229574E+03  0.58107885195E+03 0.  0.
        4    1    3    3  502    0 -0.17451722604E+03 -0.22425233763E+03  0.46730411474E+02  0.28797693896E+03  0.12699999809E+01 0. -1.
       -4    1    3    3    0  502  0.17451722604E+03  0.22425233763E+03 -0.74505696567E+02  0.29376535677E+03  0.12699999809E+01 0.  1.
</event>
<event>
 5   0  0.3640827E-02  0.6000883E+03  0.7818609E-02  0.9905223E-01
        1   -1    0    0  501    0  0.00000000000E+00  0.00000000000E+00  0.37056888978E+03  0.37056888982E+03  0.50400001928E-02 0.  1.
       -1   -1    0    0    0  501  0.00000000000E+00  0.00000000000E+00 -0.24294128389E+03  0.24294128394E+03  0.50400001928E-02 0. -1.
    10030    2    1    2    0    0  0.00000000000E+00  0.00000000000E+00  0.12762760589E+03  0.61351017376E+03  0.60008826644E+03 0.  0.
        3    1    3    3  502    0 -0.12797016408E+03 -0.26488465698E+03  0.12417870253E+03  0.31931270686E+03  0.10100000352E+00 0. -1.
       -3    1    3    3    0  502  0.12797016408E+03  0.26488465698E+03  0.34489033596E+01  0.29419746690E+03  0.10100000352E+00 0.  1.
</event>
<event>
 5   0  0.5999117E-02  0.5845684E+03  0.7818609E-02  0.9937949E-01
       -2   -1    0    0    0  501  0.00000000000E+00  0.00000000000E+00  0.13256000984E+03  0.13256000987E+03  0.25500000920E-02 0. -1.
        2   -1    0    0  501    0  0.00000000000E+00  0.00000000000E+00 -0.64446321594E+03  0.64446321595E+03  0.25500000920E-02 0.  1.
    10030    2    1    2    0    0  0.00000000000E+00  0.00000000000E+00 -0.51190320610E+03  0.77702322582E+03  0.58456838868E+03 0.  0.
        5    1    3    3  502    0 -0.19404911638E+03 -0.21420394191E+03 -0.31342538382E+03  0.42637536223E+03  0.46999998093E+01 0.  1.
       -5    1    3    3    0  502  0.19404911638E+03  0.21420394191E+03 -0.19847782228E+03  0.35064786358E+03  0.46999998093E+01 0. -1.
</event>
<event>
 5   0  0.5755078E-02  0.5956077E+03  0.7818609E-02  0.9914561E-01
        2   -1    0    0  501    0  0.00000000000E+00  0.00000000000E+00  0.15258431883E+04  0.15258431883E+04  0.25500000920E-02 0.  1.
       -2   -1    0    0    0  501  0.00000000000E+00  0.00000000000E+00 -0.58123362923E+02  0.58123362979E+02  0.25500000920E-02 0. -1.
    10030    2    1    2    0    0  0.00000000000E+00  0.00000000000E+00  0.14677198254E+04  0.15839665513E+04  0.59560771467E+03 0.  0.
        2    1    3    3  502    0 -0.17590066858E+03  0.23526422014E+02  0.97862116264E+02  0.20266112490E+03  0.25500000920E-02 0. -1.
       -2    1    3    3    0  502  0.17590066858E+03 -0.23526422014E+02  0.13698577091E+04  0.13813054264E+04  0.25500000920E-02 0.  1.
</event>
<event>
 5   0  0.5999117E-02  0.5942806E+03  0.7818609E-02  0.9917344E-01
        2   -1    0    0  501    0  0.00000000000E+00  0.00000000000E+00  0.12930247905E+03  0.12930247908E+03  0.25500000920E-02 0. -1.
       -2   -1    0    0    0  501  0.00000000000E+00  0.00000000000E+00 -0.68283568831E+03  0.68283568831E+03  0.25500000920E-02 0.  1.
    10030    2    1    2    0    0  0.00000000000E+00  0.00000000000E+00 -0.55353320926E+03  0.81213816739E+03  0.59428056437E+03 0.  0.
        5    1    3    3  502    0  0.47854550698E+02 -0.84386986615E+02  0.10699730093E+03  0.14450513464E+03  0.46999998093E+01 0. -1.
       -5    1    3    3    0  502 -0.47854550698E+02  0.84386986615E+02 -0.66053051019E+03  0.66763303275E+03  0.46999998093E+01 0.  1.
</event>
<event>
 5   0  0.3640827E-02  0.5986839E+03  0.7818609E-02  0.9908140E-01
       -1   -1    0    0    0  501  0.00000000000E+00  0.00000000000E+00  0.15734184650E+03  0.15734184658E+03  0.50400001928E-02 0. -1.
        1   -1    0    0  501    0  0.00000000000E+00  0.00000000000E+00 -0.56949633889E+03  0.56949633891E+03  0.50400001928E-02 0.  1.
    10030    2    1    2    0    0  0.00000000000E+00  0.00000000000E+00 -0.41215449239E+03  0.72683818548E+03  0.59868390849E+03 0.  0.
        3    1    3    3  502    0  0.16917708533E+03 -0.24392971724E+03 -0.15932407752E+03  0.33690765060E+03  0.10100000352E+00 0.  1.
       -3    1    3    3    0  502 -0.16917708533E+03  0.24392971724E+03 -0.25283041487E+03  0.38993053489E+03  0.10100000352E+00 0. -1.
</event>
<event>
 5   0  0.3767635E-02  0.5958418E+03  0.7818609E-02  0.9914071E-01
        1   -1    0    0  501    0  0.00000000000E+00  0.00000000000E+00  0.25815813978E+03  0.25815813983E+03  0.50400001928E-02 0. -1.
       -1   -1    0    0    0  501  0.00000000000E+00  0.00000000000E+00 -0.34380811379E+03  0.34380811383E+03  0.50400001928E-02 0.  1.
    10030    2    1    2    0    0  0.00000000000E+00  0.00000000000E+00 -0.85649974015E+02  0.60196625366E+03  0.59584180156E+03 0.  0.
        2    1    3    3  502    0 -0.74721517463E+02  0.18211034676E+03  0.18310137568E+03  0.26883749246E+03  0.25500000920E-02 0. -1.
       -2    1    3    3    0  502  0.74721517463E+02 -0.18211034676E+03 -0.26875134970E+03  0.33312876120E+03  0.25500000920E-02 0.  1.
</event>
<event>
 5   0  0.5935451E-02  0.6052173E+03  0.7818609E-02  0.9894641E-01
        2   -1    0    0  501    0  0.00000000000E+00  0.00000000000E+00  0.62633840770E+03  0.62633840771E+03  0.25500000920E-02 0.  1.
       -2   -1    0    0    0  501  0.00000000000E+00  0.00000000000E+00 -0.14620208729E+03  0.14620208731E+03  0.25500000920E-02 0. -1.
    10030    2    1    2    0    0  0.00000000000E+00  0.00000000000E+00  0.48013632041E+03  0.77254049501E+03  0.60521725872E+03 0.  0.
        3    1    3    3  502    0 -0.76052717638E+02 -0.81544333077E+02 -0.11902224156E+03  0.16309444596E+03  0.10100000352E+00 0. -1.
       -3    1    3    3    0  502  0.76052717638E+02  0.81544333077E+02  0.59915856197E+03  0.60944604905E+03  0.10100000352E+00 0.  1.
</event>
<event>
 5   0  0.3767635E-02  0.5993166E+03  0.7818609E-02  0.9906825E-01
        1   -1    0    0  501    0  0.00000000000E+00  0.00000000000E+00  0.36360342872E+03  0.36360342875E+03  0.50400001928E-02 0.  1.
       -1   -1    0    0    0  501  0.00000000000E+00  0.00000000000E+00 -0.24695891892E+03  0.24695891897E+03  0.50400001928E-02 0. -1.
    10030    2    1    2    0    0  0.00000000000E+00  0.00000000000E+00  0.11664450980E+03  0.61056234772E+03  0.59931664317E+03 0.  0.
        2    1    3    3  502    0  0.79233117556E+02  0.40537003577E+02 -0.23318315294E+03  0.24959070174E+03  0.25500000920E-02 0. -1.
       -2    1    3    3    0  502 -0.79233117556E+02 -0.40537003577E+02  0.34982766274E+03  0.36097164598E+03  0.25500000920E-02 0.  1.
</event>
<event>
 5   0  0.6007360E-02  0.5975602E+03  0.7818609E-02  0.9910481E-01
        2   -1    0    0  501    0  0.00000000000E+00  0.00000000000E+00  0.76449380635E+03  0.76449380636E+03  0.25500000920E-02 0.  1.
       -2   -1    0    0    0  501  0.00000000000E+00  0.00000000000E+00 -0.11676946848E+03  0.11676946851E+03  0.25500000920E-02 0. -1.
    10030    2    1    2    0    0  0.00000000000E+00  0.00000000000E+00  0.64772433787E+03  0.88126327486E+03  0.59756015743E+03 0.  0.
        4    1    3    3  502    0  0.15722861264E+03  0.22810745275E+03  0.15888515775E+03  0.31937431470E+03  0.12699999809E+01 0. -1.
       -4    1    3    3    0  502 -0.15722861264E+03 -0.22810745275E+03  0.48883918012E+03  0.56188896016E+03  0.12699999809E+01 0.  1.
</event>
<event>
 5   0  0.3478183E-02  0.6041459E+03  0.7818609E-02  0.9896842E-01
       -1   -1    0    0    0  501  0.00000000000E+00  0.00000000000E+00  0.94324460719E+02  0.94324460854E+02  0.50400001928E-02 0. -1.
        1   -1    0    0  501    0  0.00000000000E+00  0.00000000000E+00 -0.96738509689E+03  0.96738509690E+03  0.50400001928E-02 0.  1.
    10030    2    1    2    0    0  0.00000000000E+00  0.00000000000E+00 -0.87306063617E+03  0.10617095578E+04  0.60414593485E+03 0.  0.
        4    1    3    3  502    0 -0.24250217444E+03  0.12832524259E+03 -0.21443433908E+03  0.34822172702E+03  0.12699999809E+01 0. -1.
       -4    1    3    3    0  502  0.24250217444E+03 -0.12832524259E+03 -0.65862629708E+03  0.71348783073E+03  0.12699999809E+01 0.  1.
</event>
<event>
 5   0  0.3651984E-02  0.6135180E+03  0.7818609E-02  0.9877751E-01
       -1   -1    0    0    0  501  0.00000000000E+00  0.00000000000E+00  0.50846163817E+02  0.50846164067E+02  0.50400001928E-02 0.  1.
        1   -1    0    0  501    0  0.00000000000E+00  0.00000000000E+00 -0.18507014563E+04  0.18507014563E+04  0.50400001928E-02 0. -1.
    10030    2    1    2    0    0  0.00000000000E+00  0.00000000000E+00 -0.17998552925E+04  0.19015476204E+04  0.61351795301E+03 0.  0.
        1    1    3    3  502    0 -0.16013067470E+03 -0.23894790478E+03 -0.56953602715E+03  0.63805111114E+03  0.50400001928E-02 0. -1.
       -1    1    3    3    0  502  0.16013067470E+03  0.23894790478E+03 -0.12303192653E+04  0.12634965092E+04  0.50400001928E-02 0.  1.
</event>
<event>
 5   0  0.3703280E-02  0.5956276E+03  0.7818609E-02  0.9914519E-01
       -1   -1    0    0    0  501  0.00000000000E+00  0.00000000000E+00  0.68521575456E+02  0.68521575642E+02  0.50400001928E-02 0.  1.
        1   -1    0    0  501    0  0.00000000000E+00  0.00000000000E+00 -0.12943816739E+04  0.12943816739E+04  0.50400001928E-02 0. -1.
    10030    2    1    2    0    0  0.00000000000E+00  0.00000000000E+00 -0.12258600984E+04  0.13629032495E+04  0.59562764096E+03 0.  0.
        5    1    3    3  502    0  0.12990150978E+03 -0.24003244187E+03 -0.34044435388E+03  0.43636501174E+03  0.46999998093E+01 0.  1.
       -5    1    3    3    0  502 -0.12990150978E+03  0.24003244187E+03 -0.88541574456E+03  0.92653823780E+03  0.46999998093E+01 0. -1.
</event>
<event>
 5   0  0.3651984E-02  0.6149254E+03  0.7818609E-02  0.9874916E-01
       -1   -1    0    0    0  501  0.00000000000E+00  0.00000000000E+00  0.11774090609E+03  0.11774090619E+03  0.50400001928E-02 0.  1.
        1   -1    0    0  501    0  0.00000000000E+00  0.00000000000E+00 -0.80289256794E+03  0.80289256796E+03  0.50400001928E-02 0. -1.
    10030    2    1    2    0    0  0.00000000000E+00  0.00000000000E+00 -0.68515166185E+03  0.92063347415E+03  0.61492535643E+03 0.  0.
        1    1    3    3  502    0  0.20626362922E+03  0.17227907820E+03 -0.56619028170E+03  0.62673455357E+03  0.50400001928E-02 0. -1.
       -1    1    3    3    0  502 -0.20626362922E+03 -0.17227907820E+03 -0.11896138016E+03  0.29389892058E+03  0.50400001928E-02 0.  1.
</event>
<event>
 5   0  0.5755078E-02  0.5843333E+03  0.7818609E-02  0.9938453E-01
        2   -1    0    0  501    0  0.00000000000E+00  0.00000000000E+00  0.47538692733E+03  0.47538692734E+03  0.25500000920E-02 0. -1.
       -2   -1    0    0    0  501  0.00000000000E+00  0.00000000000E+00 -0.17956181622E+03  0.17956181624E+03  0.25500000920E-02 0.  1.
    10030    2    1    2    0    0  0.00000000000E+00  0.00000000000E+00  0.29582511111E+03  0.65494874358E+03  0.58433326138E+03 0.  0.
        2    1    3    3  502    0  0.11570341011E+03 -0.94025587932E+02 -0.13371541011E+03  0.20026957134E+03  0.25500000920E-02 0.  1.
       -2    1    3    3    0  502 -0.11570341011E+03  0.94025587932E+02  0.42954052122E+03  0.45467917224E+03  0.25500000920E-02 0. -1.
</event>
<event>
 5   0  0.3478183E-02  0.5817978E+03  0.7818609E-02  0.9943906E-01
       -1   -1    0    0    0  501  0.00000000000E+00  0.00000000000E+00  0.40551704877E+03  0.40551704880E+03  0.50400001928E-02 0. -1.
        1   -1    0    0  501    0  0.00000000000E+00  0.00000000000E+00 -0.20867721016E+03  0.20867721022E+03  0.50400001928E-02 0.  1.
    10030    2    1    2    0    0  0.00000000000E+00  0.00000000000E+00  0.19683983860E+03  0.61419425902E+03  0.58179778768E+03 0.  0.
        4    1    3    3  502    0  0.15765625724E+03 -0.21625168409E+03  0.21878758182E+03  0.34567311897E+03  0.12699999809E+01 0. -1.
       -4    1    3    3    0  502 -0.15765625724E+03  0.21625168409E+03 -0.21947743218E+02  0.26852114005E+03  0.12699999809E+01 0.  1.
</event>
<event>
 5   0  0.5935451E-02  0.6025490E+03  0.7818609E-02  0.9900132E-01
        2   -1    0    0  501    0  0.00000000000E+00  0.00000000000E+00  0.16579686428E+04  0.16579686428E+04  0.25500000920E-02 0. -1.
       -2   -1    0    0    0  501  0.00000000000E+00  0.00000000000E+00 -0.54745497685E+02  0.54745497744E+02  0.25500000920E-02 0.  1.
    10030    2    1    2    0    0  0.00000000000E+00  0.00000000000E+00  0.16032231451E+04  0.17127141405E+04  0.60254898073E+03 0.  0.
        3    1    3    3  502    0 -0.48540253641E+02  0.29024834754E+03  0.61814594645E+03  0.68462009961E+03  0.10100000352E+00 0.  1.
       -3    1    3    3    0  502  0.48540253641E+02 -0.29024834754E+03  0.98507719863E+03  0.10280940409E+04  0.10100000352E+00 0. -1.
</event>
<event>
 5   0  0.2388000E-02  0.6022032E+03  0.7818609E-02  0.9900846E-01
       -3   -1    0    0    0  501  0.00000000000E+00  0.00000000000E+00  0.19409755366E+03  0.19409757993E+03  0.10100000352E+00 0. -1.
        3   -1    0    0  501    0  0.00000000000E+00  0.00000000000E+00 -0.46709577561E+03  0.46709578653E+03  0.10100000352E+00 0.  1.
    10030    2    1    2    0    0  0.00000000000E+00  0.00000000000E+00 -0.27299822196E+03  0.66119336647E+03  0.60220315398E+03 0.  0.
        2    1    3    3  502    0  0.19072485095E+03  0.52281518603E+02 -0.38579305763E+03  0.43352694181E+03  0.25500000920E-02 0.  1.
       -2    1    3    3    0  502 -0.19072485095E+03 -0.52281518603E+02  0.11279483567E+03  0.22766642466E+03  0.25500000920E-02 0. -1.
</event>
<event>
 5   0  0.6007360E-02  0.5954883E+03  0.7818609E-02  0.9914811E-01
       -2   -1    0    0    0  501  0.00000000000E+00  0.00000000000E+00  0.14560333381E+03  0.14560333384E+03  0.25500000920E-02 0.  1.
        2   -1    0    0  501    0  0.00000000000E+00  0.00000000000E+00 -0.60885672543E+03  0.60885672543E+03  0.25500000920E-02 0. -1.
    10030    2    1    2    0    0  0.00000000000E+00  0.00000000000E+00 -0.46325339161E+03  0.75446005927E+03  0.59548826705E+03 0.  0.
        4    1    3    3  502    0 -0.13649549124E+03  0.21087009848E+03 -0.43415315523E+03  0.50158527954E+03  0.12699999809E+01 0. -1.
       -4    1    3    3    0  502  0.13649549124E+03 -0.21087009848E+03 -0.29100236386E+02  0.25287477972E+03  0.12699999809E+01 0.  1.
</event>
<event>
 5   0  0.3651984E-02  0.5929542E+03  0.7818609E-02  0.9920133E-01
       -1   -1    0    0    0  501  0.00000000000E+00  0.00000000000E+00  0.55834918795E+03  0.55834918797E+03  0.50400001928E-02 0.  1.
        1   -1    0    0  501    0  0.00000000000E+00  0.00000000000E+00 -0.15742601029E+03  0.15742601037E+03  0.50400001928E-02 0. -1.
    10030    2    1    2    0    0  0.00000000000E+00  0.00000000000E+00  0.40092317766E+03  0.71577519834E+03  0.59295424797E+03 0.  0.
        1    1    3    3  502    0 -0.14284123801E+03 -0.24811844043E+03  0.10748637054E+03  0.30580990768E+03  0.50400001928E-02 0. -1.
       -1    1    3    3    0  502  0.14284123801E+03  0.24811844043E+03  0.29343680712E+03  0.40996529067E+03  0.50400001928E-02 0.  1.
</event>
<event>
 5   0  0.5999117E-02  0.6104249E+03  0.7818609E-02  0.9884011E-01
        2   -1    0    0  501    0  0.00000000000E+00  0.00000000000E+00  0.13065367765E+04  0.13065367765E+04  0.25500000920E-02 0.  1.
       -2   -1    0    0    0  501  0.00000000000E+00  0.00000000000E+00 -0.71298898767E+02  0.71298898813E+02  0.25500000920E-02 0. -1.
    10030    2    1    2    0    0  0.00000000000E+00  0.00000000000E+00  0.12352378778E+04  0.13778356753E+04  0.61042487957E+03 0.  0.
        5    1    3    3  502    0  0.60587215813E+02  0.94584147534E+02  0.12580983003E+04  0.12631113945E+04  0.46999998093E+01 0.  1.
       -5    1    3    3    0  502 -0.60587215813E+02 -0.94584147534E+02 -0.22860422593E+02  0.11472428080E+03  0.46999998093E+01 0. -1.
</event>
<event>
 5   0  0.2388000E-02  0.6080135E+03  0.7818609E-02  0.9888919E-01
        3   -1    0    0  501    0  0.00000000000E+00  0.00000000000E+00  0.96494096996E+02  0.96494149854E+02  0.10100000352E+00 0.  1.
       -3   -1    0    0    0  501  0.00000000000E+00  0.00000000000E+00 -0.95777941712E+03  0.95777942244E+03  0.10100000352E+00 0. -1.
    10030    2    1    2    0    0  0.00000000000E+00  0.00000000000E+00 -0.86128532012E+03  0.10542735723E+04  0.60801345593E+03 0.  0.
        2    1    3    3  502    0  0.28904933329E+03  0.69502667595E+02 -0.32043081499E+03  0.43709958257E+03  0.25500000920E-02 0.  1.
       -2    1    3    3    0  502 -0.28904933329E+03 -0.69502667595E+02 -0.54085450513E+03  0.61717398973E+03  0.25500000920E-02 0. -1.
</event>
<event>
 5   0  0.5872632E-02  0.6117281E+03  0.7818609E-02  0.9881368E-01
       -2   -1    0    0    0  501  0.00000000000E+00  0.00000000000E+00  0.92518106203E+02  0.92518106238E+02  0.25500000920E-02 0. -1.
        2   -1    0    0  501    0  0.00000000000E+00  0.00000000000E+00 -0.10111838347E+04  0.10111838347E+04  0.25500000920E-02 0.  1.
    10030    2    1    2    0    0  0.00000000000E+00  0.00000000000E+00 -0.91866572853E+03  0.11037019410E+04  0.61172808807E+03 0.  0.
        1    1    3    3  502    0  0.26578535492E+03  0.14556769146E+03 -0.38448411607E+03  0.48955065440E+03  0.50400001928E-02 0. -1.
       -1    1    3    3    0  502 -0.26578535492E+03 -0.14556769146E+03 -0.53418161246E+03  0.61415128658E+03  0.50400001928E-02 0.  1.
</event>
<event>
 5   0  0.5935451E-02  0.6000395E+03  0.7818609E-02  0.9905324E-01
       -2   -1    0    0    0  501  0.00000000000E+00  0.00000000000E+00  0.31341831557E+03  0.31341831558E+03  0.25500000920E-02 0.  1.
        2   -1    0    0  501    0  0.00000000000E+00  0.00000000000E+00 -0.28719398083E+03  0.28719398084E+03  0.25500000920E-02 0. -1.
    10030    2    1    2    0    0  0.00000000000E+00  0.00000000000E+00  0.26224334738E+02  0.60061229642E+03  0.60003951110E+03 0.  0.
        3    1    3    3  502    0  0.12729820733E+03 -0.23350375240E+03  0.15210799262E+03  0.30637507665E+03  0.10100000352E+00 0.  1.
       -3    1    3    3    0  502 -0.12729820733E+03  0.23350375240E+03 -0.12588365788E+03  0.29423721977E+03  0.10100000352E+00 0. -1.
</event>
<event>
 5   0  0.3478183E-02  0.6003767E+03  0.7818609E-02  0.9904625E-01
        1   -1    0    0  501    0  0.00000000000E+00  0.00000000000E+00  0.30387360551E+03  0.30387360555E+03  0.50400001928E-02 0.  1.
       -1   -1    0    0    0  501  0.00000000000E+00  0.00000000000E+00 -0.29654777800E+03  0.29654777804E+03  0.50400001928E-02 0. -1.
    10030    2    1    2    0    0  0.00000000000E+00  0.00000000000E+00  0.73258275077E+01  0.60042138359E+03  0.60037669019E+03 0.  0.
        4    1    3    3  502    0 -0.19044866222E+03  0.46270786457E+02 -0.22372980510E+03  0.29743624058E+03  0.12699999809E+01 0. -1.
       -4    1    3    3    0  502  0.19044866222E+03 -0.46270786457E+02  0.23105563261E+03  0.30298514301E+03  0.12699999809E+01 0.  1.
</event>
<event>
 5   0  0.2388000E-02  0.5955551E+03  0.7818609E-02  0.9914671E-01
       -4   -1    0    0    0  501  0.00000000000E+00  0.00000000000E+00  0.86091375760E+03  0.86091469433E+03  0.12699999809E+01 0. -1.
        4   -1    0    0  501    0  0.00000000000E+00  0.00000000000E+00 -0.10299200786E+03  0.10299983778E+03  0.12699999809E+01 0.  1.
    10030    2    1    2    0    0  0.00000000000E+00  0.00000000000E+00  0.75792174974E+03  0.96391453211E+03  0.59555507427E+03 0.  0.
        1    1    3    3  502    0 -0.27733581901E+03  0.10139473041E+03  0.44112982167E+03  0.53084043502E+03  0.50400001928E-02 0.  1.
       -1    1    3    3    0  502  0.27733581901E+03 -0.10139473041E+03  0.31679192807E+03  0.43307409710E+03  0.50400001928E-02 0. -1.
</event>
<event>
 5   0  0.5872632E-02  0.6073578E+03  0.7818609E-02  0.9890257E-01
        2   -1    0    0  501    0  0.00000000000E+00  0.00000000000E+00  0.46295152995E+03  0.46295152995E+03  0.25500000920E-02 0.  1.
       -2   -1    0    0    0  501  0.00000000000E+00  0.00000000000E+00 -0.19920201805E+03  0.19920201807E+03  0.25500000920E-02 0. -1.
    10030    2    1    2    0    0  0.00000000000E+00  0.00000000000E+00  0.26374951189E+03  0.66215354802E+03  0.60735781557E+03 0.  0.
        1    1    3    3  502    0  0.13331848859E+03  0.19641454196E+03  0.33835096193E+03  0.41332053561E+03  0.50400001928E-02 0.  1.
       -1    1    3    3    0  502 -0.13331848859E+03 -0.19641454196E+03 -0.74601450039E+02  0.24883301241E+03  0.50400001928E-02 0. -1.
</event>
<event>
 5   0  0.5935451E-02  0.6371559E+03  0.7818609E-02  0.9831183E-01
        2   -1    0    0  501    0  0.00000000000E+00  0.00000000000E+00  0.15193884741E+04  0.15193884741E+04  0.25500000920E-02 0.  1.
       -2   -1    0    0    0  501  0.00000000000E+00  0.00000000000E+00 -0.66797860399E+02  0.66797860448E+02  0.25500000920E-02 0. -1.
    10030    2    1    2    0    0  0.00000000000E+00  0.00000000000E+00  0.14525906137E+04  0.15861863346E+04  0.63715586547E+03 0.  0.
        3    1    3    3  502    0 -0.13021246191E+03 -0.13338388981E+03  0.13694552661E+04  0.13820833127E+04  0.10100000352E+00 0.  1.
       -3    1    3    3    0  502  0.13021246191E+03  0.13338388981E+03  0.83135347625E+02  0.20410302184E+03  0.10100000352E+00 0. -1.
</event>
<event>
 5   0  0.3703280E-02  0.5959741E+03  0.7818609E-02  0.9913794E-01
        1   -1    0    0  501    0  0.00000000000E+00  0.00000000000E+00  0.54803400616E+03  0.54803400619E+03  0.50400001928E-02 0. -1.
       -1   -1    0    0    0  501  0.00000000000E+00  0.00000000000E+00 -0.16202694119E+03  0.16202694127E+03  0.50400001928E-02 0.  1.
    10030    2    1    2    0    0  0.00000000000E+00  0.00000000000E+00  0.38600706497E+03  0.71006094746E+03  0.59597407234E+03 0.  0.
        5    1    3    3  502    0 -0.65546732831E+02  0.21270390577E+03  0.42899934878E+03  0.48332375999E+03  0.46999998093E+01 0. -1.
       -5    1    3    3    0  502  0.65546732831E+02 -0.21270390577E+03 -0.42992283812E+02  0.22673718747E+03  0.46999998093E+01 0.  1.
</event>
<event>
 5   0  0.5935451E-02  0.6042172E+03  0.7818609E-02  0.9896695E-01
       -2   -1    0    0    0  501  0.00000000000E+00  0.00000000000E+00  0.91574045949E+02  0.91574045985E+02  0.25500000920E-02 0.  1.
        2   -1    0    0  501    0  0.00000000000E+00  0.00000000000E+00 -0.99667545606E+03  0.99667545606E+03  0.25500000920E-02 0. -1.
    10030    2    1    2    0    0  0.00000000000E+00  0.00000000000E+00 -0.90510141011E+03  0.10882495020E+04  0.60421719284E+03 0.  0.
        3    1    3    3  502    0 -0.27691329969E+03  0.12026965068E+03 -0.47259299324E+03  0.56079400128E+03  0.10100000352E+00 0.  1.
       -3    1    3    3    0  502  0.27691329969E+03 -0.12026965068E+03 -0.43250841688E+03  0.52745550077E+03  0.10100000352E+00 0. -1.
</event>
<event>
 5   0  0.3767635E-02  0.5981098E+03  0.7818609E-02  0.9909335E-01
        1   -1    0    0  501    0  0.00000000000E+00  0.00000000000E+00  0.11634794850E+04  0.11634794850E+04  0.50400001928E-02 0.  1.
       -1   -1    0    0    0  501  0.00000000000E+00  0.00000000000E+00 -0.76867552354E+02  0.76867552519E+02  0.50400001928E-02 0. -1.
    10030    2    1    2    0    0  0.00000000000E+00  0.00000000000E+00  0.10866119327E+04  0.12403470376E+04  0.59810975694E+03 0.  0.
        2    1    3    3  502    0  0.18217570811E+03  0.23429073689E+03  0.46700663997E+03  0.55333113034E+03  0.25500000920E-02 0.  1.
       -2    1    3    3    0  502 -0.18217570811E+03 -0.23429073689E+03  0.61960529270E+03  0.68701590722E+03  0.25500000920E-02 0. -1.
</event>
<event>
 5   0  0.3478183E-02  0.6146938E+03  0.7818609E-02  0.9875381E-01
        1   -1    0    0  501    0  0.00000000000E+00  0.00000000000E+00  0.61281650709E+03  0.61281650711E+03  0.50400001928E-02 0.  1.
       -1   -1    0    0    0  501  0.00000000000E+00  0.00000000000E+00 -0.15414423431E+03  0.15414423440E+03  0.50400001928E-02 0. -1.
    10030    2    1    2    0    0  0.00000000000E+00  0.00000000000E+00  0.45867227278E+03  0.76696074151E+03  0.61469384672E+03 0.  0.
        4    1    3    3  502    0 -0.18241882732E+02  0.53697307054E+02  0.60622843444E+03  0.60887658413E+03  0.12699999809E+01 0.  1.
       -4    1    3    3    0  502  0.18241882732E+02 -0.53697307054E+02 -0.14755616166E+03  0.15808415738E+03  0.12699999809E+01 0. -1.
</event>
<event>
 5   0  0.5935451E-02  0.5947809E+03  0.7818609E-02  0.9916294E-01
        2   -1    0    0  501    0  0.00000000000E+00  0.00000000000E+00  0.82382754853E+03  0.82382754853E+03  0.25500000920E-02 0.  1.
       -2   -1    0    0    0  501  0.00000000000E+00  0.00000000000E+00 -0.10735386751E+03  0.10735386754E+03  0.25500000920E-02 0. -1.
    10030    2    1    2    0    0  0.00000000000E+00  0.00000000000E+00  0.71647368102E+03  0.93118141607E+03  0.59478087901E+03 0.  0.
        3    1    3    3  502    0  0.16422759836E+03 -0.24740695395E+03  0.38348886562E+03  0.48502023172E+03  0.10100000352E+00 0.  1.
       -3    1    3    3    0  502 -0.16422759836E+03  0.24740695395E+03  0.33298481540E+03  0.44616118434E+03  0.10100000352E+00 0. -1.
</event>
<event>
 5   0  0.3640827E-02  0.6012833E+03  0.7818609E-02  0.9902747E-01
       -1   -1    0    0    0  501  0.00000000000E+00  0.00000000000E+00  0.11221940188E+03  0.11221940200E+03  0.50400001928E-02 0.  1.
        1   -1    0    0  501    0  0.00000000000E+00  0.00000000000E+00 -0.80543475572E+03  0.80543475573E+03  0.50400001928E-02 0. -1.
    10030    2    1    2    0    0  0.00000000000E+00  0.00000000000E+00 -0.69321535383E+03  0.91765415773E+03  0.60128331625E+03 0.  0.
        3    1    3    3  502    0  0.16583814369E+03  0.98744462039E+02 -0.69839531264E+03  0.72457489717E+03  0.10100000352E+00 0. -1.
       -3    1    3    3    0  502 -0.16583814369E+03 -0.98744462039E+02  0.51799588048E+01  0.19307926056E+03  0.10100000352E+00 0.  1.
</event>
<event>
 5   0  0.3651984E-02  0.5743092E+03  0.7818609E-02  0.9960188E-01
        1   -1    0    0  501    0  0.00000000000E+00  0.00000000000E+00  0.54780643140E+03  0.54780643142E+03  0.50400001928E-02 0.  1.
       -1   -1    0    0    0  501  0.00000000000E+00  0.00000000000E+00 -0.15052354992E+03  0.15052355000E+03  0.50400001928E-02 0. -1.
    10030    2    1    2    0    0  0.00000000000E+00  0.00000000000E+00  0.39728288149E+03  0.69832998142E+03  0.57430921552E+03 0.  0.
        1    1    3    3  502    0 -0.22455708337E+03 -0.27752339939E+02  0.41363287031E+03  0.47147452475E+03  0.50400001928E-02 0.  1.
       -1    1    3    3    0  502  0.22455708337E+03  0.27752339939E+02 -0.16349988825E+02  0.22685545667E+03  0.50400001928E-02 0. -1.
</event>
<event>
 5   0  0.3478183E-02  0.6036720E+03  0.7818609E-02  0.9897817E-01
        1   -1    0    0  501    0  0.00000000000E+00  0.00000000000E+00  0.76262821618E+03  0.76262821620E+03  0.50400001928E-02 0.  1.
       -1   -1    0    0    0  501  0.00000000000E+00  0.00000000000E+00 -0.11946185081E+03  0.11946185091E+03  0.50400001928E-02 0. -1.
    10030    2    1    2    0    0  0.00000000000E+00  0.00000000000E+00  0.64316636538E+03  0.88209006711E+03  0.60367202432E+03 0.  0.
        4    1    3    3  502    0  0.10526484424E+03  0.86645815147E+02 -0.71900156439E+02  0.15414094236E+03  0.12699999809E+01 0. -1.
       -4    1    3    3    0  502 -0.10526484424E+03 -0.86645815147E+02  0.71506652182E+03  0.72794912476E+03  0.12699999809E+01 0.  1.
</event>
<event>
 5   0  0.5755078E-02  0.5964896E+03  0.7818609E-02  0.9912716E-01
       -2   -1    0    0    0  501  0.00000000000E+00  0.00000000000E+00  0.94985852428E+02  0.94985852463E+02  0.25500000920E-02 0. -1.
        2   -1    0    0  501    0  0.00000000000E+00  0.00000000000E+00 -0.93645474068E+03  0.93645474068E+03  0.25500000920E-02 0.  1.
    10030    2    1    2    0    0  0.00000000000E+00  0.00000000000E+00 -0.84146888825E+03  0.10314405931E+04  0.59648957015E+03 0.  0.
        2    1    3    3  502    0  0.20402614417E+03  0.21148681986E+03 -0.33262049374E+03  0.44383525698E+03  0.25500000920E-02 0. -1.
       -2    1    3    3    0  502 -0.20402614417E+03 -0.21148681986E+03 -0.50884839451E+03  0.58760533616E+03  0.25500000920E-02 0.  1.
</event>
<event>
 5   0  0.5755078E-02  0.6044597E+03  0.7818609E-02  0.9896196E-01
        2   -1    0    0  501    0  0.00000000000E+00  0.00000000000E+00  0.11835165115E+04  0.11835165115E+04  0.25500000920E-02 0.  1.
       -2   -1    0    0    0  501  0.00000000000E+00  0.00000000000E+00 -0.77179228259E+02  0.77179228301E+02  0.25500000920E-02 0. -1.
    10030    2    1    2    0    0  0.00000000000E+00  0.00000000000E+00  0.11063372833E+04  0.12606957398E+04  0.60445972907E+03 0.  0.
        2    1    3    3  502    0 -0.23206766339E+03  0.19224677908E+03  0.50521364878E+03  0.58826444341E+03  0.25500000920E-02 0. -1.
       -2    1    3    3    0  502  0.23206766339E+03 -0.19224677908E+03  0.60112363447E+03  0.67243129641E+03  0.25500000920E-02 0.  1.
</event>
<event>
 5   0  0.5755078E-02  0.5972646E+03  0.7818609E-02  0.9911097E-01
        2   -1    0    0  501    0  0.00000000000E+00  0.00000000000E+00  0.67274239024E+03  0.67274239024E+03  0.25500000920E-02 0.  1.
       -2   -1    0    0    0  501  0.00000000000E+00  0.00000000000E+00 -0.13256376430E+03  0.13256376432E+03  0.25500000920E-02 0. -1.
    10030    2    1    2    0    0  0.00000000000E+00  0.00000000000E+00  0.54017862594E+03  0.80530615456E+03  0.59726464374E+03 0.  0.
        2    1    3    3  502    0 -0.14832200192E+03  0.24167916311E+03  0.39637932572E+03  0.48736516494E+03  0.25500000920E-02 0. -1.
       -2    1    3    3    0  502  0.14832200192E+03 -0.24167916311E+03  0.14379930022E+03  0.31794098962E+03  0.25500000920E-02 0.  1.
</event>
<event>
 5   0  0.2388000E-02  0.6021469E+03  0.7818609E-02  0.9900962E-01
       -4   -1    0    0    0  501  0.00000000000E+00  0.00000000000E+00  0.61930621901E+03  0.61930752119E+03  0.12699999809E+01 0. -1.
        4   -1    0    0  501    0  0.00000000000E+00  0.00000000000E+00 -0.14636156499E+03  0.14636707487E+03  0.12699999809E+01 0.  1.
    10030    2    1    2    0    0  0.00000000000E+00  0.00000000000E+00  0.47294465402E+03  0.76567459606E+03  0.60214694327E+03 0.  0.
        1    1    3    3  502    0  0.17671995359E+03  0.24366476481E+03  0.22815583348E+03  0.37770033623E+03  0.50400001928E-02 0. -1.
       -1    1    3    3    0  502 -0.17671995359E+03 -0.24366476481E+03  0.24478882053E+03  0.38797425983E+03  0.50400001928E-02 0.  1.
</event>
<event>
 5   0  0.3478183E-02  0.6171366E+03  0.7818609E-02  0.9870477E-01
       -1   -1    0    0    0  501  0.00000000000E+00  0.00000000000E+00  0.15111627008E+03  0.15111627016E+03  0.50400001928E-02 0.  1.
        1   -1    0    0  501    0  0.00000000000E+00  0.00000000000E+00 -0.63007374649E+03  0.63007374651E+03  0.50400001928E-02 0. -1.
    10030    2    1    2    0    0  0.00000000000E+00  0.00000000000E+00 -0.47895747642E+03  0.78119001667E+03  0.61713659585E+03 0.  0.
        4    1    3    3  502    0 -0.15028798449E+03 -0.66465221679E+02 -0.57007291449E+03  0.59328647778E+03  0.12699999809E+01 0. -1.
       -4    1    3    3    0  502  0.15028798449E+03  0.66465221679E+02  0.91115438077E+02  0.18790353890E+03  0.12699999809E+01 0.  1.
</event>
<event>
 5   0  0.3640827E-02  0.6008224E+03  0.7818609E-02  0.9903701E-01
       -1   -1    0    0    0  501  0.00000000000E+00  0.00000000000E+00  0.40938649187E+03  0.40938649190E+03  0.50400001928E-02 0.  1.
        1   -1    0    0  501    0  0.00000000000E+00  0.00000000000E+00 -0.22044419316E+03  0.22044419322E+03  0.50400001928E-02 0. -1.
    10030    2    1    2    0    0  0.00000000000E+00  0.00000000000E+00  0.18894229871E+03  0.62983068512E+03  0.60082235284E+03 0.  0.
        3    1    3    3  502    0  0.27468946304E+03 -0.63665626420E+02 -0.14162593506E+02  0.28232641100E+03  0.10100000352E+00 0. -1.
       -3    1    3    3    0  502 -0.27468946304E+03  0.63665626420E+02  0.20310489222E+03  0.34750427412E+03  0.10100000352E+00 0.  1.
</event>
<event>
 5   0  0.5999117E-02  0.6033441E+03  0.7818609E-02  0.9898492E-01
        2   -1    0    0  501    0  0.00000000000E+00  0.00000000000E+00  0.68302253652E+03  0.68302253652E+03  0.25500000920E-02 0.  1.
       -2   -1    0    0    0  501  0.00000000000E+00  0.00000000000E+00 -0.13324016182E+03  0.13324016184E+03  0.25500000920E-02 0. -1.
    10030    2    1    2    0    0  0.00000000000E+00  0.00000000000E+00  0.54978237470E+03  0.81626269836E+03  0.60334412503E+03 0.  0.
        5    1    3    3  502    0 -0.97214228976E+02  0.92344799990E+02 -0.90656019528E+02  0.16192211793E+03  0.46999998093E+01 0. -1.
       -5    1    3    3    0  502  0.97214228976E+02 -0.92344799990E+02  0.64043839423E+03  0.65434058043E+03  0.46999998093E+01 0.  1.
</event>
<event>
 5   0  0.3767635E-02  0.5981390E+03  0.7818609E-02  0.9909275E-01
       -1   -1    0    0    0  501  0.00000000000E+00  0.00000000000E+00  0.74339886783E+03  0.74339886785E+03  0.50400001928E-02 0. -1.
        1   -1    0    0  501    0  0.00000000000E+00  0.00000000000E+00 -0.12031571446E+03  0.12031571456E+03  0.50400001928E-02 0.  1.
    10030    2    1    2    0    0  0.00000000000E+00  0.00000000000E+00  0.62308315338E+03  0.86371458241E+03  0.59813900044E+03 0.  0.
        2    1    3    3  502    0 -0.18441032265E+02 -0.19776922713E+03  0.63439764125E+03  0.66476545195E+03  0.25500000920E-02 0. -1.
       -2    1    3    3    0  502  0.18441032265E+02  0.19776922713E+03 -0.11314487875E+02  0.19894913046E+03  0.25500000920E-02 0.  1.
</event>
<event>
 5   0  0.5999117E-02  0.6003041E+03  0.7818609E-02  0.9904775E-01
       -2   -1    0    0    0  501  0.00000000000E+00  0.00000000000E+00  0.46033056630E+02  0.46033056701E+02  0.25500000920E-02 0.  1.
        2   -1    0    0  501    0  0.00000000000E+00  0.00000000000E+00 -0.19570992973E+04  0.19570992973E+04  0.25500000920E-02 0. -1.
    10030    2    1    2    0    0  0.00000000000E+00  0.00000000000E+00 -0.19110662406E+04  0.20031323540E+04  0.60030413243E+03 0.  0.
        5    1    3    3  502    0 -0.17609106867E+03  0.97244968303E+02 -0.21234465906E+03  0.29253545521E+03  0.46999998093E+01 0.  1.
       -5    1    3    3    0  502  0.17609106867E+03 -0.97244968303E+02 -0.16987215816E+04  0.17105968987E+04  0.46999998093E+01 0. -1.
</event>
<event>
 5   0  0.3478183E-02  0.5588966E+03  0.7818609E-02  0.9994554E-01
        1   -1    0    0  501    0  0.00000000000E+00  0.00000000000E+00  0.27974710730E+03  0.27974710735E+03  0.50400001928E-02 0. -1.
       -1   -1    0    0    0  501  0.00000000000E+00  0.00000000000E+00 -0.27914980165E+03  0.27914980170E+03  0.50400001928E-02 0.  1.
    10030    2    1    2    0    0  0.00000000000E+00  0.00000000000E+00  0.59730564882E+00  0.55889690905E+03  0.55889658987E+03 0.  0.
        4    1    3    3  502    0  0.76087320866E+02 -0.20611198471E+03  0.17297853023E+03  0.27963300138E+03  0.12699999809E+01 0. -1.
       -4    1    3    3    0  502 -0.76087320866E+02  0.20611198471E+03 -0.17238122458E+03  0.27926390767E+03  0.12699999809E+01 0.  1.
</event>
<event>
 5   0  0.3703280E-02  0.6029966E+03  0.7818609E-02  0.9899208E-01
       -1   -1    0    0    0  501  0.00000000000E+00  0.00000000000E+00  0.30731505986E+03  0.30731505990E+03  0.50400001928E-02 0.  1.
        1   -1    0    0  501    0  0.00000000000E+00  0.00000000000E+00 -0.29579168114E+03  0.29579168119E+03  0.50400001928E-02 0. -1.
    10030    2    1    2    0    0  0.00000000000E+00  0.00000000000E+00  0.11523378713E+02  0.60310674108E+03  0.60299664417E+03 0.  0.
        5    1    3    3  502    0 -0.28554481570E+03  0.70152700654E+02  0.72271236939E+02  0.30282414842E+03  0.46999998093E+01 0. -1.
       -5    1    3    3    0  502  0.28554481570E+03 -0.70152700654E+02 -0.60747858226E+02  0.30028259266E+03  0.46999998093E+01 0.  1.
</event>
<event>
 5   0  0.3640827E-02  0.6187326E+03  0.7818609E-02  0.9867286E-01
       -1   -1    0    0    0  501  0.00000000000E+00  0.00000000000E+00  0.21039787835E+03  0.21039787841E+03  0.50400001928E-02 0. -1.
        1   -1    0    0  501    0  0.00000000000E+00  0.00000000000E+00 -0.45488816385E+03  0.45488816388E+03  0.50400001928E-02 0.  1.
    10030    2    1    2    0    0  0.00000000000E+00  0.00000000000E+00 -0.24449028550E+03  0.66528604230E+03  0.61873259036E+03 0.  0.
        3    1    3    3  502    0 -0.18871952466E+03 -0.15548060003E+03  0.81535446383E+02  0.25775436988E+03  0.10100000352E+00 0. -1.
       -3    1    3    3    0  502  0.18871952466E+03  0.15548060003E+03 -0.32602573188E+03  0.40753167242E+03  0.10100000352E+00 0.  1.
</event>
<event>
 5   0  0.3651984E-02  0.6023936E+03  0.7818609E-02  0.9900453E-01
        1   -1    0    0  501    0  0.00000000000E+00  0.00000000000E+00  0.95538007663E+02  0.95538007796E+02  0.50400001928E-02 0.  1.
       -1   -1    0    0    0  501  0.00000000000E+00  0.00000000000E+00 -0.94956457585E+03  0.94956457587E+03  0.50400001928E-02 0. -1.
    10030    2    1    2    0    0  0.00000000000E+00  0.00000000000E+00 -0.85402656819E+03  0.10451025837E+04  0.60239358496E+03 0.  0.
        1    1    3    3  502    0  0.27572733618E+02  0.16015715501E+03 -0.86697435590E+03  0.88207431872E+03  0.50400001928E-02 0. -1.
       -1    1    3    3    0  502 -0.27572733618E+02 -0.16015715501E+03  0.12947787704E+02  0.16302826494E+03  0.50400001928E-02 0.  1.
</event>
<event>
 5   0  0.6007360E-02  0.5954282E+03  0.7818609E-02  0.9914937E-01
        2   -1    0    0  501    0  0.00000000000E+00  0.00000000000E+00  0.35643744386E+03  0.35643744387E+03  0.25500000920E-02 0. -1.
       -2   -1    0    0    0  501  0.00000000000E+00  0.00000000000E+00 -0.24866551227E+03  0.24866551229E+03  0.25500000920E-02 0.  1.
    10030    2    1    2    0    0  0.00000000000E+00  0.00000000000E+00  0.10777193159E+03  0.60510295616E+03  0.59542824783E+03 0.  0.
        4    1    3    3  502    0  0.12407481470E+03  0.17227915378E+03 -0.15820927098E+03  0.26477623154E+03  0.12699999809E+01 0.  1.
       -4    1    3    3    0  502 -0.12407481470E+03 -0.17227915378E+03  0.26598120257E+03  0.34032672462E+03  0.12699999809E+01 0. -1.
</event>
<event>
 5   0  0.5755078E-02  0.5974667E+03  0.7818609E-02  0.9910676E-01
        2   -1    0    0  501    0  0.00000000000E+00  0.00000000000E+00  0.15952525371E+04  0.15952525371E+04  0.25500000920E-02 0.  1.
       -2   -1    0    0    0  501  0.00000000000E+00  0.00000000000E+00 -0.55941989981E+02  0.55941990039E+02  0.25500000920E-02 0. -1.
    10030    2    1    2    0    0  0.00000000000E+00  0.00000000000E+00  0.15393105471E+04  0.16511945271E+04  0.59746665680E+03 0.  0.
        2    1    3    3  502    0  0.66075776462E+02  0.28518017689E+03  0.60504088172E+03  0.67213704710E+03  0.25500000920E-02 0. -1.
       -2    1    3    3    0  502 -0.66075776462E+02 -0.28518017689E+03  0.93426966540E+03  0.97905748004E+03  0.25500000920E-02 0.  1.
</event>
<event>
 5   0  0.3640827E-02  0.5948286E+03  0.7818609E-02  0.9916193E-01
        1   -1    0    0  501    0  0.00000000000E+00  0.00000000000E+00  0.36210073553E+03  0.36210073557E+03  0.50400001928E-02 0. -1.
       -1   -1    0    0    0  501  0.00000000000E+00  0.00000000000E+00 -0.24428361199E+03  0.24428361204E+03  0.50400001928E-02 0.  1.
    10030    2    1    2    0    0  0.00000000000E+00  0.00000000000E+00  0.11781712354E+03  0.60638434761E+03  0.59482863282E+03 0.  0.
        3    1    3    3  502    0  0.23878385418E+03 -0.13649327667E+03  0.17427563815E+03  0.32560735840E+03  0.10100000352E+00 0. -1.
       -3    1    3    3    0  502 -0.23878385418E+03  0.13649327667E+03 -0.56458514610E+02  0.28077698921E+03  0.10100000352E+00 0.  1.
</event>
<event>
 5   0  0.5935451E-02  0.5986835E+03  0.7818609E-02  0.9908141E-01
       -2   -1    0    0    0  501  0.00000000000E+00  0.00000000000E+00  0.12644748929E+03  0.12644748931E+03  0.25500000920E-02 0.  1.
        2   -1    0    0  501    0  0.00000000000E+00  0.00000000000E+00 -0.70863787139E+03  0.70863787140E+03  0.25500000920E-02 0. -1.
    10030    2    1    2    0    0  0.00000000000E+00  0.00000000000E+00 -0.58219038211E+03  0.83508536071E+03  0.59868348788E+03 0.  0.
        3    1    3    3  502    0 -0.14428418040E+03  0.25466946318E+03 -0.20363999365E+03  0.35657217699E+03  0.10100000352E+00 0. -1.
       -3    1    3    3    0  502  0.14428418040E+03 -0.25466946318E+03 -0.37855038846E+03  0.47851318372E+03  0.10100000352E+00 0.  1.
</event>
<event>
 5   0  0.3651984E-02  0.5925218E+03  0.7818609E-02  0.9921044E-01
        1   -1    0    0  501    0  0.00000000000E+00  0.00000000000E+00  0.10373706862E+04  0.10373706862E+04  0.50400001928E-02 0. -1.
       -1   -1    0    0    0  501  0.00000000000E+00  0.00000000000E+00 -0.84608639986E+02  0.84608640136E+02  0.50400001928E-02 0.  1.
    10030    2    1    2    0    0  0.00000000000E+00  0.00000000000E+00  0.95276204621E+03  0.11219793263E+04  0.59252180723E+03 0.  0.
        1    1    3    3  502    0 -0.91203884732E+02 -0.38322360640E+02 -0.52408244629E+02  0.11195256159E+03  0.50400001928E-02 0.  1.
       -1    1    3    3    0  502  0.91203884732E+02  0.38322360640E+02  0.10051702908E+04  0.10100267648E+04  0.50400001928E-02 0. -1.
</event>
<event>
 5   0  0.3478183E-02  0.5474709E+03  0.7818609E-02  0.1002081E+00
        1   -1    0    0  501    0  0.00000000000E+00  0.00000000000E+00  0.48183520670E+03  0.48183520672E+03  0.50400001928E-02 0. -1.
       -1   -1    0    0    0  501  0.00000000000E+00  0.00000000000E+00 -0.15551188721E+03  0.15551188729E+03  0.50400001928E-02 0.  1.
    10030    2    1    2    0    0  0.00000000000E+00  0.00000000000E+00  0.32632331949E+03  0.63734709401E+03  0.54747092106E+03 0.  0.
        4    1    3    3  502    0  0.10377770208E+03 -0.24656495627E+02  0.45664176082E+03  0.46893609890E+03  0.12699999809E+01 0. -1.
       -4    1    3    3    0  502 -0.10377770208E+03  0.24656495627E+02 -0.13031844133E+03  0.16841099512E+03  0.12699999809E+01 0.  1.
</event>
<event>
 5   0  0.3703280E-02  0.6041567E+03  0.7818609E-02  0.9896820E-01
        1   -1    0    0  501    0  0.00000000000E+00  0.00000000000E+00  0.19291052172E+04  0.19291052172E+04  0.50400001928E-02 0.  1.
       -1   -1    0    0    0  501  0.00000000000E+00  0.00000000000E+00 -0.47302407524E+02  0.47302407792E+02  0.50400001928E-02 0. -1.
    10030    2    1    2    0    0  0.00000000000E+00  0.00000000000E+00  0.18818028097E+04  0.19764076250E+04  0.60415667310E+03 0.  0.
        5    1    3    3  502    0  0.11480805791E+03  0.22351833969E+03  0.39264145051E+03  0.46618744834E+03  0.46999998093E+01 0. -1.
       -5    1    3    3    0  502 -0.11480805791E+03 -0.22351833969E+03  0.14891613592E+04  0.15102201767E+04  0.46999998093E+01 0.  1.
</event>
<event>
 5   0  0.5935451E-02  0.6014255E+03  0.7818609E-02  0.9902453E-01
       -2   -1    0    0    0  501  0.00000000000E+00  0.00000000000E+00  0.81598564812E+02  0.81598564851E+02  0.25500000920E-02 0.  1.
        2   -1    0    0  501    0  0.00000000000E+00  0.00000000000E+00 -0.11082075819E+04  0.11082075819E+04  0.25500000920E-02 0. -1.
    10030    2    1    2    0    0  0.00000000000E+00  0.00000000000E+00 -0.10266090171E+04  0.11898061468E+04  0.60142546744E+03 0.  0.
        3    1    3    3  502    0 -0.15583225482E+03  0.16729274134E+03 -0.12686205179E+03  0.26146614184E+03  0.10100000352E+00 0.  1.
       -3    1    3    3    0  502  0.15583225482E+03 -0.16729274134E+03 -0.89974696531E+03  0.92834000492E+03  0.10100000352E+00 0. -1.
</event>
<event>
 5   0  0.3478183E-02  0.5889296E+03  0.7818609E-02  0.9928644E-01
        1   -1    0    0  501    0  0.00000000000E+00  0.00000000000E+00  0.20347080526E+04  0.20347080527E+04  0.50400001928E-02 0. -1.
       -1   -1    0    0    0  501  0.00000000000E+00  0.00000000000E+00 -0.42615209303E+02  0.42615209601E+02  0.50400001928E-02 0.  1.
    10030    2    1    2    0    0  0.00000000000E+00  0.00000000000E+00  0.19920928433E+04  0.20773232623E+04  0.58892957083E+03 0.  0.
        4    1    3    3  502    0  0.18999581960E+03  0.12982309678E+02  0.20385099508E+03  0.27896916125E+03  0.12699999809E+01 0.  1.
       -4    1    3    3    0  502 -0.18999581960E+03 -0.12982309678E+02  0.17882418483E+04  0.17983541010E+04  0.12699999809E+01 0. -1.
</event>
<event>
 5   0  0.5872632E-02  0.6064108E+03  0.7818609E-02  0.9892194E-01
        2   -1    0    0  501    0  0.00000000000E+00  0.00000000000E+00  0.38670141120E+03  0.38670141121E+03  0.25500000920E-02 0. -1.
       -2   -1    0    0    0  501  0.00000000000E+00  0.00000000000E+00 -0.23773772527E+03  0.23773772528E+03  0.25500000920E-02 0.  1.
    10030    2    1    2    0    0  0.00000000000E+00  0.00000000000E+00  0.14896368593E+03  0.62443913649E+03  0.60641079760E+03 0.  0.
        1    1    3    3  502    0 -0.11764879015E+03  0.82744913377E+02 -0.20037216659E+03  0.24665150249E+03  0.50400001928E-02 0.  1.
       -1    1    3    3    0  502  0.11764879015E+03 -0.82744913377E+02  0.34933585252E+03  0.37778763399E+03  0.50400001928E-02 0. -1.
</event>
<event>
 5   0  0.3478183E-02  0.5907691E+03  0.7818609E-02  0.9924745E-01
       -1   -1    0    0    0  501  0.00000000000E+00  0.00000000000E+00  0.30689095073E+03  0.30689095077E+03  0.50400001928E-02 0. -1.
        1   -1    0    0  501    0  0.00000000000E+00  0.00000000000E+00 -0.28430952809E+03  0.28430952814E+03  0.50400001928E-02 0.  1.
    10030    2    1    2    0    0  0.00000000000E+00  0.00000000000E+00  0.22581422634E+02  0.59120047890E+03  0.59076906284E+03 0.  0.
        4    1    3    3  502    0  0.11686051751E+03  0.18320445488E+03  0.21151219366E+03  0.30324787519E+03  0.12699999809E+01 0. -1.
       -4    1    3    3    0  502 -0.11686051751E+03 -0.18320445488E+03 -0.18893077103E+03  0.28795260371E+03  0.12699999809E+01 0.  1.
</event>
<event>
 5   0  0.3703280E-02  0.6006456E+03  0.7818609E-02  0.9904067E-01
        1   -1    0    0  501    0  0.00000000000E+00  0.00000000000E+00  0.14781484767E+04  0.14781484767E+04  0.50400001928E-02 0.  1.
       -1   -1    0    0    0  501  0.00000000000E+00  0.00000000000E+00 -0.61018089639E+02  0.61018089847E+02  0.50400001928E-02 0. -1.
    10030    2    1    2    0    0  0.00000000000E+00  0.00000000000E+00  0.14171303870E+04  0.15391665665E+04  0.60064564068E+03 0.  0.
        5    1    3    3  502    0  0.20303792817E+02  0.96964135568E+01 -0.58760672983E+02  0.63096522299E+02  0.46999998093E+01 0. -1.
       -5    1    3    3    0  502 -0.20303792817E+02 -0.96964135568E+01  0.14758910600E+04  0.14760700442E+04  0.46999998093E+01 0.  1.
</event>
<event>
 5   0  0.2388000E-02  0.6284948E+03  0.7818609E-02  0.9847991E-01
       -3   -1    0    0    0  501  0.00000000000E+00  0.00000000000E+00  0.65943718215E+03  0.65943718988E+03  0.10100000352E+00 0. -1.
        3   -1    0    0  501    0  0.00000000000E+00  0.00000000000E+00 -0.14975104122E+03  0.14975107528E+03  0.10100000352E+00 0.  1.
    10030    2    1    2    0    0  0.00000000000E+00  0.00000000000E+00  0.50968614093E+03  0.80918826516E+03  0.62849477820E+03 0.  0.
        1    1    3    3  502    0 -0.19643130734E+03 -0.15483098178E+03  0.49978513507E+03  0.55887661669E+03  0.50400001928E-02 0. -1.
       -1    1    3    3    0  502  0.19643130734E+03  0.15483098178E+03  0.99010058603E+01  0.25031164847E+03  0.50400001928E-02 0.  1.
</event>
<event>
 5   0  0.2388000E-02  0.6002641E+03  0.7818609E-02  0.9904858E-01
        3   -1    0    0  501    0  0.00000000000E+00  0.00000000000E+00  0.16942040042E+03  0.16942043053E+03  0.10100000352E+00 0. -1.
       -3   -1    0    0    0  501  0.00000000000E+00  0.00000000000E+00 -0.53169058357E+03  0.53169059316E+03  0.10100000352E+00 0.  1.
    10030    2    1    2    0    0  0.00000000000E+00  0.00000000000E+00 -0.36227018315E+03  0.70111102369E+03  0.60026409350E+03 0.  0.
        5    1    3    3  502    0  0.13567760876E+03  0.21735497388E+03 -0.36360396668E+03  0.44483877166E+03  0.46999998093E+01 0.  1.
       -5    1    3    3    0  502 -0.13567760876E+03 -0.21735497388E+03  0.13337835297E+01  0.25627225204E+03  0.46999998093E+01 0. -1.
</event>
<event>
 5   0  0.2388000E-02  0.5950072E+03  0.7818609E-02  0.9915819E-01
        4   -1    0    0  501    0  0.00000000000E+00  0.00000000000E+00  0.79905040196E+02  0.79915132163E+02  0.12699999809E+01 0. -1.
       -4   -1    0    0    0  501  0.00000000000E+00  0.00000000000E+00 -0.11075893221E+04  0.11075900502E+04  0.12699999809E+01 0.  1.
    10030    2    1    2    0    0  0.00000000000E+00  0.00000000000E+00 -0.10276842819E+04  0.11875051824E+04  0.59500720575E+03 0.  0.
        5    1    3    3  502    0  0.20525171779E+03  0.13556917710E+03 -0.18000884625E+03  0.30484839537E+03  0.46999998093E+01 0. -1.
       -5    1    3    3    0  502 -0.20525171779E+03 -0.13556917710E+03 -0.84767543564E+03  0.88265678699E+03  0.46999998093E+01 0.  1.
</event>
<event>
 5   0  0.2388000E-02  0.6017348E+03  0.7818609E-02  0.9901813E-01
       -3   -1    0    0    0  501  0.00000000000E+00  0.00000000000E+00  0.25467459687E+03  0.25467461690E+03  0.10100000352E+00 0.  1.
        3   -1    0    0  501    0  0.00000000000E+00  0.00000000000E+00 -0.35543859864E+03  0.35543861299E+03  0.10100000352E+00 0. -1.
    10030    2    1    2    0    0  0.00000000000E+00  0.00000000000E+00 -0.10076400177E+03  0.61011322988E+03  0.60173479975E+03 0.  0.
        3    1    3    3  502    0 -0.22423412729E+03  0.65236715031E+02 -0.24271885252E+03  0.33682224451E+03  0.10100000352E+00 0.  1.
       -3    1    3    3    0  502  0.22423412729E+03 -0.65236715031E+02  0.14195485075E+03  0.27329098537E+03  0.10100000352E+00 0. -1.
</event>
<event>
 5   0  0.3767635E-02  0.5930775E+03  0.7818609E-02  0.9919873E-01
       -1   -1    0    0    0  501  0.00000000000E+00  0.00000000000E+00  0.19649966835E+03  0.19649966841E+03  0.50400001928E-02 0. -1.
        1   -1    0    0  501    0  0.00000000000E+00  0.00000000000E+00 -0.44750832226E+03  0.44750832229E+03  0.50400001928E-02 0.  1.
    10030    2    1    2    0    0  0.00000000000E+00  0.00000000000E+00 -0.25100865391E+03  0.64400799070E+03  0.59307752254E+03 0.  0.
        2    1    3    3  502    0  0.19719262427E+03  0.18354397215E+03  0.90824790007E+01  0.26954742107E+03  0.25500000920E-02 0. -1.
       -2    1    3    3    0  502 -0.19719262427E+03 -0.18354397215E+03 -0.26009113291E+03  0.37446056962E+03  0.25500000920E-02 0.  1.
</event>
<event>
 5   0  0.2388000E-02  0.5854814E+03  0.7818609E-02  0.9935994E-01
       -3   -1    0    0    0  501  0.00000000000E+00  0.00000000000E+00  0.11056617096E+04  0.11056617142E+04  0.10100000352E+00 0.  1.
        3   -1    0    0  501    0  0.00000000000E+00  0.00000000000E+00 -0.77507509513E+02  0.77507575320E+02  0.10100000352E+00 0. -1.
    10030    2    1    2    0    0  0.00000000000E+00  0.00000000000E+00  0.10281542001E+04  0.11831692895E+04  0.58548143313E+03 0.  0.
        1    1    3    3  502    0 -0.97433458621E+02  0.48577906477E+02 -0.35073511786E+02  0.11438200519E+03  0.50400001928E-02 0. -1.
       -1    1    3    3    0  502  0.97433458621E+02 -0.48577906477E+02  0.10632277119E+04  0.10687872844E+04  0.50400001928E-02 0.  1.
</event>
<event>
 5   0  0.3703280E-02  0.6076738E+03  0.7818609E-02  0.9889612E-01
        1   -1    0    0  501    0  0.00000000000E+00  0.00000000000E+00  0.37536203329E+03  0.37536203333E+03  0.50400001928E-02 0. -1.
       -1   -1    0    0    0  501  0.00000000000E+00  0.00000000000E+00 -0.24594084708E+03  0.24594084713E+03  0.50400001928E-02 0.  1.
    10030    2    1    2    0    0  0.00000000000E+00  0.00000000000E+00  0.12942118621E+03  0.62130288046E+03  0.60767378241E+03 0.  0.
        5    1    3    3  502    0 -0.13841639264E+03 -0.27026285001E+03  0.54815694142E+02  0.30859027232E+03  0.46999998093E+01 0.  1.
       -5    1    3    3    0  502  0.13841639264E+03  0.27026285001E+03  0.74605492070E+02  0.31271260814E+03  0.46999998093E+01 0. -1.
</event>
<event>
 5   0  0.5755078E-02  0.6112013E+03  0.7818609E-02  0.9882436E-01
        2   -1    0    0  501    0  0.00000000000E+00  0.00000000000E+00  0.11349119989E+04  0.11349119989E+04  0.25500000920E-02 0.  1.
       -2   -1    0    0    0  501  0.00000000000E+00  0.00000000000E+00 -0.82289862382E+02  0.82289862422E+02  0.25500000920E-02 0. -1.
    10030    2    1    2    0    0  0.00000000000E+00  0.00000000000E+00  0.10526221365E+04  0.12172018613E+04  0.61120128347E+03 0.  0.
        2    1    3    3  502    0  0.19497383222E+03  0.21668168075E+03  0.34350557697E+03  0.45051284936E+03  0.25500000920E-02 0. -1.
       -2    1    3    3    0  502 -0.19497383222E+03 -0.21668168075E+03  0.70911655951E+03  0.76668901193E+03  0.25500000920E-02 0.  1.
</event>
<event>
 5   0  0.3478183E-02  0.6345718E+03  0.7818609E-02  0.9836168E-01
       -1   -1    0    0    0  501  0.00000000000E+00  0.00000000000E+00  0.99819681866E+02  0.99819681993E+02  0.50400001928E-02 0.  1.
        1   -1    0    0  501    0  0.00000000000E+00  0.00000000000E+00 -0.10085218614E+04  0.10085218614E+04  0.50400001928E-02 0. -1.
    10030    2    1    2    0    0  0.00000000000E+00  0.00000000000E+00 -0.90870217953E+03  0.11083415434E+04  0.63457176564E+03 0.  0.
        4    1    3    3  502    0  0.17431537120E+03  0.13884593071E+03 -0.59895722566E+02  0.23076644382E+03  0.12699999809E+01 0.  1.
       -4    1    3    3    0  502 -0.17431537120E+03 -0.13884593071E+03 -0.84880645696E+03  0.87757509957E+03  0.12699999809E+01 0. -1.
</event>
<event>
 5   0  0.3651984E-02  0.6010270E+03  0.7818609E-02  0.9903278E-01
       -1   -1    0    0    0  501  0.00000000000E+00  0.00000000000E+00  0.98338253916E+02  0.98338254045E+02  0.50400001928E-02 0.  1.
        1   -1    0    0  501    0  0.00000000000E+00  0.00000000000E+00 -0.91834421038E+03  0.91834421039E+03  0.50400001928E-02 0. -1.
    10030    2    1    2    0    0  0.00000000000E+00  0.00000000000E+00 -0.82000595646E+03  0.10166824644E+04  0.60102700843E+03 0.  0.
        1    1    3    3  502    0  0.17355348365E+03  0.62569072346E+02 -0.81127611686E+03  0.83198836429E+03  0.50400001928E-02 0. -1.
       -1    1    3    3    0  502 -0.17355348365E+03 -0.62569072346E+02 -0.87298395998E+01  0.18469410014E+03  0.50400001928E-02 0.  1.
</event>
<event>
 5   0  0.3651984E-02  0.6009361E+03  0.7818609E-02  0.9903466E-01
        1   -1    0    0  501    0  0.00000000000E+00  0.00000000000E+00  0.41395480985E+03  0.41395480988E+03  0.50400001928E-02 0. -1.
       -1   -1    0    0    0  501  0.00000000000E+00  0.00000000000E+00 -0.21809399646E+03  0.21809399652E+03  0.50400001928E-02 0.  1.
    10030    2    1    2    0    0  0.00000000000E+00  0.00000000000E+00  0.19586081339E+03  0.63204880640E+03  0.60093613259E+03 0.  0.
        1    1    3    3  502    0 -0.68954852095E+02 -0.17181566590E+02  0.40498902836E+03  0.41117647182E+03  0.50400001928E-02 0. -1.
       -1    1    3    3    0  502  0.68954852095E+02  0.17181566590E+02 -0.20912821497E+03  0.22087233458E+03  0.50400001928E-02 0.  1.
</event>
<event>
 5   0  0.2388000E-02  0.5801117E+03  0.7818609E-02  0.9947549E-01
       -3   -1    0    0    0  501  0.00000000000E+00  0.00000000000E+00  0.98138512468E+02  0.98138564440E+02  0.10100000352E+00 0.  1.
        3   -1    0    0  501    0  0.00000000000E+00  0.00000000000E+00 -0.85728185657E+03  0.85728186252E+03  0.10100000352E+00 0. -1.
    10030    2    1    2    0    0  0.00000000000E+00  0.00000000000E+00 -0.75914334410E+03  0.95542042696E+03  0.58011169214E+03 0.  0.
        4    1    3    3  502    0  0.11124237894E+03 -0.26327953717E+03 -0.46092212236E+03  0.54234840955E+03  0.12699999809E+01 0.  1.
       -4    1    3    3    0  502 -0.11124237894E+03  0.26327953717E+03 -0.29822122174E+03  0.41307201740E+03  0.12699999809E+01 0. -1.
</event>
<event>
 5   0  0.6007360E-02  0.5998166E+03  0.7818609E-02  0.9905787E-01
        2   -1    0    0  501    0  0.00000000000E+00  0.00000000000E+00  0.11542065537E+04  0.11542065537E+04  0.25500000920E-02 0.  1.
       -2   -1    0    0    0  501  0.00000000000E+00  0.00000000000E+00 -0.77927972487E+02  0.77927972529E+02  0.25500000920E-02 0. -1.
    10030    2    1    2    0    0  0.00000000000E+00  0.00000000000E+00  0.10762785812E+04  0.12321345262E+04  0.59981656058E+03 0.  0.
        4    1    3    3  502    0  0.47137600488E+02  0.16406454174E+02 -0.69331136635E+02  0.85437371948E+02  0.12699999809E+01 0. -1.
       -4    1    3    3    0  502 -0.47137600488E+02 -0.16406454174E+02  0.11456097178E+04  0.11466971542E+04  0.12699999809E+01 0.  1.
</event>
<event>
 5   0  0.3651984E-02  0.6069051E+03  0.7818609E-02  0.9891183E-01
       -1   -1    0    0    0  501  0.00000000000E+00  0.00000000000E+00  0.53484815105E+02  0.53484815343E+02  0.50400001928E-02 0. -1.
        1   -1    0    0  501    0  0.00000000000E+00  0.00000000000E+00 -0.17216745616E+04  0.17216745617E+04  0.50400001928E-02 0.  1.
    10030    2    1    2    0    0  0.00000000000E+00  0.00000000000E+00 -0.16681897465E+04  0.17751593770E+04  0.60690508588E+03 0.  0.
        1    1    3    3  502    0  0.56842519945E+02 -0.16055598706E+03 -0.99509506258E+02  0.19725982590E+03  0.50400001928E-02 0. -1.
       -1    1    3    3    0  502 -0.56842519945E+02  0.16055598706E+03 -0.15686802403E+04  0.15778995511E+04  0.50400001928E-02 0.  1.
</event>
<event>
 5   0  0.6007360E-02  0.6018611E+03  0.7818609E-02  0.9901552E-01
       -2   -1    0    0    0  501  0.00000000000E+00  0.00000000000E+00  0.11764046393E+03  0.11764046396E+03  0.25500000920E-02 0. -1.
        2   -1    0    0  501    0  0.00000000000E+00  0.00000000000E+00 -0.76979635118E+03  0.76979635118E+03  0.25500000920E-02 0.  1.
    10030    2    1    2    0    0  0.00000000000E+00  0.00000000000E+00 -0.65215588725E+03  0.88743681514E+03  0.60186111321E+03 0.  0.
        4    1    3    3  502    0 -0.86063864407E+02 -0.26285415580E+03 -0.50090450757E+03  0.57219422802E+03  0.12699999809E+01 0.  1.
       -4    1    3    3    0  502  0.86063864407E+02  0.26285415580E+03 -0.15125137968E+03  0.31524258712E+03  0.12699999809E+01 0. -1.
</event>
<event>
 5   0  0.5935451E-02  0.6009055E+03  0.7818609E-02  0.9903529E-01
       -2   -1    0    0    0  501  0.00000000000E+00  0.00000000000E+00  0.54381783230E+02  0.54381783289E+02  0.25500000920E-02 0. -1.
        2   -1    0    0  501    0  0.00000000000E+00  0.00000000000E+00 -0.16599651488E+04  0.16599651488E+04  0.25500000920E-02 0.  1.
    10030    2    1    2    0    0  0.00000000000E+00  0.00000000000E+00 -0.16055833656E+04  0.17143469321E+04  0.60090553316E+03 0.  0.
        3    1    3    3  502    0  0.62752075049E+02  0.29196767615E+03 -0.70864867126E+03  0.76900318355E+03  0.10100000352E+00 0. -1.
       -3    1    3    3    0  502 -0.62752075049E+02 -0.29196767615E+03 -0.89693469435E+03  0.94534374858E+03  0.10100000352E+00 0.  1.
</event>
<event>
 5   0  0.5872632E-02  0.6051823E+03  0.7818609E-02  0.9894712E-01
        2   -1    0    0  501    0  0.00000000000E+00  0.00000000000E+00  0.65749376156E+03  0.65749376156E+03  0.25500000920E-02 0. -1.
       -2   -1    0    0    0  501  0.00000000000E+00  0.00000000000E+00 -0.13925822628E+03  0.13925822630E+03  0.25500000920E-02 0.  1.
    10030    2    1    2    0    0  0.00000000000E+00  0.00000000000E+00  0.51823553528E+03  0.79675198787E+03  0.60518233628E+03 0.  0.
        1    1    3    3  502    0  0.12479179990E+03 -0.55634901948E+02  0.61456927371E+03  0.62957416391E+03  0.50400001928E-02 0. -1.
       -1    1    3    3    0  502 -0.12479179990E+03  0.55634901948E+02 -0.96333738437E+02  0.16717782396E+03  0.50400001928E-02 0.  1.
</event>
<event>
 5   0  0.6007360E-02  0.5961921E+03  0.7818609E-02  0.9913338E-01
       -2   -1    0    0    0  501  0.00000000000E+00  0.00000000000E+00  0.83431101091E+02  0.83431101130E+02  0.25500000920E-02 0.  1.
        2   -1    0    0  501    0  0.00000000000E+00  0.00000000000E+00 -0.10650855857E+04  0.10650855857E+04  0.25500000920E-02 0. -1.
    10030    2    1    2    0    0  0.00000000000E+00  0.00000000000E+00 -0.98165448466E+03  0.11485166869E+04  0.59619212742E+03 0.  0.
        4    1    3    3  502    0 -0.10878350157E+03 -0.52341022057E+01  0.43727189989E+02  0.11736663105E+03  0.12699999809E+01 0.  1.
       -4    1    3    3    0  502  0.10878350157E+03  0.52341022057E+01 -0.10253816746E+04  0.10311500558E+04  0.12699999809E+01 0. -1.
</event>
<event>
 5   0  0.3651984E-02  0.6003665E+03  0.7818609E-02  0.9904646E-01
        1   -1    0    0  501    0  0.00000000000E+00  0.00000000000E+00  0.22085982710E+03  0.22085982716E+03  0.50400001928E-02 0. -1.
       -1   -1    0    0    0  501  0.00000000000E+00  0.00000000000E+00 -0.40799625648E+03  0.40799625651E+03  0.50400001928E-02 0.  1.
    10030    2    1    2    0    0  0.00000000000E+00  0.00000000000E+00 -0.18713642938E+03  0.62885608366E+03  0.60036649703E+03 0.  0.
        1    1    3    3  502    0 -0.99151488381E+02  0.18345047054E+03  0.13260633142E+03  0.24712250393E+03  0.50400001928E-02 0. -1.
       -1    1    3    3    0  502  0.99151488381E+02 -0.18345047054E+03 -0.31974276080E+03  0.38173357973E+03  0.50400001928E-02 0.  1.
</event>
<event>
 5   0  0.5935451E-02  0.5927066E+03  0.7818609E-02  0.9920654E-01
       -2   -1    0    0    0  501  0.00000000000E+00  0.00000000000E+00  0.96778794037E+02  0.96778794070E+02  0.25500000920E-02 0. -1.
        2   -1    0    0  501    0  0.00000000000E+00  0.00000000000E+00 -0.90748485512E+03  0.90748485513E+03  0.25500000920E-02 0.  1.
    10030    2    1    2    0    0  0.00000000000E+00  0.00000000000E+00 -0.81070606109E+03  0.10042636492E+04  0.59270663875E+03 0.  0.
        3    1    3    3  502    0  0.19792970168E+03  0.47917389966E+02 -0.40559568116E+02  0.20764713298E+03  0.10100000352E+00 0. -1.
       -3    1    3    3    0  502 -0.19792970168E+03 -0.47917389966E+02 -0.77014649297E+03  0.79661651622E+03  0.10100000352E+00 0.  1.
</event>
<event>
 5   0  0.3651984E-02  0.5952240E+03  0.7818609E-02  0.9915364E-01
       -1   -1    0    0    0  501  0.00000000000E+00  0.00000000000E+00  0.19487328578E+03  0.19487328584E+03  0.50400001928E-02 0.  1.
        1   -1    0    0  501    0  0.00000000000E+00  0.00000000000E+00 -0.45451541732E+03  0.45451541734E+03  0.50400001928E-02 0. -1.
    10030    2    1    2    0    0  0.00000000000E+00  0.00000000000E+00 -0.25964213154E+03  0.64938870319E+03  0.59522403459E+03 0.  0.
        1    1    3    3  502    0 -0.16403380283E+03  0.70749179952E+02  0.12987418253E+03  0.22086158165E+03  0.50400001928E-02 0.  1.
       -1    1    3    3    0  502  0.16403380283E+03 -0.70749179952E+02 -0.38951631407E+03  0.42852712153E+03  0.50400001928E-02 0. -1.
</event>
<event>
 5   0  0.6007360E-02  0.5932754E+03  0.7818609E-02  0.9919456E-01
        2   -1    0    0  501    0  0.00000000000E+00  0.00000000000E+00  0.58108714190E+03  0.58108714190E+03  0.25500000920E-02 0. -1.
       -2   -1    0    0    0  501  0.00000000000E+00  0.00000000000E+00 -0.15142983963E+03  0.15142983965E+03  0.25500000920E-02 0.  1.
    10030    2    1    2    0    0  0.00000000000E+00  0.00000000000E+00  0.42965730227E+03  0.73251698155E+03  0.59327542581E+03 0.  0.
        4    1    3    3  502    0 -0.13319269845E+03  0.14433892441E+03  0.48930519548E+03  0.52725250805E+03  0.12699999809E+01 0. -1.
       -4    1    3    3    0  502  0.13319269845E+03 -0.14433892441E+03 -0.59647893206E+02  0.20526447351E+03  0.12699999809E+01 0.  1.
</event>
<event>
 5   0  0.5755078E-02  0.5836192E+03  0.7818609E-02  0.9939986E-01
        2   -1    0    0  501    0  0.00000000000E+00  0.00000000000E+00  0.34301291119E+03  0.34301291120E+03  0.25500000920E-02 0. -1.
       -2   -1    0    0    0  501  0.00000000000E+00  0.00000000000E+00 -0.24824965821E+03  0.24824965822E+03  0.25500000920E-02 0.  1.
    10030    2    1    2    0    0  0.00000000000E+00  0.00000000000E+00  0.94763252974E+02  0.59126256942E+03  0.58361918396E+03 0.  0.
        2    1    3    3  502    0 -0.21240412002E+03 -0.19837379961E+03  0.73900062210E+02  0.29988146621E+03  0.25500000920E-02 0. -1.
       -2    1    3    3    0  502  0.21240412002E+03  0.19837379961E+03  0.20863190764E+02  0.29138110321E+03  0.25500000920E-02 0.  1.
</event>
<event>
 5   0  0.5872632E-02  0.5958921E+03  0.7818609E-02  0.9913966E-01
       -2   -1    0    0    0  501  0.00000000000E+00  0.00000000000E+00  0.68550840788E+02  0.68550840836E+02  0.25500000920E-02 0. -1.
        2   -1    0    0  501    0  0.00000000000E+00  0.00000000000E+00 -0.12949781584E+04  0.12949781584E+04  0.25500000920E-02 0.  1.
    10030    2    1    2    0    0  0.00000000000E+00  0.00000000000E+00 -0.12264273176E+04  0.13635289992E+04  0.59589207611E+03 0.  0.
        1    1    3    3  502    0 -0.22006227651E+03 -0.82129465157E+00 -0.15360842849E+03  0.26837218447E+03  0.50400001928E-02 0. -1.
       -1    1    3    3    0  502  0.22006227651E+03  0.82129465157E+00 -0.10728188891E+04  0.10951568148E+04  0.50400001928E-02 0.  1.
</event>
<event>
 5   0  0.5935451E-02  0.6087427E+03  0.7818609E-02  0.9887432E-01
       -2   -1    0    0    0  501  0.00000000000E+00  0.00000000000E+00  0.11340619251E+03  0.11340619254E+03  0.25500000920E-02 0. -1.
        2   -1    0    0  501    0  0.00000000000E+00  0.00000000000E+00 -0.81690352528E+03  0.81690352528E+03  0.25500000920E-02 0.  1.
    10030    2    1    2    0    0  0.00000000000E+00  0.00000000000E+00 -0.70349733277E+03  0.93030971782E+03  0.60874269923E+03 0.  0.
        3    1    3    3  502    0  0.34541798760E+02 -0.25653036217E+03 -0.59646379071E+03  0.65020767945E+03  0.10100000352E+00 0.  1.
       -3    1    3    3    0  502 -0.34541798760E+02  0.25653036217E+03 -0.10703354205E+03  0.28010203838E+03  0.10100000352E+00 0. -1.
</event>
<event>
 5   0  0.2388000E-02  0.5841740E+03  0.7818609E-02  0.9938795E-01
       -3   -1    0    0    0  501  0.00000000000E+00  0.00000000000E+00  0.22963874559E+03  0.22963876780E+03  0.10100000352E+00 0. -1.
        3   -1    0    0  501    0  0.00000000000E+00  0.00000000000E+00 -0.37151746044E+03  0.37151747417E+03  0.10100000352E+00 0.  1.
    10030    2    1    2    0    0  0.00000000000E+00  0.00000000000E+00 -0.14187871485E+03  0.60115624197E+03  0.58417399594E+03 0.  0.
        4    1    3    3  502    0  0.70126623790E+02 -0.14009008507E+03  0.18274317618E+03  0.24070657789E+03  0.12699999809E+01 0. -1.
       -4    1    3    3    0  502 -0.70126623790E+02  0.14009008507E+03 -0.32462189103E+03  0.36044966408E+03  0.12699999809E+01 0.  1.
</event>
<event>
 5   0  0.5755078E-02  0.5945336E+03  0.7818609E-02  0.9916812E-01
        2   -1    0    0  501    0  0.00000000000E+00  0.00000000000E+00  0.18451038632E+04  0.18451038632E+04  0.25500000920E-02 0. -1.
       -2   -1    0    0    0  501  0.00000000000E+00  0.00000000000E+00 -0.47892992678E+02  0.47892992746E+02  0.25500000920E-02 0.  1.
    10030    2    1    2    0    0  0.00000000000E+00  0.00000000000E+00  0.17972108705E+04  0.18929968559E+04  0.59453358484E+03 0.  0.
        2    1    3    3  502    0 -0.13127773653E+03 -0.10684483500E+03  0.16766880322E+04  0.16852099039E+04  0.25500000920E-02 0. -1.
       -2    1    3    3    0  502  0.13127773653E+03  0.10684483500E+03  0.12052283831E+03  0.20778695204E+03  0.25500000920E-02 0.  1.
</event>
<event>
 5   0  0.3767635E-02  0.5890906E+03  0.7818609E-02  0.9928302E-01
        1   -1    0    0  501    0  0.00000000000E+00  0.00000000000E+00  0.44854066188E+03  0.44854066191E+03  0.50400001928E-02 0. -1.
       -1   -1    0    0    0  501  0.00000000000E+00  0.00000000000E+00 -0.19342043428E+03  0.19342043434E+03  0.50400001928E-02 0.  1.
    10030    2    1    2    0    0  0.00000000000E+00  0.00000000000E+00  0.25512022761E+03  0.64196109626E+03  0.58909058605E+03 0.  0.
        2    1    3    3  502    0  0.17533473911E+03 -0.22754676839E+03  0.19849540776E+03  0.34917077406E+03  0.25500000920E-02 0. -1.
       -2    1    3    3    0  502 -0.17533473911E+03  0.22754676839E+03  0.56624819843E+02  0.29279032220E+03  0.25500000920E-02 0.  1.
</event>
<event>
 5   0  0.3767635E-02  0.6038153E+03  0.7818609E-02  0.9897522E-01
       -1   -1    0    0    0  501  0.00000000000E+00  0.00000000000E+00  0.17790065326E+03  0.17790065333E+03  0.50400001928E-02 0. -1.
        1   -1    0    0  501    0  0.00000000000E+00  0.00000000000E+00 -0.51235458119E+03  0.51235458121E+03  0.50400001928E-02 0.  1.
    10030    2    1    2    0    0  0.00000000000E+00  0.00000000000E+00 -0.33445392793E+03  0.69025523454E+03  0.60381525230E+03 0.  0.
        2    1    3    3  502    0 -0.13451039502E+03 -0.23488658385E+03 -0.14353742784E+02  0.27105494569E+03  0.25500000920E-02 0. -1.
       -2    1    3    3    0  502  0.13451039502E+03  0.23488658385E+03 -0.32010018514E+03  0.41920028886E+03  0.25500000920E-02 0.  1.
</event>
<event>
 5   0  0.3478183E-02  0.5931830E+03  0.7818609E-02  0.9919651E-01
        1   -1    0    0  501    0  0.00000000000E+00  0.00000000000E+00  0.38686114489E+03  0.38686114492E+03  0.50400001928E-02 0.  1.
       -1   -1    0    0    0  501  0.00000000000E+00  0.00000000000E+00 -0.22738521322E+03  0.22738521327E+03  0.50400001928E-02 0. -1.
    10030    2    1    2    0    0  0.00000000000E+00  0.00000000000E+00  0.15947593168E+03  0.61424635820E+03  0.59318295304E+03 0.  0.
        4    1    3    3  502    0 -0.34915582551E+02  0.26093986120E+03 -0.61699775776E+02  0.27040189403E+03  0.12699999809E+01 0. -1.
       -4    1    3    3    0  502  0.34915582551E+02 -0.26093986120E+03  0.22117570745E+03  0.34384446416E+03  0.12699999809E+01 0.  1.
</event>
<event>
 5   0  0.3703280E-02  0.6133440E+03  0.7818609E-02  0.9878102E-01
        1   -1    0    0  501    0  0.00000000000E+00  0.00000000000E+00  0.38847245706E+03  0.38847245709E+03  0.50400001928E-02 0.  1.
       -1   -1    0    0    0  501  0.00000000000E+00  0.00000000000E+00 -0.24209625864E+03  0.24209625869E+03  0.50400001928E-02 0. -1.
    10030    2    1    2    0    0  0.00000000000E+00  0.00000000000E+00  0.14637619842E+03  0.63056871578E+03  0.61334404200E+03 0.  0.
        5    1    3    3  502    0 -0.24150222462E+03  0.70492976934E+02  0.25341977893E+03  0.35712219008E+03  0.46999998093E+01 0.  1.
       -5    1    3    3    0  502  0.24150222462E+03 -0.70492976934E+02 -0.10704358051E+03  0.27344652570E+03  0.46999998093E+01 0. -1.
</event>
<event>
 5   0  0.3703280E-02  0.5964961E+03  0.7818609E-02  0.9912702E-01
       -1   -1    0    0    0  501  0.00000000000E+00  0.00000000000E+00  0.15091471714E+03  0.15091471723E+03  0.50400001928E-02 0. -1.
        1   -1    0    0  501    0  0.00000000000E+00  0.00000000000E+00 -0.58941831533E+03  0.58941831535E+03  0.50400001928E-02 0.  1.
    10030    2    1    2    0    0  0.00000000000E+00  0.00000000000E+00 -0.43850359818E+03  0.74033303257E+03  0.59649609680E+03 0.  0.
        5    1    3    3  502    0 -0.13712395932E+03 -0.24342034767E+03 -0.89831781468E+02  0.29351028064E+03  0.46999998093E+01 0. -1.
       -5    1    3    3    0  502  0.13712395932E+03  0.24342034767E+03 -0.34867181672E+03  0.44682275194E+03  0.46999998093E+01 0.  1.
</event>
<event>
 5   0  0.5935451E-02  0.5927507E+03  0.7818609E-02  0.9920561E-01
       -2   -1    0    0    0  501  0.00000000000E+00  0.00000000000E+00  0.99672492013E+02  0.99672492046E+02  0.25500000920E-02 0.  1.
        2   -1    0    0  501    0  0.00000000000E+00  0.00000000000E+00 -0.88126960386E+03  0.88126960386E+03  0.25500000920E-02 0. -1.
    10030    2    1    2    0    0  0.00000000000E+00  0.00000000000E+00 -0.78159711184E+03  0.98094209591E+03  0.59275066451E+03 0.  0.
        3    1    3    3  502    0  0.10850264491E+03  0.27482302154E+03 -0.42917686711E+03  0.52105019968E+03  0.10100000352E+00 0. -1.
       -3    1    3    3    0  502 -0.10850264491E+03 -0.27482302154E+03 -0.35242024473E+03  0.45989189623E+03  0.10100000352E+00 0.  1.
</event>
<event>
 5   0  0.5935451E-02  0.6027292E+03  0.7818609E-02  0.9899760E-01
       -2   -1    0    0    0  501  0.00000000000E+00  0.00000000000E+00  0.62499301170E+02  0.62499301222E+02  0.25500000920E-02 0. -1.
        2   -1    0    0  501    0  0.00000000000E+00  0.00000000000E+00 -0.14531463906E+04  0.14531463906E+04  0.25500000920E-02 0.  1.
    10030    2    1    2    0    0  0.00000000000E+00  0.00000000000E+00 -0.13906470894E+04  0.15156456918E+04  0.60272923921E+03 0.  0.
        3    1    3    3  502    0 -0.19572904032E+03 -0.18757932086E+03 -0.36433794116E+03  0.45413434621E+03  0.10100000352E+00 0. -1.
       -3    1    3    3    0  502  0.19572904032E+03  0.18757932086E+03 -0.10263091483E+04  0.10615113456E+04  0.10100000352E+00 0.  1.
</event>
<event>
 5   0  0.3703280E-02  0.5979750E+03  0.7818609E-02  0.9909616E-01
       -1   -1    0    0    0  501  0.00000000000E+00  0.00000000000E+00  0.10030470026E+04  0.10030470026E+04  0.50400001928E-02 0.  1.
        1   -1    0    0  501    0  0.00000000000E+00  0.00000000000E+00 -0.89121979272E+02  0.89121979415E+02  0.50400001928E-02 0. -1.
    10030    2    1    2    0    0  0.00000000000E+00  0.00000000000E+00  0.91392502332E+03  0.10921689820E+04  0.59797503045E+03 0.  0.
        5    1    3    3  502    0 -0.20516850154E+03 -0.11131579747E+03  0.11582211868E+03  0.26061882888E+03  0.46999998093E+01 0. -1.
       -5    1    3    3    0  502  0.20516850154E+03  0.11131579747E+03  0.79810290464E+03  0.83155015314E+03  0.46999998093E+01 0.  1.
</event>
<event>
 5   0  0.5872632E-02  0.5991316E+03  0.7818609E-02  0.9907209E-01
        2   -1    0    0  501    0  0.00000000000E+00  0.00000000000E+00  0.22123397603E+04  0.22123397603E+04  0.25500000920E-02 0.  1.
       -2   -1    0    0    0  501  0.00000000000E+00  0.00000000000E+00 -0.40563234945E+02  0.40563235025E+02  0.25500000920E-02 0. -1.
    10030    2    1    2    0    0  0.00000000000E+00  0.00000000000E+00  0.21717765253E+04  0.22529029953E+04  0.59913156340E+03 0.  0.
        1    1    3    3  502    0 -0.81944167838E+02  0.10501101543E+03  0.76916543094E+02  0.15381259582E+03  0.50400001928E-02 0. -1.
       -1    1    3    3    0  502  0.81944167838E+02 -0.10501101543E+03  0.20948599822E+04  0.20990903995E+04  0.50400001928E-02 0.  1.
</event>
<event>
 5   0  0.3767635E-02  0.5948321E+03  0.7818609E-02  0.9916186E-01
       -1   -1    0    0    0  501  0.00000000000E+00  0.00000000000E+00  0.19760602721E+03  0.19760602728E+03  0.50400001928E-02 0.  1.
        1   -1    0    0  501    0  0.00000000000E+00  0.00000000000E+00 -0.44763972653E+03  0.44763972656E+03  0.50400001928E-02 0. -1.
    10030    2    1    2    0    0  0.00000000000E+00  0.00000000000E+00 -0.25003369931E+03  0.64524575383E+03  0.59483210408E+03 0.  0.
        2    1    3    3  502    0 -0.25092698474E+03  0.57762565304E+02  0.36445388486E+02  0.26005601698E+03  0.25500000920E-02 0.  1.
       -2    1    3    3    0  502  0.25092698474E+03 -0.57762565304E+02 -0.28647908780E+03  0.38518973685E+03  0.25500000920E-02 0. -1.
</event>
<event>
 5   0  0.5935451E-02  0.6026973E+03  0.7818609E-02  0.9899826E-01
        2   -1    0    0  501    0  0.00000000000E+00  0.00000000000E+00  0.14374387872E+04  0.14374387872E+04  0.25500000920E-02 0. -1.
       -2   -1    0    0    0  501  0.00000000000E+00  0.00000000000E+00 -0.63175572257E+02  0.63175572308E+02  0.25500000920E-02 0.  1.
    10030    2    1    2    0    0  0.00000000000E+00  0.00000000000E+00  0.13742632149E+04  0.15006143595E+04  0.60269733036E+03 0.  0.
        3    1    3    3  502    0  0.19804409267E+03  0.46155800271E+02  0.13340764516E+03  0.24320655939E+03  0.10100000352E+00 0.  1.
       -3    1    3    3    0  502 -0.19804409267E+03 -0.46155800271E+02  0.12408555698E+04  0.12574078001E+04  0.10100000352E+00 0. -1.
</event>
<event>
 5   0  0.6007360E-02  0.5879019E+03  0.7818609E-02  0.9930829E-01
        2   -1    0    0  501    0  0.00000000000E+00  0.00000000000E+00  0.23824603394E+04  0.23824603394E+04  0.25500000920E-02 0.  1.
       -2   -1    0    0    0  501  0.00000000000E+00  0.00000000000E+00 -0.36268040118E+02  0.36268040208E+02  0.25500000920E-02 0. -1.
    10030    2    1    2    0    0  0.00000000000E+00  0.00000000000E+00  0.23461922993E+04  0.24187283796E+04  0.58790192134E+03 0.  0.
        4    1    3    3  502    0  0.28688319706E+03 -0.60512060155E+02  0.12595795039E+04  0.12932539649E+04  0.12699999809E+01 0.  1.
       -4    1    3    3    0  502 -0.28688319706E+03  0.60512060155E+02  0.10866127953E+04  0.11254744147E+04  0.12699999809E+01 0. -1.
</event>
<event>
 5   0  0.5999117E-02  0.5942533E+03  0.7818609E-02  0.9917401E-01
        2   -1    0    0  501    0  0.00000000000E+00  0.00000000000E+00  0.33986057856E+03  0.33986057857E+03  0.25500000920E-02 0.  1.
       -2   -1    0    0    0  501  0.00000000000E+00  0.00000000000E+00 -0.25976605181E+03  0.25976605183E+03  0.25500000920E-02 0. -1.
    10030    2    1    2    0    0  0.00000000000E+00  0.00000000000E+00  0.80094526750E+02  0.59962663040E+03  0.59425328158E+03 0.  0.
        5    1    3    3  502    0  0.14992464628E+03 -0.10374840757E+02 -0.21854549175E+03  0.26527204686E+03  0.46999998093E+01 0. -1.
       -5    1    3    3    0  502 -0.14992464628E+03  0.10374840757E+02  0.29864001850E+03  0.33435458354E+03  0.46999998093E+01 0.  1.
</event>
<event>
 5   0  0.3651984E-02  0.6025454E+03  0.7818609E-02  0.9900139E-01
        1   -1    0    0  501    0  0.00000000000E+00  0.00000000000E+00  0.85662931460E+03  0.85662931462E+03  0.50400001928E-02 0.  1.
       -1   -1    0    0    0  501  0.00000000000E+00  0.00000000000E+00 -0.10595627485E+03  0.10595627497E+03  0.50400001928E-02 0. -1.
    10030    2    1    2    0    0  0.00000000000E+00  0.00000000000E+00  0.75067303975E+03  0.96258558959E+03  0.60254543786E+03 0.  0.
        1    1    3    3  502    0 -0.10313767164E+03  0.12159889283E+03 -0.33024587409E+02  0.16283210202E+03  0.50400001928E-02 0. -1.
       -1    1    3    3    0  502  0.10313767164E+03 -0.12159889283E+03  0.78369762716E+03  0.79975348757E+03  0.50400001928E-02 0.  1.
</event>
<event>
 5   0  0.2388000E-02  0.6031444E+03  0.7818609E-02  0.9898904E-01
        3   -1    0    0  501    0  0.00000000000E+00  0.00000000000E+00  0.84387924879E+02  0.84387985320E+02  0.10100000352E+00 0. -1.
       -3   -1    0    0    0  501  0.00000000000E+00  0.00000000000E+00 -0.10777105345E+04  0.10777105392E+04  0.10100000352E+00 0.  1.
    10030    2    1    2    0    0  0.00000000000E+00  0.00000000000E+00 -0.99332260958E+03  0.11620985245E+04  0.60314440557E+03 0.  0.
        3    1    3    3  502    0 -0.70838768659E+02  0.16895432955E+02 -0.10605138491E+04  0.10630113928E+04  0.10100000352E+00 0.  1.
       -3    1    3    3    0  502  0.70838768659E+02 -0.16895432955E+02  0.67191239550E+02  0.99087131723E+02  0.10100000352E+00 0. -1.
</event>
<event>
 5   0  0.3651984E-02  0.6220721E+03  0.7818609E-02  0.9860643E-01
        1   -1    0    0  501    0  0.00000000000E+00  0.00000000000E+00  0.33976856864E+03  0.33976856868E+03  0.50400001928E-02 0.  1.
       -1   -1    0    0    0  501  0.00000000000E+00  0.00000000000E+00 -0.28473331337E+03  0.28473331342E+03  0.50400001928E-02 0. -1.
    10030    2    1    2    0    0  0.00000000000E+00  0.00000000000E+00  0.55035255267E+02  0.62450188209E+03  0.62207211914E+03 0.  0.
        1    1    3    3  502    0 -0.13427506085E+03  0.49699486462E+02  0.30471857488E+03  0.33667973034E+03  0.50400001928E-02 0.  1.
       -1    1    3    3    0  502  0.13427506085E+03 -0.49699486462E+02 -0.24968331961E+03  0.28782215175E+03  0.50400001928E-02 0. -1.
</event>
<event>
 5   0  0.3478183E-02  0.6036994E+03  0.7818609E-02  0.9897761E-01
        1   -1    0    0  501    0  0.00000000000E+00  0.00000000000E+00  0.13516158447E+03  0.13516158456E+03  0.50400001928E-02 0.  1.
       -1   -1    0    0    0  501  0.00000000000E+00  0.00000000000E+00 -0.67410601069E+03  0.67410601070E+03  0.50400001928E-02 0. -1.
    10030    2    1    2    0    0  0.00000000000E+00  0.00000000000E+00 -0.53894442622E+03  0.80926759527E+03  0.60369938397E+03 0.  0.
        4    1    3    3  502    0  0.16078412815E+03 -0.11128738693E+03 -0.57771821432E+03  0.60991504852E+03  0.12699999809E+01 0. -1.
       -4    1    3    3    0  502 -0.16078412815E+03  0.11128738693E+03  0.38773788103E+02  0.19935254675E+03  0.12699999809E+01 0.  1.
</event>
<event>
 5   0  0.3640827E-02  0.5981526E+03  0.7818609E-02  0.9909246E-01
        1   -1    0    0  501    0  0.00000000000E+00  0.00000000000E+00  0.79681953825E+03  0.79681953826E+03  0.50400001928E-02 0. -1.
       -1   -1    0    0    0  501  0.00000000000E+00  0.00000000000E+00 -0.11225457351E+03  0.11225457362E+03  0.50400001928E-02 0.  1.
    10030    2    1    2    0    0  0.00000000000E+00  0.00000000000E+00  0.68456496474E+03  0.90907411189E+03  0.59815261427E+03 0.  0.
        3    1    3    3  502    0  0.78628882306E+02  0.28651254374E+03  0.39437179554E+03  0.49376215142E+03  0.10100000352E+00 0.  1.
       -3    1    3    3    0  502 -0.78628882306E+02 -0.28651254374E+03  0.29019316920E+03  0.41531196047E+03  0.10100000352E+00 0. -1.
</event>
<event>
 5   0  0.5935451E-02  0.5988147E+03  0.7818609E-02  0.9907868E-01
       -2   -1    0    0    0  501  0.00000000000E+00  0.00000000000E+00  0.72223154035E+02  0.72223154080E+02  0.25500000920E-02 0. -1.
        2   -1    0    0  501    0  0.00000000000E+00  0.00000000000E+00 -0.12412189567E+04  0.12412189567E+04  0.25500000920E-02 0.  1.
    10030    2    1    2    0    0  0.00000000000E+00  0.00000000000E+00 -0.11689958027E+04  0.13134421108E+04  0.59881465559E+03 0.  0.
        3    1    3    3  502    0  0.42055462061E+02  0.18976686111E+03 -0.10840192933E+04  0.11013073875E+04  0.10100000352E+00 0.  1.
       -3    1    3    3    0  502 -0.42055462061E+02 -0.18976686111E+03 -0.84976509433E+02  0.21213472328E+03  0.10100000352E+00 0. -1.
</event>
<event>
 5   0  0.3767635E-02  0.6048665E+03  0.7818609E-02  0.9895361E-01
        1   -1    0    0  501    0  0.00000000000E+00  0.00000000000E+00  0.52067864453E+03  0.52067864456E+03  0.50400001928E-02 0.  1.
       -1   -1    0    0    0  501  0.00000000000E+00  0.00000000000E+00 -0.17566662096E+03  0.17566662104E+03  0.50400001928E-02 0. -1.
    10030    2    1    2    0    0  0.00000000000E+00  0.00000000000E+00  0.34501202357E+03  0.69634526559E+03  0.60486645841E+03 0.  0.
        2    1    3    3  502    0 -0.71003987594E+01 -0.14708755186E+03 -0.13160543602E+03  0.19749722624E+03  0.25500000920E-02 0. -1.
       -2    1    3    3    0  502  0.71003987594E+01  0.14708755186E+03  0.47661745959E+03  0.49884803935E+03  0.25500000920E-02 0.  1.
</event>
<event>
 5   0  0.3478183E-02  0.6049945E+03  0.7818609E-02  0.9895098E-01
       -1   -1    0    0    0  501  0.00000000000E+00  0.00000000000E+00  0.26178118978E+03  0.26178118983E+03  0.50400001928E-02 0.  1.
        1   -1    0    0  501    0  0.00000000000E+00  0.00000000000E+00 -0.34954606792E+03  0.34954606796E+03  0.50400001928E-02 0. -1.
    10030    2    1    2    0    0  0.00000000000E+00  0.00000000000E+00 -0.87764878140E+02  0.61132725779E+03  0.60499449772E+03 0.  0.
        4    1    3    3  502    0  0.25712100647E+03  0.47159154777E+02 -0.19768532953E+03  0.32774426045E+03  0.12699999809E+01 0. -1.
       -4    1    3    3    0  502 -0.25712100647E+03 -0.47159154777E+02  0.10992045139E+03  0.28358299734E+03  0.12699999809E+01 0.  1.
</event>
<event>
 5   0  0.3640827E-02  0.6235882E+03  0.7818609E-02  0.9857641E-01
       -1   -1    0    0    0  501  0.00000000000E+00  0.00000000000E+00  0.20637101110E+03  0.20637101116E+03  0.50400001928E-02 0. -1.
        1   -1    0    0  501    0  0.00000000000E+00  0.00000000000E+00 -0.47107181298E+03  0.47107181301E+03  0.50400001928E-02 0.  1.
    10030    2    1    2    0    0  0.00000000000E+00  0.00000000000E+00 -0.26470080188E+03  0.67744282417E+03  0.62358821790E+03 0.  0.
        3    1    3    3  502    0 -0.72236715779E+02  0.12468514677E+03 -0.43272721626E+03  0.45608922682E+03  0.10100000352E+00 0.  1.
       -3    1    3    3    0  502  0.72236715779E+02 -0.12468514677E+03  0.16802641438E+03  0.22135359735E+03  0.10100000352E+00 0. -1.
</event>
<event>
 5   0  0.3478183E-02  0.6046977E+03  0.7818609E-02  0.9895708E-01
       -1   -1    0    0    0  501  0.00000000000E+00  0.00000000000E+00  0.40778508062E+03  0.40778508065E+03  0.50400001928E-02 0. -1.
        1   -1    0    0  501    0  0.00000000000E+00  0.00000000000E+00 -0.22417400013E+03  0.22417400019E+03  0.50400001928E-02 0.  1.
    10030    2    1    2    0    0  0.00000000000E+00  0.00000000000E+00  0.18361108049E+03  0.63195908084E+03  0.60469765253E+03 0.  0.
        4    1    3    3  502    0 -0.16944817100E+03  0.17341586811E+03 -0.96968498859E+02  0.26113262653E+03  0.12699999809E+01 0.  1.
       -4    1    3    3    0  502  0.16944817100E+03 -0.17341586811E+03  0.28057957935E+03  0.37082645431E+03  0.12699999809E+01 0. -1.
</event>
<event>
 5   0  0.5755078E-02  0.5975212E+03  0.7818609E-02  0.9910562E-01
       -2   -1    0    0    0  501  0.00000000000E+00  0.00000000000E+00  0.15092440586E+03  0.15092440588E+03  0.25500000920E-02 0.  1.
        2   -1    0    0  501    0  0.00000000000E+00  0.00000000000E+00 -0.59140794138E+03  0.59140794138E+03  0.25500000920E-02 0. -1.
    10030    2    1    2    0    0  0.00000000000E+00  0.00000000000E+00 -0.44048353552E+03  0.74233234726E+03  0.59752118685E+03 0.  0.
        2    1    3    3  502    0 -0.14178902689E+03 -0.24447193950E+03 -0.99872971510E+02  0.29974200205E+03  0.25500000920E-02 0. -1.
       -2    1    3    3    0  502  0.14178902689E+03  0.24447193950E+03 -0.34061056401E+03  0.44259034521E+03  0.25500000920E-02 0.  1.
</event>
<event>
 5   0  0.5999117E-02  0.6070773E+03  0.7818609E-02  0.9890831E-01
        2   -1    0    0  501    0  0.00000000000E+00  0.00000000000E+00  0.36763027025E+03  0.36763027026E+03  0.25500000920E-02 0. -1.
       -2   -1    0    0    0  501  0.00000000000E+00  0.00000000000E+00 -0.25062059700E+03  0.25062059702E+03  0.25500000920E-02 0.  1.
    10030    2    1    2    0    0  0.00000000000E+00  0.00000000000E+00  0.11700967325E+03  0.61825086728E+03  0.60707731901E+03 0.  0.
        5    1    3    3  502    0 -0.14249010437E+03 -0.26767140885E+03  0.45534058286E+02  0.30667059433E+03  0.46999998093E+01 0.  1.
       -5    1    3    3    0  502  0.14249010437E+03  0.26767140885E+03  0.71475614963E+02  0.31158027295E+03  0.46999998093E+01 0. -1.
</event>
<event>
 5   0  0.5935451E-02  0.5997950E+03  0.7818609E-02  0.9905831E-01
        2   -1    0    0  501    0  0.00000000000E+00  0.00000000000E+00  0.10448884737E+03  0.10448884740E+03  0.25500000920E-02 0.  1.
       -2   -1    0    0    0  501  0.00000000000E+00  0.00000000000E+00 -0.86074754669E+03  0.86074754669E+03  0.25500000920E-02 0. -1.
    10030    2    1    2    0    0  0.00000000000E+00  0.00000000000E+00 -0.75625869932E+03  0.96523639409E+03  0.59979502847E+03 0.  0.
        3    1    3    3  502    0 -0.34670815392E+02 -0.84030270833E+02 -0.83804305064E+03  0.84295866849E+03  0.10100000352E+00 0. -1.
       -3    1    3    3    0  502  0.34670815392E+02  0.84030270833E+02  0.81784351318E+02  0.12227772560E+03  0.10100000352E+00 0.  1.
</event>
<event>
 5   0  0.5999117E-02  0.6156105E+03  0.7818609E-02  0.9873538E-01
        2   -1    0    0  501    0  0.00000000000E+00  0.00000000000E+00  0.97255842110E+03  0.97255842110E+03  0.25500000920E-02 0. -1.
       -2   -1    0    0    0  501  0.00000000000E+00  0.00000000000E+00 -0.97417345366E+02  0.97417345400E+02  0.25500000920E-02 0.  1.
    10030    2    1    2    0    0  0.00000000000E+00  0.00000000000E+00  0.87514107573E+03  0.10699757665E+04  0.61561046000E+03 0.  0.
        5    1    3    3  502    0  0.53296609128E+01  0.22575726875E+03  0.74121197778E+02  0.23771998577E+03  0.46999998093E+01 0.  1.
       -5    1    3    3    0  502 -0.53296609128E+01 -0.22575726875E+03  0.80101987795E+03  0.83225578073E+03  0.46999998093E+01 0. -1.
</event>
<event>
 5   0  0.3478183E-02  0.6002135E+03  0.7818609E-02  0.9904963E-01
        1   -1    0    0  501    0  0.00000000000E+00  0.00000000000E+00  0.46543619235E+03  0.46543619238E+03  0.50400001928E-02 0.  1.
       -1   -1    0    0    0  501  0.00000000000E+00  0.00000000000E+00 -0.19350461892E+03  0.19350461899E+03  0.50400001928E-02 0. -1.
    10030    2    1    2    0    0  0.00000000000E+00  0.00000000000E+00  0.27193157343E+03  0.65894081137E+03  0.60021347224E+03 0.  0.
        4    1    3    3  502    0  0.35198826165E+02 -0.35031148898E+02 -0.18895953057E+03  0.19538028521E+03  0.12699999809E+01 0. -1.
       -4    1    3    3    0  502 -0.35198826165E+02  0.35031148898E+02  0.46089110400E+03  0.46356052615E+03  0.12699999809E+01 0.  1.
</event>
<event>
 5   0  0.3640827E-02  0.5955791E+03  0.7818609E-02  0.9914621E-01
       -1   -1    0    0    0  501  0.00000000000E+00  0.00000000000E+00  0.12203495096E+03  0.12203495106E+03  0.50400001928E-02 0. -1.
        1   -1    0    0  501    0  0.00000000000E+00  0.00000000000E+00 -0.72666565838E+03  0.72666565840E+03  0.50400001928E-02 0.  1.
    10030    2    1    2    0    0  0.00000000000E+00  0.00000000000E+00 -0.60463070742E+03  0.84870060946E+03  0.59557907296E+03 0.  0.
        3    1    3    3  502    0  0.15246251652E+03 -0.21893578808E+03 -0.49083007538E+03  0.55865183374E+03  0.10100000352E+00 0.  1.
       -3    1    3    3    0  502 -0.15246251652E+03  0.21893578808E+03 -0.11380063204E+03  0.29004877572E+03  0.10100000352E+00 0. -1.
</event>
<event>
 5   0  0.3640827E-02  0.6032087E+03  0.7818609E-02  0.9898771E-01
        1   -1    0    0  501    0  0.00000000000E+00  0.00000000000E+00  0.10806536571E+04  0.10806536572E+04  0.50400001928E-02 0.  1.
       -1   -1    0    0    0  501  0.00000000000E+00  0.00000000000E+00 -0.84176078280E+02  0.84176078431E+02  0.50400001928E-02 0. -1.
    10030    2    1    2    0    0  0.00000000000E+00  0.00000000000E+00  0.99647757887E+03  0.11648297356E+04  0.60320870992E+03 0.  0.
        3    1    3    3  502    0  0.54339891318E+02  0.17975683640E+01  0.10711122304E+04  0.10724912472E+04  0.10100000352E+00 0.  1.
       -3    1    3    3    0  502 -0.54339891318E+02 -0.17975683640E+01 -0.74634651486E+02  0.92338488421E+02  0.10100000352E+00 0. -1.
</event>
<event>
 5   0  0.3703280E-02  0.6075298E+03  0.7818609E-02  0.9889906E-01
       -1   -1    0    0    0  501  0.00000000000E+00  0.00000000000E+00  0.11879330842E+03  0.11879330853E+03  0.50400001928E-02 0.  1.
        1   -1    0    0  501    0  0.00000000000E+00  0.00000000000E+00 -0.77675334645E+03  0.77675334646E+03  0.50400001928E-02 0. -1.
    10030    2    1    2    0    0  0.00000000000E+00  0.00000000000E+00 -0.65796003803E+03  0.89554665499E+03  0.60752975205E+03 0.  0.
        5    1    3    3  502    0  0.23282973314E+03 -0.40013576795E+02 -0.61037171236E+03  0.65451240494E+03  0.46999998093E+01 0. -1.
       -5    1    3    3    0  502 -0.23282973314E+03  0.40013576795E+02 -0.47588325664E+02  0.24103425006E+03  0.46999998093E+01 0.  1.
</event>
<event>
 5   0  0.5755078E-02  0.6019662E+03  0.7818609E-02  0.9901335E-01
        2   -1    0    0  501    0  0.00000000000E+00  0.00000000000E+00  0.14041814429E+04  0.14041814429E+04  0.25500000920E-02 0.  1.
       -2   -1    0    0    0  501  0.00000000000E+00  0.00000000000E+00 -0.64515053521E+02  0.64515053571E+02  0.25500000920E-02 0. -1.
    10030    2    1    2    0    0  0.00000000000E+00  0.00000000000E+00  0.13396663894E+04  0.14686964965E+04  0.60196624817E+03 0.  0.
        2    1    3    3  502    0 -0.12404914061E+03  0.13444880000E+03  0.12529794332E+04  0.12662630569E+04  0.25500000920E-02 0.  1.
       -2    1    3    3    0  502  0.12404914061E+03 -0.13444880000E+03  0.86686956204E+02  0.20243343965E+03  0.25500000920E-02 0. -1.
</event>
<event>
 5   0  0.5935451E-02  0.5981604E+03  0.7818609E-02  0.9909230E-01
       -2   -1    0    0    0  501  0.00000000000E+00  0.00000000000E+00  0.11070096117E+03  0.11070096120E+03  0.25500000920E-02 0.  1.
        2   -1    0    0  501    0  0.00000000000E+00  0.00000000000E+00 -0.80802352436E+03  0.80802352437E+03  0.25500000920E-02 0. -1.
    10030    2    1    2    0    0  0.00000000000E+00  0.00000000000E+00 -0.69732256319E+03  0.91872448557E+03  0.59816044941E+03 0.  0.
        3    1    3    3  502    0 -0.19961464605E+03 -0.11801706273E+02 -0.69025574598E+03  0.71863641172E+03  0.10100000352E+00 0. -1.
       -3    1    3    3    0  502  0.19961464605E+03  0.11801706273E+02 -0.70668172118E+01  0.20008807385E+03  0.10100000352E+00 0.  1.
</event>
<event>
 5   0  0.5935451E-02  0.5983997E+03  0.7818609E-02  0.9908732E-01
       -2   -1    0    0    0  501  0.00000000000E+00  0.00000000000E+00  0.63353770928E+02  0.63353770979E+02  0.25500000920E-02 0.  1.
        2   -1    0    0  501    0  0.00000000000E+00  0.00000000000E+00 -0.14130263000E+04  0.14130263000E+04  0.25500000920E-02 0. -1.
    10030    2    1    2    0    0  0.00000000000E+00  0.00000000000E+00 -0.13496725291E+04  0.14763800710E+04  0.59839968103E+03 0.  0.
        3    1    3    3  502    0  0.26923686787E+03 -0.97229318002E+02 -0.46005394109E+03  0.54184100086E+03  0.10100000352E+00 0. -1.
       -3    1    3    3    0  502 -0.26923686787E+03  0.97229318002E+02 -0.88961858799E+03  0.93453907013E+03  0.10100000352E+00 0.  1.
</event>
<event>
 5   0  0.3767635E-02  0.6033463E+03  0.7818609E-02  0.9898488E-01
       -1   -1    0    0    0  501  0.00000000000E+00  0.00000000000E+00  0.27383900693E+03  0.27383900698E+03  0.50400001928E-02 0. -1.
        1   -1    0    0  501    0  0.00000000000E+00  0.00000000000E+00 -0.33233645571E+03  0.33233645575E+03  0.50400001928E-02 0.  1.
    10030    2    1    2    0    0  0.00000000000E+00  0.00000000000E+00 -0.58497448781E+02  0.60617546273E+03  0.60334628539E+03 0.  0.
        2    1    3    3  502    0  0.38697639170E+02  0.14369455572E+03 -0.29289311602E+03  0.32853007478E+03  0.25500000920E-02 0.  1.
       -2    1    3    3    0  502 -0.38697639170E+02 -0.14369455572E+03  0.23439566724E+03  0.27764538794E+03  0.25500000920E-02 0. -1.
</event>
<event>
 5   0  0.6007360E-02  0.6007461E+03  0.7818609E-02  0.9903859E-01
        2   -1    0    0  501    0  0.00000000000E+00  0.00000000000E+00  0.12532725529E+03  0.12532725532E+03  0.25500000920E-02 0.  1.
       -2   -1    0    0    0  501  0.00000000000E+00  0.00000000000E+00 -0.71990711255E+03  0.71990711256E+03  0.25500000920E-02 0. -1.
    10030    2    1    2    0    0  0.00000000000E+00  0.00000000000E+00 -0.59457985726E+03  0.84523436788E+03  0.60074614437E+03 0.  0.
        4    1    3    3  502    0  0.35373889235E+02 -0.12049732180E+03  0.86614166029E+02  0.15255996610E+03  0.12699999809E+01 0.  1.
       -4    1    3    3    0  502 -0.35373889235E+02  0.12049732180E+03 -0.68119402329E+03  0.69267440177E+03  0.12699999809E+01 0. -1.
</event>
<event>
 5   0  0.5935451E-02  0.5988826E+03  0.7818609E-02  0.9907727E-01
        2   -1    0    0  501    0  0.00000000000E+00  0.00000000000E+00  0.94514653254E+03  0.94514653255E+03  0.25500000920E-02 0.  1.
       -2   -1    0    0    0  501  0.00000000000E+00  0.00000000000E+00 -0.94868990785E+02  0.94868990819E+02  0.25500000920E-02 0. -1.
    10030    2    1    2    0    0  0.00000000000E+00  0.00000000000E+00  0.85027754176E+03  0.10400155234E+04  0.59888261857E+03 0.  0.
        3    1    3    3  502    0 -0.20952698769E+03 -0.21188519787E+03  0.37396988422E+03  0.47817400615E+03  0.10100000352E+00 0.  1.
       -3    1    3    3    0  502  0.20952698769E+03  0.21188519787E+03  0.47630765754E+03  0.56184151722E+03  0.10100000352E+00 0. -1.
</event>
<event>
 5   0  0.5935451E-02  0.5968558E+03  0.7818609E-02  0.9911951E-01
       -2   -1    0    0    0  501  0.00000000000E+00  0.00000000000E+00  0.10247550982E+03  0.10247550985E+03  0.25500000920E-02 0.  1.
        2   -1    0    0  501    0  0.00000000000E+00  0.00000000000E+00 -0.86907791046E+03  0.86907791046E+03  0.25500000920E-02 0. -1.
    10030    2    1    2    0    0  0.00000000000E+00  0.00000000000E+00 -0.76660240063E+03  0.97155342031E+03  0.59685576806E+03 0.  0.
        3    1    3    3  502    0  0.17176986873E+03 -0.17726093736E+03 -0.65632736192E+03  0.70120748992E+03  0.10100000352E+00 0. -1.
       -3    1    3    3    0  502 -0.17176986873E+03  0.17726093736E+03 -0.11027503871E+03  0.27034593039E+03  0.10100000352E+00 0.  1.
</event>
<event>
 5   0  0.2388000E-02  0.5948840E+03  0.7818609E-02  0.9916077E-01
       -3   -1    0    0    0  501  0.00000000000E+00  0.00000000000E+00  0.14266332856E+03  0.14266336431E+03  0.10100000352E+00 0. -1.
        3   -1    0    0  501    0  0.00000000000E+00  0.00000000000E+00 -0.62014349634E+03  0.62014350457E+03  0.10100000352E+00 0.  1.
    10030    2    1    2    0    0  0.00000000000E+00  0.00000000000E+00 -0.47748016778E+03  0.76280686888E+03  0.59488402953E+03 0.  0.
        4    1    3    3  502    0  0.60809905882E+02 -0.27333044562E+03 -0.11011049319E+03  0.30088753841E+03  0.12699999809E+01 0. -1.
       -4    1    3    3    0  502 -0.60809905882E+02  0.27333044562E+03 -0.36736967459E+03  0.46191933047E+03  0.12699999809E+01 0.  1.
</event>
<event>
 5   0  0.5935451E-02  0.6023878E+03  0.7818609E-02  0.9900464E-01
       -2   -1    0    0    0  501  0.00000000000E+00  0.00000000000E+00  0.12903161381E+03  0.12903161384E+03  0.25500000920E-02 0. -1.
        2   -1    0    0  501    0  0.00000000000E+00  0.00000000000E+00 -0.70306618017E+03  0.70306618017E+03  0.25500000920E-02 0.  1.
    10030    2    1    2    0    0  0.00000000000E+00  0.00000000000E+00 -0.57403456636E+03  0.83209779401E+03  0.60238779488E+03 0.  0.
        3    1    3    3  502    0  0.81524711101E+02 -0.25188994935E+03 -0.88648479020E+02  0.27920133979E+03  0.10100000352E+00 0. -1.
       -3    1    3    3    0  502 -0.81524711101E+02  0.25188994935E+03 -0.48538608734E+03  0.55289645422E+03  0.10100000352E+00 0.  1.
</event>
<event>
 5   0  0.5999117E-02  0.6088143E+03  0.7818609E-02  0.9887286E-01
        2   -1    0    0  501    0  0.00000000000E+00  0.00000000000E+00  0.75118421517E+03  0.75118421517E+03  0.25500000920E-02 0. -1.
       -2   -1    0    0    0  501  0.00000000000E+00  0.00000000000E+00 -0.12335685004E+03  0.12335685006E+03  0.25500000920E-02 0.  1.
    10030    2    1    2    0    0  0.00000000000E+00  0.00000000000E+00  0.62782736513E+03  0.87454106523E+03  0.60881431847E+03 0.  0.
        5    1    3    3  502    0 -0.11995968230E+03  0.10216791257E+03  0.68798283438E+03  0.70581235334E+03  0.46999998093E+01 0. -1.
       -5    1    3    3    0  502  0.11995968230E+03 -0.10216791257E+03 -0.60155469248E+02  0.16872871189E+03  0.46999998093E+01 0.  1.
</event>
<event>
 5   0  0.3640827E-02  0.5863780E+03  0.7818609E-02  0.9934077E-01
        1   -1    0    0  501    0  0.00000000000E+00  0.00000000000E+00  0.68044859895E+03  0.68044859897E+03  0.50400001928E-02 0.  1.
       -1   -1    0    0    0  501  0.00000000000E+00  0.00000000000E+00 -0.12632811619E+03  0.12632811629E+03  0.50400001928E-02 0. -1.
    10030    2    1    2    0    0  0.00000000000E+00  0.00000000000E+00  0.55412048276E+03  0.80677671526E+03  0.58637799999E+03 0.  0.
        3    1    3    3  502    0 -0.23008354831E+03 -0.44095039404E+02  0.34513744487E+02  0.23679953645E+03  0.10100000352E+00 0. -1.
       -3    1    3    3    0  502  0.23008354831E+03  0.44095039404E+02  0.51960673827E+03  0.56997717881E+03  0.10100000352E+00 0.  1.
</event>
<event>
 5   0  0.2388000E-02  0.5984278E+03  0.7818609E-02  0.9908673E-01
       -3   -1    0    0    0  501  0.00000000000E+00  0.00000000000E+00  0.21138325744E+03  0.21138328157E+03  0.10100000352E+00 0. -1.
        3   -1    0    0  501    0  0.00000000000E+00  0.00000000000E+00 -0.42353853108E+03  0.42353854312E+03  0.10100000352E+00 0.  1.
    10030    2    1    2    0    0  0.00000000000E+00  0.00000000000E+00 -0.21215527363E+03  0.63492182469E+03  0.59842782634E+03 0.  0.
        4    1    3    3  502    0  0.41660591205E+02 -0.19839118671E+03  0.12741745160E+03  0.23943994591E+03  0.12699999809E+01 0. -1.
       -4    1    3    3    0  502 -0.41660591205E+02  0.19839118671E+03 -0.33957272523E+03  0.39548187878E+03  0.12699999809E+01 0.  1.
</event>
<event>
 5   0  0.3767635E-02  0.6081918E+03  0.7818609E-02  0.9888555E-01
       -1   -1    0    0    0  501  0.00000000000E+00  0.00000000000E+00  0.19390608089E+03  0.19390608095E+03  0.50400001928E-02 0.  1.
        1   -1    0    0  501    0  0.00000000000E+00  0.00000000000E+00 -0.47690266655E+03  0.47690266657E+03  0.50400001928E-02 0. -1.
    10030    2    1    2    0    0  0.00000000000E+00  0.00000000000E+00 -0.28299658566E+03  0.67080874753E+03  0.60819183509E+03 0.  0.
        2    1    3    3  502    0 -0.76878459579E+02  0.55923478855E+02  0.17709484367E+03  0.20099830023E+03  0.25500000920E-02 0.  1.
       -2    1    3    3    0  502  0.76878459579E+02 -0.55923478855E+02 -0.46009142933E+03  0.46981044729E+03  0.25500000920E-02 0. -1.
</event>
<event>
 5   0  0.3478183E-02  0.5986269E+03  0.7818609E-02  0.9908259E-01
        1   -1    0    0  501    0  0.00000000000E+00  0.00000000000E+00  0.19225171360E+04  0.19225171360E+04  0.50400001928E-02 0.  1.
       -1   -1    0    0    0  501  0.00000000000E+00  0.00000000000E+00 -0.46599609820E+02  0.46599610093E+02  0.50400001928E-02 0. -1.
    10030    2    1    2    0    0  0.00000000000E+00  0.00000000000E+00  0.18759175262E+04  0.19691167461E+04  0.59862692450E+03 0.  0.
        4    1    3    3  502    0 -0.29551966737E+02  0.22590551953E+03  0.15764757740E+04  0.15928540741E+04  0.12699999809E+01 0.  1.
       -4    1    3    3    0  502  0.29551966737E+02 -0.22590551953E+03  0.29944175221E+03  0.37626267203E+03  0.12699999809E+01 0. -1.
</event>
<event>
 5   0  0.5935451E-02  0.5476161E+03  0.7818609E-02  0.1002047E+00
       -2   -1    0    0    0  501  0.00000000000E+00  0.00000000000E+00  0.19893536455E+03  0.19893536457E+03  0.25500000920E-02 0.  1.
        2   -1    0    0  501    0  0.00000000000E+00  0.00000000000E+00 -0.37686028896E+03  0.37686028897E+03  0.25500000920E-02 0. -1.
    10030    2    1    2    0    0  0.00000000000E+00  0.00000000000E+00 -0.17792492440E+03  0.57579565354E+03  0.54761606615E+03 0.  0.
        3    1    3    3  502    0 -0.23556222128E+03  0.11869730576E+03 -0.16617288552E+03  0.31175639299E+03  0.10100000352E+00 0.  1.
       -3    1    3    3    0  502  0.23556222128E+03 -0.11869730576E+03 -0.11752038883E+02  0.26403926054E+03  0.10100000352E+00 0. -1.
</event>
<event>
 5   0  0.5935451E-02  0.6045587E+03  0.7818609E-02  0.9895993E-01
        2   -1    0    0  501    0  0.00000000000E+00  0.00000000000E+00  0.51767783355E+03  0.51767783355E+03  0.25500000920E-02 0. -1.
       -2   -1    0    0    0  501  0.00000000000E+00  0.00000000000E+00 -0.17650514117E+03  0.17650514119E+03  0.25500000920E-02 0.  1.
    10030    2    1    2    0    0  0.00000000000E+00  0.00000000000E+00  0.34117269237E+03  0.69418297474E+03  0.60455867904E+03 0.  0.
        3    1    3    3  502    0  0.33917943276E+02  0.16454794443E+03  0.45912870377E+03  0.48890247465E+03  0.10100000352E+00 0. -1.
       -3    1    3    3    0  502 -0.33917943276E+02 -0.16454794443E+03 -0.11795601140E+03  0.20528050009E+03  0.10100000352E+00 0.  1.
</event>
<event>
 5   0  0.5872632E-02  0.5791455E+03  0.7818609E-02  0.9949643E-01
        2   -1    0    0  501    0  0.00000000000E+00  0.00000000000E+00  0.83958817111E+03  0.83958817111E+03  0.25500000920E-02 0. -1.
       -2   -1    0    0    0  501  0.00000000000E+00  0.00000000000E+00 -0.99873229285E+02  0.99873229317E+02  0.25500000920E-02 0.  1.
    10030    2    1    2    0    0  0.00000000000E+00  0.00000000000E+00  0.73971494183E+03  0.93946140043E+03  0.57914551517E+03 0.  0.
        1    1    3    3  502    0  0.23654256546E+03 -0.14524203420E+03  0.50367015163E+03  0.57509238862E+03  0.50400001928E-02 0.  1.
       -1    1    3    3    0  502 -0.23654256546E+03  0.14524203420E+03  0.23604479019E+03  0.36436901182E+03  0.50400001928E-02 0. -1.
</event>
<event>
 5   0  0.3651984E-02  0.5981415E+03  0.7818609E-02  0.9909269E-01
        1   -1    0    0  501    0  0.00000000000E+00  0.00000000000E+00  0.60699075719E+03  0.60699075721E+03  0.50400001928E-02 0.  1.
       -1   -1    0    0    0  501  0.00000000000E+00  0.00000000000E+00 -0.14735531192E+03  0.14735531200E+03  0.50400001928E-02 0. -1.
    10030    2    1    2    0    0  0.00000000000E+00  0.00000000000E+00  0.45963544528E+03  0.75434606921E+03  0.59814149629E+03 0.  0.
        1    1    3    3  502    0 -0.57245904052E+02 -0.37347051475E+02  0.59700820790E+03  0.60090822603E+03  0.50400001928E-02 0.  1.
       -1    1    3    3    0  502  0.57245904052E+02  0.37347051475E+02 -0.13737276262E+03  0.15343784318E+03  0.50400001928E-02 0. -1.
</event>
<event>
 5   0  0.5755078E-02  0.5825499E+03  0.7818609E-02  0.9942286E-01
       -2   -1    0    0    0  501  0.00000000000E+00  0.00000000000E+00  0.51523704290E+02  0.51523704354E+02  0.25500000920E-02 0.  1.
        2   -1    0    0  501    0  0.00000000000E+00  0.00000000000E+00 -0.16466420507E+04  0.16466420507E+04  0.25500000920E-02 0. -1.
    10030    2    1    2    0    0  0.00000000000E+00  0.00000000000E+00 -0.15951183464E+04  0.16981657550E+04  0.58254990566E+03 0.  0.
        2    1    3    3  502    0 -0.23749843797E+03 -0.66041474683E+02 -0.34526385080E+03  0.42423355725E+03  0.25500000920E-02 0.  1.
       -2    1    3    3    0  502  0.23749843797E+03  0.66041474683E+02 -0.12498544956E+04  0.12739321978E+04  0.25500000920E-02 0. -1.
</event>
<event>
 5   0  0.5935451E-02  0.6016261E+03  0.7818609E-02  0.9902038E-01
       -2   -1    0    0    0  501  0.00000000000E+00  0.00000000000E+00  0.74697237929E+02  0.74697237973E+02  0.25500000920E-02 0. -1.
        2   -1    0    0  501    0  0.00000000000E+00  0.00000000000E+00 -0.12114034105E+04  0.12114034105E+04  0.25500000920E-02 0.  1.
    10030    2    1    2    0    0  0.00000000000E+00  0.00000000000E+00 -0.11367061726E+04  0.12861006485E+04  0.60162609256E+03 0.  0.
        3    1    3    3  502    0  0.25580579689E+03 -0.15589862670E+03 -0.50990755629E+03  0.59139387357E+03  0.10100000352E+00 0. -1.
       -3    1    3    3    0  502 -0.25580579689E+03  0.15589862670E+03 -0.62679861628E+03  0.69470677491E+03  0.10100000352E+00 0.  1.
</event>
<event>
 5   0  0.3651984E-02  0.5965702E+03  0.7818609E-02  0.9912547E-01
        1   -1    0    0  501    0  0.00000000000E+00  0.00000000000E+00  0.74631559632E+03  0.74631559634E+03  0.50400001928E-02 0. -1.
       -1   -1    0    0    0  501  0.00000000000E+00  0.00000000000E+00 -0.11921765810E+03  0.11921765820E+03  0.50400001928E-02 0.  1.
    10030    2    1    2    0    0  0.00000000000E+00  0.00000000000E+00  0.62709793822E+03  0.86553325454E+03  0.59657018916E+03 0.  0.
        1    1    3    3  502    0  0.35182012520E+02  0.12998239340E+03 -0.72608058084E+02  0.15298734171E+03  0.50400001928E-02 0.  1.
       -1    1    3    3    0  502 -0.35182012520E+02 -0.12998239340E+03  0.69970599631E+03  0.71254591283E+03  0.50400001928E-02 0. -1.
</event>
<event>
 5   0  0.6007360E-02  0.6035403E+03  0.7818609E-02  0.9898088E-01
        2   -1    0    0  501    0  0.00000000000E+00  0.00000000000E+00  0.81557001650E+03  0.81557001651E+03  0.25500000920E-02 0. -1.
       -2   -1    0    0    0  501  0.00000000000E+00  0.00000000000E+00 -0.11165836299E+03  0.11165836302E+03  0.25500000920E-02 0.  1.
    10030    2    1    2    0    0  0.00000000000E+00  0.00000000000E+00  0.70391165351E+03  0.92722837953E+03  0.60354026532E+03 0.  0.
        4    1    3    3  502    0 -0.93709950508E+02  0.18999448023E+03  0.21793961529E+02  0.21296959173E+03  0.12699999809E+01 0.  1.
       -4    1    3    3    0  502  0.93709950508E+02 -0.18999448023E+03  0.68211769198E+03  0.71425878781E+03  0.12699999809E+01 0. -1.
</event>
<event>
 5   0  0.3703280E-02  0.6184511E+03  0.7818609E-02  0.9867848E-01
        1   -1    0    0  501    0  0.00000000000E+00  0.00000000000E+00  0.76178763066E+03  0.76178763068E+03  0.50400001928E-02 0. -1.
       -1   -1    0    0    0  501  0.00000000000E+00  0.00000000000E+00 -0.12552112776E+03  0.12552112786E+03  0.50400001928E-02 0.  1.
    10030    2    1    2    0    0  0.00000000000E+00  0.00000000000E+00  0.63626650290E+03  0.88730875854E+03  0.61845110580E+03 0.  0.
        5    1    3    3  502    0 -0.26594975632E+03  0.10912060460E+03  0.48147665826E+03  0.56078377445E+03  0.46999998093E+01 0. -1.
       -5    1    3    3    0  502  0.26594975632E+03 -0.10912060460E+03  0.15478984464E+03  0.32652498409E+03  0.46999998093E+01 0.  1.
</event>
<event>
 5   0  0.5999117E-02  0.5962109E+03  0.7818609E-02  0.9913299E-01
        2   -1    0    0  501    0  0.00000000000E+00  0.00000000000E+00  0.50592267680E+02  0.50592267744E+02  0.25500000920E-02 0. -1.
       -2   -1    0    0    0  501  0.00000000000E+00  0.00000000000E+00 -0.17565301871E+04  0.17565301871E+04  0.25500000920E-02 0.  1.
    10030    2    1    2    0    0  0.00000000000E+00  0.00000000000E+00 -0.17059379195E+04  0.18071224549E+04  0.59621085356E+03 0.  0.
        5    1    3    3  502    0  0.60443572617E+02 -0.19784691170E+03 -0.15033872695E+04  0.15175612666E+04  0.46999998093E+01 0.  1.
       -5    1    3    3    0  502 -0.60443572617E+02  0.19784691170E+03 -0.20255064998E+03  0.28956118825E+03  0.46999998093E+01 0. -1.
</event>
<event>
 5   0  0.6007360E-02  0.5439689E+03  0.7818609E-02  0.1002900E+00
       -2   -1    0    0    0  501  0.00000000000E+00  0.00000000000E+00  0.15897301707E+03  0.15897301709E+03  0.25500000920E-02 0.  1.
        2   -1    0    0  501    0  0.00000000000E+00  0.00000000000E+00 -0.46533396468E+03  0.46533396468E+03  0.25500000920E-02 0. -1.
    10030    2    1    2    0    0  0.00000000000E+00  0.00000000000E+00 -0.30636094760E+03  0.62430698178E+03  0.54396891205E+03 0.  0.
        4    1    3    3  502    0  0.89837732435E+02 -0.43978029515E+02  0.13709413534E+03  0.16970945788E+03  0.12699999809E+01 0.  1.
       -4    1    3    3    0  502 -0.89837732435E+02  0.43978029515E+02 -0.44345508294E+03  0.45459752390E+03  0.12699999809E+01 0. -1.
</event>
<event>
 5   0  0.5935451E-02  0.6048361E+03  0.7818609E-02  0.9895423E-01
       -2   -1    0    0    0  501  0.00000000000E+00  0.00000000000E+00  0.62103185077E+03  0.62103185077E+03  0.25500000920E-02 0. -1.
        2   -1    0    0  501    0  0.00000000000E+00  0.00000000000E+00 -0.14726568975E+03  0.14726568977E+03  0.25500000920E-02 0.  1.
    10030    2    1    2    0    0  0.00000000000E+00  0.00000000000E+00  0.47376616102E+03  0.76829754054E+03  0.60483612283E+03 0.  0.
        3    1    3    3  502    0 -0.52484813233E+02  0.25019593239E+03  0.44211521621E+03  0.51070396005E+03  0.10100000352E+00 0. -1.
       -3    1    3    3    0  502  0.52484813233E+02 -0.25019593239E+03  0.31650944805E+02  0.25759358049E+03  0.10100000352E+00 0.  1.
</event>
<event>
 5   0  0.5935451E-02  0.5964141E+03  0.7818609E-02  0.9912874E-01
       -2   -1    0    0    0  501  0.00000000000E+00  0.00000000000E+00  0.13419232723E+03  0.13419232725E+03  0.25500000920E-02 0. -1.
        2   -1    0    0  501    0  0.00000000000E+00  0.00000000000E+00 -0.66268655547E+03  0.66268655548E+03  0.25500000920E-02 0.  1.
    10030    2    1    2    0    0  0.00000000000E+00  0.00000000000E+00 -0.52849422824E+03  0.79687888273E+03  0.59641412161E+03 0.  0.
        3    1    3    3  502    0 -0.11150805698E+03  0.23960992001E+03 -0.79686489004E+02  0.27603787289E+03  0.10100000352E+00 0. -1.
       -3    1    3    3    0  502  0.11150805698E+03 -0.23960992001E+03 -0.44880773924E+03  0.52084100985E+03  0.10100000352E+00 0.  1.
</event>
<event>
 5   0  0.2388000E-02  0.5991107E+03  0.7818609E-02  0.9907253E-01
        3   -1    0    0  501    0  0.00000000000E+00  0.00000000000E+00  0.23629376717E+03  0.23629378875E+03  0.10100000352E+00 0.  1.
       -3   -1    0    0    0  501  0.00000000000E+00  0.00000000000E+00 -0.37975356497E+03  0.37975357840E+03  0.10100000352E+00 0. -1.
    10030    2    1    2    0    0  0.00000000000E+00  0.00000000000E+00 -0.14345979781E+03  0.61604736716E+03  0.59911071180E+03 0.  0.
        5    1    3    3  502    0 -0.10556980807E+03 -0.68095057376E+02 -0.35131602209E+03  0.37313128867E+03  0.46999998093E+01 0. -1.
       -5    1    3    3    0  502  0.10556980807E+03  0.68095057376E+02  0.20785622428E+03  0.24291607848E+03  0.46999998093E+01 0.  1.
</event>
<event>
 5   0  0.5755078E-02  0.6011329E+03  0.7818609E-02  0.9903058E-01
        2   -1    0    0  501    0  0.00000000000E+00  0.00000000000E+00  0.30516585072E+03  0.30516585073E+03  0.25500000920E-02 0. -1.
       -2   -1    0    0    0  501  0.00000000000E+00  0.00000000000E+00 -0.29603638535E+03  0.29603638536E+03  0.25500000920E-02 0.  1.
    10030    2    1    2    0    0  0.00000000000E+00  0.00000000000E+00  0.91294653761E+01  0.60120223609E+03  0.60113291504E+03 0.  0.
        2    1    3    3  502    0  0.93048854090E+02 -0.90165473567E+02 -0.26667180283E+03  0.29648229677E+03  0.25500000920E-02 0.  1.
       -2    1    3    3    0  502 -0.93048854090E+02  0.90165473567E+02  0.27580126820E+03  0.30471993932E+03  0.25500000920E-02 0. -1.
</event>
<event>
 5   0  0.5935451E-02  0.5937055E+03  0.7818609E-02  0.9918552E-01
       -2   -1    0    0    0  501  0.00000000000E+00  0.00000000000E+00  0.65511472755E+02  0.65511472805E+02  0.25500000920E-02 0. -1.
        2   -1    0    0  501    0  0.00000000000E+00  0.00000000000E+00 -0.13451317067E+04  0.13451317067E+04  0.25500000920E-02 0.  1.
    10030    2    1    2    0    0  0.00000000000E+00  0.00000000000E+00 -0.12796202340E+04  0.14106431795E+04  0.59370551351E+03 0.  0.
        3    1    3    3  502    0  0.13146506322E+03  0.26566914319E+03 -0.60161691724E+03  0.67067583958E+03  0.10100000352E+00 0.  1.
       -3    1    3    3    0  502 -0.13146506322E+03 -0.26566914319E+03 -0.67800331674E+03  0.73996733996E+03  0.10100000352E+00 0. -1.
</event>
<event>
 5   0  0.2388000E-02  0.5842480E+03  0.7818609E-02  0.9938636E-01
        3   -1    0    0  501    0  0.00000000000E+00  0.00000000000E+00  0.63895933334E+03  0.63895934132E+03  0.10100000352E+00 0. -1.
       -3   -1    0    0    0  501  0.00000000000E+00  0.00000000000E+00 -0.13355529776E+03  0.13355533595E+03  0.10100000352E+00 0.  1.
    10030    2    1    2    0    0  0.00000000000E+00  0.00000000000E+00  0.50540403558E+03  0.77251467727E+03  0.58424796740E+03 0.  0.
        4    1    3    3  502    0  0.11832933936E+03  0.10221022724E+03  0.57896546050E+03  0.59970941334E+03  0.12699999809E+01 0. -1.
       -4    1    3    3    0  502 -0.11832933936E+03 -0.10221022724E+03 -0.73561424914E+02  0.17280526393E+03  0.12699999809E+01 0.  1.
</event>
<event>
 5   0  0.3640827E-02  0.5667704E+03  0.7818609E-02  0.9976851E-01
        1   -1    0    0  501    0  0.00000000000E+00  0.00000000000E+00  0.46581141827E+03  0.46581141829E+03  0.50400001928E-02 0. -1.
       -1   -1    0    0    0  501  0.00000000000E+00  0.00000000000E+00 -0.17240277264E+03  0.17240277272E+03  0.50400001928E-02 0.  1.
    10030    2    1    2    0    0  0.00000000000E+00  0.00000000000E+00  0.29340864562E+03  0.63821419101E+03  0.56677042996E+03 0.  0.
        3    1    3    3  502    0 -0.70556146405E+02  0.20290628827E+03 -0.61411803258E+02  0.22342907464E+03  0.10100000352E+00 0.  1.
       -3    1    3    3    0  502  0.70556146405E+02 -0.20290628827E+03  0.35482044888E+03  0.41478511637E+03  0.10100000352E+00 0. -1.
</event>
<event>
 5   0  0.5872632E-02  0.6025997E+03  0.7818609E-02  0.9900027E-01
        2   -1    0    0  501    0  0.00000000000E+00  0.00000000000E+00  0.28043006277E+03  0.28043006279E+03  0.25500000920E-02 0.  1.
       -2   -1    0    0    0  501  0.00000000000E+00  0.00000000000E+00 -0.32372273669E+03  0.32372273670E+03  0.25500000920E-02 0. -1.
    10030    2    1    2    0    0  0.00000000000E+00  0.00000000000E+00 -0.43292673917E+02  0.60415279949E+03  0.60259965940E+03 0.  0.
        1    1    3    3  502    0  0.29784905487E+03 -0.84624906743E+01  0.23144464699E+02  0.29886675878E+03  0.50400001928E-02 0. -1.
       -1    1    3    3    0  502 -0.29784905487E+03  0.84624906743E+01 -0.66437138616E+02  0.30528604070E+03  0.50400001928E-02 0.  1.
</event>
<event>
 5   0  0.3651984E-02  0.6348953E+03  0.7818609E-02  0.9835542E-01
        1   -1    0    0  501    0  0.00000000000E+00  0.00000000000E+00  0.28522424481E+03  0.28522424485E+03  0.50400001928E-02 0. -1.
       -1   -1    0    0    0  501  0.00000000000E+00  0.00000000000E+00 -0.35331147027E+03  0.35331147030E+03  0.50400001928E-02 0.  1.
    10030    2    1    2    0    0  0.00000000000E+00  0.00000000000E+00 -0.68087225456E+02  0.63853571516E+03  0.63489525850E+03 0.  0.
        1    1    3    3  502    0 -0.24535304082E+03  0.17121888801E+03  0.72673124379E+02  0.30788862480E+03  0.50400001928E-02 0. -1.
       -1    1    3    3    0  502  0.24535304082E+03 -0.17121888801E+03 -0.14076034983E+03  0.33064709036E+03  0.50400001928E-02 0.  1.
</event>
<event>
 5   0  0.6007360E-02  0.5977101E+03  0.7818609E-02  0.9910168E-01
       -2   -1    0    0    0  501  0.00000000000E+00  0.00000000000E+00  0.59455398834E+02  0.59455398889E+02  0.25500000920E-02 0.  1.
        2   -1    0    0  501    0  0.00000000000E+00  0.00000000000E+00 -0.15022075655E+04  0.15022075655E+04  0.25500000920E-02 0. -1.
    10030    2    1    2    0    0  0.00000000000E+00  0.00000000000E+00 -0.14427521666E+04  0.15616629643E+04  0.59771013035E+03 0.  0.
        4    1    3    3  502    0 -0.20023828715E+03 -0.23374561948E+02 -0.14496568336E+03  0.24831110333E+03  0.12699999809E+01 0. -1.
       -4    1    3    3    0  502  0.20023828715E+03  0.23374561948E+02 -0.12977864833E+04  0.13133518610E+04  0.12699999809E+01 0.  1.
</event>
<event>
 5   0  0.6007360E-02  0.6210358E+03  0.7818609E-02  0.9862700E-01
        2   -1    0    0  501    0  0.00000000000E+00  0.00000000000E+00  0.67728826206E+03  0.67728826206E+03  0.25500000920E-02 0.  1.
       -2   -1    0    0    0  501  0.00000000000E+00  0.00000000000E+00 -0.14236387158E+03  0.14236387161E+03  0.25500000920E-02 0. -1.
    10030    2    1    2    0    0  0.00000000000E+00  0.00000000000E+00  0.53492439047E+03  0.81965213367E+03  0.62103584172E+03 0.  0.
        4    1    3    3  502    0  0.22183047357E+02  0.14428532452E+03  0.62917186880E+03  0.64588636450E+03  0.12699999809E+01 0.  1.
       -4    1    3    3    0  502 -0.22183047357E+02 -0.14428532452E+03 -0.94247478331E+02  0.17376576916E+03  0.12699999809E+01 0. -1.
</event>
<event>
 5   0  0.3703280E-02  0.5978936E+03  0.7818609E-02  0.9909786E-01
       -1   -1    0    0    0  501  0.00000000000E+00  0.00000000000E+00  0.82912947179E+02  0.82912947332E+02  0.50400001928E-02 0. -1.
        1   -1    0    0  501    0  0.00000000000E+00  0.00000000000E+00 -0.10778676233E+04  0.10778676233E+04  0.50400001928E-02 0.  1.
    10030    2    1    2    0    0  0.00000000000E+00  0.00000000000E+00 -0.99495467609E+03  0.11607805706E+04  0.59789357384E+03 0.  0.
        5    1    3    3  502    0  0.13635799412E+03  0.24306821658E+03 -0.70722073471E+03  0.76017032175E+03  0.46999998093E+01 0.  1.
       -5    1    3    3    0  502 -0.13635799412E+03 -0.24306821658E+03 -0.28773394138E+03  0.40061024886E+03  0.46999998093E+01 0. -1.
</event>
<event>
 5   0  0.6007360E-02  0.5840774E+03  0.7818609E-02  0.9939002E-01
        2   -1    0    0  501    0  0.00000000000E+00  0.00000000000E+00  0.22272227666E+03  0.22272227667E+03  0.25500000920E-02 0.  1.
       -2   -1    0    0    0  501  0.00000000000E+00  0.00000000000E+00 -0.38292805239E+03  0.38292805240E+03  0.25500000920E-02 0. -1.
    10030    2    1    2    0    0  0.00000000000E+00  0.00000000000E+00 -0.16020577573E+03  0.60565032907E+03  0.58407741826E+03 0.  0.
        4    1    3    3  502    0  0.68443388237E+02  0.24098372207E+03  0.75531846190E+02  0.26165688293E+03  0.12699999809E+01 0.  1.
       -4    1    3    3    0  502 -0.68443388237E+02 -0.24098372207E+03 -0.23573762192E+03  0.34399344614E+03  0.12699999809E+01 0. -1.
</event>
<event>
 5   0  0.5872632E-02  0.6113600E+03  0.7818609E-02  0.9882114E-01
       -2   -1    0    0    0  501  0.00000000000E+00  0.00000000000E+00  0.52059818353E+02  0.52059818415E+02  0.25500000920E-02 0.  1.
        2   -1    0    0  501    0  0.00000000000E+00  0.00000000000E+00 -0.17948635926E+04  0.17948635926E+04  0.25500000920E-02 0. -1.
    10030    2    1    2    0    0  0.00000000000E+00  0.00000000000E+00 -0.17428037743E+04  0.18469234110E+04  0.61136003356E+03 0.  0.
        1    1    3    3  502    0  0.18804608166E+03 -0.19873455372E+03 -0.45957391335E+03  0.53485038424E+03  0.50400001928E-02 0.  1.
       -1    1    3    3    0  502 -0.18804608166E+03  0.19873455372E+03 -0.12832298609E+04  0.13120730268E+04  0.50400001928E-02 0. -1.
</event>
<event>
 5   0  0.3478183E-02  0.6056483E+03  0.7818609E-02  0.9893756E-01
        1   -1    0    0  501    0  0.00000000000E+00  0.00000000000E+00  0.37271032001E+03  0.37271032005E+03  0.50400001928E-02 0.  1.
       -1   -1    0    0    0  501  0.00000000000E+00  0.00000000000E+00 -0.24604218540E+03  0.24604218546E+03  0.50400001928E-02 0. -1.
    10030    2    1    2    0    0  0.00000000000E+00  0.00000000000E+00  0.12666813461E+03  0.61875250550E+03  0.60564828633E+03 0.  0.
        4    1    3    3  502    0 -0.81042923150E+02 -0.22296266122E+03  0.25560963309E+03  0.34873801215E+03  0.12699999809E+01 0.  1.
       -4    1    3    3    0  502  0.81042923150E+02  0.22296266122E+03 -0.12894149848E+03  0.27001449335E+03  0.12699999809E+01 0. -1.
</event>
<event>
 5   0  0.3703280E-02  0.5963617E+03  0.7818609E-02  0.9912983E-01
       -1   -1    0    0    0  501  0.00000000000E+00  0.00000000000E+00  0.37629884649E+03  0.37629884653E+03  0.50400001928E-02 0.  1.
        1   -1    0    0  501    0  0.00000000000E+00  0.00000000000E+00 -0.23627983814E+03  0.23627983820E+03  0.50400001928E-02 0. -1.
    10030    2    1    2    0    0  0.00000000000E+00  0.00000000000E+00  0.14001900835E+03  0.61257868472E+03  0.59636173777E+03 0.  0.
        5    1    3    3  502    0 -0.64746266713E+02 -0.23978456379E+03  0.23942172674E+03  0.34501241908E+03  0.46999998093E+01 0.  1.
       -5    1    3    3    0  502  0.64746266713E+02  0.23978456379E+03 -0.99402718390E+02  0.26756626564E+03  0.46999998093E+01 0. -1.
</event>
<event>
 5   0  0.3640827E-02  0.5979796E+03  0.7818609E-02  0.9909607E-01
        1   -1    0    0  501    0  0.00000000000E+00  0.00000000000E+00  0.77459599128E+03  0.77459599130E+03  0.50400001928E-02 0. -1.
       -1   -1    0    0    0  501  0.00000000000E+00  0.00000000000E+00 -0.11540842317E+03  0.11540842328E+03  0.50400001928E-02 0.  1.
    10030    2    1    2    0    0  0.00000000000E+00  0.00000000000E+00  0.65918756811E+03  0.89000441458E+03  0.59797960502E+03 0.  0.
        3    1    3    3  502    0 -0.16019345371E+03  0.16137183897E+03  0.61854919666E+03  0.65901891621E+03  0.10100000352E+00 0. -1.
       -3    1    3    3    0  502  0.16019345371E+03 -0.16137183897E+03  0.40638371445E+02  0.23098549837E+03  0.10100000352E+00 0.  1.
</event>
<event>
 5   0  0.6007360E-02  0.6008864E+03  0.7818609E-02  0.9903569E-01
       -2   -1    0    0    0  501  0.00000000000E+00  0.00000000000E+00  0.78634277098E+02  0.78634277140E+02  0.25500000920E-02 0. -1.
        2   -1    0    0  501    0  0.00000000000E+00  0.00000000000E+00 -0.11479233589E+04  0.11479233589E+04  0.25500000920E-02 0.  1.
    10030    2    1    2    0    0  0.00000000000E+00  0.00000000000E+00 -0.10692890818E+04  0.12265576361E+04  0.60088642361E+03 0.  0.
        4    1    3    3  502    0  0.43105951530E+02  0.10065034627E+03 -0.11057411623E+04  0.11111497406E+04  0.12699999809E+01 0.  1.
       -4    1    3    3    0  502 -0.43105951530E+02 -0.10065034627E+03  0.36452080440E+02  0.11540789544E+03  0.12699999809E+01 0. -1.
</event>
<event>
 5   0  0.5872632E-02  0.5990679E+03  0.7818609E-02  0.9907342E-01
        2   -1    0    0  501    0  0.00000000000E+00  0.00000000000E+00  0.28611465790E+03  0.28611465791E+03  0.25500000920E-02 0.  1.
       -2   -1    0    0    0  501  0.00000000000E+00  0.00000000000E+00 -0.31358263080E+03  0.31358263081E+03  0.25500000920E-02 0. -1.
    10030    2    1    2    0    0  0.00000000000E+00  0.00000000000E+00 -0.27467972903E+02  0.59969728872E+03  0.59906789979E+03 0.  0.
        1    1    3    3  502    0 -0.57996287119E+02  0.18216963953E+03 -0.24456514506E+03  0.31042141854E+03  0.50400001928E-02 0. -1.
       -1    1    3    3    0  502  0.57996287119E+02 -0.18216963953E+03  0.21709717216E+03  0.28927587018E+03  0.50400001928E-02 0.  1.
</event>
<event>
 5   0  0.5755078E-02  0.6106804E+03  0.7818609E-02  0.9883492E-01
       -2   -1    0    0    0  501  0.00000000000E+00  0.00000000000E+00  0.22441746763E+03  0.22441746764E+03  0.25500000920E-02 0.  1.
        2   -1    0    0  501    0  0.00000000000E+00  0.00000000000E+00 -0.41544284864E+03  0.41544284865E+03  0.25500000920E-02 0. -1.
    10030    2    1    2    0    0  0.00000000000E+00  0.00000000000E+00 -0.19102538101E+03  0.63986031629E+03  0.61068038136E+03 0.  0.
        2    1    3    3  502    0  0.14191779963E+03 -0.93375121043E+02 -0.36135449423E+03  0.39929518603E+03  0.25500000920E-02 0. -1.
       -2    1    3    3    0  502 -0.14191779963E+03  0.93375121043E+02  0.17032911321E+03  0.24056513026E+03  0.25500000920E-02 0.  1.
</event>
<event>
 5   0  0.5999117E-02  0.5949174E+03  0.7818609E-02  0.9916007E-01
       -2   -1    0    0    0  501  0.00000000000E+00  0.00000000000E+00  0.14023760656E+03  0.14023760659E+03  0.25500000920E-02 0. -1.
        2   -1    0    0  501    0  0.00000000000E+00  0.00000000000E+00 -0.63094117195E+03  0.63094117195E+03  0.25500000920E-02 0.  1.
    10030    2    1    2    0    0  0.00000000000E+00  0.00000000000E+00 -0.49070356539E+03  0.77117877854E+03  0.59491740552E+03 0.  0.
        5    1    3    3  502    0  0.40377438906E+02 -0.13173292598E+03 -0.58702805823E+03  0.60299911485E+03  0.46999998093E+01 0.  1.
       -5    1    3    3    0  502 -0.40377438906E+02  0.13173292598E+03  0.96324492842E+02  0.16817966369E+03  0.46999998093E+01 0. -1.
</event>
<event>
 5   0  0.5755078E-02  0.6038601E+03  0.7818609E-02  0.9897430E-01
       -2   -1    0    0    0  501  0.00000000000E+00  0.00000000000E+00  0.23568562641E+03  0.23568562642E+03  0.25500000920E-02 0. -1.
        2   -1    0    0  501    0  0.00000000000E+00  0.00000000000E+00 -0.38679383831E+03  0.38679383832E+03  0.25500000920E-02 0.  1.
    10030    2    1    2    0    0  0.00000000000E+00  0.00000000000E+00 -0.15110821191E+03  0.62247946474E+03  0.60386007677E+03 0.  0.
        2    1    3    3  502    0  0.61746019514E+02  0.42708791409E+02  0.22590999200E+03  0.23805868243E+03  0.25500000920E-02 0. -1.
       -2    1    3    3    0  502 -0.61746019514E+02 -0.42708791409E+02 -0.37701820391E+03  0.38442078231E+03  0.25500000920E-02 0.  1.
</event>
<event>
 5   0  0.3640827E-02  0.5865528E+03  0.7818609E-02  0.9933704E-01
        1   -1    0    0  501    0  0.00000000000E+00  0.00000000000E+00  0.28398145812E+03  0.28398145817E+03  0.50400001928E-02 0.  1.
       -1   -1    0    0    0  501  0.00000000000E+00  0.00000000000E+00 -0.30287553046E+03  0.30287553051E+03  0.50400001928E-02 0. -1.
    10030    2    1    2    0    0  0.00000000000E+00  0.00000000000E+00 -0.18894072342E+02  0.58685698867E+03  0.58655275908E+03 0.  0.
        3    1    3    3  502    0  0.97066332096E+02  0.79793189340E+02  0.25568512415E+03  0.28489246884E+03  0.10100000352E+00 0.  1.
       -3    1    3    3    0  502 -0.97066332096E+02 -0.79793189340E+02 -0.27457919649E+03  0.30196451983E+03  0.10100000352E+00 0. -1.
</event>
<event>
 5   0  0.5872632E-02  0.6179494E+03  0.7818609E-02  0.9868851E-01
        2   -1    0    0  501    0  0.00000000000E+00  0.00000000000E+00  0.77216609117E+03  0.77216609118E+03  0.25500000920E-02 0. -1.
       -2   -1    0    0    0  501  0.00000000000E+00  0.00000000000E+00 -0.12363320505E+03  0.12363320508E+03  0.25500000920E-02 0.  1.
    10030    2    1    2    0    0  0.00000000000E+00  0.00000000000E+00  0.64853288612E+03  0.89579929625E+03  0.61794941119E+03 0.  0.
        1    1    3    3  502    0 -0.15721346071E+03  0.25030894259E+03  0.45469087981E+03  0.54232318333E+03  0.50400001928E-02 0. -1.
       -1    1    3    3    0  502  0.15721346071E+03 -0.25030894259E+03  0.19384200631E+03  0.35347611292E+03  0.50400001928E-02 0.  1.
</event>
<event>
 5   0  0.3767635E-02  0.6009345E+03  0.7818609E-02  0.9903469E-01
       -1   -1    0    0    0  501  0.00000000000E+00  0.00000000000E+00  0.43055053131E+03  0.43055053134E+03  0.50400001928E-02 0. -1.
        1   -1    0    0  501    0  0.00000000000E+00  0.00000000000E+00 -0.20968631898E+03  0.20968631904E+03  0.50400001928E-02 0.  1.
    10030    2    1    2    0    0  0.00000000000E+00  0.00000000000E+00  0.22086421234E+03  0.64023685038E+03  0.60093445923E+03 0.  0.
        2    1    3    3  502    0  0.23443880050E+03 -0.12539945795E+03 -0.38701286727E+02  0.26867148124E+03  0.25500000920E-02 0.  1.
       -2    1    3    3    0  502 -0.23443880050E+03  0.12539945795E+03  0.25956549907E+03  0.37156536914E+03  0.25500000920E-02 0. -1.
</event>
<event>
 5   0  0.3478183E-02  0.5930369E+03  0.7818609E-02  0.9919958E-01
        1   -1    0    0  501    0  0.00000000000E+00  0.00000000000E+00  0.21926759632E+03  0.21926759638E+03  0.50400001928E-02 0.  1.
       -1   -1    0    0    0  501  0.00000000000E+00  0.00000000000E+00 -0.40098580225E+03  0.40098580228E+03  0.50400001928E-02 0. -1.
    10030    2    1    2    0    0  0.00000000000E+00  0.00000000000E+00 -0.18171820593E+03  0.62025339866E+03  0.59303690626E+03 0.  0.
        4    1    3    3  502    0  0.16981563166E+03  0.95426124896E+02 -0.32467672616E+03  0.37862921635E+03  0.12699999809E+01 0. -1.
       -4    1    3    3    0  502 -0.16981563166E+03 -0.95426124896E+02  0.14295852023E+03  0.24162418231E+03  0.12699999809E+01 0.  1.
</event>
<event>
 5   0  0.5935451E-02  0.5994028E+03  0.7818609E-02  0.9906646E-01
        2   -1    0    0  501    0  0.00000000000E+00  0.00000000000E+00  0.74649416343E+03  0.74649416344E+03  0.25500000920E-02 0.  1.
       -2   -1    0    0    0  501  0.00000000000E+00  0.00000000000E+00 -0.12032368407E+03  0.12032368410E+03  0.25500000920E-02 0. -1.
    10030    2    1    2    0    0  0.00000000000E+00  0.00000000000E+00  0.62617047936E+03  0.86681784754E+03  0.59940279577E+03 0.  0.
        3    1    3    3  502    0  0.19181334292E+03 -0.22659253033E+03  0.25373401535E+03  0.39053488202E+03  0.10100000352E+00 0.  1.
       -3    1    3    3    0  502 -0.19181334292E+03  0.22659253033E+03  0.37243646401E+03  0.47628296552E+03  0.10100000352E+00 0. -1.
</event>
<event>
 5   0  0.5999117E-02  0.5930864E+03  0.7818609E-02  0.9919854E-01
       -2   -1    0    0    0  501  0.00000000000E+00  0.00000000000E+00  0.45046345071E+02  0.45046345143E+02  0.25500000920E-02 0. -1.
        2   -1    0    0  501    0  0.00000000000E+00  0.00000000000E+00 -0.19521644698E+04  0.19521644698E+04  0.25500000920E-02 0.  1.
    10030    2    1    2    0    0  0.00000000000E+00  0.00000000000E+00 -0.19071181248E+04  0.19972108150E+04  0.59308641670E+03 0.  0.
        5    1    3    3  502    0  0.21824953155E+03  0.68666055925E+02 -0.15886487173E+04  0.16050466418E+04  0.46999998093E+01 0.  1.
       -5    1    3    3    0  502 -0.21824953155E+03 -0.68666055925E+02 -0.31846940742E+03  0.39216417317E+03  0.46999998093E+01 0. -1.
</event>
<event>
 5   0  0.2388000E-02  0.5828266E+03  0.7818609E-02  0.9941690E-01
        3   -1    0    0  501    0  0.00000000000E+00  0.00000000000E+00  0.76155209943E+02  0.76155276918E+02  0.10100000352E+00 0.  1.
       -3   -1    0    0    0  501  0.00000000000E+00  0.00000000000E+00 -0.11151130553E+04  0.11151130599E+04  0.10100000352E+00 0. -1.
    10030    2    1    2    0    0  0.00000000000E+00  0.00000000000E+00 -0.10389578454E+04  0.11912683368E+04  0.58282660013E+03 0.  0.
        4    1    3    3  502    0  0.21412523179E+03 -0.14110360808E+03 -0.80240363404E+03  0.84238533221E+03  0.12699999809E+01 0. -1.
       -4    1    3    3    0  502 -0.21412523179E+03  0.14110360808E+03 -0.23655421135E+03  0.34888300461E+03  0.12699999809E+01 0.  1.
</event>
<event>
 5   0  0.3703280E-02  0.6091464E+03  0.7818609E-02  0.9886610E-01
       -1   -1    0    0    0  501  0.00000000000E+00  0.00000000000E+00  0.10526060998E+04  0.10526060998E+04  0.50400001928E-02 0. -1.
        1   -1    0    0  501    0  0.00000000000E+00  0.00000000000E+00 -0.88128738221E+02  0.88128738365E+02  0.50400001928E-02 0.  1.
    10030    2    1    2    0    0  0.00000000000E+00  0.00000000000E+00  0.96447736153E+03  0.11407348381E+04  0.60914644382E+03 0.  0.
        5    1    3    3  502    0 -0.52334054896E+02 -0.28918486420E+03  0.33270542925E+03  0.44393888277E+03  0.46999998093E+01 0.  1.
       -5    1    3    3    0  502  0.52334054896E+02  0.28918486420E+03  0.63177193228E+03  0.69679595536E+03  0.46999998093E+01 0. -1.
</event>
<event>
 5   0  0.5999117E-02  0.6028664E+03  0.7818609E-02  0.9899477E-01
       -2   -1    0    0    0  501  0.00000000000E+00  0.00000000000E+00  0.96040954262E+02  0.96040954295E+02  0.25500000920E-02 0.  1.
        2   -1    0    0  501    0  0.00000000000E+00  0.00000000000E+00 -0.94607535121E+03  0.94607535121E+03  0.25500000920E-02 0. -1.
    10030    2    1    2    0    0  0.00000000000E+00  0.00000000000E+00 -0.85003439694E+03  0.10421163055E+04  0.60286641821E+03 0.  0.
        5    1    3    3  502    0 -0.28477596408E+03  0.18623624929E+02 -0.25746131613E+03  0.38438601487E+03  0.46999998093E+01 0.  1.
       -5    1    3    3    0  502  0.28477596408E+03 -0.18623624929E+02 -0.59257308081E+03  0.65773029064E+03  0.46999998093E+01 0. -1.
</event>
<event>
 5   0  0.5872632E-02  0.5778322E+03  0.7818609E-02  0.9952495E-01
        2   -1    0    0  501    0  0.00000000000E+00  0.00000000000E+00  0.63265133862E+03  0.63265133863E+03  0.25500000920E-02 0. -1.
       -2   -1    0    0    0  501  0.00000000000E+00  0.00000000000E+00 -0.13194076634E+03  0.13194076636E+03  0.25500000920E-02 0.  1.
    10030    2    1    2    0    0  0.00000000000E+00  0.00000000000E+00  0.50071057229E+03  0.76459210499E+03  0.57783216405E+03 0.  0.
        1    1    3    3  502    0 -0.12820976606E+03 -0.14039248164E+03  0.53820915759E+03  0.57080372314E+03  0.50400001928E-02 0. -1.
       -1    1    3    3    0  502  0.12820976606E+03  0.14039248164E+03 -0.37498585304E+02  0.19378838185E+03  0.50400001928E-02 0.  1.
</event>
<event>
 5   0  0.3478183E-02  0.6002124E+03  0.7818609E-02  0.9904966E-01
       -1   -1    0    0    0  501  0.00000000000E+00  0.00000000000E+00  0.13497792932E+04  0.13497792932E+04  0.50400001928E-02 0.  1.
        1   -1    0    0  501    0  0.00000000000E+00  0.00000000000E+00 -0.66724782640E+02  0.66724782831E+02  0.50400001928E-02 0. -1.
    10030    2    1    2    0    0  0.00000000000E+00  0.00000000000E+00  0.12830545105E+04  0.14165040760E+04  0.60021239604E+03 0.  0.
        4    1    3    3  502    0 -0.20110116795E+03 -0.16672274699E+03  0.29288527706E+03  0.39245579691E+03  0.12699999809E+01 0. -1.
       -4    1    3    3    0  502  0.20110116795E+03  0.16672274699E+03  0.99016923345E+03  0.10240482791E+04  0.12699999809E+01 0.  1.
</event>
<event>
 5   0  0.2388000E-02  0.7067440E+03  0.7818609E-02  0.9705768E-01
       -3   -1    0    0    0  501  0.00000000000E+00  0.00000000000E+00  0.37746401193E+03  0.37746402544E+03  0.10100000352E+00 0.  1.
        3   -1    0    0  501    0  0.00000000000E+00  0.00000000000E+00 -0.33081769769E+03  0.33081771311E+03  0.10100000352E+00 0. -1.
    10030    2    1    2    0    0  0.00000000000E+00  0.00000000000E+00  0.46646314238E+02  0.70828173855E+03  0.70674404315E+03 0.  0.
        3    1    3    3  502    0 -0.38576714073E+02 -0.34845636151E+03  0.67711473438E+02  0.35706421353E+03  0.10100000352E+00 0. -1.
       -3    1    3    3    0  502  0.38576714073E+02  0.34845636151E+03 -0.21065159200E+02  0.35121752502E+03  0.10100000352E+00 0.  1.
</event>
<event>
 5   0  0.3703280E-02  0.5967284E+03  0.7818609E-02  0.9912217E-01
        1   -1    0    0  501    0  0.00000000000E+00  0.00000000000E+00  0.71305600568E+03  0.71305600570E+03  0.50400001928E-02 0. -1.
       -1   -1    0    0    0  501  0.00000000000E+00  0.00000000000E+00 -0.12484460680E+03  0.12484460690E+03  0.50400001928E-02 0.  1.
    10030    2    1    2    0    0  0.00000000000E+00  0.00000000000E+00  0.58821139888E+03  0.83790061261E+03  0.59672840290E+03 0.  0.
        5    1    3    3  502    0  0.91786025084E+02  0.27000074074E+03  0.17109932734E+03  0.33259907429E+03  0.46999998093E+01 0.  1.
       -5    1    3    3    0  502 -0.91786025084E+02 -0.27000074074E+03  0.41711207154E+03  0.50530153832E+03  0.46999998093E+01 0. -1.
</event>
<event>
 5   0  0.5999117E-02  0.5999635E+03  0.7818609E-02  0.9905482E-01
        2   -1    0    0  501    0  0.00000000000E+00  0.00000000000E+00  0.69130957161E+03  0.69130957162E+03  0.25500000920E-02 0.  1.
       -2   -1    0    0    0  501  0.00000000000E+00  0.00000000000E+00 -0.13017184509E+03  0.13017184512E+03  0.25500000920E-02 0. -1.
    10030    2    1    2    0    0  0.00000000000E+00  0.00000000000E+00  0.56113772652E+03  0.82148141674E+03  0.59996347382E+03 0.  0.
        5    1    3    3  502    0  0.23561015405E+03  0.18129766691E+03  0.22604086406E+03  0.37349370937E+03  0.46999998093E+01 0. -1.
       -5    1    3    3    0  502 -0.23561015405E+03 -0.18129766691E+03  0.33509686247E+03  0.44798770736E+03  0.46999998093E+01 0.  1.
</event>
<event>
 5   0  0.5755078E-02  0.6000387E+03  0.7818609E-02  0.9905326E-01
       -2   -1    0    0    0  501  0.00000000000E+00  0.00000000000E+00  0.20033829870E+03  0.20033829872E+03  0.25500000920E-02 0.  1.
        2   -1    0    0  501    0  0.00000000000E+00  0.00000000000E+00 -0.44929812335E+03  0.44929812335E+03  0.25500000920E-02 0. -1.
    10030    2    1    2    0    0  0.00000000000E+00  0.00000000000E+00 -0.24895982464E+03  0.64963642207E+03  0.60003873758E+03 0.  0.
        2    1    3    3  502    0 -0.27654589898E+03  0.11484145358E+03 -0.10435797434E+03  0.31710689132E+03  0.25500000920E-02 0.  1.
       -2    1    3    3    0  502  0.27654589898E+03 -0.11484145358E+03 -0.14460185030E+03  0.33252953075E+03  0.25500000920E-02 0. -1.
</event>
<event>
 5   0  0.5935451E-02  0.5898140E+03  0.7818609E-02  0.9926767E-01
        2   -1    0    0  501    0  0.00000000000E+00  0.00000000000E+00  0.48775713780E+03  0.48775713781E+03  0.25500000920E-02 0.  1.
       -2   -1    0    0    0  501  0.00000000000E+00  0.00000000000E+00 -0.17830626276E+03  0.17830626278E+03  0.25500000920E-02 0. -1.
    10030    2    1    2    0    0  0.00000000000E+00  0.00000000000E+00  0.30945087504E+03  0.66606340059E+03  0.58981404658E+03 0.  0.
        3    1    3    3  502    0 -0.23125142395E+01 -0.29160953531E+03  0.20431951340E+03  0.35607294556E+03  0.10100000352E+00 0.  1.
       -3    1    3    3    0  502  0.23125142395E+01  0.29160953531E+03  0.10513136164E+03  0.30999045502E+03  0.10100000352E+00 0. -1.
</event>
<event>
 5   0  0.3651984E-02  0.5947211E+03  0.7818609E-02  0.9916419E-01
       -1   -1    0    0    0  501  0.00000000000E+00  0.00000000000E+00  0.69245560859E+02  0.69245561042E+02  0.50400001928E-02 0.  1.
        1   -1    0    0  501    0  0.00000000000E+00  0.00000000000E+00 -0.12769525852E+04  0.12769525852E+04  0.50400001928E-02 0. -1.
    10030    2    1    2    0    0  0.00000000000E+00  0.00000000000E+00 -0.12077070243E+04  0.13461981463E+04  0.59472110466E+03 0.  0.
        1    1    3    3  502    0  0.64805027781E+02  0.23036373404E+03 -0.10034002378E+04  0.10315421362E+04  0.50400001928E-02 0. -1.
       -1    1    3    3    0  502 -0.64805027781E+02 -0.23036373404E+03 -0.20430678653E+03  0.31465601001E+03  0.50400001928E-02 0.  1.
</event>
<event>
 5   0  0.5935451E-02  0.5992916E+03  0.7818609E-02  0.9906877E-01
        2   -1    0    0  501    0  0.00000000000E+00  0.00000000000E+00  0.69763863947E+03  0.69763863948E+03  0.25500000920E-02 0.  1.
       -2   -1    0    0    0  501  0.00000000000E+00  0.00000000000E+00 -0.12870217954E+03  0.12870217956E+03  0.25500000920E-02 0. -1.
    10030    2    1    2    0    0  0.00000000000E+00  0.00000000000E+00  0.56893645993E+03  0.82634081904E+03  0.59929162664E+03 0.  0.
        3    1    3    3  502    0 -0.89203498552E+02  0.28130188939E+03  0.35611054142E+03  0.46249621083E+03  0.10100000352E+00 0. -1.
       -3    1    3    3    0  502  0.89203498552E+02 -0.28130188939E+03  0.21282591852E+03  0.36384460820E+03  0.10100000352E+00 0.  1.
</event>
<event>
 5   0  0.5999117E-02  0.5766948E+03  0.7818609E-02  0.9954972E-01
       -2   -1    0    0    0  501  0.00000000000E+00  0.00000000000E+00  0.64793774578E+02  0.64793774628E+02  0.25500000920E-02 0. -1.
        2   -1    0    0  501    0  0.00000000000E+00  0.00000000000E+00 -0.12832131830E+04  0.12832131830E+04  0.25500000920E-02 0.  1.
    10030    2    1    2    0    0  0.00000000000E+00  0.00000000000E+00 -0.12184194085E+04  0.13480069577E+04  0.57669480925E+03 0.  0.
        5    1    3    3  502    0  0.68314282796E+02  0.92668895056E+02  0.86424050095E+01  0.11554716140E+03  0.46999998093E+01 0. -1.
       -5    1    3    3    0  502 -0.68314282796E+02 -0.92668895056E+02 -0.12270618135E+04  0.12324597963E+04  0.46999998093E+01 0.  1.
</event>
<event>
 5   0  0.3478183E-02  0.6096078E+03  0.7818609E-02  0.9885671E-01
        1   -1    0    0  501    0  0.00000000000E+00  0.00000000000E+00  0.65217952004E+03  0.65217952006E+03  0.50400001928E-02 0. -1.
       -1   -1    0    0    0  501  0.00000000000E+00  0.00000000000E+00 -0.14245374090E+03  0.14245374099E+03  0.50400001928E-02 0.  1.
    10030    2    1    2    0    0  0.00000000000E+00  0.00000000000E+00  0.50972577914E+03  0.79463326105E+03  0.60960778346E+03 0.  0.
        4    1    3    3  502    0 -0.18159429460E+01 -0.29464411768E+03  0.15317742752E+03  0.33208943213E+03  0.12699999809E+01 0.  1.
       -4    1    3    3    0  502  0.18159429460E+01  0.29464411768E+03  0.35654835162E+03  0.46254382892E+03  0.12699999809E+01 0. -1.
</event>
<event>
 5   0  0.2388000E-02  0.5974692E+03  0.7818609E-02  0.9910671E-01
        4   -1    0    0  501    0  0.00000000000E+00  0.00000000000E+00  0.29264519051E+03  0.29264794622E+03  0.12699999809E+01 0. -1.
       -4   -1    0    0    0  501  0.00000000000E+00  0.00000000000E+00 -0.30494520903E+03  0.30494785359E+03  0.12699999809E+01 0.  1.
    10030    2    1    2    0    0  0.00000000000E+00  0.00000000000E+00 -0.12300018519E+02  0.59759579981E+03  0.59746920380E+03 0.  0.
        5    1    3    3  502    0 -0.32240851087E+02 -0.17796014300E+03  0.23162075815E+03  0.29390398190E+03  0.46999998093E+01 0. -1.
       -5    1    3    3    0  502  0.32240851087E+02  0.17796014300E+03 -0.24392077666E+03  0.30369181791E+03  0.46999998093E+01 0.  1.
</event>
<event>
 5   0  0.6007360E-02  0.5897292E+03  0.7818609E-02  0.9926947E-01
        2   -1    0    0  501    0  0.00000000000E+00  0.00000000000E+00  0.61000641546E+03  0.61000641546E+03  0.25500000920E-02 0.  1.
       -2   -1    0    0    0  501  0.00000000000E+00  0.00000000000E+00 -0.14253149368E+03  0.14253149371E+03  0.25500000920E-02 0. -1.
    10030    2    1    2    0    0  0.00000000000E+00  0.00000000000E+00  0.46747492178E+03  0.75253790917E+03  0.58972917703E+03 0.  0.
        4    1    3    3  502    0 -0.28423226061E+03  0.67237156864E+02  0.18214399271E+03  0.34421920373E+03  0.12699999809E+01 0.  1.
       -4    1    3    3    0  502  0.28423226061E+03 -0.67237156864E+02  0.28533092906E+03  0.40831870544E+03  0.12699999809E+01 0. -1.
</event>
<event>
 5   0  0.6007360E-02  0.6007928E+03  0.7818609E-02  0.9903763E-01
       -2   -1    0    0    0  501  0.00000000000E+00  0.00000000000E+00  0.18350195396E+03  0.18350195398E+03  0.25500000920E-02 0. -1.
        2   -1    0    0  501    0  0.00000000000E+00  0.00000000000E+00 -0.49175489293E+03  0.49175489294E+03  0.25500000920E-02 0.  1.
    10030    2    1    2    0    0  0.00000000000E+00  0.00000000000E+00 -0.30825293897E+03  0.67525684692E+03  0.60079275539E+03 0.  0.
        4    1    3    3  502    0  0.26912770498E+03  0.10083146737E+03 -0.55888030965E+02  0.29278283984E+03  0.12699999809E+01 0.  1.
       -4    1    3    3    0  502 -0.26912770498E+03 -0.10083146737E+03 -0.25236490800E+03  0.38247400708E+03  0.12699999809E+01 0. -1.
</event>
<event>
 5   0  0.5755078E-02  0.6064269E+03  0.7818609E-02  0.9892161E-01
       -2   -1    0    0    0  501  0.00000000000E+00  0.00000000000E+00  0.28130147947E+03  0.28130147948E+03  0.25500000920E-02 0.  1.
        2   -1    0    0  501    0  0.00000000000E+00  0.00000000000E+00 -0.32683229875E+03  0.32683229876E+03  0.25500000920E-02 0. -1.
    10030    2    1    2    0    0  0.00000000000E+00  0.00000000000E+00 -0.45530819281E+02  0.60813377823E+03  0.60642694261E+03 0.  0.
        2    1    3    3  502    0 -0.17693775102E+03 -0.16306108729E+03 -0.20779087700E+03  0.31791969818E+03  0.25500000920E-02 0. -1.
       -2    1    3    3    0  502  0.17693775102E+03  0.16306108729E+03  0.16226005772E+03  0.29021408005E+03  0.25500000920E-02 0.  1.
</event>
<event>
 5   0  0.5872632E-02  0.5809087E+03  0.7818609E-02  0.9945826E-01
        2   -1    0    0  501    0  0.00000000000E+00  0.00000000000E+00  0.29855600430E+03  0.29855600431E+03  0.25500000920E-02 0. -1.
       -2   -1    0    0    0  501  0.00000000000E+00  0.00000000000E+00 -0.28257251982E+03  0.28257251983E+03  0.25500000920E-02 0.  1.
    10030    2    1    2    0    0  0.00000000000E+00  0.00000000000E+00  0.15983484479E+02  0.58112852414E+03  0.58090867595E+03 0.  0.
        1    1    3    3  502    0 -0.18152660878E+03 -0.20615837175E+03  0.10242311547E+03  0.29316152296E+03  0.50400001928E-02 0. -1.
       -1    1    3    3    0  502  0.18152660878E+03  0.20615837175E+03 -0.86439630987E+02  0.28796700118E+03  0.50400001928E-02 0.  1.
</event>
<event>
 5   0  0.6007360E-02  0.4897219E+03  0.7818609E-02  0.1016497E+00
        2   -1    0    0  501    0  0.00000000000E+00  0.00000000000E+00  0.11878808514E+04  0.11878808514E+04  0.25500000920E-02 0. -1.
       -2   -1    0    0    0  501  0.00000000000E+00  0.00000000000E+00 -0.50473812852E+02  0.50473812916E+02  0.25500000920E-02 0.  1.
    10030    2    1    2    0    0  0.00000000000E+00  0.00000000000E+00  0.11374070385E+04  0.12383546643E+04  0.48972186320E+03 0.  0.
        4    1    3    3  502    0  0.18575348004E+03 -0.61595556690E+02  0.94083263103E+03  0.96097139419E+03  0.12699999809E+01 0. -1.
       -4    1    3    3    0  502 -0.18575348004E+03  0.61595556690E+02  0.19657440749E+03  0.27738327010E+03  0.12699999809E+01 0.  1.
</event>
<event>
 5   0  0.5935451E-02  0.6323763E+03  0.7818609E-02  0.9840423E-01
       -2   -1    0    0    0  501  0.00000000000E+00  0.00000000000E+00  0.67569291367E+02  0.67569291416E+02  0.25500000920E-02 0.  1.
        2   -1    0    0  501    0  0.00000000000E+00  0.00000000000E+00 -0.14795916161E+04  0.14795916161E+04  0.25500000920E-02 0. -1.
    10030    2    1    2    0    0  0.00000000000E+00  0.00000000000E+00 -0.14120223248E+04  0.15471609075E+04  0.63237633433E+03 0.  0.
        3    1    3    3  502    0 -0.22710522310E+03  0.38445313025E+02 -0.17605561460E+03  0.28991449444E+03  0.10100000352E+00 0.  1.
       -3    1    3    3    0  502  0.22710522310E+03 -0.38445313025E+02 -0.12359667102E+04  0.12572464131E+04  0.10100000352E+00 0. -1.
</event>
<event>
 5   0  0.2388000E-02  0.6081013E+03  0.7818609E-02  0.9888739E-01
       -3   -1    0    0    0  501  0.00000000000E+00  0.00000000000E+00  0.34898929332E+03  0.34898930793E+03  0.10100000352E+00 0.  1.
        3   -1    0    0  501    0  0.00000000000E+00  0.00000000000E+00 -0.26489865635E+03  0.26489867560E+03  0.10100000352E+00 0. -1.
    10030    2    1    2    0    0  0.00000000000E+00  0.00000000000E+00  0.84090636970E+02  0.61388798353E+03  0.60810132470E+03 0.  0.
        3    1    3    3  502    0  0.25010810206E+03  0.16615748199E+03  0.90295782708E+02  0.31355336087E+03  0.10100000352E+00 0. -1.
       -3    1    3    3    0  502 -0.25010810206E+03 -0.16615748199E+03 -0.62051457381E+01  0.30033462266E+03  0.10100000352E+00 0.  1.
</event>
<event>
 5   0  0.3651984E-02  0.5955966E+03  0.7818609E-02  0.9914584E-01
       -1   -1    0    0    0  501  0.00000000000E+00  0.00000000000E+00  0.44005456053E+03  0.44005456056E+03  0.50400001928E-02 0. -1.
        1   -1    0    0  501    0  0.00000000000E+00  0.00000000000E+00 -0.20152913481E+03  0.20152913488E+03  0.50400001928E-02 0.  1.
    10030    2    1    2    0    0  0.00000000000E+00  0.00000000000E+00  0.23852542572E+03  0.64158369544E+03  0.59559655769E+03 0.  0.
        1    1    3    3  502    0 -0.35448215798E+02 -0.27433963967E+03  0.45155904529E+00  0.27662071113E+03  0.50400001928E-02 0.  1.
       -1    1    3    3    0  502  0.35448215798E+02  0.27433963967E+03  0.23807386667E+03  0.36496298431E+03  0.50400001928E-02 0. -1.
</event>
<event>
 5   0  0.3651984E-02  0.5950759E+03  0.7818609E-02  0.9915675E-01
       -1   -1    0    0    0  501  0.00000000000E+00  0.00000000000E+00  0.17955102908E+03  0.17955102915E+03  0.50400001928E-02 0.  1.
        1   -1    0    0  501    0  0.00000000000E+00  0.00000000000E+00 -0.49305665544E+03  0.49305665547E+03  0.50400001928E-02 0. -1.
    10030    2    1    2    0    0  0.00000000000E+00  0.00000000000E+00 -0.31350562636E+03  0.67260768461E+03  0.59507589402E+03 0.  0.
        1    1    3    3  502    0 -0.12474095441E+03  0.26864385990E+03 -0.18870223857E+03  0.35119562075E+03  0.50400001928E-02 0. -1.
       -1    1    3    3    0  502  0.12474095441E+03 -0.26864385990E+03 -0.12480338779E+03  0.32141206386E+03  0.50400001928E-02 0.  1.
</event>
<event>
 5   0  0.3478183E-02  0.6204192E+03  0.7818609E-02  0.9863925E-01
        1   -1    0    0  501    0  0.00000000000E+00  0.00000000000E+00  0.82130267625E+03  0.82130267627E+03  0.50400001928E-02 0.  1.
       -1   -1    0    0    0  501  0.00000000000E+00  0.00000000000E+00 -0.11716752203E+03  0.11716752214E+03  0.50400001928E-02 0. -1.
    10030    2    1    2    0    0  0.00000000000E+00  0.00000000000E+00  0.70413515422E+03  0.93847019841E+03  0.62041921142E+03 0.  0.
        4    1    3    3  502    0 -0.17142442079E+03  0.18958113292E+02  0.74208983446E+03  0.76186919967E+03  0.12699999809E+01 0.  1.
       -4    1    3    3    0  502  0.17142442079E+03 -0.18958113292E+02 -0.37954680239E+02  0.17660099874E+03  0.12699999809E+01 0. -1.
</event>
<event>
 5   0  0.3651984E-02  0.5999240E+03  0.7818609E-02  0.9905564E-01
        1   -1    0    0  501    0  0.00000000000E+00  0.00000000000E+00  0.14504615026E+04  0.14504615027E+04  0.50400001928E-02 0. -1.
       -1   -1    0    0    0  501  0.00000000000E+00  0.00000000000E+00 -0.62033505505E+02  0.62033505710E+02  0.50400001928E-02 0.  1.
    10030    2    1    2    0    0  0.00000000000E+00  0.00000000000E+00  0.13884279971E+04  0.15124950084E+04  0.59992403443E+03 0.  0.
        1    1    3    3  502    0  0.24455053673E+02 -0.98267692088E+02  0.14060639797E+04  0.14097058218E+04  0.50400001928E-02 0. -1.
       -1    1    3    3    0  502 -0.24455053673E+02  0.98267692088E+02 -0.17635982608E+02  0.10278918652E+03  0.50400001928E-02 0.  1.
</event>
<event>
 5   0  0.5872632E-02  0.5986567E+03  0.7818609E-02  0.9908197E-01
       -2   -1    0    0    0  501  0.00000000000E+00  0.00000000000E+00  0.97138577895E+02  0.97138577928E+02  0.25500000920E-02 0. -1.
        2   -1    0    0  501    0  0.00000000000E+00  0.00000000000E+00 -0.92236742112E+03  0.92236742112E+03  0.25500000920E-02 0.  1.
    10030    2    1    2    0    0  0.00000000000E+00  0.00000000000E+00 -0.82522884323E+03  0.10195059991E+04  0.59865669495E+03 0.  0.
        1    1    3    3  502    0 -0.21549363446E+03 -0.17950834810E+03 -0.23451799257E+03  0.36559464219E+03  0.50400001928E-02 0. -1.
       -1    1    3    3    0  502  0.21549363446E+03  0.17950834810E+03 -0.59071085066E+03  0.65391135687E+03  0.50400001928E-02 0.  1.
</event>
<event>
 5   0  0.6007360E-02  0.6002873E+03  0.7818609E-02  0.9904810E-01
        2   -1    0    0  501    0  0.00000000000E+00  0.00000000000E+00  0.23028664344E+04  0.23028664344E+04  0.25500000920E-02 0.  1.
       -2   -1    0    0    0  501  0.00000000000E+00  0.00000000000E+00 -0.39119170714E+02  0.39119170797E+02  0.25500000920E-02 0. -1.
    10030    2    1    2    0    0  0.00000000000E+00  0.00000000000E+00  0.22637472637E+04  0.23419856052E+04  0.60028734879E+03 0.  0.
        4    1    3    3  502    0 -0.95043159778E+02  0.26001041406E+03  0.67947477450E+03  0.73370716210E+03  0.12699999809E+01 0.  1.
       -4    1    3    3    0  502  0.95043159778E+02 -0.26001041406E+03  0.15842724892E+04  0.16082784431E+04  0.12699999809E+01 0. -1.
</event>
<event>
 5   0  0.5755078E-02  0.6036222E+03  0.7818609E-02  0.9897920E-01
        2   -1    0    0  501    0  0.00000000000E+00  0.00000000000E+00  0.10003795438E+04  0.10003795438E+04  0.25500000920E-02 0.  1.
       -2   -1    0    0    0  501  0.00000000000E+00  0.00000000000E+00 -0.91055372470E+02  0.91055372505E+02  0.25500000920E-02 0. -1.
    10030    2    1    2    0    0  0.00000000000E+00  0.00000000000E+00  0.90932417130E+03  0.10914349163E+04  0.60362217318E+03 0.  0.
        2    1    3    3  502    0  0.96147995248E+02  0.15236593138E+03  0.16844660397E+02  0.18095180747E+03  0.25500000920E-02 0. -1.
       -2    1    3    3    0  502 -0.96147995248E+02 -0.15236593138E+03  0.89247951090E+03  0.91048310881E+03  0.25500000920E-02 0.  1.
</event>
<event>
 5   0  0.3703280E-02  0.5995534E+03  0.7818609E-02  0.9906333E-01
       -1   -1    0    0    0  501  0.00000000000E+00  0.00000000000E+00  0.32145646985E+03  0.32145646989E+03  0.50400001928E-02 0.  1.
        1   -1    0    0  501    0  0.00000000000E+00  0.00000000000E+00 -0.27955904727E+03  0.27955904732E+03  0.50400001928E-02 0. -1.
    10030    2    1    2    0    0  0.00000000000E+00  0.00000000000E+00  0.41897422578E+02  0.60101551720E+03  0.59955338203E+03 0.  0.
        5    1    3    3  502    0  0.29462926560E+03  0.53662469949E+02  0.83518553164E+01  0.29962961855E+03  0.46999998093E+01 0.  1.
       -5    1    3    3    0  502 -0.29462926560E+03 -0.53662469949E+02  0.33545567261E+02  0.30138589865E+03  0.46999998093E+01 0. -1.
</event>
<event>
 5   0  0.3640827E-02  0.6133124E+03  0.7818609E-02  0.9878166E-01
       -1   -1    0    0    0  501  0.00000000000E+00  0.00000000000E+00  0.23273486284E+03  0.23273486289E+03  0.50400001928E-02 0.  1.
        1   -1    0    0  501    0  0.00000000000E+00  0.00000000000E+00 -0.40405648227E+03  0.40405648230E+03  0.50400001928E-02 0. -1.
    10030    2    1    2    0    0  0.00000000000E+00  0.00000000000E+00 -0.17132161943E+03  0.63679134519E+03  0.61331241633E+03 0.  0.
        3    1    3    3  502    0  0.92557247050E+02 -0.12372757148E+03  0.18936181976E+03  0.24440389708E+03  0.10100000352E+00 0.  1.
       -3    1    3    3    0  502 -0.92557247050E+02  0.12372757148E+03 -0.36068343919E+03  0.39238744811E+03  0.10100000352E+00 0. -1.
</event>
<event>
 5   0  0.5872632E-02  0.6062217E+03  0.7818609E-02  0.9892582E-01
       -2   -1    0    0    0  501  0.00000000000E+00  0.00000000000E+00  0.93183641195E+02  0.93183641230E+02  0.25500000920E-02 0. -1.
        2   -1    0    0  501    0  0.00000000000E+00  0.00000000000E+00 -0.98596891794E+03  0.98596891794E+03  0.25500000920E-02 0.  1.
    10030    2    1    2    0    0  0.00000000000E+00  0.00000000000E+00 -0.89278527674E+03  0.10791525592E+04  0.60622165550E+03 0.  0.
        1    1    3    3  502    0  0.25794825170E+03  0.14571814926E+03 -0.56044728085E+03  0.63393393521E+03  0.50400001928E-02 0. -1.
       -1    1    3    3    0  502 -0.25794825170E+03 -0.14571814926E+03 -0.33233799589E+03  0.44521862396E+03  0.50400001928E-02 0.  1.
</event>
<event>
 5   0  0.3478183E-02  0.6070649E+03  0.7818609E-02  0.9890856E-01
        1   -1    0    0  501    0  0.00000000000E+00  0.00000000000E+00  0.42706276588E+03  0.42706276591E+03  0.50400001928E-02 0. -1.
       -1   -1    0    0    0  501  0.00000000000E+00  0.00000000000E+00 -0.21573399470E+03  0.21573399475E+03  0.50400001928E-02 0.  1.
    10030    2    1    2    0    0  0.00000000000E+00  0.00000000000E+00  0.21132877118E+03  0.64279676066E+03  0.60706492733E+03 0.  0.
        4    1    3    3  502    0  0.27316971418E+03  0.11001253351E+03  0.18351683348E+03  0.34699350332E+03  0.12699999809E+01 0. -1.
       -4    1    3    3    0  502 -0.27316971418E+03 -0.11001253351E+03  0.27811937700E+02  0.29580325734E+03  0.12699999809E+01 0.  1.
</event>
<event>
 5   0  0.3651984E-02  0.5999324E+03  0.7818609E-02  0.9905546E-01
        1   -1    0    0  501    0  0.00000000000E+00  0.00000000000E+00  0.32182269233E+03  0.32182269237E+03  0.50400001928E-02 0.  1.
       -1   -1    0    0    0  501  0.00000000000E+00  0.00000000000E+00 -0.27959409448E+03  0.27959409452E+03  0.50400001928E-02 0. -1.
    10030    2    1    2    0    0  0.00000000000E+00  0.00000000000E+00  0.42228597851E+02  0.60141678689E+03  0.59993241042E+03 0.  0.
        1    1    3    3  502    0 -0.21466452323E+03  0.11803781631E+03 -0.15242074050E+03  0.28852359656E+03  0.50400001928E-02 0. -1.
       -1    1    3    3    0  502  0.21466452323E+03 -0.11803781631E+03  0.19464933835E+03  0.31289319033E+03  0.50400001928E-02 0.  1.
</event>
<event>
 5   0  0.3651984E-02  0.5608008E+03  0.7818609E-02  0.9990244E-01
       -1   -1    0    0    0  501  0.00000000000E+00  0.00000000000E+00  0.17493315971E+03  0.17493315979E+03  0.50400001928E-02 0. -1.
        1   -1    0    0  501    0  0.00000000000E+00  0.00000000000E+00 -0.44945390901E+03  0.44945390904E+03  0.50400001928E-02 0.  1.
    10030    2    1    2    0    0  0.00000000000E+00  0.00000000000E+00 -0.27452074930E+03  0.62438706883E+03  0.56080082910E+03 0.  0.
        1    1    3    3  502    0 -0.19962867718E+03 -0.15795283452E+03 -0.63550898944E+01  0.25463914443E+03  0.50400001928E-02 0. -1.
       -1    1    3    3    0  502  0.19962867718E+03  0.15795283452E+03 -0.26816565940E+03  0.36974792439E+03  0.50400001928E-02 0.  1.
</event>
<event>
 5   0  0.2388000E-02  0.6040387E+03  0.7818609E-02  0.9897062E-01
        3   -1    0    0  501    0  0.00000000000E+00  0.00000000000E+00  0.98470857717E+03  0.98470858235E+03  0.10100000352E+00 0. -1.
       -3   -1    0    0    0  501  0.00000000000E+00  0.00000000000E+00 -0.92632120619E+02  0.92632175681E+02  0.10100000352E+00 0.  1.
    10030    2    1    2    0    0  0.00000000000E+00  0.00000000000E+00  0.89207645655E+03  0.10773407580E+04  0.60403866150E+03 0.  0.
        4    1    3    3  502    0 -0.10296796875E+03 -0.52575120573E+02 -0.51596564926E+02  0.12661107497E+03  0.12699999809E+01 0.  1.
       -4    1    3    3    0  502  0.10296796875E+03  0.52575120573E+02  0.94367302148E+03  0.95072968306E+03  0.12699999809E+01 0. -1.
</event>
<event>
 5   0  0.3703280E-02  0.6096246E+03  0.7818609E-02  0.9885637E-01
       -1   -1    0    0    0  501  0.00000000000E+00  0.00000000000E+00  0.25592347924E+03  0.25592347929E+03  0.50400001928E-02 0.  1.
        1   -1    0    0  501    0  0.00000000000E+00  0.00000000000E+00 -0.36304029445E+03  0.36304029449E+03  0.50400001928E-02 0. -1.
    10030    2    1    2    0    0  0.00000000000E+00  0.00000000000E+00 -0.10711681522E+03  0.61896377377E+03  0.60962459034E+03 0.  0.
        5    1    3    3  502    0  0.47068920254E+02 -0.13106021220E+03  0.22169654809E+03  0.26184673363E+03  0.46999998093E+01 0.  1.
       -5    1    3    3    0  502 -0.47068920254E+02  0.13106021220E+03 -0.32881336331E+03  0.35711704015E+03  0.46999998093E+01 0. -1.
</event>
<event>
 5   0  0.3640827E-02  0.5957613E+03  0.7818609E-02  0.9914239E-01
       -1   -1    0    0    0  501  0.00000000000E+00  0.00000000000E+00  0.13116531926E+03  0.13116531936E+03  0.50400001928E-02 0.  1.
        1   -1    0    0  501    0  0.00000000000E+00  0.00000000000E+00 -0.67649656576E+03  0.67649656578E+03  0.50400001928E-02 0. -1.
    10030    2    1    2    0    0  0.00000000000E+00  0.00000000000E+00 -0.54533124650E+03  0.80766188514E+03  0.59576132158E+03 0.  0.
        3    1    3    3  502    0 -0.12897488254E+03  0.14162105000E+03  0.36601381262E+02  0.19501464930E+03  0.10100000352E+00 0.  1.
       -3    1    3    3    0  502  0.12897488254E+03 -0.14162105000E+03 -0.58193262777E+03  0.61264723584E+03  0.10100000352E+00 0. -1.
</event>
<event>
 5   0  0.6007360E-02  0.6043458E+03  0.7818609E-02  0.9896431E-01
        2   -1    0    0  501    0  0.00000000000E+00  0.00000000000E+00  0.68201933486E+03  0.68201933486E+03  0.25500000920E-02 0. -1.
       -2   -1    0    0    0  501  0.00000000000E+00  0.00000000000E+00 -0.13387956571E+03  0.13387956573E+03  0.25500000920E-02 0.  1.
    10030    2    1    2    0    0  0.00000000000E+00  0.00000000000E+00  0.54813976915E+03  0.81589890060E+03  0.60434576980E+03 0.  0.
        4    1    3    3  502    0  0.25139157241E+03  0.34819117911E+02  0.49548166835E+03  0.55669901223E+03  0.12699999809E+01 0. -1.
       -4    1    3    3    0  502 -0.25139157241E+03 -0.34819117911E+02  0.52658100799E+02  0.25919988837E+03  0.12699999809E+01 0.  1.
</event>
<event>
 5   0  0.5872632E-02  0.5853335E+03  0.7818609E-02  0.9936310E-01
        2   -1    0    0  501    0  0.00000000000E+00  0.00000000000E+00  0.25084214291E+04  0.25084214291E+04  0.25500000920E-02 0.  1.
       -2   -1    0    0    0  501  0.00000000000E+00  0.00000000000E+00 -0.34146508197E+02  0.34146508292E+02  0.25500000920E-02 0. -1.
    10030    2    1    2    0    0  0.00000000000E+00  0.00000000000E+00  0.24742749209E+04  0.25425679374E+04  0.58533352206E+03 0.  0.
        1    1    3    3  502    0 -0.26614716663E+03 -0.27738144688E+02  0.72225381961E+03  0.77023002988E+03  0.50400001928E-02 0. -1.
       -1    1    3    3    0  502  0.26614716663E+03  0.27738144688E+02  0.17520211013E+04  0.17723379075E+04  0.50400001928E-02 0.  1.
</event>
<event>
 5   0  0.3478183E-02  0.5807051E+03  0.7818609E-02  0.9946266E-01
       -1   -1    0    0    0  501  0.00000000000E+00  0.00000000000E+00  0.27843006950E+03  0.27843006954E+03  0.50400001928E-02 0.  1.
        1   -1    0    0  501    0  0.00000000000E+00  0.00000000000E+00 -0.30278551183E+03  0.30278551188E+03  0.50400001928E-02 0. -1.
    10030    2    1    2    0    0  0.00000000000E+00  0.00000000000E+00 -0.24355442338E+02  0.58121558142E+03  0.58070505811E+03 0.  0.
        4    1    3    3  502    0 -0.47243674311E+02  0.25876764631E+03  0.11085438301E+03  0.28545221434E+03  0.12699999809E+01 0.  1.
       -4    1    3    3    0  502  0.47243674311E+02 -0.25876764631E+03 -0.13520982534E+03  0.29576336708E+03  0.12699999809E+01 0. -1.
</event>
<event>
 5   0  0.5999117E-02  0.5824818E+03  0.7818609E-02  0.9942432E-01
        2   -1    0    0  501    0  0.00000000000E+00  0.00000000000E+00  0.57883034416E+03  0.57883034416E+03  0.25500000920E-02 0. -1.
       -2   -1    0    0    0  501  0.00000000000E+00  0.00000000000E+00 -0.14653906994E+03  0.14653906996E+03  0.25500000920E-02 0.  1.
    10030    2    1    2    0    0  0.00000000000E+00  0.00000000000E+00  0.43229127422E+03  0.72536941413E+03  0.58248179473E+03 0.  0.
        5    1    3    3  502    0  0.61660591086E+02 -0.20529753861E+03  0.46160112337E+03  0.50896639864E+03  0.46999998093E+01 0. -1.
       -5    1    3    3    0  502 -0.61660591086E+02  0.20529753861E+03 -0.29309849154E+02  0.21640301548E+03  0.46999998093E+01 0.  1.
</event>
<event>
 5   0  0.3478183E-02  0.5936589E+03  0.7818609E-02  0.9918650E-01
       -1   -1    0    0    0  501  0.00000000000E+00  0.00000000000E+00  0.27668171299E+03  0.27668171303E+03  0.50400001928E-02 0.  1.
        1   -1    0    0  501    0  0.00000000000E+00  0.00000000000E+00 -0.31844429077E+03  0.31844429081E+03  0.50400001928E-02 0. -1.
    10030    2    1    2    0    0  0.00000000000E+00  0.00000000000E+00 -0.41762577779E+02  0.59512600384E+03  0.59365886462E+03 0.  0.
        4    1    3    3  502    0 -0.64206598861E+02  0.22337563640E+03  0.16420146678E+03  0.28457494069E+03  0.12699999809E+01 0.  1.
       -4    1    3    3    0  502  0.64206598861E+02 -0.22337563640E+03 -0.20596404456E+03  0.31055106315E+03  0.12699999809E+01 0. -1.
</event>
<event>
 5   0  0.3651984E-02  0.5926109E+03  0.7818609E-02  0.9920856E-01
       -1   -1    0    0    0  501  0.00000000000E+00  0.00000000000E+00  0.19972524350E+03  0.19972524356E+03  0.50400001928E-02 0. -1.
        1   -1    0    0  501    0  0.00000000000E+00  0.00000000000E+00 -0.43958847841E+03  0.43958847843E+03  0.50400001928E-02 0.  1.
    10030    2    1    2    0    0  0.00000000000E+00  0.00000000000E+00 -0.23986323491E+03  0.63931372200E+03  0.59261088724E+03 0.  0.
        1    1    3    3  502    0 -0.21995523085E+03  0.17388357366E+03 -0.22330104632E+03  0.35843989466E+03  0.50400001928E-02 0.  1.
       -1    1    3    3    0  502  0.21995523085E+03 -0.17388357366E+03 -0.16562188586E+02  0.28087382734E+03  0.50400001928E-02 0. -1.
</event>
<event>
 5   0  0.3651984E-02  0.6119095E+03  0.7818609E-02  0.9881001E-01
       -1   -1    0    0    0  501  0.00000000000E+00  0.00000000000E+00  0.98038824929E+02  0.98038825059E+02  0.50400001928E-02 0. -1.
        1   -1    0    0  501    0  0.00000000000E+00  0.00000000000E+00 -0.95480852452E+03  0.95480852453E+03  0.50400001928E-02 0.  1.
    10030    2    1    2    0    0  0.00000000000E+00  0.00000000000E+00 -0.85676969959E+03  0.10528473496E+04  0.61190948955E+03 0.  0.
        1    1    3    3  502    0  0.57761738560E+02  0.11307504150E+03  0.50564539061E+02  0.13667170917E+03  0.50400001928E-02 0. -1.
       -1    1    3    3    0  502 -0.57761738560E+02 -0.11307504150E+03 -0.90733423865E+03  0.91617564043E+03  0.50400001928E-02 0.  1.
</event>
<event>
 5   0  0.3640827E-02  0.6027476E+03  0.7818609E-02  0.9899722E-01
       -1   -1    0    0    0  501  0.00000000000E+00  0.00000000000E+00  0.38295778655E+03  0.38295778658E+03  0.50400001928E-02 0. -1.
        1   -1    0    0  501    0  0.00000000000E+00  0.00000000000E+00 -0.23717016669E+03  0.23717016674E+03  0.50400001928E-02 0.  1.
    10030    2    1    2    0    0  0.00000000000E+00  0.00000000000E+00  0.14578761986E+03  0.62012795332E+03  0.60274758265E+03 0.  0.
        3    1    3    3  502    0  0.76626308890E+02 -0.26422173158E+03 -0.53704929534E+02  0.28030152392E+03  0.10100000352E+00 0.  1.
       -3    1    3    3    0  502 -0.76626308890E+02  0.26422173158E+03  0.19949254940E+03  0.33982642940E+03  0.10100000352E+00 0. -1.
</event>
<event>
 5   0  0.5999117E-02  0.6032282E+03  0.7818609E-02  0.9898731E-01
        2   -1    0    0  501    0  0.00000000000E+00  0.00000000000E+00  0.14877811115E+04  0.14877811115E+04  0.25500000920E-02 0. -1.
       -2   -1    0    0    0  501  0.00000000000E+00  0.00000000000E+00 -0.61145464654E+02  0.61145464707E+02  0.25500000920E-02 0.  1.
    10030    2    1    2    0    0  0.00000000000E+00  0.00000000000E+00  0.14266356469E+04  0.15489265762E+04  0.60322820694E+03 0.  0.
        5    1    3    3  502    0 -0.14923991566E+03  0.22586051530E+03  0.10545790829E+04  0.10887812714E+04  0.46999998093E+01 0. -1.
       -5    1    3    3    0  502  0.14923991566E+03 -0.22586051530E+03  0.37205656398E+03  0.46014530488E+03  0.46999998093E+01 0.  1.
</event>
<event>
 5   0  0.5872632E-02  0.6024643E+03  0.7818609E-02  0.9900306E-01
        2   -1    0    0  501    0  0.00000000000E+00  0.00000000000E+00  0.80665791289E+03  0.80665791290E+03  0.25500000920E-02 0.  1.
       -2   -1    0    0    0  501  0.00000000000E+00  0.00000000000E+00 -0.11248984376E+03  0.11248984378E+03  0.25500000920E-02 0. -1.
    10030    2    1    2    0    0  0.00000000000E+00  0.00000000000E+00  0.69416806914E+03  0.91914775668E+03  0.60246434783E+03 0.  0.
        1    1    3    3  502    0 -0.20676502563E+03  0.20433288670E+03  0.22659543243E+03  0.36857725708E+03  0.50400001928E-02 0. -1.
       -1    1    3    3    0  502  0.20676502563E+03 -0.20433288670E+03  0.46757263671E+03  0.55057049960E+03  0.50400001928E-02 0.  1.
</event>
<event>
 5   0  0.3478183E-02  0.6016808E+03  0.7818609E-02  0.9901925E-01
        1   -1    0    0  501    0  0.00000000000E+00  0.00000000000E+00  0.42789209148E+03  0.42789209151E+03  0.50400001928E-02 0.  1.
       -1   -1    0    0    0  501  0.00000000000E+00  0.00000000000E+00 -0.21151349654E+03  0.21151349660E+03  0.50400001928E-02 0. -1.
    10030    2    1    2    0    0  0.00000000000E+00  0.00000000000E+00  0.21637859494E+03  0.63940558811E+03  0.60168082050E+03 0.  0.
        4    1    3    3  502    0 -0.12143762881E+03  0.16312391322E+03  0.34377993015E+03  0.39942804361E+03  0.12699999809E+01 0.  1.
       -4    1    3    3    0  502  0.12143762881E+03 -0.16312391322E+03 -0.12740133521E+03  0.23997754450E+03  0.12699999809E+01 0. -1.
</event>
<event>
 5   0  0.3640827E-02  0.6007013E+03  0.7818609E-02  0.9903952E-01
        1   -1    0    0  501    0  0.00000000000E+00  0.00000000000E+00  0.78965095367E+03  0.78965095369E+03  0.50400001928E-02 0. -1.
       -1   -1    0    0    0  501  0.00000000000E+00  0.00000000000E+00 -0.11424101029E+03  0.11424101040E+03  0.50400001928E-02 0.  1.
    10030    2    1    2    0    0  0.00000000000E+00  0.00000000000E+00  0.67540994338E+03  0.90389196409E+03  0.60070133271E+03 0.  0.
        3    1    3    3  502    0  0.36878451824E+02 -0.11017785145E+03  0.75446657089E+03  0.76336033166E+03  0.10100000352E+00 0. -1.
       -3    1    3    3    0  502 -0.36878451824E+02  0.11017785145E+03 -0.79056627508E+02  0.14053163243E+03  0.10100000352E+00 0.  1.
</event>
<event>
 5   0  0.5999117E-02  0.6006298E+03  0.7818609E-02  0.9904100E-01
       -2   -1    0    0    0  501  0.00000000000E+00  0.00000000000E+00  0.24132576168E+03  0.24132576169E+03  0.25500000920E-02 0.  1.
        2   -1    0    0  501    0  0.00000000000E+00  0.00000000000E+00 -0.37372319430E+03  0.37372319431E+03  0.25500000920E-02 0. -1.
    10030    2    1    2    0    0  0.00000000000E+00  0.00000000000E+00 -0.13239743263E+03  0.61504895600E+03  0.60062978457E+03 0.  0.
        5    1    3    3  502    0 -0.16939506810E+03 -0.22205880243E+03  0.46730908761E+02  0.28321488072E+03  0.46999998093E+01 0.  1.
       -5    1    3    3    0  502  0.16939506810E+03  0.22205880243E+03 -0.17912834139E+03  0.33183407528E+03  0.46999998093E+01 0. -1.
</event>
<event>
 5   0  0.3640827E-02  0.5937141E+03  0.7818609E-02  0.9918534E-01
       -1   -1    0    0    0  501  0.00000000000E+00  0.00000000000E+00  0.21132972230E+03  0.21132972236E+03  0.50400001928E-02 0. -1.
        1   -1    0    0  501    0  0.00000000000E+00  0.00000000000E+00 -0.41699815533E+03  0.41699815536E+03  0.50400001928E-02 0.  1.
    10030    2    1    2    0    0  0.00000000000E+00  0.00000000000E+00 -0.20566843303E+03  0.62832787771E+03  0.59371408739E+03 0.  0.
        3    1    3    3  502    0  0.93675295774E+02 -0.18369606926E+03  0.12316877740E+03  0.24018714542E+03  0.10100000352E+00 0. -1.
       -3    1    3    3    0  502 -0.93675295774E+02  0.18369606926E+03 -0.32883721043E+03  0.38814073229E+03  0.10100000352E+00 0.  1.
</event>
<event>
 5   0  0.3651984E-02  0.5981059E+03  0.7818609E-02  0.9909343E-01
        1   -1    0    0  501    0  0.00000000000E+00  0.00000000000E+00  0.89505498780E+03  0.89505498781E+03  0.50400001928E-02 0. -1.
       -1   -1    0    0    0  501  0.00000000000E+00  0.00000000000E+00 -0.99918631806E+02  0.99918631934E+02  0.50400001928E-02 0.  1.
    10030    2    1    2    0    0  0.00000000000E+00  0.00000000000E+00  0.79513635599E+03  0.99497361975E+03  0.59810590983E+03 0.  0.
        1    1    3    3  502    0  0.14532636040E+03  0.58779280442E+01 -0.37117209381E+02  0.15010658987E+03  0.50400001928E-02 0.  1.
       -1    1    3    3    0  502 -0.14532636040E+03 -0.58779280442E+01  0.83225356537E+03  0.84486702987E+03  0.50400001928E-02 0. -1.
</event>
<event>
 5   0  0.6007360E-02  0.6028932E+03  0.7818609E-02  0.9899422E-01
        2   -1    0    0  501    0  0.00000000000E+00  0.00000000000E+00  0.24581551487E+03  0.24581551489E+03  0.25500000920E-02 0.  1.
       -2   -1    0    0    0  501  0.00000000000E+00  0.00000000000E+00 -0.36966773962E+03  0.36966773963E+03  0.25500000920E-02 0. -1.
    10030    2    1    2    0    0  0.00000000000E+00  0.00000000000E+00 -0.12385222475E+03  0.61548325452E+03  0.60289324347E+03 0.  0.
        4    1    3    3  502    0  0.18472474828E+03  0.21467140005E+03 -0.16733643729E+03  0.32895309509E+03  0.12699999809E+01 0. -1.
       -4    1    3    3    0  502 -0.18472474828E+03 -0.21467140005E+03  0.43484212540E+02  0.28653015943E+03  0.12699999809E+01 0.  1.
</event>
<event>
 5   0  0.5755078E-02  0.6020870E+03  0.7818609E-02  0.9901086E-01
        2   -1    0    0  501    0  0.00000000000E+00  0.00000000000E+00  0.62067447350E+03  0.62067447351E+03  0.25500000920E-02 0. -1.
       -2   -1    0    0    0  501  0.00000000000E+00  0.00000000000E+00 -0.14601404800E+03  0.14601404802E+03  0.25500000920E-02 0.  1.
    10030    2    1    2    0    0  0.00000000000E+00  0.00000000000E+00  0.47466042551E+03  0.76668852153E+03  0.60208701157E+03 0.  0.
        2    1    3    3  502    0 -0.77866399126E+02 -0.28823571649E+03  0.18827285421E+03  0.35297262218E+03  0.25500000920E-02 0.  1.
       -2    1    3    3    0  502  0.77866399126E+02  0.28823571649E+03  0.28638757130E+03  0.41371589935E+03  0.25500000920E-02 0. -1.
</event>
<event>
 5   0  0.3767635E-02  0.6012845E+03  0.7818609E-02  0.9902745E-01
       -1   -1    0    0    0  501  0.00000000000E+00  0.00000000000E+00  0.13167065749E+03  0.13167065759E+03  0.50400001928E-02 0. -1.
        1   -1    0    0  501    0  0.00000000000E+00  0.00000000000E+00 -0.68645329269E+03  0.68645329271E+03  0.50400001928E-02 0.  1.
    10030    2    1    2    0    0  0.00000000000E+00  0.00000000000E+00 -0.55478263520E+03  0.81812395030E+03  0.60128447987E+03 0.  0.
        2    1    3    3  502    0 -0.26506320328E+03  0.10836708218E+03 -0.40197476646E+03  0.49354395864E+03  0.25500000920E-02 0.  1.
       -2    1    3    3    0  502  0.26506320328E+03 -0.10836708218E+03 -0.15280786874E+03  0.32457999166E+03  0.25500000920E-02 0. -1.
</event>
<event>
 5   0  0.5755078E-02  0.6022995E+03  0.7818609E-02  0.9900647E-01
        2   -1    0    0  501    0  0.00000000000E+00  0.00000000000E+00  0.27659949210E+03  0.27659949211E+03  0.25500000920E-02 0.  1.
       -2   -1    0    0    0  501  0.00000000000E+00  0.00000000000E+00 -0.32787903504E+03  0.32787903505E+03  0.25500000920E-02 0. -1.
    10030    2    1    2    0    0  0.00000000000E+00  0.00000000000E+00 -0.51279542949E+02  0.60447852716E+03  0.60229950878E+03 0.  0.
        2    1    3    3  502    0  0.55394489366E+02  0.12000099896E+03 -0.29721509493E+03  0.32527773035E+03  0.25500000920E-02 0. -1.
       -2    1    3    3    0  502 -0.55394489366E+02 -0.12000099896E+03  0.24593555198E+03  0.27920079681E+03  0.25500000920E-02 0.  1.
</event>
<event>
 5   0  0.3767635E-02  0.6054501E+03  0.7818609E-02  0.9894163E-01
       -1   -1    0    0    0  501  0.00000000000E+00  0.00000000000E+00  0.54165416688E+03  0.54165416690E+03  0.50400001928E-02 0. -1.
        1   -1    0    0  501    0  0.00000000000E+00  0.00000000000E+00 -0.16918997258E+03  0.16918997266E+03  0.50400001928E-02 0.  1.
    10030    2    1    2    0    0  0.00000000000E+00  0.00000000000E+00  0.37246419429E+03  0.71084413956E+03  0.60545009267E+03 0.  0.
        2    1    3    3  502    0  0.17565383059E+03 -0.12112231574E+03  0.43836483839E+03  0.48753319386E+03  0.25500000920E-02 0. -1.
       -2    1    3    3    0  502 -0.17565383059E+03  0.12112231574E+03 -0.65900644097E+02  0.22331094570E+03  0.25500000920E-02 0.  1.
</event>
<event>
 5   0  0.3703280E-02  0.6012257E+03  0.7818609E-02  0.9902866E-01
       -1   -1    0    0    0  501  0.00000000000E+00  0.00000000000E+00  0.34167471413E+03  0.34167471417E+03  0.50400001928E-02 0.  1.
        1   -1    0    0  501    0  0.00000000000E+00  0.00000000000E+00 -0.26448575207E+03  0.26448575212E+03  0.50400001928E-02 0. -1.
    10030    2    1    2    0    0  0.00000000000E+00  0.00000000000E+00  0.77188962063E+02  0.60616046629E+03  0.60122572718E+03 0.  0.
        5    1    3    3  502    0 -0.71585246159E+02 -0.10050972388E+03  0.31492316432E+03  0.33826815027E+03  0.46999998093E+01 0.  1.
       -5    1    3    3    0  502  0.71585246159E+02  0.10050972388E+03 -0.23773420226E+03  0.26789231602E+03  0.46999998093E+01 0. -1.
</event>
<event>
 5   0  0.3651984E-02  0.6024813E+03  0.7818609E-02  0.9900271E-01
       -1   -1    0    0    0  501  0.00000000000E+00  0.00000000000E+00  0.12580414068E+03  0.12580414078E+03  0.50400001928E-02 0. -1.
        1   -1    0    0  501    0  0.00000000000E+00  0.00000000000E+00 -0.72132706941E+03  0.72132706943E+03  0.50400001928E-02 0.  1.
    10030    2    1    2    0    0  0.00000000000E+00  0.00000000000E+00 -0.59552292873E+03  0.84713121020E+03  0.60248130979E+03 0.  0.
        1    1    3    3  502    0  0.92158838349E+01  0.11665418751E+03  0.92541020862E+02  0.14918770910E+03  0.50400001928E-02 0. -1.
       -1    1    3    3    0  502 -0.92158838349E+01 -0.11665418751E+03 -0.68806394959E+03  0.69794350110E+03  0.50400001928E-02 0.  1.
</event>
<event>
 5   0  0.5755078E-02  0.6113514E+03  0.7818609E-02  0.9882131E-01
       -2   -1    0    0    0  501  0.00000000000E+00  0.00000000000E+00  0.52228461843E+03  0.52228461843E+03  0.25500000920E-02 0.  1.
        2   -1    0    0  501    0  0.00000000000E+00  0.00000000000E+00 -0.17890177570E+03  0.17890177572E+03  0.25500000920E-02 0. -1.
    10030    2    1    2    0    0  0.00000000000E+00  0.00000000000E+00  0.34338284273E+03  0.70118639415E+03  0.61135143957E+03 0.  0.
        2    1    3    3  502    0  0.53653837308E+01  0.23272748144E+03  0.39891036893E+03  0.46186616071E+03  0.25500000920E-02 0.  1.
       -2    1    3    3    0  502 -0.53653837308E+01 -0.23272748144E+03 -0.55527526209E+02  0.23932023344E+03  0.25500000920E-02 0. -1.
</event>
<event>
 5   0  0.6007360E-02  0.5950402E+03  0.7818609E-02  0.9915750E-01
       -2   -1    0    0    0  501  0.00000000000E+00  0.00000000000E+00  0.61471071390E+02  0.61471071442E+02  0.25500000920E-02 0. -1.
        2   -1    0    0  501    0  0.00000000000E+00  0.00000000000E+00 -0.14399977475E+04  0.14399977475E+04  0.25500000920E-02 0.  1.
    10030    2    1    2    0    0  0.00000000000E+00  0.00000000000E+00 -0.13785266761E+04  0.15014688189E+04  0.59504018142E+03 0.  0.
        4    1    3    3  502    0 -0.20011426348E+02  0.23072174856E+02 -0.14360248711E+04  0.14363501752E+04  0.12699999809E+01 0.  1.
       -4    1    3    3    0  502  0.20011426348E+02 -0.23072174856E+02  0.57498194994E+02  0.65118643755E+02  0.12699999809E+01 0. -1.
</event>
<event>
 5   0  0.5872632E-02  0.5991483E+03  0.7818609E-02  0.9907175E-01
        2   -1    0    0  501    0  0.00000000000E+00  0.00000000000E+00  0.10339274089E+04  0.10339274089E+04  0.25500000920E-02 0.  1.
       -2   -1    0    0    0  501  0.00000000000E+00  0.00000000000E+00 -0.86799787623E+02  0.86799787660E+02  0.25500000920E-02 0. -1.
    10030    2    1    2    0    0  0.00000000000E+00  0.00000000000E+00  0.94712762125E+03  0.11207271965E+04  0.59914832731E+03 0.  0.
        1    1    3    3  502    0  0.77496693417E+02  0.26591217736E+03  0.26004701953E+03  0.37992035475E+03  0.50400001928E-02 0. -1.
       -1    1    3    3    0  502 -0.77496693417E+02 -0.26591217736E+03  0.68708060172E+03  0.74080684179E+03  0.50400001928E-02 0.  1.
</event>
<event>
 5   0  0.5872632E-02  0.5938904E+03  0.7818609E-02  0.9918163E-01
        2   -1    0    0  501    0  0.00000000000E+00  0.00000000000E+00  0.80018167998E+03  0.80018167998E+03  0.25500000920E-02 0. -1.
       -2   -1    0    0    0  501  0.00000000000E+00  0.00000000000E+00 -0.11019552920E+03  0.11019552923E+03  0.25500000920E-02 0.  1.
    10030    2    1    2    0    0  0.00000000000E+00  0.00000000000E+00  0.68998615078E+03  0.91037720921E+03  0.59389037270E+03 0.  0.
        1    1    3    3  502    0 -0.25166448904E+03  0.68776957225E+02  0.56238011040E+03  0.61994892812E+03  0.50400001928E-02 0. -1.
       -1    1    3    3    0  502  0.25166448904E+03 -0.68776957225E+02  0.12760604038E+03  0.29042828109E+03  0.50400001928E-02 0.  1.
</event>
<event>
 5   0  0.2388000E-02  0.6273141E+03  0.7818609E-02  0.9850304E-01
       -4   -1    0    0    0  501  0.00000000000E+00  0.00000000000E+00  0.71634197889E+02  0.71645454896E+02  0.12699999809E+01 0.  1.
        4   -1    0    0  501    0  0.00000000000E+00  0.00000000000E+00 -0.13732574466E+04  0.13732580339E+04  0.12699999809E+01 0. -1.
    10030    2    1    2    0    0  0.00000000000E+00  0.00000000000E+00 -0.13016232487E+04  0.14449034888E+04  0.62731412404E+03 0.  0.
        5    1    3    3  502    0  0.17257543023E+03 -0.16881085051E+03 -0.18969186721E+03  0.30705777445E+03  0.46999998093E+01 0.  1.
       -5    1    3    3    0  502 -0.17257543023E+03  0.16881085051E+03 -0.11119313815E+04  0.11378457143E+04  0.46999998093E+01 0. -1.
</event>
<event>
 5   0  0.2388000E-02  0.6017218E+03  0.7818609E-02  0.9901840E-01
        4   -1    0    0  501    0  0.00000000000E+00  0.00000000000E+00  0.15517160941E+03  0.15517680647E+03  0.12699999809E+01 0. -1.
       -4   -1    0    0    0  501  0.00000000000E+00  0.00000000000E+00 -0.58332089534E+03  0.58332227785E+03  0.12699999809E+01 0.  1.
    10030    2    1    2    0    0  0.00000000000E+00  0.00000000000E+00 -0.42814928592E+03  0.73849908432E+03  0.60172176835E+03 0.  0.
        2    1    3    3  502    0  0.18169265107E+02 -0.25897345460E+03 -0.27459360495E+02  0.26105820973E+03  0.25500000920E-02 0. -1.
       -2    1    3    3    0  502 -0.18169265107E+02  0.25897345460E+03 -0.40068992543E+03  0.47744087459E+03  0.25500000920E-02 0.  1.
</event>
<event>
 5   0  0.5872632E-02  0.5954669E+03  0.7818609E-02  0.9914856E-01
       -2   -1    0    0    0  501  0.00000000000E+00  0.00000000000E+00  0.29156194969E+03  0.29156194970E+03  0.25500000920E-02 0.  1.
        2   -1    0    0  501    0  0.00000000000E+00  0.00000000000E+00 -0.30403555422E+03  0.30403555423E+03  0.25500000920E-02 0. -1.
    10030    2    1    2    0    0  0.00000000000E+00  0.00000000000E+00 -0.12473604529E+02  0.59559750393E+03  0.59546687219E+03 0.  0.
        1    1    3    3  502    0 -0.25192749711E+03 -0.15390823599E+03  0.32372054858E+02  0.29699016628E+03  0.50400001928E-02 0. -1.
       -1    1    3    3    0  502  0.25192749711E+03  0.15390823599E+03 -0.44845659387E+02  0.29860733765E+03  0.50400001928E-02 0.  1.
</event>
<event>
 5   0  0.5999117E-02  0.6029009E+03  0.7818609E-02  0.9899406E-01
        2   -1    0    0  501    0  0.00000000000E+00  0.00000000000E+00  0.58543326389E+03  0.58543326390E+03  0.25500000920E-02 0.  1.
       -2   -1    0    0    0  501  0.00000000000E+00  0.00000000000E+00 -0.15522241059E+03  0.15522241061E+03  0.25500000920E-02 0. -1.
    10030    2    1    2    0    0  0.00000000000E+00  0.00000000000E+00  0.43021085331E+03  0.74065567451E+03  0.60290086239E+03 0.  0.
        5    1    3    3  502    0  0.21811076977E+03 -0.91896739481E+02  0.44438512498E+03  0.50350526107E+03  0.46999998093E+01 0.  1.
       -5    1    3    3    0  502 -0.21811076977E+03  0.91896739481E+02 -0.14174271677E+02  0.23715041344E+03  0.46999998093E+01 0. -1.
</event>
<event>
 5   0  0.6007360E-02  0.5915471E+03  0.7818609E-02  0.9923100E-01
        2   -1    0    0  501    0  0.00000000000E+00  0.00000000000E+00  0.10187129180E+04  0.10187129180E+04  0.25500000920E-02 0. -1.
       -2   -1    0    0    0  501  0.00000000000E+00  0.00000000000E+00 -0.85875026741E+02  0.85875026779E+02  0.25500000920E-02 0.  1.
    10030    2    1    2    0    0  0.00000000000E+00  0.00000000000E+00  0.93283789126E+03  0.11045879448E+04  0.59154712102E+03 0.  0.
        4    1    3    3  502    0 -0.55817098900E+01  0.28016336776E+03  0.64314868993E+03  0.70154438090E+03  0.12699999809E+01 0. -1.
       -4    1    3    3    0  502  0.55817098900E+01 -0.28016336776E+03  0.28968920133E+03  0.40304356388E+03  0.12699999809E+01 0.  1.
</event>
<event>
 5   0  0.3651984E-02  0.6017353E+03  0.7818609E-02  0.9901812E-01
        1   -1    0    0  501    0  0.00000000000E+00  0.00000000000E+00  0.36966027931E+03  0.36966027934E+03  0.50400001928E-02 0.  1.
       -1   -1    0    0    0  501  0.00000000000E+00  0.00000000000E+00 -0.24487708042E+03  0.24487708047E+03  0.50400001928E-02 0. -1.
    10030    2    1    2    0    0  0.00000000000E+00  0.00000000000E+00  0.12478319889E+03  0.61453735981E+03  0.60173525730E+03 0.  0.
        1    1    3    3  502    0  0.30051133902E+03  0.13436038129E+02  0.56459585660E+02  0.30606417111E+03  0.50400001928E-02 0.  1.
       -1    1    3    3    0  502 -0.30051133902E+03 -0.13436038129E+02  0.68323613233E+02  0.30847318870E+03  0.50400001928E-02 0. -1.
</event>
<event>
 5   0  0.5935451E-02  0.5956245E+03  0.7818609E-02  0.9914526E-01
        2   -1    0    0  501    0  0.00000000000E+00  0.00000000000E+00  0.17367859761E+04  0.17367859761E+04  0.25500000920E-02 0. -1.
       -2   -1    0    0    0  501  0.00000000000E+00  0.00000000000E+00 -0.51066816169E+02  0.51066816233E+02  0.25500000920E-02 0.  1.
    10030    2    1    2    0    0  0.00000000000E+00  0.00000000000E+00  0.16857191599E+04  0.17878527923E+04  0.59562447977E+03 0.  0.
        3    1    3    3  502    0  0.13692965847E+03 -0.65458294257E+02  0.73726090759E+02  0.16873075095E+03  0.10100000352E+00 0.  1.
       -3    1    3    3    0  502 -0.13692965847E+03  0.65458294257E+02  0.16119930691E+04  0.16191220414E+04  0.10100000352E+00 0. -1.
</event>
<event>
 5   0  0.5872632E-02  0.6019698E+03  0.7818609E-02  0.9901328E-01
       -2   -1    0    0    0  501  0.00000000000E+00  0.00000000000E+00  0.12452154660E+03  0.12452154663E+03  0.25500000920E-02 0.  1.
        2   -1    0    0  501    0  0.00000000000E+00  0.00000000000E+00 -0.72752005536E+03  0.72752005537E+03  0.25500000920E-02 0. -1.
    10030    2    1    2    0    0  0.00000000000E+00  0.00000000000E+00 -0.60299850876E+03  0.85204160200E+03  0.60196984140E+03 0.  0.
        1    1    3    3  502    0 -0.16461050604E+03 -0.13776324322E+02 -0.65762784855E+03  0.67805662966E+03  0.50400001928E-02 0. -1.
       -1    1    3    3    0  502  0.16461050604E+03  0.13776324322E+02  0.54629339784E+02  0.17398497234E+03  0.50400001928E-02 0.  1.
</event>
<event>
 5   0  0.3478183E-02  0.5963579E+03  0.7818609E-02  0.9912991E-01
        1   -1    0    0  501    0  0.00000000000E+00  0.00000000000E+00  0.10810480860E+04  0.10810480860E+04  0.50400001928E-02 0.  1.
       -1   -1    0    0    0  501  0.00000000000E+00  0.00000000000E+00 -0.82244881856E+02  0.82244882011E+02  0.50400001928E-02 0. -1.
    10030    2    1    2    0    0  0.00000000000E+00  0.00000000000E+00  0.99880320415E+03  0.11632929680E+04  0.59635785301E+03 0.  0.
        4    1    3    3  502    0  0.12348645965E+03 -0.80293849325E+02 -0.63170437307E+01  0.14743651481E+03  0.12699999809E+01 0. -1.
       -4    1    3    3    0  502 -0.12348645965E+03  0.80293849325E+02  0.10051202479E+04  0.10158564532E+04  0.12699999809E+01 0.  1.
</event>
<event>
 5   0  0.5935451E-02  0.6030500E+03  0.7818609E-02  0.9899099E-01
       -2   -1    0    0    0  501  0.00000000000E+00  0.00000000000E+00  0.12059779846E+03  0.12059779849E+03  0.25500000920E-02 0.  1.
        2   -1    0    0  501    0  0.00000000000E+00  0.00000000000E+00 -0.75388865054E+03  0.75388865054E+03  0.25500000920E-02 0. -1.
    10030    2    1    2    0    0  0.00000000000E+00  0.00000000000E+00 -0.63329085207E+03  0.87448644903E+03  0.60304995334E+03 0.  0.
        3    1    3    3  502    0  0.91976914204E+02 -0.26390404894E+03 -0.48078438593E+03  0.55611036292E+03  0.10100000352E+00 0. -1.
       -3    1    3    3    0  502 -0.91976914204E+02  0.26390404894E+03 -0.15250646614E+03  0.31837608611E+03  0.10100000352E+00 0.  1.
</event>
<event>
 5   0  0.5872632E-02  0.6014925E+03  0.7818609E-02  0.9902314E-01
        2   -1    0    0  501    0  0.00000000000E+00  0.00000000000E+00  0.12088965878E+03  0.12088965881E+03  0.25500000920E-02 0. -1.
       -2   -1    0    0    0  501  0.00000000000E+00  0.00000000000E+00 -0.74818906279E+03  0.74818906279E+03  0.25500000920E-02 0.  1.
    10030    2    1    2    0    0  0.00000000000E+00  0.00000000000E+00 -0.62729940400E+03  0.86907872160E+03  0.60149254532E+03 0.  0.
        1    1    3    3  502    0 -0.33165256906E+02  0.18579177263E+03  0.24677729866E+02  0.19033525007E+03  0.50400001928E-02 0. -1.
       -1    1    3    3    0  502  0.33165256906E+02 -0.18579177263E+03 -0.65197713387E+03  0.67874347154E+03  0.50400001928E-02 0.  1.
</event>
<event>
 5   0  0.3767635E-02  0.6016692E+03  0.7818609E-02  0.9901949E-01
        1   -1    0    0  501    0  0.00000000000E+00  0.00000000000E+00  0.14715416542E+04  0.14715416542E+04  0.50400001928E-02 0. -1.
       -1   -1    0    0    0  501  0.00000000000E+00  0.00000000000E+00 -0.61501108034E+02  0.61501108240E+02  0.50400001928E-02 0.  1.
    10030    2    1    2    0    0  0.00000000000E+00  0.00000000000E+00  0.14100405462E+04  0.15330427624E+04  0.60166915299E+03 0.  0.
        2    1    3    3  502    0  0.26611304476E+03  0.12531894778E+02  0.10610842931E+04  0.10940169460E+04  0.25500000920E-02 0. -1.
       -2    1    3    3    0  502 -0.26611304476E+03 -0.12531894778E+02  0.34895625304E+03  0.43902581646E+03  0.25500000920E-02 0.  1.
</event>
<event>
 5   0  0.5999117E-02  0.6057420E+03  0.7818609E-02  0.9893564E-01
       -2   -1    0    0    0  501  0.00000000000E+00  0.00000000000E+00  0.11837439960E+04  0.11837439960E+04  0.25500000920E-02 0. -1.
        2   -1    0    0  501    0  0.00000000000E+00  0.00000000000E+00 -0.77492127896E+02  0.77492127938E+02  0.25500000920E-02 0.  1.
    10030    2    1    2    0    0  0.00000000000E+00  0.00000000000E+00  0.11062518681E+04  0.12612361240E+04  0.60574199513E+03 0.  0.
        5    1    3    3  502    0  0.27131309016E+03  0.26454240044E+02  0.27848831741E+03  0.38972869106E+03  0.46999998093E+01 0.  1.
       -5    1    3    3    0  502 -0.27131309016E+03 -0.26454240044E+02  0.82776355074E+03  0.87150743292E+03  0.46999998093E+01 0. -1.
</event>
<event>
 5   0  0.3651984E-02  0.6015609E+03  0.7818609E-02  0.9902173E-01
        1   -1    0    0  501    0  0.00000000000E+00  0.00000000000E+00  0.10507263046E+04  0.10507263046E+04  0.50400001928E-02 0. -1.
       -1   -1    0    0    0  501  0.00000000000E+00  0.00000000000E+00 -0.86101289081E+02  0.86101289228E+02  0.50400001928E-02 0.  1.
    10030    2    1    2    0    0  0.00000000000E+00  0.00000000000E+00  0.96462501554E+03  0.11368275939E+04  0.60156093420E+03 0.  0.
        1    1    3    3  502    0  0.13670435223E+03  0.25697010975E+03  0.33904685459E+03  0.44684951254E+03  0.50400001928E-02 0.  1.
       -1    1    3    3    0  502 -0.13670435223E+03 -0.25697010975E+03  0.62557816096E+03  0.68997808133E+03  0.50400001928E-02 0. -1.
</event>
<event>
 5   0  0.5872632E-02  0.5969495E+03  0.7818609E-02  0.9911755E-01
       -2   -1    0    0    0  501  0.00000000000E+00  0.00000000000E+00  0.15775965771E+03  0.15775965773E+03  0.25500000920E-02 0.  1.
        2   -1    0    0  501    0  0.00000000000E+00  0.00000000000E+00 -0.56470197294E+03  0.56470197294E+03  0.25500000920E-02 0. -1.
    10030    2    1    2    0    0  0.00000000000E+00  0.00000000000E+00 -0.40694231523E+03  0.72246163068E+03  0.59694954551E+03 0.  0.
        1    1    3    3  502    0 -0.65899918170E+02  0.24835009134E+03 -0.38728117183E+03  0.46476582615E+03  0.50400001928E-02 0. -1.
       -1    1    3    3    0  502  0.65899918170E+02 -0.24835009134E+03 -0.19661143399E+02  0.25769580452E+03  0.50400001928E-02 0.  1.
</event>
<event>
 5   0  0.5755078E-02  0.6011766E+03  0.7818609E-02  0.9902968E-01
       -2   -1    0    0    0  501  0.00000000000E+00  0.00000000000E+00  0.79822155476E+02  0.79822155517E+02  0.25500000920E-02 0.  1.
        2   -1    0    0  501    0  0.00000000000E+00  0.00000000000E+00 -0.11319331101E+04  0.11319331101E+04  0.25500000920E-02 0. -1.
    10030    2    1    2    0    0  0.00000000000E+00  0.00000000000E+00 -0.10521109546E+04  0.12117552656E+04  0.60117664867E+03 0.  0.
        2    1    3    3  502    0  0.13474889509E+03  0.24619973035E+03 -0.30913514675E+03  0.41753576004E+03  0.25500000920E-02 0.  1.
       -2    1    3    3    0  502 -0.13474889509E+03 -0.24619973035E+03 -0.74297580783E+03  0.79421950554E+03  0.25500000920E-02 0. -1.
</event>
<event>
 5   0  0.3703280E-02  0.6015993E+03  0.7818609E-02  0.9902094E-01
       -1   -1    0    0    0  501  0.00000000000E+00  0.00000000000E+00  0.69308266459E+02  0.69308266642E+02  0.50400001928E-02 0. -1.
        1   -1    0    0  501    0  0.00000000000E+00  0.00000000000E+00 -0.13054779853E+04  0.13054779853E+04  0.50400001928E-02 0.  1.
    10030    2    1    2    0    0  0.00000000000E+00  0.00000000000E+00 -0.12361697189E+04  0.13747862520E+04  0.60159925597E+03 0.  0.
        5    1    3    3  502    0  0.89357102522E+02 -0.89078229467E+02 -0.12419903494E+04  0.12483916616E+04  0.46999998093E+01 0.  1.
       -5    1    3    3    0  502 -0.89357102522E+02  0.89078229467E+02  0.58206305486E+01  0.12639459037E+03  0.46999998093E+01 0. -1.
</event>
<event>
 5   0  0.3640827E-02  0.5993206E+03  0.7818609E-02  0.9906817E-01
        1   -1    0    0  501    0  0.00000000000E+00  0.00000000000E+00  0.93254570730E+03  0.93254570731E+03  0.50400001928E-02 0. -1.
       -1   -1    0    0    0  501  0.00000000000E+00  0.00000000000E+00 -0.96291571951E+02  0.96291572083E+02  0.50400001928E-02 0.  1.
    10030    2    1    2    0    0  0.00000000000E+00  0.00000000000E+00  0.83625413535E+03  0.10288372794E+04  0.59932058916E+03 0.  0.
        3    1    3    3  502    0  0.27990381231E+01 -0.12565093417E+03  0.88511343838E+03  0.89399205862E+03  0.10100000352E+00 0. -1.
       -3    1    3    3    0  502 -0.27990381231E+01  0.12565093417E+03 -0.48859303030E+02  0.13484522078E+03  0.10100000352E+00 0.  1.
</event>
<event>
 5   0  0.5935451E-02  0.5996050E+03  0.7818609E-02  0.9906226E-01
        2   -1    0    0  501    0  0.00000000000E+00  0.00000000000E+00  0.60700244551E+03  0.60700244551E+03  0.25500000920E-02 0.  1.
       -2   -1    0    0    0  501  0.00000000000E+00  0.00000000000E+00 -0.14807442234E+03  0.14807442236E+03  0.25500000920E-02 0. -1.
    10030    2    1    2    0    0  0.00000000000E+00  0.00000000000E+00  0.45892802317E+03  0.75507686787E+03  0.59960499160E+03 0.  0.
        3    1    3    3  502    0 -0.19464500889E+03 -0.78256417108E+02  0.49917211091E+03  0.54146426735E+03  0.10100000352E+00 0.  1.
       -3    1    3    3    0  502  0.19464500889E+03  0.78256417108E+02 -0.40244087743E+02  0.21361260052E+03  0.10100000352E+00 0. -1.
</event>
<event>
 5   0  0.5999117E-02  0.6055599E+03  0.7818609E-02  0.9893938E-01
       -2   -1    0    0    0  501  0.00000000000E+00  0.00000000000E+00  0.69360266572E+02  0.69360266619E+02  0.25500000920E-02 0. -1.
        2   -1    0    0  501    0  0.00000000000E+00  0.00000000000E+00 -0.13217322365E+04  0.13217322365E+04  0.25500000920E-02 0.  1.
    10030    2    1    2    0    0  0.00000000000E+00  0.00000000000E+00 -0.12523719699E+04  0.13910925031E+04  0.60555990717E+03 0.  0.
        5    1    3    3  502    0  0.15411974541E+03 -0.25793758021E+03 -0.54119207946E+03  0.61902798651E+03  0.46999998093E+01 0. -1.
       -5    1    3    3    0  502 -0.15411974541E+03  0.25793758021E+03 -0.71117989045E+03  0.77206451659E+03  0.46999998093E+01 0.  1.
</event>
<event>
 5   0  0.3703280E-02  0.6066835E+03  0.7818609E-02  0.9891636E-01
       -1   -1    0    0    0  501  0.00000000000E+00  0.00000000000E+00  0.77084294162E+02  0.77084294327E+02  0.50400001928E-02 0. -1.
        1   -1    0    0  501    0  0.00000000000E+00  0.00000000000E+00 -0.11937091194E+04  0.11937091194E+04  0.50400001928E-02 0.  1.
    10030    2    1    2    0    0  0.00000000000E+00  0.00000000000E+00 -0.11166248253E+04  0.12707934138E+04  0.60668352546E+03 0.  0.
        5    1    3    3  502    0  0.29431129384E+03  0.43937930082E+02 -0.68124670660E+03  0.74341700588E+03  0.46999998093E+01 0.  1.
       -5    1    3    3    0  502 -0.29431129384E+03 -0.43937930082E+02 -0.43537811865E+03  0.52737640787E+03  0.46999998093E+01 0. -1.
</event>
<event>
 5   0  0.5872632E-02  0.6038076E+03  0.7818609E-02  0.9897538E-01
        2   -1    0    0  501    0  0.00000000000E+00  0.00000000000E+00  0.67038274030E+03  0.67038274030E+03  0.25500000920E-02 0.  1.
       -2   -1    0    0    0  501  0.00000000000E+00  0.00000000000E+00 -0.13596097504E+03  0.13596097506E+03  0.25500000920E-02 0. -1.
    10030    2    1    2    0    0  0.00000000000E+00  0.00000000000E+00  0.53442176526E+03  0.80634371536E+03  0.60380755554E+03 0.  0.
        1    1    3    3  502    0  0.19601640995E+03 -0.22805410638E+03  0.23150755886E+03  0.37950870641E+03  0.50400001928E-02 0.  1.
       -1    1    3    3    0  502 -0.19601640995E+03  0.22805410638E+03  0.30291420639E+03  0.42683500895E+03  0.50400001928E-02 0. -1.
</event>
<event>
 5   0  0.3478183E-02  0.5929185E+03  0.7818609E-02  0.9920208E-01
       -1   -1    0    0    0  501  0.00000000000E+00  0.00000000000E+00  0.14518044130E+03  0.14518044138E+03  0.50400001928E-02 0.  1.
        1   -1    0    0  501    0  0.00000000000E+00  0.00000000000E+00 -0.60537149516E+03  0.60537149519E+03  0.50400001928E-02 0. -1.
    10030    2    1    2    0    0  0.00000000000E+00  0.00000000000E+00 -0.46019105387E+03  0.75055193657E+03  0.59291854704E+03 0.  0.
        4    1    3    3  502    0 -0.11693882412E+03 -0.47299915310E+02  0.10951027001E+03  0.16705113802E+03  0.12699999809E+01 0.  1.
       -4    1    3    3    0  502  0.11693882412E+03  0.47299915310E+02 -0.56970132388E+03  0.58350079855E+03  0.12699999809E+01 0. -1.
</event>
<event>
 5   0  0.5935451E-02  0.5767568E+03  0.7818609E-02  0.9954837E-01
       -2   -1    0    0    0  501  0.00000000000E+00  0.00000000000E+00  0.10901625410E+03  0.10901625413E+03  0.25500000920E-02 0. -1.
        2   -1    0    0  501    0  0.00000000000E+00  0.00000000000E+00 -0.76284135532E+03  0.76284135533E+03  0.25500000920E-02 0.  1.
    10030    2    1    2    0    0  0.00000000000E+00  0.00000000000E+00 -0.65382510122E+03  0.87185760946E+03  0.57675681892E+03 0.  0.
        3    1    3    3  502    0  0.17684480389E+03 -0.20710293340E+03 -0.47029199494E+03  0.54345218777E+03  0.10100000352E+00 0. -1.
       -3    1    3    3    0  502 -0.17684480389E+03  0.20710293340E+03 -0.18353310628E+03  0.32840542168E+03  0.10100000352E+00 0.  1.
</event>
<event>
 5   0  0.2388000E-02  0.6008387E+03  0.7818609E-02  0.9903668E-01
        3   -1    0    0  501    0  0.00000000000E+00  0.00000000000E+00  0.58363621294E+03  0.58363622168E+03  0.10100000352E+00 0. -1.
       -3   -1    0    0    0  501  0.00000000000E+00  0.00000000000E+00 -0.15463702522E+03  0.15463705820E+03  0.10100000352E+00 0.  1.
    10030    2    1    2    0    0  0.00000000000E+00  0.00000000000E+00  0.42899918772E+03  0.73827327988E+03  0.60083869110E+03 0.  0.
        3    1    3    3  502    0  0.20825440564E+03 -0.20285517973E+03  0.30752448057E+03  0.42319196325E+03  0.10100000352E+00 0. -1.
       -3    1    3    3    0  502 -0.20825440564E+03  0.20285517973E+03  0.12147470716E+03  0.31508131663E+03  0.10100000352E+00 0.  1.
</event>
<event>
 5   0  0.6007360E-02  0.5988149E+03  0.7818609E-02  0.9907868E-01
       -2   -1    0    0    0  501  0.00000000000E+00  0.00000000000E+00  0.29301164615E+03  0.29301164616E+03  0.25500000920E-02 0. -1.
        2   -1    0    0  501    0  0.00000000000E+00  0.00000000000E+00 -0.30594284427E+03  0.30594284428E+03  0.25500000920E-02 0.  1.
    10030    2    1    2    0    0  0.00000000000E+00  0.00000000000E+00 -0.12931198120E+02  0.59895449044E+03  0.59881488436E+03 0.  0.
        4    1    3    3  502    0  0.17278152063E+03 -0.17724748664E+03 -0.17494797003E+03  0.30311471510E+03  0.12699999809E+01 0.  1.
       -4    1    3    3    0  502 -0.17278152063E+03  0.17724748664E+03  0.16201677191E+03  0.29583977534E+03  0.12699999809E+01 0. -1.
</event>
<event>
 5   0  0.5755078E-02  0.6051364E+03  0.7818609E-02  0.9894807E-01
        2   -1    0    0  501    0  0.00000000000E+00  0.00000000000E+00  0.64336181900E+03  0.64336181901E+03  0.25500000920E-02 0.  1.
       -2   -1    0    0    0  501  0.00000000000E+00  0.00000000000E+00 -0.14229553077E+03  0.14229553079E+03  0.25500000920E-02 0. -1.
    10030    2    1    2    0    0  0.00000000000E+00  0.00000000000E+00  0.50106628824E+03  0.78565734980E+03  0.60513638635E+03 0.  0.
        2    1    3    3  502    0  0.29254659570E+03  0.47679975272E+02  0.17165991459E+03  0.34252593622E+03  0.25500000920E-02 0. -1.
       -2    1    3    3    0  502 -0.29254659570E+03 -0.47679975272E+02  0.32940637364E+03  0.44313141358E+03  0.25500000920E-02 0.  1.
</event>
<event>
 5   0  0.5755078E-02  0.6002629E+03  0.7818609E-02  0.9904861E-01
       -2   -1    0    0    0  501  0.00000000000E+00  0.00000000000E+00  0.42689473809E+03  0.42689473810E+03  0.25500000920E-02 0. -1.
        2   -1    0    0  501    0  0.00000000000E+00  0.00000000000E+00 -0.21100957847E+03  0.21100957848E+03  0.25500000920E-02 0.  1.
    10030    2    1    2    0    0  0.00000000000E+00  0.00000000000E+00  0.21588515963E+03  0.63790431658E+03  0.60026287156E+03 0.  0.
        2    1    3    3  502    0  0.29094724309E+03  0.13185513643E+02  0.18497773486E+03  0.34502306942E+03  0.25500000920E-02 0. -1.
       -2    1    3    3    0  502 -0.29094724309E+03 -0.13185513643E+02  0.30907424764E+02  0.29288124717E+03  0.25500000920E-02 0.  1.
</event>
<event>
 5   0  0.5872632E-02  0.5056459E+03  0.7818609E-02  0.1012316E+00
       -2   -1    0    0    0  501  0.00000000000E+00  0.00000000000E+00  0.10365660040E+03  0.10365660043E+03  0.25500000920E-02 0. -1.
        2   -1    0    0  501    0  0.00000000000E+00  0.00000000000E+00 -0.61664617901E+03  0.61664617902E+03  0.25500000920E-02 0.  1.
    10030    2    1    2    0    0  0.00000000000E+00  0.00000000000E+00 -0.51298957862E+03  0.72030277944E+03  0.50564591001E+03 0.  0.
        1    1    3    3  502    0  0.19309706651E+03  0.10016420048E+03 -0.72957642797E+02  0.22943879755E+03  0.50400001928E-02 0. -1.
       -1    1    3    3    0  502 -0.19309706651E+03 -0.10016420048E+03 -0.44003193582E+03  0.49086398189E+03  0.50400001928E-02 0.  1.
</event>
<event>
 5   0  0.3703280E-02  0.6021449E+03  0.7818609E-02  0.9900966E-01
        1   -1    0    0  501    0  0.00000000000E+00  0.00000000000E+00  0.59126922134E+03  0.59126922136E+03  0.50400001928E-02 0.  1.
       -1   -1    0    0    0  501  0.00000000000E+00  0.00000000000E+00 -0.15330515195E+03  0.15330515203E+03  0.50400001928E-02 0. -1.
    10030    2    1    2    0    0  0.00000000000E+00  0.00000000000E+00  0.43796406939E+03  0.74457437339E+03  0.60214489239E+03 0.  0.
        5    1    3    3  502    0 -0.88262628643E+01 -0.29166869572E+03  0.12749504229E+03  0.31847387143E+03  0.46999998093E+01 0.  1.
       -5    1    3    3    0  502  0.88262628643E+01  0.29166869572E+03  0.31046902710E+03  0.42610050196E+03  0.46999998093E+01 0. -1.
</event>
<event>
 5   0  0.3651984E-02  0.6123767E+03  0.7818609E-02  0.9880056E-01
       -1   -1    0    0    0  501  0.00000000000E+00  0.00000000000E+00  0.19981191286E+03  0.19981191293E+03  0.50400001928E-02 0.  1.
        1   -1    0    0  501    0  0.00000000000E+00  0.00000000000E+00 -0.46919772586E+03  0.46919772589E+03  0.50400001928E-02 0. -1.
    10030    2    1    2    0    0  0.00000000000E+00  0.00000000000E+00 -0.26938581300E+03  0.66900963881E+03  0.61237666561E+03 0.  0.
        1    1    3    3  502    0 -0.42374880047E+02 -0.20761240347E+03  0.10677436212E+03  0.23727474573E+03  0.50400001928E-02 0.  1.
       -1    1    3    3    0  502  0.42374880047E+02  0.20761240347E+03 -0.37616017511E+03  0.43173489308E+03  0.50400001928E-02 0. -1.
</event>
<event>
 5   0  0.5872632E-02  0.5958990E+03  0.7818609E-02  0.9913951E-01
        2   -1    0    0  501    0  0.00000000000E+00  0.00000000000E+00  0.28184039321E+03  0.28184039322E+03  0.25500000920E-02 0.  1.
       -2   -1    0    0    0  501  0.00000000000E+00  0.00000000000E+00 -0.31497938307E+03  0.31497938308E+03  0.25500000920E-02 0. -1.
    10030    2    1    2    0    0  0.00000000000E+00  0.00000000000E+00 -0.33138989856E+02  0.59681977631E+03  0.59589902898E+03 0.  0.
        1    1    3    3  502    0 -0.84777044042E+02 -0.39636334251E+02  0.26673809229E+03  0.28267896295E+03  0.50400001928E-02 0.  1.
       -1    1    3    3    0  502  0.84777044042E+02  0.39636334251E+02 -0.29987708215E+03  0.31414081335E+03  0.50400001928E-02 0. -1.
</event>
<event>
 5   0  0.3767635E-02  0.5933198E+03  0.7818609E-02  0.9919363E-01
        1   -1    0    0  501    0  0.00000000000E+00  0.00000000000E+00  0.72613383481E+03  0.72613383483E+03  0.50400001928E-02 0.  1.
       -1   -1    0    0    0  501  0.00000000000E+00  0.00000000000E+00 -0.12119954611E+03  0.12119954621E+03  0.50400001928E-02 0. -1.
    10030    2    1    2    0    0  0.00000000000E+00  0.00000000000E+00  0.60493428871E+03  0.84733338104E+03  0.59331978307E+03 0.  0.
        2    1    3    3  502    0 -0.12122592613E+03  0.26160679981E+03  0.20277182711E+03  0.35249149883E+03  0.25500000920E-02 0. -1.
       -2    1    3    3    0  502  0.12122592613E+03 -0.26160679981E+03  0.40216246160E+03  0.49484188221E+03  0.25500000920E-02 0.  1.
</event>
<event>
 5   0  0.3640827E-02  0.6146745E+03  0.7818609E-02  0.9875420E-01
        1   -1    0    0  501    0  0.00000000000E+00  0.00000000000E+00  0.31299187119E+03  0.31299187123E+03  0.50400001928E-02 0.  1.
       -1   -1    0    0    0  501  0.00000000000E+00  0.00000000000E+00 -0.30178482672E+03  0.30178482676E+03  0.50400001928E-02 0. -1.
    10030    2    1    2    0    0  0.00000000000E+00  0.00000000000E+00  0.11207044469E+02  0.61477669799E+03  0.61467454034E+03 0.  0.
        3    1    3    3  502    0  0.19960606614E+03  0.12667436156E+03  0.20202152693E+03  0.31096894228E+03  0.10100000352E+00 0.  1.
       -3    1    3    3    0  502 -0.19960606614E+03 -0.12667436156E+03 -0.19081448246E+03  0.30380775572E+03  0.10100000352E+00 0. -1.
</event>
<event>
 5   0  0.3478183E-02  0.6102955E+03  0.7818609E-02  0.9884274E-01
        1   -1    0    0  501    0  0.00000000000E+00  0.00000000000E+00  0.59264658723E+03  0.59264658725E+03  0.50400001928E-02 0. -1.
       -1   -1    0    0    0  501  0.00000000000E+00  0.00000000000E+00 -0.15711747772E+03  0.15711747780E+03  0.50400001928E-02 0.  1.
    10030    2    1    2    0    0  0.00000000000E+00  0.00000000000E+00  0.43552910952E+03  0.74976406505E+03  0.61029545960E+03 0.  0.
        4    1    3    3  502    0 -0.16145252339E+03 -0.12870487926E+02 -0.99948984906E+02  0.19032598155E+03  0.12699999809E+01 0.  1.
       -4    1    3    3    0  502  0.16145252339E+03  0.12870487926E+02  0.53547809442E+03  0.55943808350E+03  0.12699999809E+01 0. -1.
</event>
<event>
 5   0  0.5872632E-02  0.5979975E+03  0.7818609E-02  0.9909569E-01
        2   -1    0    0  501    0  0.00000000000E+00  0.00000000000E+00  0.17640459756E+03  0.17640459758E+03  0.25500000920E-02 0. -1.
       -2   -1    0    0    0  501  0.00000000000E+00  0.00000000000E+00 -0.50679099277E+03  0.50679099277E+03  0.25500000920E-02 0.  1.
    10030    2    1    2    0    0  0.00000000000E+00  0.00000000000E+00 -0.33038639521E+03  0.68319559035E+03  0.59799752887E+03 0.  0.
        1    1    3    3  502    0  0.17614801170E+03  0.95424422827E+01  0.11061645674E+03  0.20821906915E+03  0.50400001928E-02 0. -1.
       -1    1    3    3    0  502 -0.17614801170E+03 -0.95424422827E+01 -0.44100285195E+03  0.47497652120E+03  0.50400001928E-02 0.  1.
</event>
<event>
 5   0  0.3767635E-02  0.5970302E+03  0.7818609E-02  0.9911587E-01
        1   -1    0    0  501    0  0.00000000000E+00  0.00000000000E+00  0.26460629025E+03  0.26460629030E+03  0.50400001928E-02 0. -1.
       -1   -1    0    0    0  501  0.00000000000E+00  0.00000000000E+00 -0.33676928461E+03  0.33676928465E+03  0.50400001928E-02 0.  1.
    10030    2    1    2    0    0  0.00000000000E+00  0.00000000000E+00 -0.72162994359E+02  0.60137557495E+03  0.59703022067E+03 0.  0.
        2    1    3    3  502    0 -0.19175021037E+03 -0.21798498481E+03 -0.10605417173E+03  0.30908426703E+03  0.25500000920E-02 0.  1.
       -2    1    3    3    0  502  0.19175021037E+03  0.21798498481E+03  0.33891177375E+02  0.29229130792E+03  0.25500000920E-02 0. -1.
</event>
<event>
 5   0  0.3640827E-02  0.5955168E+03  0.7818609E-02  0.9914751E-01
       -1   -1    0    0    0  501  0.00000000000E+00  0.00000000000E+00  0.21603914295E+03  0.21603914301E+03  0.50400001928E-02 0. -1.
        1   -1    0    0  501    0  0.00000000000E+00  0.00000000000E+00 -0.41038886890E+03  0.41038886893E+03  0.50400001928E-02 0.  1.
    10030    2    1    2    0    0  0.00000000000E+00  0.00000000000E+00 -0.19434972595E+03  0.62642801193E+03  0.59551678243E+03 0.  0.
        3    1    3    3  502    0 -0.52851479583E+02 -0.29284670995E+03 -0.86264663944E+02  0.30982910914E+03  0.10100000352E+00 0. -1.
       -3    1    3    3    0  502  0.52851479583E+02  0.29284670995E+03 -0.10808506200E+03  0.31659890280E+03  0.10100000352E+00 0.  1.
</event>
<event>
 5   0  0.3703280E-02  0.5995574E+03  0.7818609E-02  0.9906325E-01
       -1   -1    0    0    0  501  0.00000000000E+00  0.00000000000E+00  0.39852998542E+02  0.39852998861E+02  0.50400001928E-02 0. -1.
        1   -1    0    0  501    0  0.00000000000E+00  0.00000000000E+00 -0.22549690383E+04  0.22549690383E+04  0.50400001928E-02 0.  1.
    10030    2    1    2    0    0  0.00000000000E+00  0.00000000000E+00 -0.22151160397E+04  0.22948220371E+04  0.59955743067E+03 0.  0.
        5    1    3    3  502    0  0.23753994844E+03 -0.17574131107E+03 -0.91484850956E+03  0.96139488295E+03  0.46999998093E+01 0. -1.
       -5    1    3    3    0  502 -0.23753994844E+03  0.17574131107E+03 -0.13002675302E+04  0.13334271542E+04  0.46999998093E+01 0.  1.
</event>
<event>
 5   0  0.5872632E-02  0.5955271E+03  0.7818609E-02  0.9914729E-01
        2   -1    0    0  501    0  0.00000000000E+00  0.00000000000E+00  0.29707804342E+03  0.29707804343E+03  0.25500000920E-02 0. -1.
       -2   -1    0    0    0  501  0.00000000000E+00  0.00000000000E+00 -0.29845068689E+03  0.29845068690E+03  0.25500000920E-02 0.  1.
    10030    2    1    2    0    0  0.00000000000E+00  0.00000000000E+00 -0.13726434762E+01  0.59552873033E+03  0.59552714842E+03 0.  0.
        1    1    3    3  502    0  0.20207175801E+03  0.19683916606E+03 -0.95999183851E+02  0.29798405327E+03  0.50400001928E-02 0.  1.
       -1    1    3    3    0  502 -0.20207175801E+03 -0.19683916606E+03  0.94626540375E+02  0.29754467706E+03  0.50400001928E-02 0. -1.
</event>
<event>
 5   0  0.2388000E-02  0.6015642E+03  0.7818609E-02  0.9902166E-01
       -3   -1    0    0    0  501  0.00000000000E+00  0.00000000000E+00  0.18413933381E+03  0.18413936151E+03  0.10100000352E+00 0. -1.
        3   -1    0    0  501    0  0.00000000000E+00  0.00000000000E+00 -0.49131200937E+03  0.49131201975E+03  0.10100000352E+00 0.  1.
    10030    2    1    2    0    0  0.00000000000E+00  0.00000000000E+00 -0.30717267556E+03  0.67545138126E+03  0.60156422420E+03 0.  0.
        2    1    3    3  502    0 -0.44502934852E+02 -0.26838282934E+03 -0.29764100534E+03  0.40323693080E+03  0.25500000920E-02 0.  1.
       -2    1    3    3    0  502  0.44502934852E+02  0.26838282934E+03 -0.95316702212E+01  0.27221445046E+03  0.25500000920E-02 0. -1.
</event>
<event>
 5   0  0.3640827E-02  0.6005207E+03  0.7818609E-02  0.9904326E-01
       -1   -1    0    0    0  501  0.00000000000E+00  0.00000000000E+00  0.11844632018E+03  0.11844632029E+03  0.50400001928E-02 0. -1.
        1   -1    0    0  501    0  0.00000000000E+00  0.00000000000E+00 -0.76115718525E+03  0.76115718527E+03  0.50400001928E-02 0.  1.
    10030    2    1    2    0    0  0.00000000000E+00  0.00000000000E+00 -0.64271086507E+03  0.87960350556E+03  0.60052066651E+03 0.  0.
        3    1    3    3  502    0  0.20282292882E+03 -0.16195838774E+03 -0.54247022340E+03  0.60136645508E+03  0.10100000352E+00 0.  1.
       -3    1    3    3    0  502 -0.20282292882E+03  0.16195838774E+03 -0.10024064167E+03  0.27823705048E+03  0.10100000352E+00 0. -1.
</event>
<event>
 5   0  0.2388000E-02  0.6040640E+03  0.7818609E-02  0.9897010E-01
        3   -1    0    0  501    0  0.00000000000E+00  0.00000000000E+00  0.24983694522E+03  0.24983696564E+03  0.10100000352E+00 0.  1.
       -3   -1    0    0    0  501  0.00000000000E+00  0.00000000000E+00 -0.36513147779E+03  0.36513149176E+03  0.10100000352E+00 0. -1.
    10030    2    1    2    0    0  0.00000000000E+00  0.00000000000E+00 -0.11529453257E+03  0.61496845739E+03  0.60406404822E+03 0.  0.
        1    1    3    3  502    0  0.10653166358E+03  0.28197741782E+03 -0.38248529915E+02  0.30384734584E+03  0.50400001928E-02 0.  1.
       -1    1    3    3    0  502 -0.10653166358E+03 -0.28197741782E+03 -0.77046002652E+02  0.31112111156E+03  0.50400001928E-02 0. -1.
</event>
<event>
 5   0  0.5755078E-02  0.6037242E+03  0.7818609E-02  0.9897709E-01
        2   -1    0    0  501    0  0.00000000000E+00  0.00000000000E+00  0.93549054747E+03  0.93549054747E+03  0.25500000920E-02 0. -1.
       -2   -1    0    0    0  501  0.00000000000E+00  0.00000000000E+00 -0.97404230837E+02  0.97404230871E+02  0.25500000920E-02 0.  1.
    10030    2    1    2    0    0  0.00000000000E+00  0.00000000000E+00  0.83808631663E+03  0.10328947783E+04  0.60372423258E+03 0.  0.
        2    1    3    3  502    0  0.20886291449E+03 -0.20781343712E+03  0.30671565347E+03  0.42530534183E+03  0.25500000920E-02 0. -1.
       -2    1    3    3    0  502 -0.20886291449E+03  0.20781343712E+03  0.53137066316E+03  0.60758943652E+03  0.25500000920E-02 0.  1.
</event>
<event>
 5   0  0.3767635E-02  0.6002674E+03  0.7818609E-02  0.9904851E-01
       -1   -1    0    0    0  501  0.00000000000E+00  0.00000000000E+00  0.62930739389E+02  0.62930739590E+02  0.50400001928E-02 0. -1.
        1   -1    0    0  501    0  0.00000000000E+00  0.00000000000E+00 -0.14314185878E+04  0.14314185878E+04  0.50400001928E-02 0.  1.
    10030    2    1    2    0    0  0.00000000000E+00  0.00000000000E+00 -0.13684878484E+04  0.14943493274E+04  0.60026737463E+03 0.  0.
        2    1    3    3  502    0 -0.16585572939E+03  0.14492498525E+03 -0.11918086460E+04  0.12119897784E+04  0.25500000920E-02 0.  1.
       -2    1    3    3    0  502  0.16585572939E+03 -0.14492498525E+03 -0.17667920240E+03  0.28235954896E+03  0.25500000920E-02 0. -1.
</event>
<event>
 5   0  0.5999117E-02  0.6006114E+03  0.7818609E-02  0.9904138E-01
        2   -1    0    0  501    0  0.00000000000E+00  0.00000000000E+00  0.10801568547E+04  0.10801568547E+04  0.25500000920E-02 0.  1.
       -2   -1    0    0    0  501  0.00000000000E+00  0.00000000000E+00 -0.83491127778E+02  0.83491127817E+02  0.25500000920E-02 0. -1.
    10030    2    1    2    0    0  0.00000000000E+00  0.00000000000E+00  0.99666572690E+03  0.11636479825E+04  0.60061140182E+03 0.  0.
        5    1    3    3  502    0  0.10084614946E+03 -0.27796447218E+03  0.39715419521E+03  0.49516435497E+03  0.46999998093E+01 0. -1.
       -5    1    3    3    0  502 -0.10084614946E+03  0.27796447218E+03  0.59951153169E+03  0.66848362753E+03  0.46999998093E+01 0.  1.
</event>
<event>
 5   0  0.6007360E-02  0.5982169E+03  0.7818609E-02  0.9909112E-01
        2   -1    0    0  501    0  0.00000000000E+00  0.00000000000E+00  0.39280454260E+03  0.39280454261E+03  0.25500000920E-02 0.  1.
       -2   -1    0    0    0  501  0.00000000000E+00  0.00000000000E+00 -0.22776176065E+03  0.22776176067E+03  0.25500000920E-02 0. -1.
    10030    2    1    2    0    0  0.00000000000E+00  0.00000000000E+00  0.16504278195E+03  0.62056630328E+03  0.59821686444E+03 0.  0.
        4    1    3    3  502    0 -0.25431960621E+03 -0.27322391343E+02 -0.78317155813E+02  0.26750731759E+03  0.12699999809E+01 0. -1.
       -4    1    3    3    0  502  0.25431960621E+03  0.27322391343E+02  0.24335993776E+03  0.35305898569E+03  0.12699999809E+01 0.  1.
</event>
<event>
 5   0  0.6007360E-02  0.6074688E+03  0.7818609E-02  0.9890031E-01
        2   -1    0    0  501    0  0.00000000000E+00  0.00000000000E+00  0.66500307124E+03  0.66500307124E+03  0.25500000920E-02 0. -1.
       -2   -1    0    0    0  501  0.00000000000E+00  0.00000000000E+00 -0.13872804441E+03  0.13872804444E+03  0.25500000920E-02 0.  1.
    10030    2    1    2    0    0  0.00000000000E+00  0.00000000000E+00  0.52627502683E+03  0.80373111568E+03  0.60746876665E+03 0.  0.
        4    1    3    3  502    0  0.62514161040E+02 -0.20639794606E+03  0.54611887947E+03  0.58715890173E+03  0.12699999809E+01 0. -1.
       -4    1    3    3    0  502 -0.62514161040E+02  0.20639794606E+03 -0.19843852642E+02  0.21657221395E+03  0.12699999809E+01 0.  1.
</event>
<event>
 5   0  0.3703280E-02  0.5974572E+03  0.7818609E-02  0.9910696E-01
        1   -1    0    0  501    0  0.00000000000E+00  0.00000000000E+00  0.92670135663E+03  0.92670135665E+03  0.50400001928E-02 0. -1.
       -1   -1    0    0    0  501  0.00000000000E+00  0.00000000000E+00 -0.96297244677E+02  0.96297244809E+02  0.50400001928E-02 0.  1.
    10030    2    1    2    0    0  0.00000000000E+00  0.00000000000E+00  0.83040411196E+03  0.10229986015E+04  0.59745723648E+03 0.  0.
        5    1    3    3  502    0 -0.12477435199E+02  0.86153924046E+02  0.90443506920E+03  0.90862702437E+03  0.46999998093E+01 0. -1.
       -5    1    3    3    0  502  0.12477435199E+02 -0.86153924046E+02 -0.74030957241E+02  0.11437157709E+03  0.46999998093E+01 0.  1.
</event>
<event>
 5   0  0.3703280E-02  0.6015481E+03  0.7818609E-02  0.9902200E-01
        1   -1    0    0  501    0  0.00000000000E+00  0.00000000000E+00  0.49265209838E+03  0.49265209841E+03  0.50400001928E-02 0.  1.
       -1   -1    0    0    0  501  0.00000000000E+00  0.00000000000E+00 -0.18362859888E+03  0.18362859895E+03  0.50400001928E-02 0. -1.
    10030    2    1    2    0    0  0.00000000000E+00  0.00000000000E+00  0.30902349950E+03  0.67628069735E+03  0.60154805159E+03 0.  0.
        5    1    3    3  502    0  0.16202106810E+03 -0.19095576889E+03 -0.32692576349E+02  0.25259815266E+03  0.46999998093E+01 0. -1.
       -5    1    3    3    0  502 -0.16202106810E+03  0.19095576889E+03  0.34171607585E+03  0.42368254469E+03  0.46999998093E+01 0.  1.
</event>
<event>
 5   0  0.3703280E-02  0.5977931E+03  0.7818609E-02  0.9909995E-01
       -1   -1    0    0    0  501  0.00000000000E+00  0.00000000000E+00  0.12028261239E+03  0.12028261250E+03  0.50400001928E-02 0.  1.
        1   -1    0    0  501    0  0.00000000000E+00  0.00000000000E+00 -0.74274365243E+03  0.74274365245E+03  0.50400001928E-02 0. -1.
    10030    2    1    2    0    0  0.00000000000E+00  0.00000000000E+00 -0.62246104004E+03  0.86302626495E+03  0.59779309767E+03 0.  0.
        5    1    3    3  502    0  0.15395202660E+03 -0.14661889499E+03 -0.61446921449E+03  0.65022521669E+03  0.46999998093E+01 0. -1.
       -5    1    3    3    0  502 -0.15395202660E+03  0.14661889499E+03 -0.79918255497E+01  0.21280104826E+03  0.46999998093E+01 0.  1.
</event>
<event>
 5   0  0.6007360E-02  0.6040674E+03  0.7818609E-02  0.9897003E-01
        2   -1    0    0  501    0  0.00000000000E+00  0.00000000000E+00  0.77126351949E+02  0.77126351991E+02  0.25500000920E-02 0. -1.
       -2   -1    0    0    0  501  0.00000000000E+00  0.00000000000E+00 -0.11827911433E+04  0.11827911433E+04  0.25500000920E-02 0.  1.
    10030    2    1    2    0    0  0.00000000000E+00  0.00000000000E+00 -0.11056647913E+04  0.12599174953E+04  0.60406743341E+03 0.  0.
        4    1    3    3  502    0  0.70144446056E+02  0.17293749807E+03 -0.10481428461E+04  0.10646279445E+04  0.12699999809E+01 0.  1.
       -4    1    3    3    0  502 -0.70144446056E+02 -0.17293749807E+03 -0.57521945258E+02  0.19528955077E+03  0.12699999809E+01 0. -1.
</event>
<event>
 5   0  0.5999117E-02  0.6057221E+03  0.7818609E-02  0.9893605E-01
        2   -1    0    0  501    0  0.00000000000E+00  0.00000000000E+00  0.19562869889E+04  0.19562869889E+04  0.25500000920E-02 0. -1.
       -2   -1    0    0    0  501  0.00000000000E+00  0.00000000000E+00 -0.46887205226E+02  0.46887205295E+02  0.25500000920E-02 0.  1.
    10030    2    1    2    0    0  0.00000000000E+00  0.00000000000E+00  0.19093997836E+04  0.20031741942E+04  0.60572214620E+03 0.  0.
        5    1    3    3  502    0  0.15293791887E+03  0.16728020633E+03  0.16188400267E+04  0.16346369005E+04  0.46999998093E+01 0. -1.
       -5    1    3    3    0  502 -0.15293791887E+03 -0.16728020633E+03  0.29055975691E+03  0.36853729362E+03  0.46999998093E+01 0.  1.
</event>
<event>
 5   0  0.3640827E-02  0.5985797E+03  0.7818609E-02  0.9908357E-01
       -1   -1    0    0    0  501  0.00000000000E+00  0.00000000000E+00  0.20666862893E+03  0.20666862899E+03  0.50400001928E-02 0.  1.
        1   -1    0    0  501    0  0.00000000000E+00  0.00000000000E+00 -0.43342047731E+03  0.43342047733E+03  0.50400001928E-02 0. -1.
    10030    2    1    2    0    0  0.00000000000E+00  0.00000000000E+00 -0.22675184837E+03  0.64008910633E+03  0.59857970505E+03 0.  0.
        3    1    3    3  502    0  0.19545376095E+03 -0.26895843514E+02  0.12728369647E+03  0.23479077635E+03  0.10100000352E+00 0.  1.
       -3    1    3    3    0  502 -0.19545376095E+03  0.26895843514E+02 -0.35403554485E+03  0.40529832998E+03  0.10100000352E+00 0. -1.
</event>
<event>
 5   0  0.6007360E-02  0.6007923E+03  0.7818609E-02  0.9903764E-01
       -2   -1    0    0    0  501  0.00000000000E+00  0.00000000000E+00  0.22457345309E+03  0.22457345311E+03  0.25500000920E-02 0.  1.
        2   -1    0    0  501    0  0.00000000000E+00  0.00000000000E+00 -0.40181879454E+03  0.40181879455E+03  0.25500000920E-02 0. -1.
    10030    2    1    2    0    0  0.00000000000E+00  0.00000000000E+00 -0.17724534145E+03  0.62639224766E+03  0.60079225766E+03 0.  0.
        4    1    3    3  502    0  0.94050535457E+02  0.20422595944E+03 -0.29631546328E+03  0.37196533764E+03  0.12699999809E+01 0. -1.
       -4    1    3    3    0  502 -0.94050535457E+02 -0.20422595944E+03  0.11907012183E+03  0.25442691002E+03  0.12699999809E+01 0.  1.
</event>
<event>
 5   0  0.5872632E-02  0.6121399E+03  0.7818609E-02  0.9880535E-01
        2   -1    0    0  501    0  0.00000000000E+00  0.00000000000E+00  0.56339819446E+03  0.56339819446E+03  0.25500000920E-02 0. -1.
       -2   -1    0    0    0  501  0.00000000000E+00  0.00000000000E+00 -0.16627463323E+03  0.16627463325E+03  0.25500000920E-02 0.  1.
    10030    2    1    2    0    0  0.00000000000E+00  0.00000000000E+00  0.39712356123E+03  0.72967282771E+03  0.61213994529E+03 0.  0.
        1    1    3    3  502    0  0.28698874587E+03  0.98068263314E+02  0.24769348412E+03  0.39157628456E+03  0.50400001928E-02 0. -1.
       -1    1    3    3    0  502 -0.28698874587E+03 -0.98068263314E+02  0.14943007711E+03  0.33809654316E+03  0.50400001928E-02 0.  1.
</event>
<event>
 5   0  0.2388000E-02  0.5946388E+03  0.7818609E-02  0.9916592E-01
       -3   -1    0    0    0  501  0.00000000000E+00  0.00000000000E+00  0.25533747155E+03  0.25533749153E+03  0.10100000352E+00 0. -1.
        3   -1    0    0  501    0  0.00000000000E+00  0.00000000000E+00 -0.34620389036E+03  0.34620390509E+03  0.10100000352E+00 0.  1.
    10030    2    1    2    0    0  0.00000000000E+00  0.00000000000E+00 -0.90866418802E+02  0.60154139662E+03  0.59463883642E+03 0.  0.
        1    1    3    3  502    0  0.15375334402E+03  0.10972549578E+02 -0.30262516260E+03  0.33962107812E+03  0.50400001928E-02 0.  1.
       -1    1    3    3    0  502 -0.15375334402E+03 -0.10972549578E+02  0.21175874380E+03  0.26192031850E+03  0.50400001928E-02 0. -1.
</event>
<event>
 5   0  0.3651984E-02  0.6013343E+03  0.7818609E-02  0.9902642E-01
        1   -1    0    0  501    0  0.00000000000E+00  0.00000000000E+00  0.14922710883E+04  0.14922710883E+04  0.50400001928E-02 0. -1.
       -1   -1    0    0    0  501  0.00000000000E+00  0.00000000000E+00 -0.60579292050E+02  0.60579292259E+02  0.50400001928E-02 0.  1.
    10030    2    1    2    0    0  0.00000000000E+00  0.00000000000E+00  0.14316917962E+04  0.15528503806E+04  0.60133427058E+03 0.  0.
        1    1    3    3  502    0 -0.13530557535E+02  0.20438440643E+03  0.12842230800E+04  0.13004556820E+04  0.50400001928E-02 0. -1.
       -1    1    3    3    0  502  0.13530557535E+02 -0.20438440643E+03  0.14746871627E+03  0.25239469860E+03  0.50400001928E-02 0.  1.
</event>
<event>
 5   0  0.5935451E-02  0.5956203E+03  0.7818609E-02  0.9914534E-01
        2   -1    0    0  501    0  0.00000000000E+00  0.00000000000E+00  0.26988381181E+03  0.26988381182E+03  0.25500000920E-02 0.  1.
       -2   -1    0    0    0  501  0.00000000000E+00  0.00000000000E+00 -0.32862621995E+03  0.32862621996E+03  0.25500000920E-02 0. -1.
    10030    2    1    2    0    0  0.00000000000E+00  0.00000000000E+00 -0.58742408139E+02  0.59851003178E+03  0.59562033849E+03 0.  0.
        3    1    3    3  502    0 -0.41515306591E+02  0.15045666502E+02  0.26657591198E+03  0.27020847472E+03  0.10100000352E+00 0.  1.
       -3    1    3    3    0  502  0.41515306591E+02 -0.15045666502E+02 -0.32531832012E+03  0.32830155706E+03  0.10100000352E+00 0. -1.
</event>
<event>
 5   0  0.3640827E-02  0.5801128E+03  0.7818609E-02  0.9947547E-01
       -1   -1    0    0    0  501  0.00000000000E+00  0.00000000000E+00  0.69422242946E+02  0.69422243129E+02  0.50400001928E-02 0.  1.
        1   -1    0    0  501    0  0.00000000000E+00  0.00000000000E+00 -0.12118984457E+04  0.12118984457E+04  0.50400001928E-02 0. -1.
    10030    2    1    2    0    0  0.00000000000E+00  0.00000000000E+00 -0.11424762028E+04  0.12813206889E+04  0.58011277679E+03 0.  0.
        3    1    3    3  502    0 -0.14048209783E+03  0.12074976017E+03 -0.78252676991E+02  0.20109504233E+03  0.10100000352E+00 0.  1.
       -3    1    3    3    0  502  0.14048209783E+03 -0.12074976017E+03 -0.10642235258E+04  0.10802256465E+04  0.10100000352E+00 0. -1.
</event>
<event>
 5   0  0.3703280E-02  0.5940578E+03  0.7818609E-02  0.9917812E-01
       -1   -1    0    0    0  501  0.00000000000E+00  0.00000000000E+00  0.80076816261E+02  0.80076816419E+02  0.50400001928E-02 0.  1.
        1   -1    0    0  501    0  0.00000000000E+00  0.00000000000E+00 -0.11017690219E+04  0.11017690219E+04  0.50400001928E-02 0. -1.
    10030    2    1    2    0    0  0.00000000000E+00  0.00000000000E+00 -0.10216922056E+04  0.11818458383E+04  0.59405776024E+03 0.  0.
        5    1    3    3  502    0 -0.25080010660E+03 -0.45439481193E+02 -0.20757056799E+03  0.32874468910E+03  0.46999998093E+01 0.  1.
       -5    1    3    3    0  502  0.25080010660E+03  0.45439481193E+02 -0.81412163760E+03  0.85310114918E+03  0.46999998093E+01 0. -1.
</event>
<event>
 5   0  0.2388000E-02  0.6184426E+03  0.7818609E-02  0.9867865E-01
       -3   -1    0    0    0  501  0.00000000000E+00  0.00000000000E+00  0.18652712626E+03  0.18652715360E+03  0.10100000352E+00 0.  1.
        3   -1    0    0  501    0  0.00000000000E+00  0.00000000000E+00 -0.51262136242E+03  0.51262137237E+03  0.10100000352E+00 0. -1.
    10030    2    1    2    0    0  0.00000000000E+00  0.00000000000E+00 -0.32609423616E+03  0.69914852597E+03  0.61844256848E+03 0.  0.
        1    1    3    3  502    0 -0.26181293218E+03  0.15938105132E+03 -0.20923835501E+03  0.37111860666E+03  0.50400001928E-02 0. -1.
       -1    1    3    3    0  502  0.26181293218E+03 -0.15938105132E+03 -0.11685588115E+03  0.32802991931E+03  0.50400001928E-02 0.  1.
</event>
<event>
 5   0  0.3651984E-02  0.6114802E+03  0.7818609E-02  0.9881871E-01
        1   -1    0    0  501    0  0.00000000000E+00  0.00000000000E+00  0.69722446595E+03  0.69722446597E+03  0.50400001928E-02 0. -1.
       -1   -1    0    0    0  501  0.00000000000E+00  0.00000000000E+00 -0.13407016492E+03  0.13407016501E+03  0.50400001928E-02 0.  1.
    10030    2    1    2    0    0  0.00000000000E+00  0.00000000000E+00  0.56315430103E+03  0.83129463098E+03  0.61148016871E+03 0.  0.
        1    1    3    3  502    0  0.26003261541E+03 -0.98279819523E+02  0.10853772950E+03  0.29842306002E+03  0.50400001928E-02 0. -1.
       -1    1    3    3    0  502 -0.26003261541E+03  0.98279819523E+02  0.45461657154E+03  0.53287157096E+03  0.50400001928E-02 0.  1.
</event>
<event>
 5   0  0.3651984E-02  0.5753763E+03  0.7818609E-02  0.9957852E-01
        1   -1    0    0  501    0  0.00000000000E+00  0.00000000000E+00  0.20659409660E+04  0.20659409660E+04  0.50400001928E-02 0.  1.
       -1   -1    0    0    0  501  0.00000000000E+00  0.00000000000E+00 -0.40061387968E+02  0.40061388285E+02  0.50400001928E-02 0. -1.
    10030    2    1    2    0    0  0.00000000000E+00  0.00000000000E+00  0.20258795781E+04  0.21060023543E+04  0.57537626958E+03 0.  0.
        1    1    3    3  502    0 -0.27446932089E+02  0.27817601830E+03  0.12619753476E+04  0.12925621878E+04  0.50400001928E-02 0. -1.
       -1    1    3    3    0  502  0.27446932089E+02 -0.27817601830E+03  0.76390423045E+03  0.81344016655E+03  0.50400001928E-02 0.  1.
</event>
<event>
 5   0  0.2388000E-02  0.6086489E+03  0.7818609E-02  0.9887623E-01
       -3   -1    0    0    0  501  0.00000000000E+00  0.00000000000E+00  0.75784652625E+02  0.75784719927E+02  0.10100000352E+00 0.  1.
        3   -1    0    0  501    0  0.00000000000E+00  0.00000000000E+00 -0.12220589446E+04  0.12220589488E+04  0.10100000352E+00 0. -1.
    10030    2    1    2    0    0  0.00000000000E+00  0.00000000000E+00 -0.11462742920E+04  0.12978436687E+04  0.60864886095E+03 0.  0.
        1    1    3    3  502    0 -0.29839514536E+02  0.26460767569E+03 -0.25898294585E+03  0.37145630285E+03  0.50400001928E-02 0.  1.
       -1    1    3    3    0  502  0.29839514536E+02 -0.26460767569E+03 -0.88729134610E+03  0.92638736583E+03  0.50400001928E-02 0. -1.
</event>
<event>
 5   0  0.5935451E-02  0.6049755E+03  0.7818609E-02  0.9895137E-01
       -2   -1    0    0    0  501  0.00000000000E+00  0.00000000000E+00  0.54692604384E+03  0.54692604385E+03  0.25500000920E-02 0.  1.
        2   -1    0    0  501    0  0.00000000000E+00  0.00000000000E+00 -0.16729652119E+03  0.16729652121E+03  0.25500000920E-02 0. -1.
    10030    2    1    2    0    0  0.00000000000E+00  0.00000000000E+00  0.37962952266E+03  0.71422256506E+03  0.60497545237E+03 0.  0.
        3    1    3    3  502    0 -0.87642097823E+02  0.28649737497E+03  0.23901725468E+03  0.38326380134E+03  0.10100000352E+00 0.  1.
       -3    1    3    3    0  502  0.87642097823E+02 -0.28649737497E+03  0.14061226797E+03  0.33095876372E+03  0.10100000352E+00 0. -1.
</event>
<event>
 5   0  0.2388000E-02  0.5992952E+03  0.7818609E-02  0.9906869E-01
       -3   -1    0    0    0  501  0.00000000000E+00  0.00000000000E+00  0.39102454506E+03  0.39102455810E+03  0.10100000352E+00 0.  1.
        3   -1    0    0  501    0  0.00000000000E+00  0.00000000000E+00 -0.22962410130E+03  0.22962412352E+03  0.10100000352E+00 0. -1.
    10030    2    1    2    0    0  0.00000000000E+00  0.00000000000E+00  0.16140044376E+03  0.62064868162E+03  0.59929515495E+03 0.  0.
        3    1    3    3  502    0  0.13355687404E+02 -0.29862565512E+03  0.59150030697E+02  0.30472018741E+03  0.10100000352E+00 0. -1.
       -3    1    3    3    0  502 -0.13355687404E+02  0.29862565512E+03  0.10225041306E+03  0.31592849421E+03  0.10100000352E+00 0.  1.
</event>
<event>
 5   0  0.3651984E-02  0.5971931E+03  0.7818609E-02  0.9911247E-01
       -1   -1    0    0    0  501  0.00000000000E+00  0.00000000000E+00  0.43169524805E+03  0.43169524808E+03  0.50400001928E-02 0. -1.
        1   -1    0    0  501    0  0.00000000000E+00  0.00000000000E+00 -0.20653434196E+03  0.20653434202E+03  0.50400001928E-02 0.  1.
    10030    2    1    2    0    0  0.00000000000E+00  0.00000000000E+00  0.22516090609E+03  0.63822959010E+03  0.59719308105E+03 0.  0.
        1    1    3    3  502    0 -0.32048272778E+02  0.29510366932E+03  0.78005783119E+02  0.30691720326E+03  0.50400001928E-02 0.  1.
       -1    1    3    3    0  502  0.32048272778E+02 -0.29510366932E+03  0.14715512297E+03  0.33131238684E+03  0.50400001928E-02 0. -1.
</event>
<event>
 5   0  0.3767635E-02  0.4871001E+03  0.7818609E-02  0.1017202E+00
       -1   -1    0    0    0  501  0.00000000000E+00  0.00000000000E+00  0.30726543473E+02  0.30726543887E+02  0.50400001928E-02 0. -1.
        1   -1    0    0  501    0  0.00000000000E+00  0.00000000000E+00 -0.19304688760E+04  0.19304688761E+04  0.50400001928E-02 0.  1.
    10030    2    1    2    0    0  0.00000000000E+00  0.00000000000E+00 -0.18997423326E+04  0.19611954199E+04  0.48710013860E+03 0.  0.
        2    1    3    3  502    0  0.12898268360E+03  0.18078420035E+03 -0.54730126914E+03  0.59064214121E+03  0.25500000920E-02 0.  1.
       -2    1    3    3    0  502 -0.12898268360E+03 -0.18078420035E+03 -0.13524410634E+04  0.13705532787E+04  0.25500000920E-02 0. -1.
</event>
<event>
 5   0  0.3640827E-02  0.5908903E+03  0.7818609E-02  0.9924488E-01
        1   -1    0    0  501    0  0.00000000000E+00  0.00000000000E+00  0.45194553791E+03  0.45194553794E+03  0.50400001928E-02 0. -1.
       -1   -1    0    0    0  501  0.00000000000E+00  0.00000000000E+00 -0.19313796261E+03  0.19313796268E+03  0.50400001928E-02 0.  1.
    10030    2    1    2    0    0  0.00000000000E+00  0.00000000000E+00  0.25880757529E+03  0.64508350061E+03  0.59089031278E+03 0.  0.
        3    1    3    3  502    0 -0.53342137310E+02 -0.16811008377E+03 -0.12936120493E+03  0.21872520526E+03  0.10100000352E+00 0.  1.
       -3    1    3    3    0  502  0.53342137310E+02  0.16811008377E+03  0.38816878022E+03  0.42635829535E+03  0.10100000352E+00 0. -1.
</event>
<event>
 5   0  0.6007360E-02  0.6211814E+03  0.7818609E-02  0.9862410E-01
       -2   -1    0    0    0  501  0.00000000000E+00  0.00000000000E+00  0.91024295144E+02  0.91024295180E+02  0.25500000920E-02 0. -1.
        2   -1    0    0  501    0  0.00000000000E+00  0.00000000000E+00 -0.10597893733E+04  0.10597893733E+04  0.25500000920E-02 0.  1.
    10030    2    1    2    0    0  0.00000000000E+00  0.00000000000E+00 -0.96876507811E+03  0.11508136684E+04  0.62118139291E+03 0.  0.
        4    1    3    3  502    0  0.26519425346E+02 -0.46715600588E+02  0.82347931651E+02  0.98328134357E+02  0.12699999809E+01 0. -1.
       -4    1    3    3    0  502 -0.26519425346E+02  0.46715600588E+02 -0.10511130098E+04  0.10524855341E+04  0.12699999809E+01 0.  1.
</event>
<event>
 5   0  0.5935451E-02  0.6035238E+03  0.7818609E-02  0.9898122E-01
        2   -1    0    0  501    0  0.00000000000E+00  0.00000000000E+00  0.54702107902E+03  0.54702107902E+03  0.25500000920E-02 0. -1.
       -2   -1    0    0    0  501  0.00000000000E+00  0.00000000000E+00 -0.16646569464E+03  0.16646569466E+03  0.25500000920E-02 0.  1.
    10030    2    1    2    0    0  0.00000000000E+00  0.00000000000E+00  0.38055538438E+03  0.71348677368E+03  0.60352379873E+03 0.  0.
        3    1    3    3  502    0 -0.60577174088E+02 -0.23854363309E+03  0.39669825882E+03  0.46684277617E+03  0.10100000352E+00 0. -1.
       -3    1    3    3    0  502  0.60577174088E+02  0.23854363309E+03 -0.16142874441E+02  0.24664399751E+03  0.10100000352E+00 0.  1.
</event>
<event>
 5   0  0.3478183E-02  0.5985252E+03  0.7818609E-02  0.9908471E-01
        1   -1    0    0  501    0  0.00000000000E+00  0.00000000000E+00  0.27600530077E+03  0.27600530082E+03  0.50400001928E-02 0.  1.
       -1   -1    0    0    0  501  0.00000000000E+00  0.00000000000E+00 -0.32447960461E+03  0.32447960465E+03  0.50400001928E-02 0. -1.
    10030    2    1    2    0    0  0.00000000000E+00  0.00000000000E+00 -0.48474303833E+02  0.60048490547E+03  0.59852515700E+03 0.  0.
        4    1    3    3  502    0  0.11248715837E+03  0.20897620219E+03 -0.20713068273E+03  0.31500658169E+03  0.12699999809E+01 0. -1.
       -4    1    3    3    0  502 -0.11248715837E+03 -0.20897620219E+03  0.15865637890E+03  0.28547832377E+03  0.12699999809E+01 0.  1.
</event>
<event>
 5   0  0.3767635E-02  0.6766447E+03  0.7818609E-02  0.9758028E-01
        1   -1    0    0  501    0  0.00000000000E+00  0.00000000000E+00  0.41639675281E+03  0.41639675284E+03  0.50400001928E-02 0. -1.
       -1   -1    0    0    0  501  0.00000000000E+00  0.00000000000E+00 -0.27488692715E+03  0.27488692719E+03  0.50400001928E-02 0.  1.
    10030    2    1    2    0    0  0.00000000000E+00  0.00000000000E+00  0.14150982566E+03  0.69128368003E+03  0.67664473361E+03 0.  0.
        2    1    3    3  502    0  0.32415004158E+03 -0.96698494093E+02  0.64442594886E+02  0.34434967149E+03  0.25500000920E-02 0. -1.
       -2    1    3    3    0  502 -0.32415004158E+03  0.96698494093E+02  0.77067230774E+02  0.34693400854E+03  0.25500000920E-02 0.  1.
</event>
<event>
 5   0  0.3767635E-02  0.6303407E+03  0.7818609E-02  0.9844384E-01
        1   -1    0    0  501    0  0.00000000000E+00  0.00000000000E+00  0.34142207100E+03  0.34142207103E+03  0.50400001928E-02 0.  1.
       -1   -1    0    0    0  501  0.00000000000E+00  0.00000000000E+00 -0.29093707806E+03  0.29093707811E+03  0.50400001928E-02 0. -1.
    10030    2    1    2    0    0  0.00000000000E+00  0.00000000000E+00  0.50484992933E+02  0.63235914914E+03  0.63034066899E+03 0.  0.
        2    1    3    3  502    0 -0.17092348892E+03  0.36357405479E+02 -0.23788663663E+03  0.29517241046E+03  0.25500000920E-02 0. -1.
       -2    1    3    3    0  502  0.17092348892E+03 -0.36357405479E+02  0.28837162957E+03  0.33718673868E+03  0.25500000920E-02 0.  1.
</event>
<event>
 5   0  0.3651984E-02  0.6090258E+03  0.7818609E-02  0.9886855E-01
        1   -1    0    0  501    0  0.00000000000E+00  0.00000000000E+00  0.85389606151E+03  0.85389606153E+03  0.50400001928E-02 0.  1.
       -1   -1    0    0    0  501  0.00000000000E+00  0.00000000000E+00 -0.10859414128E+03  0.10859414140E+03  0.50400001928E-02 0. -1.
    10030    2    1    2    0    0  0.00000000000E+00  0.00000000000E+00  0.74530192023E+03  0.96249020292E+03  0.60902581097E+03 0.  0.
        1    1    3    3  502    0  0.55914356804E+02  0.24034349000E+03  0.90666841904E+02  0.26289139340E+03  0.50400001928E-02 0. -1.
       -1    1    3    3    0  502 -0.55914356804E+02 -0.24034349000E+03  0.65463507833E+03  0.69959880952E+03  0.50400001928E-02 0.  1.
</event>
<event>
 5   0  0.3703280E-02  0.6315971E+03  0.7818609E-02  0.9841937E-01
       -1   -1    0    0    0  501  0.00000000000E+00  0.00000000000E+00  0.21138087745E+03  0.21138087751E+03  0.50400001928E-02 0. -1.
        1   -1    0    0  501    0  0.00000000000E+00  0.00000000000E+00 -0.47179630471E+03  0.47179630474E+03  0.50400001928E-02 0.  1.
    10030    2    1    2    0    0  0.00000000000E+00  0.00000000000E+00 -0.26041542726E+03  0.68317718225E+03  0.63159707694E+03 0.  0.
        5    1    3    3  502    0 -0.73679987136E+02  0.11998364197E+02 -0.46207643839E+03  0.46809125836E+03  0.46999998093E+01 0.  1.
       -5    1    3    3    0  502  0.73679987136E+02 -0.11998364197E+02  0.20166101113E+03  0.21508592389E+03  0.46999998093E+01 0. -1.
</event>
<event>
 5   0  0.3478183E-02  0.6001640E+03  0.7818609E-02  0.9905066E-01
       -1   -1    0    0    0  501  0.00000000000E+00  0.00000000000E+00  0.22022756589E+03  0.22022756595E+03  0.50400001928E-02 0. -1.
        1   -1    0    0  501    0  0.00000000000E+00  0.00000000000E+00 -0.40889163378E+03  0.40889163382E+03  0.50400001928E-02 0.  1.
    10030    2    1    2    0    0  0.00000000000E+00  0.00000000000E+00 -0.18866406789E+03  0.62911919976E+03  0.60016400842E+03 0.  0.
        4    1    3    3  502    0  0.20631941279E+03 -0.18099117915E+03 -0.22152049609E+03  0.35270164461E+03  0.12699999809E+01 0.  1.
       -4    1    3    3    0  502 -0.20631941279E+03  0.18099117915E+03  0.32856428197E+02  0.27641755515E+03  0.12699999809E+01 0. -1.
</event>
<event>
 5   0  0.6007360E-02  0.6329447E+03  0.7818609E-02  0.9839319E-01
        2   -1    0    0  501    0  0.00000000000E+00  0.00000000000E+00  0.19550068384E+04  0.19550068384E+04  0.25500000920E-02 0. -1.
       -2   -1    0    0    0  501  0.00000000000E+00  0.00000000000E+00 -0.51229871973E+02  0.51229872037E+02  0.25500000920E-02 0.  1.
    10030    2    1    2    0    0  0.00000000000E+00  0.00000000000E+00  0.19037769664E+04  0.20062367104E+04  0.63294470565E+03 0.  0.
        4    1    3    3  502    0 -0.16602137224E+03  0.12669428060E+03  0.17055718455E+04  0.17183106442E+04  0.12699999809E+01 0. -1.
       -4    1    3    3    0  502  0.16602137224E+03 -0.12669428060E+03  0.19820512092E+03  0.28792606627E+03  0.12699999809E+01 0.  1.
</event>
<event>
 5   0  0.2388000E-02  0.6026930E+03  0.7818609E-02  0.9899835E-01
        3   -1    0    0  501    0  0.00000000000E+00  0.00000000000E+00  0.46732560117E+03  0.46732561208E+03  0.10100000352E+00 0.  1.
       -3   -1    0    0    0  501  0.00000000000E+00  0.00000000000E+00 -0.19431781481E+03  0.19431784106E+03  0.10100000352E+00 0. -1.
    10030    2    1    2    0    0  0.00000000000E+00  0.00000000000E+00  0.27300778636E+03  0.66164345314E+03  0.60269296302E+03 0.  0.
        4    1    3    3  502    0 -0.10859082797E+03  0.24985348201E+03  0.27790170763E+03  0.38916539209E+03  0.12699999809E+01 0.  1.
       -4    1    3    3    0  502  0.10859082797E+03 -0.24985348201E+03 -0.48939212766E+01  0.27247806106E+03  0.12699999809E+01 0. -1.
</event>
<event>
 5   0  0.6007360E-02  0.5888246E+03  0.7818609E-02  0.9928867E-01
       -2   -1    0    0    0  501  0.00000000000E+00  0.00000000000E+00  0.11418939241E+03  0.11418939244E+03  0.25500000920E-02 0.  1.
        2   -1    0    0  501    0  0.00000000000E+00  0.00000000000E+00 -0.75907759292E+03  0.75907759292E+03  0.25500000920E-02 0. -1.
    10030    2    1    2    0    0  0.00000000000E+00  0.00000000000E+00 -0.64488820051E+03  0.87326698537E+03  0.58882462294E+03 0.  0.
        4    1    3    3  502    0 -0.17116276952E+03 -0.21317493490E+03 -0.16041085781E+03  0.31697555543E+03  0.12699999809E+01 0. -1.
       -4    1    3    3    0  502  0.17116276952E+03  0.21317493490E+03 -0.48447734269E+03  0.55629142994E+03  0.12699999809E+01 0.  1.
</event>
<event>
 5   0  0.3651984E-02  0.5891750E+03  0.7818609E-02  0.9928123E-01
       -1   -1    0    0    0  501  0.00000000000E+00  0.00000000000E+00  0.11152580736E+03  0.11152580747E+03  0.50400001928E-02 0.  1.
        1   -1    0    0  501    0  0.00000000000E+00  0.00000000000E+00 -0.77813188039E+03  0.77813188041E+03  0.50400001928E-02 0. -1.
    10030    2    1    2    0    0  0.00000000000E+00  0.00000000000E+00 -0.66660607303E+03  0.88965768789E+03  0.58917496977E+03 0.  0.
        1    1    3    3  502    0 -0.15772334358E+03 -0.20744918087E+03 -0.54072954549E+03  0.60025016213E+03  0.50400001928E-02 0. -1.
       -1    1    3    3    0  502  0.15772334358E+03  0.20744918087E+03 -0.12587652755E+03  0.28940752575E+03  0.50400001928E-02 0.  1.
</event>
<event>
 5   0  0.3478183E-02  0.5994432E+03  0.7818609E-02  0.9906562E-01
        1   -1    0    0  501    0  0.00000000000E+00  0.00000000000E+00  0.45255804746E+03  0.45255804748E+03  0.50400001928E-02 0. -1.
       -1   -1    0    0    0  501  0.00000000000E+00  0.00000000000E+00 -0.19850055806E+03  0.19850055812E+03  0.50400001928E-02 0.  1.
    10030    2    1    2    0    0  0.00000000000E+00  0.00000000000E+00  0.25405748940E+03  0.65105860561E+03  0.59944315829E+03 0.  0.
        4    1    3    3  502    0  0.24840265314E+03  0.11333294590E+03  0.26129871812E+03  0.37792442062E+03  0.12699999809E+01 0. -1.
       -4    1    3    3    0  502 -0.24840265314E+03 -0.11333294590E+03 -0.72412287203E+01  0.27313418498E+03  0.12699999809E+01 0.  1.
</event>
<event>
 5   0  0.6007360E-02  0.6011155E+03  0.7818609E-02  0.9903095E-01
        2   -1    0    0  501    0  0.00000000000E+00  0.00000000000E+00  0.20531973187E+04  0.20531973187E+04  0.25500000920E-02 0.  1.
       -2   -1    0    0    0  501  0.00000000000E+00  0.00000000000E+00 -0.43997208294E+02  0.43997208368E+02  0.25500000920E-02 0. -1.
    10030    2    1    2    0    0  0.00000000000E+00  0.00000000000E+00  0.20092001104E+04  0.20971945271E+04  0.60111546372E+03 0.  0.
        4    1    3    3  502    0  0.86565204834E+02  0.65808084610E+02  0.19821541762E+04  0.19851350155E+04  0.12699999809E+01 0.  1.
       -4    1    3    3    0  502 -0.86565204834E+02 -0.65808084610E+02  0.27045934291E+02  0.11205951164E+03  0.12699999809E+01 0. -1.
</event>
<event>
 5   0  0.6007360E-02  0.6003997E+03  0.7818609E-02  0.9904577E-01
        2   -1    0    0  501    0  0.00000000000E+00  0.00000000000E+00  0.23057005925E+03  0.23057005927E+03  0.25500000920E-02 0.  1.
       -2   -1    0    0    0  501  0.00000000000E+00  0.00000000000E+00 -0.39085711043E+03  0.39085711044E+03  0.25500000920E-02 0. -1.
    10030    2    1    2    0    0  0.00000000000E+00  0.00000000000E+00 -0.16028705118E+03  0.62142716970E+03  0.60039969060E+03 0.  0.
        4    1    3    3  502    0  0.65867449221E+02  0.29269370636E+03 -0.91009171861E+02  0.31351620193E+03  0.12699999809E+01 0. -1.
       -4    1    3    3    0  502 -0.65867449221E+02 -0.29269370636E+03 -0.69277879316E+02  0.30791096777E+03  0.12699999809E+01 0.  1.
</event>
<event>
 5   0  0.5999117E-02  0.6002502E+03  0.7818609E-02  0.9904887E-01
        2   -1    0    0  501    0  0.00000000000E+00  0.00000000000E+00  0.50236178013E+03  0.50236178014E+03  0.25500000920E-02 0. -1.
       -2   -1    0    0    0  501  0.00000000000E+00  0.00000000000E+00 -0.17930322571E+03  0.17930322573E+03  0.25500000920E-02 0.  1.
    10030    2    1    2    0    0  0.00000000000E+00  0.00000000000E+00  0.32305855442E+03  0.68166500586E+03  0.60025024001E+03 0.  0.
        5    1    3    3  502    0 -0.25306945686E+02  0.75492539249E+02 -0.16704702096E+03  0.18511175595E+03  0.46999998093E+01 0.  1.
       -5    1    3    3    0  502  0.25306945686E+02 -0.75492539249E+02  0.49010557538E+03  0.49655324991E+03  0.46999998093E+01 0. -1.
</event>
<event>
 5   0  0.5872632E-02  0.6227254E+03  0.7818609E-02  0.9859348E-01
       -2   -1    0    0    0  501  0.00000000000E+00  0.00000000000E+00  0.18722273416E+03  0.18722273418E+03  0.25500000920E-02 0. -1.
        2   -1    0    0  501    0  0.00000000000E+00  0.00000000000E+00 -0.51781501812E+03  0.51781501813E+03  0.25500000920E-02 0.  1.
    10030    2    1    2    0    0  0.00000000000E+00  0.00000000000E+00 -0.33059228396E+03  0.70503775231E+03  0.62272544028E+03 0.  0.
        1    1    3    3  502    0 -0.29142146889E+03 -0.10755091041E+03 -0.14119710622E+03  0.34121883549E+03  0.50400001928E-02 0.  1.
       -1    1    3    3    0  502  0.29142146889E+03  0.10755091041E+03 -0.18939517774E+03  0.36381891682E+03  0.50400001928E-02 0. -1.
</event>
<event>
 5   0  0.3703280E-02  0.6024736E+03  0.7818609E-02  0.9900287E-01
       -1   -1    0    0    0  501  0.00000000000E+00  0.00000000000E+00  0.17627435513E+03  0.17627435521E+03  0.50400001928E-02 0.  1.
        1   -1    0    0  501    0  0.00000000000E+00  0.00000000000E+00 -0.51478622313E+03  0.51478622315E+03  0.50400001928E-02 0. -1.
    10030    2    1    2    0    0  0.00000000000E+00  0.00000000000E+00 -0.33851186799E+03  0.69106057836E+03  0.60247359958E+03 0.  0.
        5    1    3    3  502    0 -0.10279353989E+03  0.15515952091E+03 -0.44088995098E+03  0.47858857868E+03  0.46999998093E+01 0. -1.
       -5    1    3    3    0  502  0.10279353989E+03 -0.15515952091E+03  0.10237808298E+03  0.21247199968E+03  0.46999998093E+01 0.  1.
</event>
<event>
 5   0  0.5999117E-02  0.5834542E+03  0.7818609E-02  0.9940341E-01
       -2   -1    0    0    0  501  0.00000000000E+00  0.00000000000E+00  0.14585914135E+03  0.14585914138E+03  0.25500000920E-02 0. -1.
        2   -1    0    0  501    0  0.00000000000E+00  0.00000000000E+00 -0.58347190197E+03  0.58347190198E+03  0.25500000920E-02 0.  1.
    10030    2    1    2    0    0  0.00000000000E+00  0.00000000000E+00 -0.43761276062E+03  0.72933104336E+03  0.58345423346E+03 0.  0.
        5    1    3    3  502    0 -0.21336627219E+03  0.17156684575E+03 -0.93042217265E+02  0.28920458651E+03  0.46999998093E+01 0. -1.
       -5    1    3    3    0  502  0.21336627219E+03 -0.17156684575E+03 -0.34457054335E+03  0.44012645684E+03  0.46999998093E+01 0.  1.
</event>
<event>
 5   0  0.2388000E-02  0.5982158E+03  0.7818609E-02  0.9909115E-01
       -4   -1    0    0    0  501  0.00000000000E+00  0.00000000000E+00  0.72169500232E+02  0.72180673754E+02  0.12699999809E+01 0. -1.
        4   -1    0    0  501    0  0.00000000000E+00  0.00000000000E+00 -0.12395510809E+04  0.12395517315E+04  0.12699999809E+01 0.  1.
    10030    2    1    2    0    0  0.00000000000E+00  0.00000000000E+00 -0.11673815807E+04  0.13117324053E+04  0.59821580396E+03 0.  0.
        1    1    3    3  502    0 -0.28131947139E+03  0.52525618375E+01 -0.36118101091E+03  0.45784272087E+03  0.50400001928E-02 0. -1.
       -1    1    3    3    0  502  0.28131947139E+03 -0.52525618375E+01 -0.80620056976E+03  0.85388968438E+03  0.50400001928E-02 0.  1.
</event>
<event>
 5   0  0.5999117E-02  0.5975558E+03  0.7818609E-02  0.9910490E-01
       -2   -1    0    0    0  501  0.00000000000E+00  0.00000000000E+00  0.93039737566E+02  0.93039737601E+02  0.25500000920E-02 0.  1.
        2   -1    0    0  501    0  0.00000000000E+00  0.00000000000E+00 -0.95946358185E+03  0.95946358186E+03  0.25500000920E-02 0. -1.
    10030    2    1    2    0    0  0.00000000000E+00  0.00000000000E+00 -0.86642384429E+03  0.10525033195E+04  0.59755582126E+03 0.  0.
        5    1    3    3  502    0 -0.18927638459E+03  0.15566912763E+03 -0.73412779682E+03  0.77396649741E+03  0.46999998093E+01 0. -1.
       -5    1    3    3    0  502  0.18927638459E+03 -0.15566912763E+03 -0.13229604747E+03  0.27853682204E+03  0.46999998093E+01 0.  1.
</event>
<event>
 5   0  0.3651984E-02  0.5899327E+03  0.7818609E-02  0.9926515E-01
        1   -1    0    0  501    0  0.00000000000E+00  0.00000000000E+00  0.27632228492E+03  0.27632228496E+03  0.50400001928E-02 0. -1.
       -1   -1    0    0    0  501  0.00000000000E+00  0.00000000000E+00 -0.31486837690E+03  0.31486837694E+03  0.50400001928E-02 0.  1.
    10030    2    1    2    0    0  0.00000000000E+00  0.00000000000E+00 -0.38546091982E+02  0.59119066190E+03  0.58993270592E+03 0.  0.
        1    1    3    3  502    0 -0.69978723836E+01 -0.65866696581E+02 -0.30731900876E+03  0.31437615225E+03  0.50400001928E-02 0.  1.
       -1    1    3    3    0  502  0.69978723836E+01  0.65866696581E+02  0.26877291677E+03  0.27681450965E+03  0.50400001928E-02 0. -1.
</event>
<event>
 5   0  0.3767635E-02  0.6046592E+03  0.7818609E-02  0.9895787E-01
        1   -1    0    0  501    0  0.00000000000E+00  0.00000000000E+00  0.32523884840E+03  0.32523884844E+03  0.50400001928E-02 0.  1.
       -1   -1    0    0    0  501  0.00000000000E+00  0.00000000000E+00 -0.28103403960E+03  0.28103403965E+03  0.50400001928E-02 0. -1.
    10030    2    1    2    0    0  0.00000000000E+00  0.00000000000E+00  0.44204808798E+02  0.60627288809E+03  0.60465920129E+03 0.  0.
        2    1    3    3  502    0 -0.30243339872E+02  0.22056075857E+03 -0.18299539386E+03  0.28818227219E+03  0.25500000920E-02 0. -1.
       -2    1    3    3    0  502  0.30243339872E+02 -0.22056075857E+03  0.22720020266E+03  0.31809061589E+03  0.25500000920E-02 0.  1.
</event>
<event>
 5   0  0.3640827E-02  0.5999934E+03  0.7818609E-02  0.9905420E-01
       -1   -1    0    0    0  501  0.00000000000E+00  0.00000000000E+00  0.14880862379E+03  0.14880862388E+03  0.50400001928E-02 0. -1.
        1   -1    0    0  501    0  0.00000000000E+00  0.00000000000E+00 -0.60479029690E+03  0.60479029693E+03  0.50400001928E-02 0.  1.
    10030    2    1    2    0    0  0.00000000000E+00  0.00000000000E+00 -0.45598167311E+03  0.75359892080E+03  0.59999337265E+03 0.  0.
        3    1    3    3  502    0  0.11213144009E+03 -0.46361308240E+02  0.11661266771E+03  0.16828949828E+03  0.10100000352E+00 0. -1.
       -3    1    3    3    0  502 -0.11213144009E+03  0.46361308240E+02 -0.57259434082E+03  0.58530942253E+03  0.10100000352E+00 0.  1.
</event>
<event>
 5   0  0.3640827E-02  0.5985566E+03  0.7818609E-02  0.9908405E-01
       -1   -1    0    0    0  501  0.00000000000E+00  0.00000000000E+00  0.51816552392E+03  0.51816552395E+03  0.50400001928E-02 0.  1.
        1   -1    0    0  501    0  0.00000000000E+00  0.00000000000E+00 -0.17285497401E+03  0.17285497409E+03  0.50400001928E-02 0. -1.
    10030    2    1    2    0    0  0.00000000000E+00  0.00000000000E+00  0.34531054991E+03  0.69102049803E+03  0.59855655775E+03 0.  0.
        3    1    3    3  502    0 -0.18979173612E+03  0.10110435935E+03 -0.67643985123E+02  0.22543006344E+03  0.10100000352E+00 0. -1.
       -3    1    3    3    0  502  0.18979173612E+03 -0.10110435935E+03  0.41295453504E+03  0.46559043459E+03  0.10100000352E+00 0.  1.
</event>
<event>
 5   0  0.5755078E-02  0.6006724E+03  0.7818609E-02  0.9904012E-01
        2   -1    0    0  501    0  0.00000000000E+00  0.00000000000E+00  0.11990182415E+04  0.11990182415E+04  0.25500000920E-02 0. -1.
       -2   -1    0    0    0  501  0.00000000000E+00  0.00000000000E+00 -0.75229734431E+02  0.75229734474E+02  0.25500000920E-02 0.  1.
    10030    2    1    2    0    0  0.00000000000E+00  0.00000000000E+00  0.11237885071E+04  0.12742479760E+04  0.60067236966E+03 0.  0.
        2    1    3    3  502    0  0.29234363426E+02 -0.11636753613E+03 -0.22179157100E+02  0.12201625501E+03  0.25500000920E-02 0.  1.
       -2    1    3    3    0  502 -0.29234363426E+02  0.11636753613E+03  0.11459676642E+04  0.11522317210E+04  0.25500000920E-02 0. -1.
</event>
<event>
 5   0  0.3640827E-02  0.5986492E+03  0.7818609E-02  0.9908212E-01
       -1   -1    0    0    0  501  0.00000000000E+00  0.00000000000E+00  0.16910906748E+03  0.16910906755E+03  0.50400001928E-02 0. -1.
        1   -1    0    0  501    0  0.00000000000E+00  0.00000000000E+00 -0.52980733038E+03  0.52980733041E+03  0.50400001928E-02 0.  1.
    10030    2    1    2    0    0  0.00000000000E+00  0.00000000000E+00 -0.36069826291E+03  0.69891639796E+03  0.59864922490E+03 0.  0.
        3    1    3    3  502    0  0.61124519379E+02  0.27061915761E+03 -0.31152564432E+03  0.41715605306E+03  0.10100000352E+00 0. -1.
       -3    1    3    3    0  502 -0.61124519379E+02 -0.27061915761E+03 -0.49172618590E+02  0.28176034490E+03  0.10100000352E+00 0.  1.
</event>
<event>
 5   0  0.3767635E-02  0.5930826E+03  0.7818609E-02  0.9919862E-01
       -1   -1    0    0    0  501  0.00000000000E+00  0.00000000000E+00  0.10398580237E+03  0.10398580249E+03  0.50400001928E-02 0.  1.
        1   -1    0    0  501    0  0.00000000000E+00  0.00000000000E+00 -0.84566104418E+03  0.84566104420E+03  0.50400001928E-02 0. -1.
    10030    2    1    2    0    0  0.00000000000E+00  0.00000000000E+00 -0.74167524181E+03  0.94964684669E+03  0.59308259890E+03 0.  0.
        2    1    3    3  502    0 -0.22647254307E+03 -0.11137717628E+03 -0.62014300436E+03  0.66953120467E+03  0.25500000920E-02 0. -1.
       -2    1    3    3    0  502  0.22647254307E+03  0.11137717628E+03 -0.12153223745E+03  0.28011564202E+03  0.25500000920E-02 0.  1.
</event>
<event>
 5   0  0.3651984E-02  0.6067847E+03  0.7818609E-02  0.9891429E-01
       -1   -1    0    0    0  501  0.00000000000E+00  0.00000000000E+00  0.15519455812E+03  0.15519455820E+03  0.50400001928E-02 0. -1.
        1   -1    0    0  501    0  0.00000000000E+00  0.00000000000E+00 -0.59310659095E+03  0.59310659098E+03  0.50400001928E-02 0.  1.
    10030    2    1    2    0    0  0.00000000000E+00  0.00000000000E+00 -0.43791203283E+03  0.74830114918E+03  0.60678469111E+03 0.  0.
        1    1    3    3  502    0  0.29639656870E+02  0.22281093698E+02 -0.59030162824E+03  0.59146510355E+03  0.50400001928E-02 0.  1.
       -1    1    3    3    0  502 -0.29639656870E+02 -0.22281093698E+02  0.15238959540E+03  0.15683604563E+03  0.50400001928E-02 0. -1.
</event>
<event>
 5   0  0.5872632E-02  0.5970765E+03  0.7818609E-02  0.9911490E-01
       -2   -1    0    0    0  501  0.00000000000E+00  0.00000000000E+00  0.16220652352E+03  0.16220652354E+03  0.25500000920E-02 0.  1.
        2   -1    0    0  501    0  0.00000000000E+00  0.00000000000E+00 -0.54945431231E+03  0.54945431231E+03  0.25500000920E-02 0. -1.
    10030    2    1    2    0    0  0.00000000000E+00  0.00000000000E+00 -0.38724778878E+03  0.71166083586E+03  0.59707645689E+03 0.  0.
        1    1    3    3  502    0 -0.17698338448E+03  0.17154173298E+03  0.71531392644E+01  0.24657828770E+03  0.50400001928E-02 0.  1.
       -1    1    3    3    0  502  0.17698338448E+03 -0.17154173298E+03 -0.39440092805E+03  0.46508254816E+03  0.50400001928E-02 0. -1.
</event>
<event>
 5   0  0.5755078E-02  0.5990260E+03  0.7818609E-02  0.9907429E-01
        2   -1    0    0  501    0  0.00000000000E+00  0.00000000000E+00  0.72751213014E+03  0.72751213015E+03  0.25500000920E-02 0. -1.
       -2   -1    0    0    0  501  0.00000000000E+00  0.00000000000E+00 -0.12330797565E+03  0.12330797568E+03  0.25500000920E-02 0.  1.
    10030    2    1    2    0    0  0.00000000000E+00  0.00000000000E+00  0.60420415449E+03  0.85082010582E+03  0.59902603630E+03 0.  0.
        2    1    3    3  502    0 -0.35502881646E+02 -0.17158611667E+03 -0.42914044568E+02  0.18039918311E+03  0.25500000920E-02 0.  1.
       -2    1    3    3    0  502  0.35502881646E+02  0.17158611667E+03  0.64711819906E+03  0.67042092271E+03  0.25500000920E-02 0. -1.
</event>
<event>
 5   0  0.2388000E-02  0.6056514E+03  0.7818609E-02  0.9893750E-01
       -3   -1    0    0    0  501  0.00000000000E+00  0.00000000000E+00  0.21882288011E+03  0.21882290342E+03  0.10100000352E+00 0.  1.
        3   -1    0    0  501    0  0.00000000000E+00  0.00000000000E+00 -0.41907593990E+03  0.41907595207E+03  0.10100000352E+00 0. -1.
    10030    2    1    2    0    0  0.00000000000E+00  0.00000000000E+00 -0.20025305978E+03  0.63789885549E+03  0.60565143596E+03 0.  0.
        5    1    3    3  502    0 -0.41023940778E+02 -0.47539522580E+02  0.21185136038E+03  0.22101144499E+03  0.46999998093E+01 0.  1.
       -5    1    3    3    0  502  0.41023940778E+02  0.47539522580E+02 -0.41210442016E+03  0.41688741050E+03  0.46999998093E+01 0. -1.
</event>
<event>
 5   0  0.3640827E-02  0.5615355E+03  0.7818609E-02  0.9988586E-01
        1   -1    0    0  501    0  0.00000000000E+00  0.00000000000E+00  0.10243105582E+04  0.10243105582E+04  0.50400001928E-02 0.  1.
       -1   -1    0    0    0  501  0.00000000000E+00  0.00000000000E+00 -0.76959588212E+02  0.76959588377E+02  0.50400001928E-02 0. -1.
    10030    2    1    2    0    0  0.00000000000E+00  0.00000000000E+00  0.94735097001E+03  0.11012701466E+04  0.56153546232E+03 0.  0.
        3    1    3    3  502    0 -0.21370329556E+03 -0.13252784204E+03  0.71860892972E+03  0.76133536074E+03  0.10100000352E+00 0.  1.
       -3    1    3    3    0  502  0.21370329556E+03  0.13252784204E+03  0.22874204029E+03  0.33993478587E+03  0.10100000352E+00 0. -1.
</event>
<event>
 5   0  0.5872632E-02  0.5950798E+03  0.7818609E-02  0.9915667E-01
       -2   -1    0    0    0  501  0.00000000000E+00  0.00000000000E+00  0.10163623699E+03  0.10163623702E+03  0.25500000920E-02 0.  1.
        2   -1    0    0  501    0  0.00000000000E+00  0.00000000000E+00 -0.87104754625E+03  0.87104754625E+03  0.25500000920E-02 0. -1.
    10030    2    1    2    0    0  0.00000000000E+00  0.00000000000E+00 -0.76941130926E+03  0.97268378328E+03  0.59507980930E+03 0.  0.
        1    1    3    3  502    0  0.26384805594E+03 -0.11490752066E+03 -0.50822415307E+03  0.58404736513E+03  0.50400001928E-02 0.  1.
       -1    1    3    3    0  502 -0.26384805594E+03  0.11490752066E+03 -0.26118715618E+03  0.38863641814E+03  0.50400001928E-02 0. -1.
</event>
<event>
 5   0  0.3651984E-02  0.5974091E+03  0.7818609E-02  0.9910796E-01
        1   -1    0    0  501    0  0.00000000000E+00  0.00000000000E+00  0.61327162360E+03  0.61327162362E+03  0.50400001928E-02 0. -1.
       -1   -1    0    0    0  501  0.00000000000E+00  0.00000000000E+00 -0.14548920249E+03  0.14548920257E+03  0.50400001928E-02 0.  1.
    10030    2    1    2    0    0  0.00000000000E+00  0.00000000000E+00  0.46778242111E+03  0.75876082619E+03  0.59740907079E+03 0.  0.
        1    1    3    3  502    0 -0.45966282974E+02 -0.11599518711E+03 -0.11080695479E+03  0.16687109953E+03  0.50400001928E-02 0.  1.
       -1    1    3    3    0  502  0.45966282974E+02  0.11599518711E+03  0.57858937590E+03  0.59188972666E+03  0.50400001928E-02 0. -1.
</event>
<event>
 5   0  0.3640827E-02  0.5905008E+03  0.7818609E-02  0.9925312E-01
        1   -1    0    0  501    0  0.00000000000E+00  0.00000000000E+00  0.33984686858E+03  0.33984686862E+03  0.50400001928E-02 0.  1.
       -1   -1    0    0    0  501  0.00000000000E+00  0.00000000000E+00 -0.25650612023E+03  0.25650612028E+03  0.50400001928E-02 0. -1.
    10030    2    1    2    0    0  0.00000000000E+00  0.00000000000E+00  0.83340748350E+02  0.59635298891E+03  0.59050081036E+03 0.  0.
        3    1    3    3  502    0  0.12125708984E+03 -0.11361201337E+02  0.31329769735E+03  0.33613660333E+03  0.10100000352E+00 0.  1.
       -3    1    3    3    0  502 -0.12125708984E+03  0.11361201337E+02 -0.22995694900E+03  0.26021638558E+03  0.10100000352E+00 0. -1.
</event>
<event>
 5   0  0.6007360E-02  0.5917523E+03  0.7818609E-02  0.9922667E-01
       -2   -1    0    0    0  501  0.00000000000E+00  0.00000000000E+00  0.14711574621E+03  0.14711574624E+03  0.25500000920E-02 0. -1.
        2   -1    0    0  501    0  0.00000000000E+00  0.00000000000E+00 -0.59506006733E+03  0.59506006733E+03  0.25500000920E-02 0.  1.
    10030    2    1    2    0    0  0.00000000000E+00  0.00000000000E+00 -0.44794432112E+03  0.74217581357E+03  0.59175233285E+03 0.  0.
        4    1    3    3  502    0 -0.22516597116E+03 -0.80335183063E+02 -0.53393782422E+01  0.23913088062E+03  0.12699999809E+01 0. -1.
       -4    1    3    3    0  502  0.22516597116E+03  0.80335183063E+02 -0.44260494287E+03  0.50304493295E+03  0.12699999809E+01 0.  1.
</event>
<event>
 5   0  0.5999117E-02  0.5984897E+03  0.7818609E-02  0.9908544E-01
       -2   -1    0    0    0  501  0.00000000000E+00  0.00000000000E+00  0.17586537281E+03  0.17586537283E+03  0.25500000920E-02 0. -1.
        2   -1    0    0  501    0  0.00000000000E+00  0.00000000000E+00 -0.50918201067E+03  0.50918201067E+03  0.25500000920E-02 0.  1.
    10030    2    1    2    0    0  0.00000000000E+00  0.00000000000E+00 -0.33331663785E+03  0.68504738350E+03  0.59848971301E+03 0.  0.
        5    1    3    3  502    0  0.58572797533E+02 -0.19621602972E+03 -0.41637038542E+03  0.46402358860E+03  0.46999998093E+01 0.  1.
       -5    1    3    3    0  502 -0.58572797533E+02  0.19621602972E+03  0.83053747565E+02  0.22102379490E+03  0.46999998093E+01 0. -1.
</event>
<event>
 5   0  0.2388000E-02  0.6059160E+03  0.7818609E-02  0.9893208E-01
        3   -1    0    0  501    0  0.00000000000E+00  0.00000000000E+00  0.65065846588E+03  0.65065847372E+03  0.10100000352E+00 0.  1.
       -3   -1    0    0    0  501  0.00000000000E+00  0.00000000000E+00 -0.14106255094E+03  0.14106258710E+03  0.10100000352E+00 0. -1.
    10030    2    1    2    0    0  0.00000000000E+00  0.00000000000E+00  0.50959591494E+03  0.79172106081E+03  0.60591603512E+03 0.  0.
        2    1    3    3  502    0  0.21404245671E+03  0.21440078623E+03  0.25649659750E+03  0.39695387004E+03  0.25500000920E-02 0.  1.
       -2    1    3    3    0  502 -0.21404245671E+03 -0.21440078623E+03  0.25309931744E+03  0.39476719077E+03  0.25500000920E-02 0. -1.
</event>
<event>
 5   0  0.5872632E-02  0.5900661E+03  0.7818609E-02  0.9926233E-01
       -2   -1    0    0    0  501  0.00000000000E+00  0.00000000000E+00  0.10914060566E+03  0.10914060569E+03  0.25500000920E-02 0.  1.
        2   -1    0    0  501    0  0.00000000000E+00  0.00000000000E+00 -0.79754462133E+03  0.79754462134E+03  0.25500000920E-02 0. -1.
    10030    2    1    2    0    0  0.00000000000E+00  0.00000000000E+00 -0.68840401567E+03  0.90668522702E+03  0.59006610825E+03 0.  0.
        1    1    3    3  502    0 -0.79900771558E+01 -0.59067105008E+02  0.99792524341E+02  0.11623817001E+03  0.50400001928E-02 0.  1.
       -1    1    3    3    0  502  0.79900771558E+01  0.59067105008E+02 -0.78819654002E+03  0.79044705702E+03  0.50400001928E-02 0. -1.
</event>
<event>
 5   0  0.5999117E-02  0.6079603E+03  0.7818609E-02  0.9889027E-01
       -2   -1    0    0    0  501  0.00000000000E+00  0.00000000000E+00  0.76814187563E+02  0.76814187605E+02  0.25500000920E-02 0. -1.
        2   -1    0    0  501    0  0.00000000000E+00  0.00000000000E+00 -0.12029538694E+04  0.12029538694E+04  0.25500000920E-02 0.  1.
    10030    2    1    2    0    0  0.00000000000E+00  0.00000000000E+00 -0.11261396818E+04  0.12797680570E+04  0.60796027561E+03 0.  0.
        5    1    3    3  502    0 -0.21135545765E+03 -0.12826544599E+02 -0.10406855925E+03  0.23598306030E+03  0.46999998093E+01 0. -1.
       -5    1    3    3    0  502  0.21135545765E+03  0.12826544599E+02 -0.10220711225E+04  0.10437849967E+04  0.46999998093E+01 0.  1.
</event>
<event>
 5   0  0.6007360E-02  0.6004123E+03  0.7818609E-02  0.9904551E-01
       -2   -1    0    0    0  501  0.00000000000E+00  0.00000000000E+00  0.19140067338E+03  0.19140067339E+03  0.25500000920E-02 0. -1.
        2   -1    0    0  501    0  0.00000000000E+00  0.00000000000E+00 -0.47086416656E+03  0.47086416657E+03  0.25500000920E-02 0.  1.
    10030    2    1    2    0    0  0.00000000000E+00  0.00000000000E+00 -0.27946349319E+03  0.66226483996E+03  0.60041225356E+03 0.  0.
        4    1    3    3  502    0  0.23284064161E+03 -0.78576785695E+02 -0.32992790308E+03  0.41139167440E+03  0.12699999809E+01 0.  1.
       -4    1    3    3    0  502 -0.23284064161E+03  0.78576785695E+02  0.50464409895E+02  0.25087316556E+03  0.12699999809E+01 0. -1.
</event>
<event>
 5   0  0.3640827E-02  0.6187029E+03  0.7818609E-02  0.9867346E-01
        1   -1    0    0  501    0  0.00000000000E+00  0.00000000000E+00  0.35273439842E+03  0.35273439846E+03  0.50400001928E-02 0. -1.
       -1   -1    0    0    0  501  0.00000000000E+00  0.00000000000E+00 -0.27130417079E+03  0.27130417084E+03  0.50400001928E-02 0.  1.
    10030    2    1    2    0    0  0.00000000000E+00  0.00000000000E+00  0.81430227627E+02  0.62403856929E+03  0.61870288022E+03 0.  0.
        3    1    3    3  502    0 -0.21991600868E+03 -0.19387320928E+03 -0.58870512493E+02  0.29902444648E+03  0.10100000352E+00 0.  1.
       -3    1    3    3    0  502  0.21991600868E+03  0.19387320928E+03  0.14030074012E+03  0.32501412282E+03  0.10100000352E+00 0. -1.
</event>
<event>
 5   0  0.3640827E-02  0.6054080E+03  0.7818609E-02  0.9894249E-01
        1   -1    0    0  501    0  0.00000000000E+00  0.00000000000E+00  0.45293079572E+03  0.45293079575E+03  0.50400001928E-02 0. -1.
       -1   -1    0    0    0  501  0.00000000000E+00  0.00000000000E+00 -0.20230397146E+03  0.20230397152E+03  0.50400001928E-02 0.  1.
    10030    2    1    2    0    0  0.00000000000E+00  0.00000000000E+00  0.25062682426E+03  0.65523476728E+03  0.60540795767E+03 0.  0.
        3    1    3    3  502    0  0.11078203800E+03 -0.16362456321E+03 -0.12287171132E+03  0.23268675354E+03  0.10100000352E+00 0.  1.
       -3    1    3    3    0  502 -0.11078203800E+03  0.16362456321E+03  0.37349853558E+03  0.42254801374E+03  0.10100000352E+00 0. -1.
</event>
<event>
 5   0  0.5935451E-02  0.6012015E+03  0.7818609E-02  0.9902916E-01
       -2   -1    0    0    0  501  0.00000000000E+00  0.00000000000E+00  0.66492451328E+02  0.66492451377E+02  0.25500000920E-02 0. -1.
        2   -1    0    0  501    0  0.00000000000E+00  0.00000000000E+00 -0.13589634870E+04  0.13589634870E+04  0.25500000920E-02 0.  1.
    10030    2    1    2    0    0  0.00000000000E+00  0.00000000000E+00 -0.12924710357E+04  0.14254559384E+04  0.60120150883E+03 0.  0.
        3    1    3    3  502    0 -0.18350352768E+03 -0.44281153700E+02 -0.12009025165E+04  0.12156484811E+04  0.10100000352E+00 0.  1.
       -3    1    3    3    0  502  0.18350352768E+03  0.44281153700E+02 -0.91568519238E+02  0.20980745735E+03  0.10100000352E+00 0. -1.
</event>
<event>
 5   0  0.6007360E-02  0.5963993E+03  0.7818609E-02  0.9912905E-01
       -2   -1    0    0    0  501  0.00000000000E+00  0.00000000000E+00  0.35483070878E+03  0.35483070879E+03  0.25500000920E-02 0. -1.
        2   -1    0    0  501    0  0.00000000000E+00  0.00000000000E+00 -0.25060688842E+03  0.25060688844E+03  0.25500000920E-02 0.  1.
    10030    2    1    2    0    0  0.00000000000E+00  0.00000000000E+00  0.10422382035E+03  0.60543759722E+03  0.59639926174E+03 0.  0.
        4    1    3    3  502    0  0.16986969939E+03  0.84474813150E+02 -0.18143923342E+03  0.26251384182E+03  0.12699999809E+01 0.  1.
       -4    1    3    3    0  502 -0.16986969939E+03 -0.84474813150E+02  0.28566305377E+03  0.34292375540E+03  0.12699999809E+01 0. -1.
</event>
<event>
 5   0  0.3767635E-02  0.6014178E+03  0.7818609E-02  0.9902469E-01
        1   -1    0    0  501    0  0.00000000000E+00  0.00000000000E+00  0.11233250748E+04  0.11233250748E+04  0.50400001928E-02 0.  1.
       -1   -1    0    0    0  501  0.00000000000E+00  0.00000000000E+00 -0.80498381194E+02  0.80498381352E+02  0.50400001928E-02 0. -1.
    10030    2    1    2    0    0  0.00000000000E+00  0.00000000000E+00  0.10428266936E+04  0.12038234562E+04  0.60141782540E+03 0.  0.
        2    1    3    3  502    0 -0.10398769840E+03  0.57506839957E+02 -0.31508897912E+02  0.12293611640E+03  0.25500000920E-02 0. -1.
       -2    1    3    3    0  502  0.10398769840E+03 -0.57506839957E+02  0.10743355915E+04  0.10808873398E+04  0.25500000920E-02 0.  1.
</event>
<event>
 5   0  0.3651984E-02  0.5988071E+03  0.7818609E-02  0.9907884E-01
        1   -1    0    0  501    0  0.00000000000E+00  0.00000000000E+00  0.23229968411E+03  0.23229968416E+03  0.50400001928E-02 0. -1.
       -1   -1    0    0    0  501  0.00000000000E+00  0.00000000000E+00 -0.38589151171E+03  0.38589151174E+03  0.50400001928E-02 0.  1.
    10030    2    1    2    0    0  0.00000000000E+00  0.00000000000E+00 -0.15359182760E+03  0.61819119590E+03  0.59880706841E+03 0.  0.
        1    1    3    3  502    0 -0.26190236886E+03 -0.14472511811E+03 -0.87337513251E+02  0.31171469627E+03  0.50400001928E-02 0. -1.
       -1    1    3    3    0  502  0.26190236886E+03  0.14472511811E+03 -0.66254314351E+02  0.30647649963E+03  0.50400001928E-02 0.  1.
</event>
<event>
 5   0  0.3767635E-02  0.6054634E+03  0.7818609E-02  0.9894136E-01
        1   -1    0    0  501    0  0.00000000000E+00  0.00000000000E+00  0.17601738751E+04  0.17601738751E+04  0.50400001928E-02 0.  1.
       -1   -1    0    0    0  501  0.00000000000E+00  0.00000000000E+00 -0.52066717414E+02  0.52066717658E+02  0.50400001928E-02 0. -1.
    10030    2    1    2    0    0  0.00000000000E+00  0.00000000000E+00  0.17081071577E+04  0.18122405928E+04  0.60546337951E+03 0.  0.
        2    1    3    3  502    0 -0.81019661835E+02  0.28146874833E+03  0.62497256697E+03  0.69020254372E+03  0.25500000920E-02 0. -1.
       -2    1    3    3    0  502  0.81019661835E+02 -0.28146874833E+03  0.10831345907E+04  0.11220380491E+04  0.25500000920E-02 0.  1.
</event>
<event>
 5   0  0.2388000E-02  0.5992269E+03  0.7818609E-02  0.9907011E-01
       -3   -1    0    0    0  501  0.00000000000E+00  0.00000000000E+00  0.31258033822E+03  0.31258035454E+03  0.10100000352E+00 0.  1.
        3   -1    0    0  501    0  0.00000000000E+00  0.00000000000E+00 -0.28718447733E+03  0.28718449509E+03  0.10100000352E+00 0. -1.
    10030    2    1    2    0    0  0.00000000000E+00  0.00000000000E+00  0.25395860893E+02  0.59976484962E+03  0.59922693956E+03 0.  0.
        2    1    3    3  502    0 -0.26259419379E+03 -0.14110545959E+03  0.42754371472E+02  0.30115510559E+03  0.25500000920E-02 0. -1.
       -2    1    3    3    0  502  0.26259419379E+03  0.14110545959E+03 -0.17358510579E+02  0.29860974403E+03  0.25500000920E-02 0.  1.
</event>
<event>
 5   0  0.6007360E-02  0.5968699E+03  0.7818609E-02  0.9911921E-01
        2   -1    0    0  501    0  0.00000000000E+00  0.00000000000E+00  0.84749897207E+03  0.84749897207E+03  0.25500000920E-02 0.  1.
       -2   -1    0    0    0  501  0.00000000000E+00  0.00000000000E+00 -0.10508971414E+03  0.10508971417E+03  0.25500000920E-02 0. -1.
    10030    2    1    2    0    0  0.00000000000E+00  0.00000000000E+00  0.74240925793E+03  0.95258868624E+03  0.59686991790E+03 0.  0.
        4    1    3    3  502    0  0.30008819116E+02 -0.23406100063E+03  0.66277784333E+03  0.70353476371E+03  0.12699999809E+01 0.  1.
       -4    1    3    3    0  502 -0.30008819116E+02  0.23406100063E+03  0.79631414603E+02  0.24905392254E+03  0.12699999809E+01 0. -1.
</event>
<event>
 5   0  0.6007360E-02  0.6056360E+03  0.7818609E-02  0.9893782E-01
       -2   -1    0    0    0  501  0.00000000000E+00  0.00000000000E+00  0.62991482847E+02  0.62991482899E+02  0.25500000920E-02 0. -1.
        2   -1    0    0  501    0  0.00000000000E+00  0.00000000000E+00 -0.14557323695E+04  0.14557323695E+04  0.25500000920E-02 0.  1.
    10030    2    1    2    0    0  0.00000000000E+00  0.00000000000E+00 -0.13927408866E+04  0.15187238524E+04  0.60563599835E+03 0.  0.
        4    1    3    3  502    0  0.23992137590E+03  0.40915451094E+02 -0.11481708889E+04  0.11736840902E+04  0.12699999809E+01 0.  1.
       -4    1    3    3    0  502 -0.23992137590E+03 -0.40915451094E+02 -0.24456999778E+03  0.34503976215E+03  0.12699999809E+01 0. -1.
</event>
<event>
 5   0  0.5999117E-02  0.6049090E+03  0.7818609E-02  0.9895274E-01
       -2   -1    0    0    0  501  0.00000000000E+00  0.00000000000E+00  0.58077255781E+02  0.58077255837E+02  0.25500000920E-02 0. -1.
        2   -1    0    0  501    0  0.00000000000E+00  0.00000000000E+00 -0.15751211830E+04  0.15751211830E+04  0.25500000920E-02 0.  1.
    10030    2    1    2    0    0  0.00000000000E+00  0.00000000000E+00 -0.15170439272E+04  0.16331984388E+04  0.60490897126E+03 0.  0.
        5    1    3    3  502    0  0.10351609469E+03  0.37995553779E+02 -0.15188103474E+04  0.15228152236E+04  0.46999998093E+01 0.  1.
       -5    1    3    3    0  502 -0.10351609469E+03 -0.37995553779E+02  0.17664201467E+01  0.11038321524E+03  0.46999998093E+01 0. -1.
</event>
<event>
 5   0  0.2388000E-02  0.5936084E+03  0.7818609E-02  0.9918756E-01
        3   -1    0    0  501    0  0.00000000000E+00  0.00000000000E+00  0.49223203766E+03  0.49223204802E+03  0.10100000352E+00 0.  1.
       -3   -1    0    0    0  501  0.00000000000E+00  0.00000000000E+00 -0.17896581379E+03  0.17896584229E+03  0.10100000352E+00 0. -1.
    10030    2    1    2    0    0  0.00000000000E+00  0.00000000000E+00  0.31326622387E+03  0.67119789031E+03  0.59360835652E+03 0.  0.
        1    1    3    3  502    0  0.24747163750E+02  0.27596175726E+02  0.48960462467E+03  0.49100576326E+03  0.50400001928E-02 0.  1.
       -1    1    3    3    0  502 -0.24747163750E+02 -0.27596175726E+02 -0.17633840080E+03  0.18019212705E+03  0.50400001928E-02 0. -1.
</event>
<event>
 5   0  0.3640827E-02  0.5996133E+03  0.7818609E-02  0.9906209E-01
        1   -1    0    0  501    0  0.00000000000E+00  0.00000000000E+00  0.32586635796E+03  0.32586635799E+03  0.50400001928E-02 0. -1.
       -1   -1    0    0    0  501  0.00000000000E+00  0.00000000000E+00 -0.27583093378E+03  0.27583093383E+03  0.50400001928E-02 0.  1.
    10030    2    1    2    0    0  0.00000000000E+00  0.00000000000E+00  0.50035424172E+02  0.60169729182E+03  0.59961328147E+03 0.  0.
        3    1    3    3  502    0 -0.44948774751E+02  0.27684011114E+02  0.32116580926E+03  0.32547547382E+03  0.10100000352E+00 0. -1.
       -3    1    3    3    0  502  0.44948774751E+02 -0.27684011114E+02 -0.27113038509E+03  0.27622181800E+03  0.10100000352E+00 0.  1.
</event>
<event>
 5   0  0.3767635E-02  0.5796972E+03  0.7818609E-02  0.9948447E-01
        1   -1    0    0  501    0  0.00000000000E+00  0.00000000000E+00  0.56441780664E+03  0.56441780666E+03  0.50400001928E-02 0.  1.
       -1   -1    0    0    0  501  0.00000000000E+00  0.00000000000E+00 -0.14884756363E+03  0.14884756372E+03  0.50400001928E-02 0. -1.
    10030    2    1    2    0    0  0.00000000000E+00  0.00000000000E+00  0.41557024301E+03  0.71326537038E+03  0.57969721554E+03 0.  0.
        2    1    3    3  502    0 -0.39628151380E+02 -0.24155435332E+03  0.16800567811E+02  0.24535923679E+03  0.25500000920E-02 0. -1.
       -2    1    3    3    0  502  0.39628151380E+02  0.24155435332E+03  0.39876967520E+03  0.46790613359E+03  0.25500000920E-02 0.  1.
</event>
<event>
 5   0  0.5872632E-02  0.6230287E+03  0.7818609E-02  0.9858748E-01
       -2   -1    0    0    0  501  0.00000000000E+00  0.00000000000E+00  0.66004324812E+03  0.66004324813E+03  0.25500000920E-02 0. -1.
        2   -1    0    0  501    0  0.00000000000E+00  0.00000000000E+00 -0.14702248945E+03  0.14702248947E+03  0.25500000920E-02 0.  1.
    10030    2    1    2    0    0  0.00000000000E+00  0.00000000000E+00  0.51302075867E+03  0.80706573760E+03  0.62302873608E+03 0.  0.
        1    1    3    3  502    0  0.77044392943E+01 -0.19644163503E+03  0.56953569915E+03  0.60251106794E+03  0.50400001928E-02 0. -1.
       -1    1    3    3    0  502 -0.77044392943E+01  0.19644163503E+03 -0.56514940477E+02  0.20455466966E+03  0.50400001928E-02 0.  1.
</event>
<event>
 5   0  0.3767635E-02  0.6073197E+03  0.7818609E-02  0.9890335E-01
        1   -1    0    0  501    0  0.00000000000E+00  0.00000000000E+00  0.26240484686E+03  0.26240484691E+03  0.50400001928E-02 0. -1.
       -1   -1    0    0    0  501  0.00000000000E+00  0.00000000000E+00 -0.35140089885E+03  0.35140089889E+03  0.50400001928E-02 0.  1.
    10030    2    1    2    0    0  0.00000000000E+00  0.00000000000E+00 -0.88996051993E+02  0.61380574580E+03  0.60731968213E+03 0.  0.
        2    1    3    3  502    0 -0.20612487782E+03  0.11088736914E+03 -0.24002167141E+03  0.33525195994E+03  0.25500000920E-02 0.  1.
       -2    1    3    3    0  502  0.20612487782E+03 -0.11088736914E+03  0.15102561941E+03  0.27855378586E+03  0.25500000920E-02 0. -1.
</event>
<event>
 5   0  0.6007360E-02  0.5966029E+03  0.7818609E-02  0.9912479E-01
       -2   -1    0    0    0  501  0.00000000000E+00  0.00000000000E+00  0.12562879029E+03  0.12562879032E+03  0.25500000920E-02 0. -1.
        2   -1    0    0  501    0  0.00000000000E+00  0.00000000000E+00 -0.70830702023E+03  0.70830702023E+03  0.25500000920E-02 0.  1.
    10030    2    1    2    0    0  0.00000000000E+00  0.00000000000E+00 -0.58267822993E+03  0.83393581055E+03  0.59660289681E+03 0.  0.
        4    1    3    3  502    0 -0.15351536019E+03  0.20724943217E+03 -0.50083701673E+03  0.56334591786E+03  0.12699999809E+01 0.  1.
       -4    1    3    3    0  502  0.15351536019E+03 -0.20724943217E+03 -0.81841213206E+02  0.27058989269E+03  0.12699999809E+01 0. -1.
</event>
<event>
 5   0  0.3703280E-02  0.6038533E+03  0.7818609E-02  0.9897444E-01
        1   -1    0    0  501    0  0.00000000000E+00  0.00000000000E+00  0.22552561505E+03  0.22552561510E+03  0.50400001928E-02 0.  1.
       -1   -1    0    0    0  501  0.00000000000E+00  0.00000000000E+00 -0.40420991631E+03  0.40420991634E+03  0.50400001928E-02 0. -1.
    10030    2    1    2    0    0  0.00000000000E+00  0.00000000000E+00 -0.17868430126E+03  0.62973553144E+03  0.60385326036E+03 0.  0.
        5    1    3    3  502    0  0.13805688136E+02 -0.10043946506E+03  0.20720294253E+03  0.23072458161E+03  0.46999998093E+01 0.  1.
       -5    1    3    3    0  502 -0.13805688136E+02  0.10043946506E+03 -0.38588724379E+03  0.39901094984E+03  0.46999998093E+01 0. -1.
</event>
<event>
 5   0  0.5755078E-02  0.6059715E+03  0.7818609E-02  0.9893094E-01
        2   -1    0    0  501    0  0.00000000000E+00  0.00000000000E+00  0.94972951857E+03  0.94972951858E+03  0.25500000920E-02 0. -1.
       -2   -1    0    0    0  501  0.00000000000E+00  0.00000000000E+00 -0.96659493000E+02  0.96659493033E+02  0.25500000920E-02 0.  1.
    10030    2    1    2    0    0  0.00000000000E+00  0.00000000000E+00  0.85307002557E+03  0.10463890116E+04  0.60597152993E+03 0.  0.
        2    1    3    3  502    0 -0.15195311772E+03  0.34424629993E+02  0.87525464909E+03  0.88901378274E+03  0.25500000920E-02 0. -1.
       -2    1    3    3    0  502  0.15195311772E+03 -0.34424629993E+02 -0.22184623516E+02  0.15737522887E+03  0.25500000920E-02 0.  1.
</event>
<event>
 5   0  0.3478183E-02  0.5996722E+03  0.7818609E-02  0.9906086E-01
        1   -1    0    0  501    0  0.00000000000E+00  0.00000000000E+00  0.49516298455E+03  0.49516298457E+03  0.50400001928E-02 0. -1.
       -1   -1    0    0    0  501  0.00000000000E+00  0.00000000000E+00 -0.18155978956E+03  0.18155978963E+03  0.50400001928E-02 0.  1.
    10030    2    1    2    0    0  0.00000000000E+00  0.00000000000E+00  0.31360319499E+03  0.67672277420E+03  0.59967220147E+03 0.  0.
        4    1    3    3  502    0  0.65220558223E+02 -0.15706529874E+03 -0.12186142966E+03  0.20922487955E+03  0.12699999809E+01 0.  1.
       -4    1    3    3    0  502 -0.65220558223E+02  0.15706529874E+03  0.43546462465E+03  0.46749789465E+03  0.12699999809E+01 0. -1.
</event>
<event>
 5   0  0.6007360E-02  0.5914216E+03  0.7818609E-02  0.9923365E-01
        2   -1    0    0  501    0  0.00000000000E+00  0.00000000000E+00  0.20668235122E+04  0.20668235122E+04  0.25500000920E-02 0. -1.
       -2   -1    0    0    0  501  0.00000000000E+00  0.00000000000E+00 -0.42308831822E+02  0.42308831899E+02  0.25500000920E-02 0.  1.
    10030    2    1    2    0    0  0.00000000000E+00  0.00000000000E+00  0.20245146804E+04  0.21091323441E+04  0.59142163798E+03 0.  0.
        4    1    3    3  502    0  0.18516939309E+03 -0.71222806181E+02  0.17942485536E+04  0.18051841671E+04  0.12699999809E+01 0. -1.
       -4    1    3    3    0  502 -0.18516939309E+03  0.71222806181E+02  0.23026612686E+03  0.30394817706E+03  0.12699999809E+01 0.  1.
</event>
<event>
 5   0  0.3640827E-02  0.6004026E+03  0.7818609E-02  0.9904571E-01
        1   -1    0    0  501    0  0.00000000000E+00  0.00000000000E+00  0.78769902982E+03  0.78769902983E+03  0.50400001928E-02 0. -1.
       -1   -1    0    0    0  501  0.00000000000E+00  0.00000000000E+00 -0.11441021743E+03  0.11441021754E+03  0.50400001928E-02 0.  1.
    10030    2    1    2    0    0  0.00000000000E+00  0.00000000000E+00  0.67328881239E+03  0.90210924737E+03  0.60040258936E+03 0.  0.
        3    1    3    3  502    0  0.19211861222E+02  0.29416575442E+03  0.42188068332E+03  0.51467067902E+03  0.10100000352E+00 0.  1.
       -3    1    3    3    0  502 -0.19211861222E+02 -0.29416575442E+03  0.25140812907E+03  0.38743856836E+03  0.10100000352E+00 0. -1.
</event>
<event>
 5   0  0.5999117E-02  0.5970797E+03  0.7818609E-02  0.9911483E-01
       -2   -1    0    0    0  501  0.00000000000E+00  0.00000000000E+00  0.97955776912E+02  0.97955776945E+02  0.25500000920E-02 0. -1.
        2   -1    0    0  501    0  0.00000000000E+00  0.00000000000E+00 -0.90986001966E+03  0.90986001967E+03  0.25500000920E-02 0.  1.
    10030    2    1    2    0    0  0.00000000000E+00  0.00000000000E+00 -0.81190424275E+03  0.10078157966E+04  0.59707971034E+03 0.  0.
        5    1    3    3  502    0 -0.44933493548E+02  0.10075471477E+03  0.62220893661E+02  0.12674407677E+03  0.46999998093E+01 0. -1.
       -5    1    3    3    0  502  0.44933493548E+02 -0.10075471477E+03 -0.87412513641E+03  0.88107171984E+03  0.46999998093E+01 0.  1.
</event>
<event>
 5   0  0.5999117E-02  0.6041063E+03  0.7818609E-02  0.9896923E-01
       -2   -1    0    0    0  501  0.00000000000E+00  0.00000000000E+00  0.65513406879E+03  0.65513406880E+03  0.25500000920E-02 0.  1.
        2   -1    0    0  501    0  0.00000000000E+00  0.00000000000E+00 -0.13926326861E+03  0.13926326863E+03  0.25500000920E-02 0. -1.
    10030    2    1    2    0    0  0.00000000000E+00  0.00000000000E+00  0.51587080018E+03  0.79439733743E+03  0.60410632113E+03 0.  0.
        5    1    3    3  502    0  0.24462498007E+02  0.29486088535E+03  0.33762747494E+03  0.44894961561E+03  0.46999998093E+01 0. -1.
       -5    1    3    3    0  502 -0.24462498007E+02 -0.29486088535E+03  0.17824332524E+03  0.34544772182E+03  0.46999998093E+01 0.  1.
</event>
<event>
 5   0  0.5872632E-02  0.6130882E+03  0.7818609E-02  0.9878618E-01
        2   -1    0    0  501    0  0.00000000000E+00  0.00000000000E+00  0.55291010499E+03  0.55291010500E+03  0.25500000920E-02 0.  1.
       -2   -1    0    0    0  501  0.00000000000E+00  0.00000000000E+00 -0.16995398209E+03  0.16995398211E+03  0.25500000920E-02 0. -1.
    10030    2    1    2    0    0  0.00000000000E+00  0.00000000000E+00  0.38295612289E+03  0.72286408711E+03  0.61308816362E+03 0.  0.
        1    1    3    3  502    0 -0.18960236341E+03 -0.14236296003E+03 -0.37613705962E+02  0.24006469857E+03  0.50400001928E-02 0. -1.
       -1    1    3    3    0  502  0.18960236341E+03  0.14236296003E+03  0.42056982886E+03  0.48279938854E+03  0.50400001928E-02 0.  1.
</event>
<event>
 5   0  0.3767635E-02  0.6005823E+03  0.7818609E-02  0.9904199E-01
        1   -1    0    0  501    0  0.00000000000E+00  0.00000000000E+00  0.21303723679E+03  0.21303723685E+03  0.50400001928E-02 0. -1.
       -1   -1    0    0    0  501  0.00000000000E+00  0.00000000000E+00 -0.42328170173E+03  0.42328170176E+03  0.50400001928E-02 0.  1.
    10030    2    1    2    0    0  0.00000000000E+00  0.00000000000E+00 -0.21024446494E+03  0.63631893861E+03  0.60058226463E+03 0.  0.
        2    1    3    3  502    0 -0.50891129911E+02  0.93293220631E+02  0.19244779740E+03  0.21984013930E+03  0.25500000920E-02 0. -1.
       -2    1    3    3    0  502  0.50891129911E+02 -0.93293220631E+02 -0.40269226234E+03  0.41647879931E+03  0.25500000920E-02 0.  1.
</event>
<event>
 5   0  0.3640827E-02  0.6058441E+03  0.7818609E-02  0.9893355E-01
       -1   -1    0    0    0  501  0.00000000000E+00  0.00000000000E+00  0.62771397473E+03  0.62771397475E+03  0.50400001928E-02 0.  1.
        1   -1    0    0  501    0  0.00000000000E+00  0.00000000000E+00 -0.14618404038E+03  0.14618404046E+03  0.50400001928E-02 0. -1.
    10030    2    1    2    0    0  0.00000000000E+00  0.00000000000E+00  0.48152993435E+03  0.77389801521E+03  0.60584408908E+03 0.  0.
        3    1    3    3  502    0  0.26683368281E+03 -0.11082978537E+03  0.35698832505E+03  0.45926477117E+03  0.10100000352E+00 0. -1.
       -3    1    3    3    0  502 -0.26683368281E+03  0.11082978537E+03  0.12454160930E+03  0.31463324404E+03  0.10100000352E+00 0.  1.
</event>
<event>
 5   0  0.3651984E-02  0.6202356E+03  0.7818609E-02  0.9864291E-01
       -1   -1    0    0    0  501  0.00000000000E+00  0.00000000000E+00  0.74998955226E+02  0.74998955395E+02  0.50400001928E-02 0.  1.
        1   -1    0    0  501    0  0.00000000000E+00  0.00000000000E+00 -0.12823252837E+04  0.12823252838E+04  0.50400001928E-02 0. -1.
    10030    2    1    2    0    0  0.00000000000E+00  0.00000000000E+00 -0.12073263285E+04  0.13573242391E+04  0.62023562188E+03 0.  0.
        1    1    3    3  502    0 -0.17499825594E+03 -0.45008355557E+02 -0.11552223337E+04  0.11692684816E+04  0.50400001928E-02 0. -1.
       -1    1    3    3    0  502  0.17499825594E+03  0.45008355557E+02 -0.52103994775E+02  0.18805575755E+03  0.50400001928E-02 0.  1.
</event>
<event>
 5   0  0.6007360E-02  0.5891631E+03  0.7818609E-02  0.9928148E-01
        2   -1    0    0  501    0  0.00000000000E+00  0.00000000000E+00  0.59814142493E+03  0.59814142494E+03  0.25500000920E-02 0.  1.
       -2   -1    0    0    0  501  0.00000000000E+00  0.00000000000E+00 -0.14507990413E+03  0.14507990415E+03  0.25500000920E-02 0. -1.
    10030    2    1    2    0    0  0.00000000000E+00  0.00000000000E+00  0.45306152080E+03  0.74322132909E+03  0.58916313732E+03 0.  0.
        4    1    3    3  502    0  0.89975641021E+02 -0.27878475510E+03  0.18744234361E+03  0.34778269182E+03  0.12699999809E+01 0. -1.
       -4    1    3    3    0  502 -0.89975641021E+02  0.27878475510E+03  0.26561917719E+03  0.39543863726E+03  0.12699999809E+01 0.  1.
</event>
<event>
 5   0  0.3703280E-02  0.6075534E+03  0.7818609E-02  0.9889858E-01
       -1   -1    0    0    0  501  0.00000000000E+00  0.00000000000E+00  0.33015884602E+03  0.33015884606E+03  0.50400001928E-02 0. -1.
        1   -1    0    0  501    0  0.00000000000E+00  0.00000000000E+00 -0.27950264093E+03  0.27950264098E+03  0.50400001928E-02 0.  1.
    10030    2    1    2    0    0  0.00000000000E+00  0.00000000000E+00  0.50656205087E+02  0.60966148703E+03  0.60755335375E+03 0.  0.
        5    1    3    3  502    0 -0.16240643832E+03 -0.11227757910E+03 -0.20628890321E+03  0.28558590225E+03  0.46999998093E+01 0.  1.
       -5    1    3    3    0  502  0.16240643832E+03  0.11227757910E+03  0.25694510830E+03  0.32407558478E+03  0.46999998093E+01 0. -1.
</event>
<event>
 5   0  0.3478183E-02  0.5998044E+03  0.7818609E-02  0.9905812E-01
        1   -1    0    0  501    0  0.00000000000E+00  0.00000000000E+00  0.35146851107E+03  0.35146851110E+03  0.50400001928E-02 0.  1.
       -1   -1    0    0    0  501  0.00000000000E+00  0.00000000000E+00 -0.25590153171E+03  0.25590153176E+03  0.50400001928E-02 0. -1.
    10030    2    1    2    0    0  0.00000000000E+00  0.00000000000E+00  0.95566979361E+02  0.60737004286E+03  0.59980440263E+03 0.  0.
        4    1    3    3  502    0  0.15819138099E+03  0.25021565340E+03  0.96424063550E+02  0.31133839975E+03  0.12699999809E+01 0. -1.
       -4    1    3    3    0  502 -0.15819138099E+03 -0.25021565340E+03 -0.85708418904E+00  0.29603164311E+03  0.12699999809E+01 0.  1.
</event>
<event>
 5   0  0.3767635E-02  0.5891270E+03  0.7818609E-02  0.9928224E-01
       -1   -1    0    0    0  501  0.00000000000E+00  0.00000000000E+00  0.38951229496E+03  0.38951229499E+03  0.50400001928E-02 0. -1.
        1   -1    0    0  501    0  0.00000000000E+00  0.00000000000E+00 -0.22275970373E+03  0.22275970379E+03  0.50400001928E-02 0.  1.
    10030    2    1    2    0    0  0.00000000000E+00  0.00000000000E+00  0.16675259123E+03  0.61227199878E+03  0.58912695899E+03 0.  0.
        2    1    3    3  502    0  0.14642928906E+03  0.24778052189E+03  0.14853652263E+03  0.32388242046E+03  0.25500000920E-02 0. -1.
       -2    1    3    3    0  502 -0.14642928906E+03 -0.24778052189E+03  0.18216068598E+02  0.28838957832E+03  0.25500000920E-02 0.  1.
</event>
<event>
 5   0  0.5935451E-02  0.6034077E+03  0.7818609E-02  0.9898361E-01
       -2   -1    0    0    0  501  0.00000000000E+00  0.00000000000E+00  0.23746498075E+03  0.23746498076E+03  0.25500000920E-02 0. -1.
        2   -1    0    0  501    0  0.00000000000E+00  0.00000000000E+00 -0.38332057318E+03  0.38332057319E+03  0.25500000920E-02 0.  1.
    10030    2    1    2    0    0  0.00000000000E+00  0.00000000000E+00 -0.14585559243E+03  0.62078555395E+03  0.60340769812E+03 0.  0.
        3    1    3    3  502    0 -0.92878291938E+02 -0.25287052522E+03 -0.21269059126E+03  0.34323050192E+03  0.10100000352E+00 0.  1.
       -3    1    3    3    0  502  0.92878291938E+02  0.25287052522E+03  0.66834998823E+02  0.27755505203E+03  0.10100000352E+00 0. -1.
</event>
<event>
 5   0  0.6007360E-02  0.6004091E+03  0.7818609E-02  0.9904558E-01
       -2   -1    0    0    0  501  0.00000000000E+00  0.00000000000E+00  0.22302406453E+03  0.22302406454E+03  0.25500000920E-02 0.  1.
        2   -1    0    0  501    0  0.00000000000E+00  0.00000000000E+00 -0.40409441676E+03  0.40409441677E+03  0.25500000920E-02 0. -1.
    10030    2    1    2    0    0  0.00000000000E+00  0.00000000000E+00 -0.18107035224E+03  0.62711848131E+03  0.60040912480E+03 0.  0.
        4    1    3    3  502    0  0.24147204265E+03  0.15181746196E+02  0.95083501262E+02  0.25996483976E+03  0.12699999809E+01 0.  1.
       -4    1    3    3    0  502 -0.24147204265E+03 -0.15181746196E+02 -0.27615385350E+03  0.36715364155E+03  0.12699999809E+01 0. -1.
</event>
<event>
 5   0  0.5872632E-02  0.6005671E+03  0.7818609E-02  0.9904230E-01
       -2   -1    0    0    0  501  0.00000000000E+00  0.00000000000E+00  0.16991197501E+03  0.16991197503E+03  0.25500000920E-02 0. -1.
        2   -1    0    0  501    0  0.00000000000E+00  0.00000000000E+00 -0.53068771508E+03  0.53068771508E+03  0.25500000920E-02 0.  1.
    10030    2    1    2    0    0  0.00000000000E+00  0.00000000000E+00 -0.36077574007E+03  0.70059969011E+03  0.60056705801E+03 0.  0.
        1    1    3    3  502    0 -0.18787681937E+03  0.10005138066E+03 -0.42747425372E+03  0.47753765888E+03  0.50400001928E-02 0.  1.
       -1    1    3    3    0  502  0.18787681937E+03 -0.10005138066E+03  0.66698513655E+02  0.22306203123E+03  0.50400001928E-02 0. -1.
</event>
<event>
 5   0  0.5935451E-02  0.6017076E+03  0.7818609E-02  0.9901870E-01
        2   -1    0    0  501    0  0.00000000000E+00  0.00000000000E+00  0.17238600413E+03  0.17238600415E+03  0.25500000920E-02 0. -1.
       -2   -1    0    0    0  501  0.00000000000E+00  0.00000000000E+00 -0.52506016635E+03  0.52506016636E+03  0.25500000920E-02 0.  1.
    10030    2    1    2    0    0  0.00000000000E+00  0.00000000000E+00 -0.35267416222E+03  0.69744617051E+03  0.60170764999E+03 0.  0.
        3    1    3    3  502    0 -0.28441319829E+01 -0.26774756095E+03 -0.17339412687E+02  0.26832351913E+03  0.10100000352E+00 0.  1.
       -3    1    3    3    0  502  0.28441319829E+01  0.26774756095E+03 -0.33533474953E+03  0.42912265138E+03  0.10100000352E+00 0. -1.
</event>
<event>
 5   0  0.3703280E-02  0.5801279E+03  0.7818609E-02  0.9947514E-01
       -1   -1    0    0    0  501  0.00000000000E+00  0.00000000000E+00  0.81336543566E+03  0.81336543568E+03  0.50400001928E-02 0.  1.
        1   -1    0    0  501    0  0.00000000000E+00  0.00000000000E+00 -0.10344317458E+03  0.10344317470E+03  0.50400001928E-02 0. -1.
    10030    2    1    2    0    0  0.00000000000E+00  0.00000000000E+00  0.70992226108E+03  0.91680861038E+03  0.58012792665E+03 0.  0.
        5    1    3    3  502    0 -0.15939696435E+03  0.23969072469E+03  0.29895368466E+03  0.41503545790E+03  0.46999998093E+01 0.  1.
       -5    1    3    3    0  502  0.15939696435E+03 -0.23969072469E+03  0.41096857642E+03  0.50177315248E+03  0.46999998093E+01 0. -1.
</event>
<event>
 5   0  0.3478183E-02  0.5980603E+03  0.7818609E-02  0.9909439E-01
       -1   -1    0    0    0  501  0.00000000000E+00  0.00000000000E+00  0.33410552403E+02  0.33410552783E+02  0.50400001928E-02 0.  1.
        1   -1    0    0  501    0  0.00000000000E+00  0.00000000000E+00 -0.26763707410E+04  0.26763707410E+04  0.50400001928E-02 0. -1.
    10030    2    1    2    0    0  0.00000000000E+00  0.00000000000E+00 -0.26429601886E+04  0.27097812938E+04  0.59806028263E+03 0.  0.
        4    1    3    3  502    0 -0.86948856812E+01  0.29668603600E+03 -0.11569119251E+04  0.11943806011E+04  0.12699999809E+01 0. -1.
       -4    1    3    3    0  502  0.86948856812E+01 -0.29668603600E+03 -0.14860482635E+04  0.15154006927E+04  0.12699999809E+01 0.  1.
</event>
<event>
 5   0  0.3640827E-02  0.5988319E+03  0.7818609E-02  0.9907832E-01
        1   -1    0    0  501    0  0.00000000000E+00  0.00000000000E+00  0.26854668438E+03  0.26854668443E+03  0.50400001928E-02 0.  1.
       -1   -1    0    0    0  501  0.00000000000E+00  0.00000000000E+00 -0.33383360930E+03  0.33383360933E+03  0.50400001928E-02 0. -1.
    10030    2    1    2    0    0  0.00000000000E+00  0.00000000000E+00 -0.65286924915E+02  0.60238029376E+03  0.59883189273E+03 0.  0.
        3    1    3    3  502    0  0.22193361660E+03  0.13183137719E+03  0.11996527692E+03  0.28465017137E+03  0.10100000352E+00 0. -1.
       -3    1    3    3    0  502 -0.22193361660E+03 -0.13183137719E+03 -0.18525220184E+03  0.31773012240E+03  0.10100000352E+00 0.  1.
</event>
<event>
 5   0  0.3651984E-02  0.5946456E+03  0.7818609E-02  0.9916577E-01
        1   -1    0    0  501    0  0.00000000000E+00  0.00000000000E+00  0.37923423756E+03  0.37923423759E+03  0.50400001928E-02 0.  1.
       -1   -1    0    0    0  501  0.00000000000E+00  0.00000000000E+00 -0.23310358601E+03  0.23310358606E+03  0.50400001928E-02 0. -1.
    10030    2    1    2    0    0  0.00000000000E+00  0.00000000000E+00  0.14613065155E+03  0.61233782365E+03  0.59464564486E+03 0.  0.
        1    1    3    3  502    0  0.18913855536E+03 -0.20859553688E+03  0.17138037132E+03  0.32963119214E+03  0.50400001928E-02 0. -1.
       -1    1    3    3    0  502 -0.18913855536E+03  0.20859553688E+03 -0.25249719776E+02  0.28270663152E+03  0.50400001928E-02 0.  1.
</event>
<event>
 5   0  0.6007360E-02  0.6089186E+03  0.7818609E-02  0.9887074E-01
        2   -1    0    0  501    0  0.00000000000E+00  0.00000000000E+00  0.19388310515E+03  0.19388310517E+03  0.25500000920E-02 0.  1.
       -2   -1    0    0    0  501  0.00000000000E+00  0.00000000000E+00 -0.47809981091E+03  0.47809981092E+03  0.25500000920E-02 0. -1.
    10030    2    1    2    0    0  0.00000000000E+00  0.00000000000E+00 -0.28421670576E+03  0.67198291609E+03  0.60891863470E+03 0.  0.
        4    1    3    3  502    0  0.22154062267E+03  0.18615970587E+03 -0.24655844944E+03  0.38016886442E+03  0.12699999809E+01 0. -1.
       -4    1    3    3    0  502 -0.22154062267E+03 -0.18615970587E+03 -0.37658256315E+02  0.29181405167E+03  0.12699999809E+01 0.  1.
</event>
<event>
 5   0  0.5872632E-02  0.6070936E+03  0.7818609E-02  0.9890797E-01
       -2   -1    0    0    0  501  0.00000000000E+00  0.00000000000E+00  0.15081586037E+03  0.15081586039E+03  0.25500000920E-02 0. -1.
        2   -1    0    0  501    0  0.00000000000E+00  0.00000000000E+00 -0.61094806943E+03  0.61094806943E+03  0.25500000920E-02 0.  1.
    10030    2    1    2    0    0  0.00000000000E+00  0.00000000000E+00 -0.46013220906E+03  0.76176392982E+03  0.60709359654E+03 0.  0.
        1    1    3    3  502    0 -0.14346845994E+03  0.35341271145E+02  0.10264594344E+03  0.17991218462E+03  0.50400001928E-02 0. -1.
       -1    1    3    3    0  502  0.14346845994E+03 -0.35341271145E+02 -0.56277815250E+03  0.58185174520E+03  0.50400001928E-02 0.  1.
</event>
<event>
 5   0  0.5755078E-02  0.6090558E+03  0.7818609E-02  0.9886794E-01
       -2   -1    0    0    0  501  0.00000000000E+00  0.00000000000E+00  0.46092022127E+03  0.46092022127E+03  0.25500000920E-02 0. -1.
        2   -1    0    0  501    0  0.00000000000E+00  0.00000000000E+00 -0.20120020702E+03  0.20120020704E+03  0.25500000920E-02 0.  1.
    10030    2    1    2    0    0  0.00000000000E+00  0.00000000000E+00  0.25972001424E+03  0.66212042831E+03  0.60905580680E+03 0.  0.
        2    1    3    3  502    0 -0.14879274326E+03  0.57838474237E+02  0.41178571452E+03  0.44164696788E+03  0.25500000920E-02 0. -1.
       -2    1    3    3    0  502  0.14879274326E+03 -0.57838474237E+02 -0.15206570027E+03  0.22047346043E+03  0.25500000920E-02 0.  1.
</event>
<event>
 5   0  0.3651984E-02  0.6120725E+03  0.7818609E-02  0.9880671E-01
        1   -1    0    0  501    0  0.00000000000E+00  0.00000000000E+00  0.19457306832E+03  0.19457306839E+03  0.50400001928E-02 0.  1.
       -1   -1    0    0    0  501  0.00000000000E+00  0.00000000000E+00 -0.48135220889E+03  0.48135220892E+03  0.50400001928E-02 0. -1.
    10030    2    1    2    0    0  0.00000000000E+00  0.00000000000E+00 -0.28677914057E+03  0.67592527731E+03  0.61207246715E+03 0.  0.
        1    1    3    3  502    0  0.26404494745E+03 -0.15372342905E+03 -0.16275616343E+03  0.34617942699E+03  0.50400001928E-02 0.  1.
       -1    1    3    3    0  502 -0.26404494745E+03  0.15372342905E+03 -0.12402297714E+03  0.32974585032E+03  0.50400001928E-02 0. -1.
</event>
<event>
 5   0  0.5935451E-02  0.5689996E+03  0.7818609E-02  0.9971895E-01
        2   -1    0    0  501    0  0.00000000000E+00  0.00000000000E+00  0.14362972418E+03  0.14362972421E+03  0.25500000920E-02 0.  1.
       -2   -1    0    0    0  501  0.00000000000E+00  0.00000000000E+00 -0.56353328024E+03  0.56353328024E+03  0.25500000920E-02 0. -1.
    10030    2    1    2    0    0  0.00000000000E+00  0.00000000000E+00 -0.41990355605E+03  0.70716300445E+03  0.56899957686E+03 0.  0.
        3    1    3    3  502    0  0.18325943986E+03 -0.10291780315E+02 -0.48010447396E+03  0.51399441549E+03  0.10100000352E+00 0. -1.
       -3    1    3    3    0  502 -0.18325943986E+03  0.10291780315E+02  0.60200917907E+02  0.19316858895E+03  0.10100000352E+00 0.  1.
</event>
<event>
 5   0  0.5999117E-02  0.5972232E+03  0.7818609E-02  0.9911184E-01
        2   -1    0    0  501    0  0.00000000000E+00  0.00000000000E+00  0.27192167469E+03  0.27192167470E+03  0.25500000920E-02 0. -1.
       -2   -1    0    0    0  501  0.00000000000E+00  0.00000000000E+00 -0.32792117139E+03  0.32792117140E+03  0.25500000920E-02 0.  1.
    10030    2    1    2    0    0  0.00000000000E+00  0.00000000000E+00 -0.55999496703E+02  0.59984284610E+03  0.59722315460E+03 0.  0.
        5    1    3    3  502    0  0.24101797143E+03  0.17615606650E+03 -0.22862453277E+02  0.29944182087E+03  0.46999998093E+01 0. -1.
       -5    1    3    3    0  502 -0.24101797143E+03 -0.17615606650E+03 -0.33137043426E+02  0.30040102523E+03  0.46999998093E+01 0.  1.
</event>
<event>
 5   0  0.5872632E-02  0.5966817E+03  0.7818609E-02  0.9912314E-01
       -2   -1    0    0    0  501  0.00000000000E+00  0.00000000000E+00  0.65930301393E+02  0.65930301442E+02  0.25500000920E-02 0.  1.
        2   -1    0    0  501    0  0.00000000000E+00  0.00000000000E+00 -0.13500207169E+04  0.13500207169E+04  0.25500000920E-02 0. -1.
    10030    2    1    2    0    0  0.00000000000E+00  0.00000000000E+00 -0.12840904155E+04  0.14159510184E+04  0.59668173355E+03 0.  0.
        1    1    3    3  502    0  0.25943836708E+03  0.63071266069E+02 -0.95794538373E+03  0.99445744462E+03  0.50400001928E-02 0. -1.
       -1    1    3    3    0  502 -0.25943836708E+03 -0.63071266069E+02 -0.32614503178E+03  0.42149357373E+03  0.50400001928E-02 0.  1.
</event>
<event>
 5   0  0.3651984E-02  0.6112638E+03  0.7818609E-02  0.9882309E-01
        1   -1    0    0  501    0  0.00000000000E+00  0.00000000000E+00  0.19839565461E+03  0.19839565468E+03  0.50400001928E-02 0.  1.
       -1   -1    0    0    0  501  0.00000000000E+00  0.00000000000E+00 -0.47083118404E+03  0.47083118407E+03  0.50400001928E-02 0. -1.
    10030    2    1    2    0    0  0.00000000000E+00  0.00000000000E+00 -0.27243552943E+03  0.66922683875E+03  0.61126380885E+03 0.  0.
        1    1    3    3  502    0  0.23231944233E+03  0.13426935708E+03  0.23979764645E+02  0.26939861298E+03  0.50400001928E-02 0.  1.
       -1    1    3    3    0  502 -0.23231944233E+03 -0.13426935708E+03 -0.29641529408E+03  0.39982822577E+03  0.50400001928E-02 0. -1.
</event>
<event>
 5   0  0.3478183E-02  0.5996496E+03  0.7818609E-02  0.9906133E-01
        1   -1    0    0  501    0  0.00000000000E+00  0.00000000000E+00  0.53576295198E+03  0.53576295201E+03  0.50400001928E-02 0.  1.
       -1   -1    0    0    0  501  0.00000000000E+00  0.00000000000E+00 -0.16778858580E+03  0.16778858588E+03  0.50400001928E-02 0. -1.
    10030    2    1    2    0    0  0.00000000000E+00  0.00000000000E+00  0.36797436618E+03  0.70355153788E+03  0.59964959125E+03 0.  0.
        4    1    3    3  502    0 -0.22118458082E+03  0.97709733764E+02 -0.23994718270E+02  0.24299623509E+03  0.12699999809E+01 0. -1.
       -4    1    3    3    0  502  0.22118458082E+03 -0.97709733764E+02  0.39196908445E+03  0.46055530279E+03  0.12699999809E+01 0.  1.
</event>
<event>
 5   0  0.3640827E-02  0.6054527E+03  0.7818609E-02  0.9894157E-01
        1   -1    0    0  501    0  0.00000000000E+00  0.00000000000E+00  0.26998247246E+03  0.26998247251E+03  0.50400001928E-02 0. -1.
       -1   -1    0    0    0  501  0.00000000000E+00  0.00000000000E+00 -0.33944150314E+03  0.33944150318E+03  0.50400001928E-02 0.  1.
    10030    2    1    2    0    0  0.00000000000E+00  0.00000000000E+00 -0.69459030681E+02  0.60942397569E+03  0.60545274399E+03 0.  0.
        3    1    3    3  502    0 -0.26527543536E+03 -0.40105014251E+02 -0.17587687483E+03  0.32079924264E+03  0.10100000352E+00 0.  1.
       -3    1    3    3    0  502  0.26527543536E+03  0.40105014251E+02  0.10641784415E+03  0.28862473305E+03  0.10100000352E+00 0. -1.
</event>
<event>
 5   0  0.6007360E-02  0.6033431E+03  0.7818609E-02  0.9898494E-01
       -2   -1    0    0    0  501  0.00000000000E+00  0.00000000000E+00  0.18640768957E+03  0.18640768959E+03  0.25500000920E-02 0. -1.
        2   -1    0    0  501    0  0.00000000000E+00  0.00000000000E+00 -0.48820804992E+03  0.48820804993E+03  0.25500000920E-02 0.  1.
    10030    2    1    2    0    0  0.00000000000E+00  0.00000000000E+00 -0.30180036035E+03  0.67461573952E+03  0.60334313496E+03 0.  0.
        4    1    3    3  502    0 -0.28965198502E+02 -0.29813892501E+03 -0.11092301881E+03  0.31942343422E+03  0.12699999809E+01 0. -1.
       -4    1    3    3    0  502  0.28965198502E+02  0.29813892501E+03 -0.19087734154E+03  0.35519230530E+03  0.12699999809E+01 0.  1.
</event>
<event>
 5   0  0.5999117E-02  0.6000949E+03  0.7818609E-02  0.9905209E-01
       -2   -1    0    0    0  501  0.00000000000E+00  0.00000000000E+00  0.18978071109E+03  0.18978071111E+03  0.25500000920E-02 0. -1.
        2   -1    0    0  501    0  0.00000000000E+00  0.00000000000E+00 -0.47438161924E+03  0.47438161925E+03  0.25500000920E-02 0.  1.
    10030    2    1    2    0    0  0.00000000000E+00  0.00000000000E+00 -0.28460090815E+03  0.66416233036E+03  0.60009492927E+03 0.  0.
        5    1    3    3  502    0 -0.42780120430E+02  0.15319026427E+03  0.13923728012E+03  0.21143913059E+03  0.46999998093E+01 0. -1.
       -5    1    3    3    0  502  0.42780120430E+02 -0.15319026427E+03 -0.42383818827E+03  0.45272319977E+03  0.46999998093E+01 0.  1.
</event>
<event>
 5   0  0.5755078E-02  0.6042077E+03  0.7818609E-02  0.9896715E-01
        2   -1    0    0  501    0  0.00000000000E+00  0.00000000000E+00  0.11123935468E+04  0.11123935468E+04  0.25500000920E-02 0.  1.
       -2   -1    0    0    0  501  0.00000000000E+00  0.00000000000E+00 -0.82045359916E+02  0.82045359956E+02  0.25500000920E-02 0. -1.
    10030    2    1    2    0    0  0.00000000000E+00  0.00000000000E+00  0.10303481869E+04  0.11944389068E+04  0.60420767603E+03 0.  0.
        2    1    3    3  502    0  0.11541777638E+03  0.27763099718E+03  0.57336575961E+03  0.64741681164E+03  0.25500000920E-02 0.  1.
       -2    1    3    3    0  502 -0.11541777638E+03 -0.27763099718E+03  0.45698242729E+03  0.54702209513E+03  0.25500000920E-02 0. -1.
</event>
<event>
 5   0  0.5935451E-02  0.5970931E+03  0.7818609E-02  0.9911455E-01
        2   -1    0    0  501    0  0.00000000000E+00  0.00000000000E+00  0.60244525186E+03  0.60244525187E+03  0.25500000920E-02 0.  1.
       -2   -1    0    0    0  501  0.00000000000E+00  0.00000000000E+00 -0.14794714139E+03  0.14794714141E+03  0.25500000920E-02 0. -1.
    10030    2    1    2    0    0  0.00000000000E+00  0.00000000000E+00  0.45449811047E+03  0.75039239328E+03  0.59709313467E+03 0.  0.
        3    1    3    3  502    0  0.15860414324E+03 -0.13259278527E+03  0.49794196960E+03  0.53914964180E+03  0.10100000352E+00 0.  1.
       -3    1    3    3    0  502 -0.15860414324E+03  0.13259278527E+03 -0.43443859129E+02  0.21124275148E+03  0.10100000352E+00 0. -1.
</event>
<event>
 5   0  0.5755078E-02  0.5961335E+03  0.7818609E-02  0.9913460E-01
        2   -1    0    0  501    0  0.00000000000E+00  0.00000000000E+00  0.15839544467E+04  0.15839544467E+04  0.25500000920E-02 0.  1.
       -2   -1    0    0    0  501  0.00000000000E+00  0.00000000000E+00 -0.56089858985E+02  0.56089859043E+02  0.25500000920E-02 0. -1.
    10030    2    1    2    0    0  0.00000000000E+00  0.00000000000E+00  0.15278645877E+04  0.16400443058E+04  0.59613348037E+03 0.  0.
        2    1    3    3  502    0 -0.28532355129E+02 -0.46800931091E+02 -0.42105304637E+02  0.69117864010E+02  0.25500000920E-02 0. -1.
       -2    1    3    3    0  502  0.28532355129E+02  0.46800931091E+02  0.15699698924E+04  0.15709264418E+04  0.25500000920E-02 0.  1.
</event>
<event>
 5   0  0.5935451E-02  0.5974759E+03  0.7818609E-02  0.9910657E-01
       -2   -1    0    0    0  501  0.00000000000E+00  0.00000000000E+00  0.33038846916E+03  0.33038846917E+03  0.25500000920E-02 0. -1.
        2   -1    0    0  501    0  0.00000000000E+00  0.00000000000E+00 -0.27011951237E+03  0.27011951238E+03  0.25500000920E-02 0.  1.
    10030    2    1    2    0    0  0.00000000000E+00  0.00000000000E+00  0.60268956788E+02  0.60050798155E+03  0.59747593152E+03 0.  0.
        3    1    3    3  502    0  0.13292020070E+03  0.12743341279E+03 -0.20629813427E+03  0.27652483587E+03  0.10100000352E+00 0.  1.
       -3    1    3    3    0  502 -0.13292020070E+03 -0.12743341279E+03  0.26656709105E+03  0.32398314568E+03  0.10100000352E+00 0. -1.
</event>
<event>
 5   0  0.5935451E-02  0.6016555E+03  0.7818609E-02  0.9901977E-01
        2   -1    0    0  501    0  0.00000000000E+00  0.00000000000E+00  0.18352425533E+04  0.18352425533E+04  0.25500000920E-02 0.  1.
       -2   -1    0    0    0  501  0.00000000000E+00  0.00000000000E+00 -0.49310825268E+02  0.49310825334E+02  0.25500000920E-02 0. -1.
    10030    2    1    2    0    0  0.00000000000E+00  0.00000000000E+00  0.17859317280E+04  0.18845533786E+04  0.60165546597E+03 0.  0.
        3    1    3    3  502    0 -0.15641642051E+03  0.12996346437E+03  0.19861126442E+03  0.28425876105E+03  0.10100000352E+00 0. -1.
       -3    1    3    3    0  502  0.15641642051E+03 -0.12996346437E+03  0.15873204636E+04  0.16002946176E+04  0.10100000352E+00 0.  1.
</event>
<event>
 5   0  0.5755078E-02  0.6056579E+03  0.7818609E-02  0.9893737E-01
       -2   -1    0    0    0  501  0.00000000000E+00  0.00000000000E+00  0.24366870236E+03  0.24366870237E+03  0.25500000920E-02 0.  1.
        2   -1    0    0  501    0  0.00000000000E+00  0.00000000000E+00 -0.37635271520E+03  0.37635271521E+03  0.25500000920E-02 0. -1.
    10030    2    1    2    0    0  0.00000000000E+00  0.00000000000E+00 -0.13268401285E+03  0.62002141758E+03  0.60565791582E+03 0.  0.
        2    1    3    3  502    0  0.24140194664E+03 -0.88376859148E+02 -0.23020048954E+03  0.34507627340E+03  0.25500000920E-02 0. -1.
       -2    1    3    3    0  502 -0.24140194664E+03  0.88376859148E+02  0.97516476694E+02  0.27494514418E+03  0.25500000920E-02 0.  1.
</event>
<event>
 5   0  0.3640827E-02  0.5998070E+03  0.7818609E-02  0.9905807E-01
        1   -1    0    0  501    0  0.00000000000E+00  0.00000000000E+00  0.26592497659E+03  0.26592497664E+03  0.50400001928E-02 0.  1.
       -1   -1    0    0    0  501  0.00000000000E+00  0.00000000000E+00 -0.33822362993E+03  0.33822362997E+03  0.50400001928E-02 0. -1.
    10030    2    1    2    0    0  0.00000000000E+00  0.00000000000E+00 -0.72298653340E+02  0.60414860660E+03  0.59980700528E+03 0.  0.
        3    1    3    3  502    0 -0.25214124719E+03  0.16234923635E+03 -0.39273002368E+02  0.30244811455E+03  0.10100000352E+00 0. -1.
       -3    1    3    3    0  502  0.25214124719E+03 -0.16234923635E+03 -0.33025650972E+02  0.30170049205E+03  0.10100000352E+00 0.  1.
</event>
<event>
 5   0  0.3767635E-02  0.6022821E+03  0.7818609E-02  0.9900683E-01
       -1   -1    0    0    0  501  0.00000000000E+00  0.00000000000E+00  0.42469260205E+03  0.42469260208E+03  0.50400001928E-02 0.  1.
        1   -1    0    0  501    0  0.00000000000E+00  0.00000000000E+00 -0.21353313125E+03  0.21353313131E+03  0.50400001928E-02 0. -1.
    10030    2    1    2    0    0  0.00000000000E+00  0.00000000000E+00  0.21115947080E+03  0.63822573339E+03  0.60228213044E+03 0.  0.
        2    1    3    3  502    0  0.96058967586E+02  0.28497754007E+03  0.88945219872E+02  0.31360927241E+03  0.25500000920E-02 0.  1.
       -2    1    3    3    0  502 -0.96058967586E+02 -0.28497754007E+03  0.12221425093E+03  0.32461646097E+03  0.25500000920E-02 0. -1.
</event>
<event>
 5   0  0.3767635E-02  0.6026481E+03  0.7818609E-02  0.9899927E-01
        1   -1    0    0  501    0  0.00000000000E+00  0.00000000000E+00  0.91208217088E+03  0.91208217090E+03  0.50400001928E-02 0. -1.
       -1   -1    0    0    0  501  0.00000000000E+00  0.00000000000E+00 -0.99548239117E+02  0.99548239244E+02  0.50400001928E-02 0.  1.
    10030    2    1    2    0    0  0.00000000000E+00  0.00000000000E+00  0.81253393177E+03  0.10116304101E+04  0.60264807015E+03 0.  0.
        2    1    3    3  502    0 -0.15543657809E+03  0.16758440947E+03  0.73585888062E+03  0.77054095044E+03  0.25500000920E-02 0. -1.
       -2    1    3    3    0  502  0.15543657809E+03 -0.16758440947E+03  0.76675051144E+02  0.24108945970E+03  0.25500000920E-02 0.  1.
</event>
<event>
 5   0  0.3640827E-02  0.5904874E+03  0.7818609E-02  0.9925340E-01
       -1   -1    0    0    0  501  0.00000000000E+00  0.00000000000E+00  0.70423962489E+02  0.70423962669E+02  0.50400001928E-02 0.  1.
        1   -1    0    0  501    0  0.00000000000E+00  0.00000000000E+00 -0.12377726696E+04  0.12377726696E+04  0.50400001928E-02 0. -1.
    10030    2    1    2    0    0  0.00000000000E+00  0.00000000000E+00 -0.11673487071E+04  0.13081966322E+04  0.59048744669E+03 0.  0.
        3    1    3    3  502    0 -0.27635921772E+03 -0.51860774675E+02 -0.38422350515E+03  0.47612148584E+03  0.10100000352E+00 0. -1.
       -3    1    3    3    0  502  0.27635921772E+03  0.51860774675E+02 -0.78312520192E+03  0.83207514639E+03  0.10100000352E+00 0.  1.
</event>
<event>
 5   0  0.5872632E-02  0.5996210E+03  0.7818609E-02  0.9906193E-01
       -2   -1    0    0    0  501  0.00000000000E+00  0.00000000000E+00  0.12581360644E+03  0.12581360647E+03  0.25500000920E-02 0.  1.
        2   -1    0    0  501    0  0.00000000000E+00  0.00000000000E+00 -0.71444049663E+03  0.71444049663E+03  0.25500000920E-02 0. -1.
    10030    2    1    2    0    0  0.00000000000E+00  0.00000000000E+00 -0.58862689019E+03  0.84025410310E+03  0.59962099856E+03 0.  0.
        1    1    3    3  502    0  0.72522151736E+01 -0.28770646041E+03 -0.17658071894E+03  0.33765122880E+03  0.50400001928E-02 0. -1.
       -1    1    3    3    0  502 -0.72522151736E+01  0.28770646041E+03 -0.41204617125E+03  0.50260287429E+03  0.50400001928E-02 0.  1.
</event>
<event>
 5   0  0.3640827E-02  0.6057089E+03  0.7818609E-02  0.9893632E-01
       -1   -1    0    0    0  501  0.00000000000E+00  0.00000000000E+00  0.10249930129E+03  0.10249930141E+03  0.50400001928E-02 0.  1.
        1   -1    0    0  501    0  0.00000000000E+00  0.00000000000E+00 -0.89484333497E+03  0.89484333498E+03  0.50400001928E-02 0. -1.
    10030    2    1    2    0    0  0.00000000000E+00  0.00000000000E+00 -0.79234403368E+03  0.99734263640E+03  0.60570889598E+03 0.  0.
        3    1    3    3  502    0  0.12169489410E+03 -0.27730710534E+03 -0.40185889781E+03  0.50318929030E+03  0.10100000352E+00 0. -1.
       -3    1    3    3    0  502 -0.12169489410E+03  0.27730710534E+03 -0.39048513587E+03  0.49415334609E+03  0.10100000352E+00 0.  1.
</event>
<event>
 5   0  0.5935451E-02  0.5986424E+03  0.7818609E-02  0.9908227E-01
       -2   -1    0    0    0  501  0.00000000000E+00  0.00000000000E+00  0.15911133464E+03  0.15911133466E+03  0.25500000920E-02 0.  1.
        2   -1    0    0  501    0  0.00000000000E+00  0.00000000000E+00 -0.56308485582E+03  0.56308485583E+03  0.25500000920E-02 0. -1.
    10030    2    1    2    0    0  0.00000000000E+00  0.00000000000E+00 -0.40397352118E+03  0.72219619049E+03  0.59864240724E+03 0.  0.
        3    1    3    3  502    0 -0.53244148779E+02 -0.58163451142E+02 -0.55032911239E+03  0.55594969968E+03  0.10100000352E+00 0. -1.
       -3    1    3    3    0  502  0.53244148779E+02  0.58163451142E+02  0.14635559121E+03  0.16624649081E+03  0.10100000352E+00 0.  1.
</event>
<event>
 5   0  0.3651984E-02  0.5986992E+03  0.7818609E-02  0.9908108E-01
       -1   -1    0    0    0  501  0.00000000000E+00  0.00000000000E+00  0.18369305104E+03  0.18369305110E+03  0.50400001928E-02 0. -1.
        1   -1    0    0  501    0  0.00000000000E+00  0.00000000000E+00 -0.48782566552E+03  0.48782566554E+03  0.50400001928E-02 0.  1.
    10030    2    1    2    0    0  0.00000000000E+00  0.00000000000E+00 -0.30413261448E+03  0.67151871665E+03  0.59869920629E+03 0.  0.
        1    1    3    3  502    0  0.29328027312E+02  0.27959351680E+03 -0.36710010198E+02  0.28351418429E+03  0.50400001928E-02 0. -1.
       -1    1    3    3    0  502 -0.29328027312E+02 -0.27959351680E+03 -0.26742260428E+03  0.38800453236E+03  0.50400001928E-02 0.  1.
</event>
<event>
 5   0  0.6007360E-02  0.5907643E+03  0.7818609E-02  0.9924755E-01
       -2   -1    0    0    0  501  0.00000000000E+00  0.00000000000E+00  0.80527118717E+02  0.80527118758E+02  0.25500000920E-02 0.  1.
        2   -1    0    0  501    0  0.00000000000E+00  0.00000000000E+00 -0.10834936709E+04  0.10834936709E+04  0.25500000920E-02 0. -1.
    10030    2    1    2    0    0  0.00000000000E+00  0.00000000000E+00 -0.10029665521E+04  0.11640207896E+04  0.59076433030E+03 0.  0.
        4    1    3    3  502    0  0.52205152471E+01 -0.26891517320E+02 -0.10809800449E+04  0.10813278308E+04  0.12699999809E+01 0. -1.
       -4    1    3    3    0  502 -0.52205152471E+01  0.26891517320E+02  0.78013492721E+02  0.82692958768E+02  0.12699999809E+01 0.  1.
</event>
<event>
 5   0  0.6007360E-02  0.6011976E+03  0.7818609E-02  0.9902924E-01
        2   -1    0    0  501    0  0.00000000000E+00  0.00000000000E+00  0.12446768436E+04  0.12446768436E+04  0.25500000920E-02 0.  1.
       -2   -1    0    0    0  501  0.00000000000E+00  0.00000000000E+00 -0.72596870868E+02  0.72596870913E+02  0.25500000920E-02 0. -1.
    10030    2    1    2    0    0  0.00000000000E+00  0.00000000000E+00  0.11720799727E+04  0.13172737145E+04  0.60119761848E+03 0.  0.
        4    1    3    3  502    0 -0.14149090615E+03  0.23642934498E+03  0.32274951292E+03  0.42436702591E+03  0.12699999809E+01 0. -1.
       -4    1    3    3    0  502  0.14149090615E+03 -0.23642934498E+03  0.84933045977E+03  0.89290668856E+03  0.12699999809E+01 0.  1.
</event>
<event>
 5   0  0.3703280E-02  0.5898108E+03  0.7818609E-02  0.9926774E-01
       -1   -1    0    0    0  501  0.00000000000E+00  0.00000000000E+00  0.14716501956E+03  0.14716501965E+03  0.50400001928E-02 0.  1.
        1   -1    0    0  501    0  0.00000000000E+00  0.00000000000E+00 -0.59096374221E+03  0.59096374223E+03  0.50400001928E-02 0. -1.
    10030    2    1    2    0    0  0.00000000000E+00  0.00000000000E+00 -0.44379872265E+03  0.73812876188E+03  0.58981078566E+03 0.  0.
        5    1    3    3  502    0  0.74177222420E+02 -0.27602268865E+03 -0.31263128962E+03  0.42361680588E+03  0.46999998093E+01 0. -1.
       -5    1    3    3    0  502 -0.74177222420E+02  0.27602268865E+03 -0.13116743303E+03  0.31451195599E+03  0.46999998093E+01 0.  1.
</event>
<event>
 5   0  0.3640827E-02  0.5904437E+03  0.7818609E-02  0.9925433E-01
        1   -1    0    0  501    0  0.00000000000E+00  0.00000000000E+00  0.60139262548E+03  0.60139262550E+03  0.50400001928E-02 0.  1.
       -1   -1    0    0    0  501  0.00000000000E+00  0.00000000000E+00 -0.14492351375E+03  0.14492351384E+03  0.50400001928E-02 0. -1.
    10030    2    1    2    0    0  0.00000000000E+00  0.00000000000E+00  0.45646911173E+03  0.74631613933E+03  0.59044367205E+03 0.  0.
        3    1    3    3  502    0 -0.23618519196E+02 -0.29329816317E+03  0.19794419632E+03  0.35463158634E+03  0.10100000352E+00 0. -1.
       -3    1    3    3    0  502  0.23618519196E+02  0.29329816317E+03  0.25852491540E+03  0.39168455299E+03  0.10100000352E+00 0.  1.
</event>
<event>
 5   0  0.3767635E-02  0.6002942E+03  0.7818609E-02  0.9904796E-01
        1   -1    0    0  501    0  0.00000000000E+00  0.00000000000E+00  0.10027249759E+03  0.10027249772E+03  0.50400001928E-02 0. -1.
       -1   -1    0    0    0  501  0.00000000000E+00  0.00000000000E+00 -0.89843456280E+03  0.89843456281E+03  0.50400001928E-02 0.  1.
    10030    2    1    2    0    0  0.00000000000E+00  0.00000000000E+00 -0.79816206521E+03  0.99870706053E+03  0.60029418655E+03 0.  0.
        2    1    3    3  502    0 -0.97947073414E+02  0.53304891427E+02  0.64530002411E+02  0.12883773460E+03  0.25500000920E-02 0. -1.
       -2    1    3    3    0  502  0.97947073414E+02 -0.53304891427E+02 -0.86269206762E+03  0.86986932593E+03  0.25500000920E-02 0.  1.
</event>
<event>
 5   0  0.6007360E-02  0.6029568E+03  0.7818609E-02  0.9899291E-01
        2   -1    0    0  501    0  0.00000000000E+00  0.00000000000E+00  0.14480808446E+04  0.14480808446E+04  0.25500000920E-02 0. -1.
       -2   -1    0    0    0  501  0.00000000000E+00  0.00000000000E+00 -0.62765294531E+02  0.62765294583E+02  0.25500000920E-02 0.  1.
    10030    2    1    2    0    0  0.00000000000E+00  0.00000000000E+00  0.13853155500E+04  0.15108461392E+04  0.60295678371E+03 0.  0.
        4    1    3    3  502    0 -0.10763896575E+03 -0.27097503752E+03  0.88470173515E+03  0.93151081098E+03  0.12699999809E+01 0. -1.
       -4    1    3    3    0  502  0.10763896575E+03  0.27097503752E+03  0.50061381489E+03  0.57933532817E+03  0.12699999809E+01 0.  1.
</event>
<event>
 5   0  0.3640827E-02  0.6022628E+03  0.7818609E-02  0.9900723E-01
        1   -1    0    0  501    0  0.00000000000E+00  0.00000000000E+00  0.52178704221E+03  0.52178704224E+03  0.50400001928E-02 0. -1.
       -1   -1    0    0    0  501  0.00000000000E+00  0.00000000000E+00 -0.17378761177E+03  0.17378761184E+03  0.50400001928E-02 0.  1.
    10030    2    1    2    0    0  0.00000000000E+00  0.00000000000E+00  0.34799943045E+03  0.69557465408E+03  0.60226281290E+03 0.  0.
        3    1    3    3  502    0  0.19688321566E+03 -0.14031160447E+03 -0.33341806585E+02  0.24405334094E+03  0.10100000352E+00 0.  1.
       -3    1    3    3    0  502 -0.19688321566E+03  0.14031160447E+03  0.38134123703E+03  0.45152131314E+03  0.10100000352E+00 0. -1.
</event>
<event>
 5   0  0.5755078E-02  0.5791354E+03  0.7818609E-02  0.9949665E-01
        2   -1    0    0  501    0  0.00000000000E+00  0.00000000000E+00  0.96685555471E+03  0.96685555471E+03  0.25500000920E-02 0. -1.
       -2   -1    0    0    0  501  0.00000000000E+00  0.00000000000E+00 -0.86723879347E+02  0.86723879384E+02  0.25500000920E-02 0.  1.
    10030    2    1    2    0    0  0.00000000000E+00  0.00000000000E+00  0.88013167536E+03  0.10535794341E+04  0.57913544010E+03 0.  0.
        2    1    3    3  502    0 -0.13359912798E+03  0.12090151004E+03  0.85244740729E+03  0.87128209228E+03  0.25500000920E-02 0. -1.
       -2    1    3    3    0  502  0.13359912798E+03 -0.12090151004E+03  0.27684268074E+02  0.18229734182E+03  0.25500000920E-02 0.  1.
</event>
<event>
 5   0  0.6007360E-02  0.6094757E+03  0.7818609E-02  0.9885940E-01
        2   -1    0    0  501    0  0.00000000000E+00  0.00000000000E+00  0.54693130349E+03  0.54693130350E+03  0.25500000920E-02 0.  1.
       -2   -1    0    0    0  501  0.00000000000E+00  0.00000000000E+00 -0.16979311276E+03  0.16979311278E+03  0.25500000920E-02 0. -1.
    10030    2    1    2    0    0  0.00000000000E+00  0.00000000000E+00  0.37713819073E+03  0.71672441627E+03  0.60947573699E+03 0.  0.
        4    1    3    3  502    0 -0.17714423731E+03 -0.12459558485E+03  0.44067500408E+03  0.49101956447E+03  0.12699999809E+01 0.  1.
       -4    1    3    3    0  502  0.17714423731E+03  0.12459558485E+03 -0.63536813347E+02  0.22570485180E+03  0.12699999809E+01 0. -1.
</event>
<event>
 5   0  0.3703280E-02  0.5995271E+03  0.7818609E-02  0.9906388E-01
       -1   -1    0    0    0  501  0.00000000000E+00  0.00000000000E+00  0.34123054057E+03  0.34123054061E+03  0.50400001928E-02 0.  1.
        1   -1    0    0  501    0  0.00000000000E+00  0.00000000000E+00 -0.26333570503E+03  0.26333570507E+03  0.50400001928E-02 0. -1.
    10030    2    1    2    0    0  0.00000000000E+00  0.00000000000E+00  0.77894835549E+02  0.60456624568E+03  0.59952709698E+03 0.  0.
        5    1    3    3  502    0 -0.19921402215E+03  0.21040585170E+03  0.11626813850E+03  0.31224544685E+03  0.46999998093E+01 0.  1.
       -5    1    3    3    0  502  0.19921402215E+03 -0.21040585170E+03 -0.38373302954E+02  0.29232079883E+03  0.46999998093E+01 0. -1.
</event>
<event>
 5   0  0.2388000E-02  0.6023415E+03  0.7818609E-02  0.9900560E-01
        4   -1    0    0  501    0  0.00000000000E+00  0.00000000000E+00  0.22042035404E+03  0.22042401270E+03  0.12699999809E+01 0.  1.
       -4   -1    0    0    0  501  0.00000000000E+00  0.00000000000E+00 -0.41149574132E+03  0.41149770112E+03  0.12699999809E+01 0. -1.
    10030    2    1    2    0    0  0.00000000000E+00  0.00000000000E+00 -0.19107538728E+03  0.63192171382E+03  0.60234147190E+03 0.  0.
        4    1    3    3  502    0 -0.16814063118E+03  0.24168822885E+03 -0.29039361899E+02  0.29585362810E+03  0.12699999809E+01 0.  1.
       -4    1    3    3    0  502  0.16814063118E+03 -0.24168822885E+03 -0.16203602538E+03  0.33606808572E+03  0.12699999809E+01 0. -1.
</event>
<event>
 5   0  0.5755078E-02  0.5735546E+03  0.7818609E-02  0.9961843E-01
        2   -1    0    0  501    0  0.00000000000E+00  0.00000000000E+00  0.64080201025E+03  0.64080201026E+03  0.25500000920E-02 0.  1.
       -2   -1    0    0    0  501  0.00000000000E+00  0.00000000000E+00 -0.12834107976E+03  0.12834107979E+03  0.25500000920E-02 0. -1.
    10030    2    1    2    0    0  0.00000000000E+00  0.00000000000E+00  0.51246093049E+03  0.76914309004E+03  0.57355460741E+03 0.  0.
        2    1    3    3  502    0  0.24407542461E+03  0.21867358287E+02  0.45599263604E+03  0.51766811606E+03  0.25500000920E-02 0.  1.
       -2    1    3    3    0  502 -0.24407542461E+03 -0.21867358287E+02  0.56468294445E+02  0.25147497398E+03  0.25500000920E-02 0. -1.
</event>
<event>
 5   0  0.5935451E-02  0.5881004E+03  0.7818609E-02  0.9930406E-01
        2   -1    0    0  501    0  0.00000000000E+00  0.00000000000E+00  0.99983376905E+03  0.99983376905E+03  0.25500000920E-02 0. -1.
       -2   -1    0    0    0  501  0.00000000000E+00  0.00000000000E+00 -0.86479906261E+02  0.86479906298E+02  0.25500000920E-02 0.  1.
    10030    2    1    2    0    0  0.00000000000E+00  0.00000000000E+00  0.91335386279E+03  0.10863136754E+04  0.58810043580E+03 0.  0.
        3    1    3    3  502    0  0.10186266062E+02 -0.28202441700E+03  0.60926581420E+03  0.67145094710E+03  0.10100000352E+00 0. -1.
       -3    1    3    3    0  502 -0.10186266062E+02  0.28202441700E+03  0.30408804859E+03  0.41486272825E+03  0.10100000352E+00 0.  1.
</event>
<event>
 5   0  0.5999117E-02  0.5857973E+03  0.7818609E-02  0.9935318E-01
        2   -1    0    0  501    0  0.00000000000E+00  0.00000000000E+00  0.28281269424E+04  0.28281269424E+04  0.25500000920E-02 0. -1.
       -2   -1    0    0    0  501  0.00000000000E+00  0.00000000000E+00 -0.30334426107E+02  0.30334426214E+02  0.25500000920E-02 0.  1.
    10030    2    1    2    0    0  0.00000000000E+00  0.00000000000E+00  0.27977925163E+04  0.28584613687E+04  0.58579726156E+03 0.  0.
        5    1    3    3  502    0  0.41958226519E+02  0.20166635018E+03  0.24147190700E+04  0.24234933642E+04  0.46999998093E+01 0. -1.
       -5    1    3    3    0  502 -0.41958226519E+02 -0.20166635018E+03  0.38307344635E+03  0.43496800441E+03  0.46999998093E+01 0.  1.
</event>
<event>
 5   0  0.3767635E-02  0.5965438E+03  0.7818609E-02  0.9912603E-01
       -1   -1    0    0    0  501  0.00000000000E+00  0.00000000000E+00  0.10273555133E+03  0.10273555146E+03  0.50400001928E-02 0.  1.
        1   -1    0    0  501    0  0.00000000000E+00  0.00000000000E+00 -0.86597224834E+03  0.86597224835E+03  0.50400001928E-02 0. -1.
    10030    2    1    2    0    0  0.00000000000E+00  0.00000000000E+00 -0.76323669700E+03  0.96870779981E+03  0.59654383390E+03 0.  0.
        2    1    3    3  502    0  0.15974364847E+03  0.22695154049E+03 -0.55906697007E+03  0.62416417070E+03  0.25500000920E-02 0.  1.
       -2    1    3    3    0  502 -0.15974364847E+03 -0.22695154049E+03 -0.20416972694E+03  0.34454362911E+03  0.25500000920E-02 0. -1.
</event>
<event>
 5   0  0.5755078E-02  0.6058888E+03  0.7818609E-02  0.9893263E-01
        2   -1    0    0  501    0  0.00000000000E+00  0.00000000000E+00  0.12950562921E+04  0.12950562921E+04  0.25500000920E-02 0.  1.
       -2   -1    0    0    0  501  0.00000000000E+00  0.00000000000E+00 -0.70865889508E+02  0.70865889554E+02  0.25500000920E-02 0. -1.
    10030    2    1    2    0    0  0.00000000000E+00  0.00000000000E+00  0.12241904026E+04  0.13659221817E+04  0.60588882193E+03 0.  0.
        2    1    3    3  502    0 -0.15070743680E+03  0.12010369551E+03  0.11390570454E+04  0.11552439490E+04  0.25500000920E-02 0.  1.
       -2    1    3    3    0  502  0.15070743680E+03 -0.12010369551E+03  0.85133357237E+02  0.21067823263E+03  0.25500000920E-02 0. -1.
</event>
<event>
 5   0  0.2388000E-02  0.6021510E+03  0.7818609E-02  0.9900953E-01
       -4   -1    0    0    0  501  0.00000000000E+00  0.00000000000E+00  0.13521444327E+03  0.13522040737E+03  0.12699999809E+01 0. -1.
        4   -1    0    0  501    0  0.00000000000E+00  0.00000000000E+00 -0.67036902568E+03  0.67037022868E+03  0.12699999809E+01 0.  1.
    10030    2    1    2    0    0  0.00000000000E+00  0.00000000000E+00 -0.53515458241E+03  0.80559063605E+03  0.60215101578E+03 0.  0.
        3    1    3    3  502    0  0.21837177495E+03  0.70432654385E+02 -0.67832280467E+01  0.22954958785E+03  0.10100000352E+00 0. -1.
       -3    1    3    3    0  502 -0.21837177495E+03 -0.70432654385E+02 -0.52837135436E+03  0.57604104820E+03  0.10100000352E+00 0.  1.
</event>
<event>
 5   0  0.5999117E-02  0.6033618E+03  0.7818609E-02  0.9898456E-01
       -2   -1    0    0    0  501  0.00000000000E+00  0.00000000000E+00  0.23857510041E+03  0.23857510043E+03  0.25500000920E-02 0. -1.
        2   -1    0    0  501    0  0.00000000000E+00  0.00000000000E+00 -0.38147891116E+03  0.38147891117E+03  0.25500000920E-02 0.  1.
    10030    2    1    2    0    0  0.00000000000E+00  0.00000000000E+00 -0.14290381075E+03  0.62005401159E+03  0.60336181365E+03 0.  0.
        5    1    3    3  502    0 -0.31869862398E+01  0.94862966317E+02  0.22279102000E+03  0.24221285649E+03  0.46999998093E+01 0. -1.
       -5    1    3    3    0  502  0.31869862398E+01 -0.94862966317E+02 -0.36569483074E+03  0.37784115510E+03  0.46999998093E+01 0.  1.
</event>
<event>
 5   0  0.3478183E-02  0.6048454E+03  0.7818609E-02  0.9895404E-01
       -1   -1    0    0    0  501  0.00000000000E+00  0.00000000000E+00  0.68025034427E+02  0.68025034614E+02  0.50400001928E-02 0.  1.
        1   -1    0    0  501    0  0.00000000000E+00  0.00000000000E+00 -0.13444975376E+04  0.13444975376E+04  0.50400001928E-02 0. -1.
    10030    2    1    2    0    0  0.00000000000E+00  0.00000000000E+00 -0.12764725032E+04  0.14125225722E+04  0.60484540644E+03 0.  0.
        4    1    3    3  502    0 -0.23641782725E+03 -0.13081255715E+03 -0.32100250931E+03  0.41958257594E+03  0.12699999809E+01 0.  1.
       -4    1    3    3    0  502  0.23641782725E+03  0.13081255715E+03 -0.95546999389E+03  0.99293999631E+03  0.12699999809E+01 0. -1.
</event>
<event>
 5   0  0.3767635E-02  0.6008282E+03  0.7818609E-02  0.9903689E-01
        1   -1    0    0  501    0  0.00000000000E+00  0.00000000000E+00  0.26693430228E+03  0.26693430233E+03  0.50400001928E-02 0.  1.
       -1   -1    0    0    0  501  0.00000000000E+00  0.00000000000E+00 -0.33809301754E+03  0.33809301758E+03  0.50400001928E-02 0. -1.
    10030    2    1    2    0    0  0.00000000000E+00  0.00000000000E+00 -0.71158715262E+02  0.60502731990E+03  0.60082817433E+03 0.  0.
        2    1    3    3  502    0  0.11206004947E+03  0.82289309939E+02 -0.30374797490E+03  0.33405361468E+03  0.25500000920E-02 0. -1.
       -2    1    3    3    0  502 -0.11206004947E+03 -0.82289309939E+02  0.23258925964E+03  0.27097370522E+03  0.25500000920E-02 0.  1.
</event>
<event>
 5   0  0.3651984E-02  0.6017971E+03  0.7818609E-02  0.9901685E-01
        1   -1    0    0  501    0  0.00000000000E+00  0.00000000000E+00  0.26957431640E+03  0.26957431645E+03  0.50400001928E-02 0.  1.
       -1   -1    0    0    0  501  0.00000000000E+00  0.00000000000E+00 -0.33586257590E+03  0.33586257594E+03  0.50400001928E-02 0. -1.
    10030    2    1    2    0    0  0.00000000000E+00  0.00000000000E+00 -0.66288259499E+02  0.60543689239E+03  0.60179705659E+03 0.  0.
        1    1    3    3  502    0 -0.32433500627E+02 -0.19056812987E+03 -0.26512887221E+03  0.32811806257E+03  0.50400001928E-02 0. -1.
       -1    1    3    3    0  502  0.32433500627E+02  0.19056812987E+03  0.19884061271E+03  0.27731882982E+03  0.50400001928E-02 0.  1.
</event>
<event>
 5   0  0.5999117E-02  0.6009626E+03  0.7818609E-02  0.9903411E-01
        2   -1    0    0  501    0  0.00000000000E+00  0.00000000000E+00  0.14810696723E+03  0.14810696725E+03  0.25500000920E-02 0. -1.
       -2   -1    0    0    0  501  0.00000000000E+00  0.00000000000E+00 -0.60962025639E+03  0.60962025640E+03  0.25500000920E-02 0.  1.
    10030    2    1    2    0    0  0.00000000000E+00  0.00000000000E+00 -0.46151328917E+03  0.75772722365E+03  0.60096258567E+03 0.  0.
        5    1    3    3  502    0  0.76006165202E+01 -0.14232332888E+03 -0.56423627003E+03  0.58197797014E+03  0.46999998093E+01 0.  1.
       -5    1    3    3    0  502 -0.76006165202E+01  0.14232332888E+03  0.10272298086E+03  0.17574925351E+03  0.46999998093E+01 0. -1.
</event>
<event>
 5   0  0.3703280E-02  0.5923956E+03  0.7818609E-02  0.9921310E-01
       -1   -1    0    0    0  501  0.00000000000E+00  0.00000000000E+00  0.10515641634E+03  0.10515641646E+03  0.50400001928E-02 0.  1.
        1   -1    0    0  501    0  0.00000000000E+00  0.00000000000E+00 -0.83431074998E+03  0.83431074999E+03  0.50400001928E-02 0. -1.
    10030    2    1    2    0    0  0.00000000000E+00  0.00000000000E+00 -0.72915433363E+03  0.93946716646E+03  0.59239557273E+03 0.  0.
        5    1    3    3  502    0 -0.17194916569E+01  0.43077634346E+02  0.10009431671E+03  0.10908529447E+03  0.46999998093E+01 0.  1.
       -5    1    3    3    0  502  0.17194916569E+01 -0.43077634346E+02 -0.82924865035E+03  0.83038187199E+03  0.46999998093E+01 0. -1.
</event>
<event>
 5   0  0.3640827E-02  0.6038082E+03  0.7818609E-02  0.9897537E-01
       -1   -1    0    0    0  501  0.00000000000E+00  0.00000000000E+00  0.37532783029E+03  0.37532783033E+03  0.50400001928E-02 0.  1.
        1   -1    0    0  501    0  0.00000000000E+00  0.00000000000E+00 -0.24284396812E+03  0.24284396817E+03  0.50400001928E-02 0. -1.
    10030    2    1    2    0    0  0.00000000000E+00  0.00000000000E+00  0.13248386218E+03  0.61817179849E+03  0.60380824664E+03 0.  0.
        3    1    3    3  502    0  0.66072568406E+02 -0.15108611444E+03  0.32514802753E+03  0.36457351560E+03  0.10100000352E+00 0.  1.
       -3    1    3    3    0  502 -0.66072568406E+02  0.15108611444E+03 -0.19266416535E+03  0.25359828289E+03  0.10100000352E+00 0. -1.
</event>
<event>
 5   0  0.5872632E-02  0.5998751E+03  0.7818609E-02  0.9905665E-01
        2   -1    0    0  501    0  0.00000000000E+00  0.00000000000E+00  0.26360968754E+03  0.26360968755E+03  0.25500000920E-02 0. -1.
       -2   -1    0    0    0  501  0.00000000000E+00  0.00000000000E+00 -0.34127171992E+03  0.34127171993E+03  0.25500000920E-02 0.  1.
    10030    2    1    2    0    0  0.00000000000E+00  0.00000000000E+00 -0.77662032381E+02  0.60488140748E+03  0.59987509187E+03 0.  0.
        1    1    3    3  502    0  0.59118888578E+02  0.29220519025E+03 -0.72024050746E+02  0.30670242925E+03  0.50400001928E-02 0.  1.
       -1    1    3    3    0  502 -0.59118888578E+02 -0.29220519025E+03 -0.56379816347E+01  0.29817897823E+03  0.50400001928E-02 0. -1.
</event>
<event>
 5   0  0.3651984E-02  0.5999112E+03  0.7818609E-02  0.9905590E-01
       -1   -1    0    0    0  501  0.00000000000E+00  0.00000000000E+00  0.41473561467E+03  0.41473561471E+03  0.50400001928E-02 0. -1.
        1   -1    0    0  501    0  0.00000000000E+00  0.00000000000E+00 -0.21694148754E+03  0.21694148760E+03  0.50400001928E-02 0.  1.
    10030    2    1    2    0    0  0.00000000000E+00  0.00000000000E+00  0.19779412713E+03  0.63167710231E+03  0.59991119747E+03 0.  0.
        1    1    3    3  502    0 -0.15943212189E+03 -0.21409726670E+03 -0.45157718445E+02  0.27073134406E+03  0.50400001928E-02 0.  1.
       -1    1    3    3    0  502  0.15943212189E+03  0.21409726670E+03  0.24295184558E+03  0.36094575824E+03  0.50400001928E-02 0. -1.
</event>
<event>
 5   0  0.5935451E-02  0.5741719E+03  0.7818609E-02  0.9960489E-01
       -2   -1    0    0    0  501  0.00000000000E+00  0.00000000000E+00  0.14334191839E+03  0.14334191841E+03  0.25500000920E-02 0. -1.
        2   -1    0    0  501    0  0.00000000000E+00  0.00000000000E+00 -0.57497735416E+03  0.57497735417E+03  0.25500000920E-02 0.  1.
    10030    2    1    2    0    0  0.00000000000E+00  0.00000000000E+00 -0.43163543578E+03  0.71831927257E+03  0.57417194980E+03 0.  0.
        3    1    3    3  502    0  0.67795594869E+02  0.19746602675E+03 -0.46233942870E+03  0.50729363483E+03  0.10100000352E+00 0.  1.
       -3    1    3    3    0  502 -0.67795594869E+02 -0.19746602675E+03  0.30703992927E+02  0.21102563775E+03  0.10100000352E+00 0. -1.
</event>
<event>
 5   0  0.3651984E-02  0.5984064E+03  0.7818609E-02  0.9908718E-01
        1   -1    0    0  501    0  0.00000000000E+00  0.00000000000E+00  0.34667177343E+03  0.34667177347E+03  0.50400001928E-02 0. -1.
       -1   -1    0    0    0  501  0.00000000000E+00  0.00000000000E+00 -0.25823436734E+03  0.25823436739E+03  0.50400001928E-02 0.  1.
    10030    2    1    2    0    0  0.00000000000E+00  0.00000000000E+00  0.88437406092E+02  0.60490614086E+03  0.59840643751E+03 0.  0.
        1    1    3    3  502    0  0.12337850651E+03  0.77163027402E+01 -0.23121239089E+03  0.26218498608E+03  0.50400001928E-02 0.  1.
       -1    1    3    3    0  502 -0.12337850651E+03 -0.77163027402E+01  0.31964979699E+03  0.34272115478E+03  0.50400001928E-02 0. -1.
</event>
<event>
 5   0  0.3478183E-02  0.6846960E+03  0.7818609E-02  0.9743768E-01
       -1   -1    0    0    0  501  0.00000000000E+00  0.00000000000E+00  0.25018115309E+03  0.25018115314E+03  0.50400001928E-02 0. -1.
        1   -1    0    0  501    0  0.00000000000E+00  0.00000000000E+00 -0.46846921659E+03  0.46846921662E+03  0.50400001928E-02 0.  1.
    10030    2    1    2    0    0  0.00000000000E+00  0.00000000000E+00 -0.21828806350E+03  0.71865036976E+03  0.68469604592E+03 0.  0.
        4    1    3    3  502    0 -0.45606721711E+02 -0.12319482744E+03 -0.44096006382E+03  0.46011338750E+03  0.12699999809E+01 0.  1.
       -4    1    3    3    0  502  0.45606721711E+02  0.12319482744E+03  0.22267200032E+03  0.25853698227E+03  0.12699999809E+01 0. -1.
</event>
<event>
 5   0  0.5872632E-02  0.5937986E+03  0.7818609E-02  0.9918356E-01
       -2   -1    0    0    0  501  0.00000000000E+00  0.00000000000E+00  0.11132589228E+03  0.11132589231E+03  0.25500000920E-02 0. -1.
        2   -1    0    0  501    0  0.00000000000E+00  0.00000000000E+00 -0.79181207715E+03  0.79181207715E+03  0.25500000920E-02 0.  1.
    10030    2    1    2    0    0  0.00000000000E+00  0.00000000000E+00 -0.68048618487E+03  0.90313796947E+03  0.59379857199E+03 0.  0.
        1    1    3    3  502    0 -0.48338069332E+02 -0.20686835678E+03 -0.24785804851E+02  0.21388179476E+03  0.50400001928E-02 0. -1.
       -1    1    3    3    0  502  0.48338069332E+02  0.20686835678E+03 -0.65570038002E+03  0.68925617470E+03  0.50400001928E-02 0.  1.
</event>
<event>
 5   0  0.3651984E-02  0.5974252E+03  0.7818609E-02  0.9910762E-01
       -1   -1    0    0    0  501  0.00000000000E+00  0.00000000000E+00  0.67891363619E+03  0.67891363621E+03  0.50400001928E-02 0.  1.
        1   -1    0    0  501    0  0.00000000000E+00  0.00000000000E+00 -0.13142940742E+03  0.13142940751E+03  0.50400001928E-02 0. -1.
    10030    2    1    2    0    0  0.00000000000E+00  0.00000000000E+00  0.54748422877E+03  0.81034304372E+03  0.59742519846E+03 0.  0.
        1    1    3    3  502    0  0.22932069620E+03 -0.33516706631E+02  0.18113891123E+02  0.23246389914E+03  0.50400001928E-02 0. -1.
       -1    1    3    3    0  502 -0.22932069620E+03  0.33516706631E+02  0.52937033765E+03  0.57787914458E+03  0.50400001928E-02 0.  1.
</event>
<event>
 5   0  0.3651984E-02  0.6003853E+03  0.7818609E-02  0.9904607E-01
       -1   -1    0    0    0  501  0.00000000000E+00  0.00000000000E+00  0.97088747288E+02  0.97088747419E+02  0.50400001928E-02 0. -1.
        1   -1    0    0  501    0  0.00000000000E+00  0.00000000000E+00 -0.92817788863E+03  0.92817788864E+03  0.50400001928E-02 0.  1.
    10030    2    1    2    0    0  0.00000000000E+00  0.00000000000E+00 -0.83108914134E+03  0.10252666361E+04  0.60038530476E+03 0.  0.
        1    1    3    3  502    0  0.21424123766E+03 -0.43495661254E+02 -0.64224935747E+02  0.22785087856E+03  0.50400001928E-02 0. -1.
       -1    1    3    3    0  502 -0.21424123766E+03  0.43495661254E+02 -0.76686420560E+03  0.79741575750E+03  0.50400001928E-02 0.  1.
</event>
<event>
 5   0  0.5935451E-02  0.5998271E+03  0.7818609E-02  0.9905765E-01
        2   -1    0    0  501    0  0.00000000000E+00  0.00000000000E+00  0.63104190199E+03  0.63104190199E+03  0.25500000920E-02 0. -1.
       -2   -1    0    0    0  501  0.00000000000E+00  0.00000000000E+00 -0.14253907517E+03  0.14253907519E+03  0.25500000920E-02 0.  1.
    10030    2    1    2    0    0  0.00000000000E+00  0.00000000000E+00  0.48850282682E+03  0.77358097718E+03  0.59982707212E+03 0.  0.
        3    1    3    3  502    0 -0.16936247956E+03 -0.24592446132E+03  0.20810306974E+03  0.36396344321E+03  0.10100000352E+00 0. -1.
       -3    1    3    3    0  502  0.16936247956E+03  0.24592446132E+03  0.28039975708E+03  0.40961753397E+03  0.10100000352E+00 0.  1.
</event>
<event>
 5   0  0.5999117E-02  0.6010287E+03  0.7818609E-02  0.9903274E-01
        2   -1    0    0  501    0  0.00000000000E+00  0.00000000000E+00  0.85212273187E+03  0.85212273187E+03  0.25500000920E-02 0. -1.
       -2   -1    0    0    0  501  0.00000000000E+00  0.00000000000E+00 -0.10598106575E+03  0.10598106578E+03  0.25500000920E-02 0.  1.
    10030    2    1    2    0    0  0.00000000000E+00  0.00000000000E+00  0.74614166612E+03  0.95810379765E+03  0.60102870244E+03 0.  0.
        5    1    3    3  502    0 -0.12177237895E+03  0.24218004659E+03  0.16640736362E+03  0.31810876741E+03  0.46999998093E+01 0.  1.
       -5    1    3    3    0  502  0.12177237895E+03 -0.24218004659E+03  0.57973430250E+03  0.63999503024E+03  0.46999998093E+01 0. -1.
</event>
<event>
 5   0  0.2388000E-02  0.5946562E+03  0.7818609E-02  0.9916555E-01
       -3   -1    0    0    0  501  0.00000000000E+00  0.00000000000E+00  0.39154500127E+03  0.39154501430E+03  0.10100000352E+00 0. -1.
        3   -1    0    0  501    0  0.00000000000E+00  0.00000000000E+00 -0.22578243161E+03  0.22578245420E+03  0.10100000352E+00 0.  1.
    10030    2    1    2    0    0  0.00000000000E+00  0.00000000000E+00  0.16576256966E+03  0.61732746850E+03  0.59465618122E+03 0.  0.
        5    1    3    3  502    0  0.35837226988E+02 -0.29097877262E+03  0.31717931930E+02  0.29492553324E+03  0.46999998093E+01 0.  1.
       -5    1    3    3    0  502 -0.35837226988E+02  0.29097877262E+03  0.13404463773E+03  0.32240193526E+03  0.46999998093E+01 0. -1.
</event>
<event>
 5   0  0.5755078E-02  0.5989975E+03  0.7818609E-02  0.9907488E-01
       -2   -1    0    0    0  501  0.00000000000E+00  0.00000000000E+00  0.86227585526E+02  0.86227585564E+02  0.25500000920E-02 0. -1.
        2   -1    0    0  501    0  0.00000000000E+00  0.00000000000E+00 -0.10402645314E+04  0.10402645314E+04  0.25500000920E-02 0.  1.
    10030    2    1    2    0    0  0.00000000000E+00  0.00000000000E+00 -0.95403694585E+03  0.11264921169E+04  0.59899749206E+03 0.  0.
        2    1    3    3  502    0 -0.82373898937E+02  0.91170475351E+02  0.36644595560E+02  0.12821989390E+03  0.25500000920E-02 0. -1.
       -2    1    3    3    0  502  0.82373898937E+02 -0.91170475351E+02 -0.99068154141E+03  0.99827222305E+03  0.25500000920E-02 0.  1.
</event>
<event>
 5   0  0.5755078E-02  0.5890287E+03  0.7818609E-02  0.9928433E-01
       -2   -1    0    0    0  501  0.00000000000E+00  0.00000000000E+00  0.58600006220E+02  0.58600006276E+02  0.25500000920E-02 0. -1.
        2   -1    0    0  501    0  0.00000000000E+00  0.00000000000E+00 -0.14801826319E+04  0.14801826319E+04  0.25500000920E-02 0.  1.
    10030    2    1    2    0    0  0.00000000000E+00  0.00000000000E+00 -0.14215826257E+04  0.15387826382E+04  0.58902873099E+03 0.  0.
        2    1    3    3  502    0  0.12892617516E+03 -0.25366621748E+03 -0.90923456820E+03  0.95272032021E+03  0.25500000920E-02 0. -1.
       -2    1    3    3    0  502 -0.12892617516E+03  0.25366621748E+03 -0.51234805750E+03  0.58606231798E+03  0.25500000920E-02 0.  1.
</event>
<event>
 5   0  0.5935451E-02  0.5758200E+03  0.7818609E-02  0.9956882E-01
        2   -1    0    0  501    0  0.00000000000E+00  0.00000000000E+00  0.12240933040E+04  0.12240933040E+04  0.25500000920E-02 0.  1.
       -2   -1    0    0    0  501  0.00000000000E+00  0.00000000000E+00 -0.67717197813E+02  0.67717197861E+02  0.25500000920E-02 0. -1.
    10030    2    1    2    0    0  0.00000000000E+00  0.00000000000E+00  0.11563761062E+04  0.12918105018E+04  0.57582000118E+03 0.  0.
        3    1    3    3  502    0  0.15911270844E+03  0.23001629305E+03  0.73146209553E+03  0.78310992616E+03  0.10100000352E+00 0.  1.
       -3    1    3    3    0  502 -0.15911270844E+03 -0.23001629305E+03  0.42491401063E+03  0.50870057567E+03  0.10100000352E+00 0. -1.
</event>
<event>
 5   0  0.3767635E-02  0.5822917E+03  0.7818609E-02  0.9942842E-01
       -1   -1    0    0    0  501  0.00000000000E+00  0.00000000000E+00  0.24671622689E+03  0.24671622694E+03  0.50400001928E-02 0. -1.
        1   -1    0    0  501    0  0.00000000000E+00  0.00000000000E+00 -0.34357658204E+03  0.34357658208E+03  0.50400001928E-02 0.  1.
    10030    2    1    2    0    0  0.00000000000E+00  0.00000000000E+00 -0.96860355157E+02  0.59029280902E+03  0.58229174130E+03 0.  0.
        2    1    3    3  502    0  0.17780349368E+02  0.16376926879E+03 -0.29179002551E+03  0.33507899549E+03  0.25500000920E-02 0.  1.
       -2    1    3    3    0  502 -0.17780349368E+02 -0.16376926879E+03  0.19492967036E+03  0.25521381353E+03  0.25500000920E-02 0. -1.
</event>
<event>
 5   0  0.5872632E-02  0.5989832E+03  0.7818609E-02  0.9907518E-01
        2   -1    0    0  501    0  0.00000000000E+00  0.00000000000E+00  0.25774233823E+03  0.25774233825E+03  0.25500000920E-02 0. -1.
       -2   -1    0    0    0  501  0.00000000000E+00  0.00000000000E+00 -0.34800341431E+03  0.34800341432E+03  0.25500000920E-02 0.  1.
    10030    2    1    2    0    0  0.00000000000E+00  0.00000000000E+00 -0.90261076077E+02  0.60574575257E+03  0.59898318415E+03 0.  0.
        1    1    3    3  502    0  0.22529945793E+03  0.11612104445E+02 -0.24433293482E+03  0.33255566418E+03  0.50400001928E-02 0.  1.
       -1    1    3    3    0  502 -0.22529945793E+03 -0.11612104445E+02  0.15407185874E+03  0.27319008839E+03  0.50400001928E-02 0. -1.
</event>
<event>
 5   0  0.3651984E-02  0.5977935E+03  0.7818609E-02  0.9909994E-01
       -1   -1    0    0    0  501  0.00000000000E+00  0.00000000000E+00  0.12486063872E+03  0.12486063882E+03  0.50400001928E-02 0. -1.
        1   -1    0    0  501    0  0.00000000000E+00  0.00000000000E+00 -0.71551189933E+03  0.71551189935E+03  0.50400001928E-02 0.  1.
    10030    2    1    2    0    0  0.00000000000E+00  0.00000000000E+00 -0.59065126061E+03  0.84037253817E+03  0.59779351890E+03 0.  0.
        1    1    3    3  502    0  0.86522840152E+02  0.11421614860E+03 -0.66408180733E+03  0.67936453935E+03  0.50400001928E-02 0.  1.
       -1    1    3    3    0  502 -0.86522840152E+02 -0.11421614860E+03  0.73430546715E+02  0.16100799882E+03  0.50400001928E-02 0. -1.
</event>
<event>
 5   0  0.3640827E-02  0.5916438E+03  0.7818609E-02  0.9922896E-01
       -1   -1    0    0    0  501  0.00000000000E+00  0.00000000000E+00  0.19404151251E+03  0.19404151258E+03  0.50400001928E-02 0.  1.
        1   -1    0    0  501    0  0.00000000000E+00  0.00000000000E+00 -0.45098911011E+03  0.45098911014E+03  0.50400001928E-02 0. -1.
    10030    2    1    2    0    0  0.00000000000E+00  0.00000000000E+00 -0.25694759760E+03  0.64503062272E+03  0.59164384247E+03 0.  0.
        3    1    3    3  502    0 -0.10766994913E+02  0.28622341414E+03 -0.47834543084E+02  0.29039270772E+03  0.10100000352E+00 0.  1.
       -3    1    3    3    0  502  0.10766994913E+02 -0.28622341414E+03 -0.20911305452E+03  0.35463791500E+03  0.10100000352E+00 0. -1.
</event>
<event>
 5   0  0.3478183E-02  0.5840616E+03  0.7818609E-02  0.9939036E-01
       -1   -1    0    0    0  501  0.00000000000E+00  0.00000000000E+00  0.19251887274E+03  0.19251887281E+03  0.50400001928E-02 0. -1.
        1   -1    0    0  501    0  0.00000000000E+00  0.00000000000E+00 -0.44297994979E+03  0.44297994982E+03  0.50400001928E-02 0.  1.
    10030    2    1    2    0    0  0.00000000000E+00  0.00000000000E+00 -0.25046107705E+03  0.63549882262E+03  0.58406164267E+03 0.  0.
        4    1    3    3  502    0  0.17449173762E+03  0.16493470563E+02  0.12892359202E+03  0.21758287283E+03  0.12699999809E+01 0. -1.
       -4    1    3    3    0  502 -0.17449173762E+03 -0.16493470563E+02 -0.37938466907E+03  0.41791594980E+03  0.12699999809E+01 0.  1.
</event>
<event>
 5   0  0.6007360E-02  0.6013550E+03  0.7818609E-02  0.9902599E-01
        2   -1    0    0  501    0  0.00000000000E+00  0.00000000000E+00  0.73329563861E+03  0.73329563861E+03  0.25500000920E-02 0. -1.
       -2   -1    0    0    0  501  0.00000000000E+00  0.00000000000E+00 -0.12328854008E+03  0.12328854010E+03  0.25500000920E-02 0.  1.
    10030    2    1    2    0    0  0.00000000000E+00  0.00000000000E+00  0.61000709853E+03  0.85658417872E+03  0.60135496586E+03 0.  0.
        4    1    3    3  502    0 -0.51772116790E+02  0.27982902374E+02 -0.11500082420E+03  0.12919054675E+03  0.12699999809E+01 0.  1.
       -4    1    3    3    0  502  0.51772116790E+02 -0.27982902374E+02  0.72500792273E+03  0.72739363197E+03  0.12699999809E+01 0. -1.
</event>
<event>
 5   0  0.3640827E-02  0.6014045E+03  0.7818609E-02  0.9902496E-01
       -1   -1    0    0    0  501  0.00000000000E+00  0.00000000000E+00  0.29847919088E+03  0.29847919092E+03  0.50400001928E-02 0. -1.
        1   -1    0    0  501    0  0.00000000000E+00  0.00000000000E+00 -0.30294191125E+03  0.30294191129E+03  0.50400001928E-02 0.  1.
    10030    2    1    2    0    0  0.00000000000E+00  0.00000000000E+00 -0.44627203711E+01  0.60142110221E+03  0.60140454463E+03 0.  0.
        3    1    3    3  502    0 -0.14815779742E+03  0.22193180940E+03 -0.14086196143E+03  0.30173923069E+03  0.10100000352E+00 0.  1.
       -3    1    3    3    0  502  0.14815779742E+03 -0.22193180940E+03  0.13639924105E+03  0.29968187152E+03  0.10100000352E+00 0. -1.
</event>
<event>
 5   0  0.5999117E-02  0.6003684E+03  0.7818609E-02  0.9904642E-01
       -2   -1    0    0    0  501  0.00000000000E+00  0.00000000000E+00  0.33185440193E+03  0.33185440194E+03  0.25500000920E-02 0. -1.
        2   -1    0    0  501    0  0.00000000000E+00  0.00000000000E+00 -0.27153644210E+03  0.27153644211E+03  0.25500000920E-02 0.  1.
    10030    2    1    2    0    0  0.00000000000E+00  0.00000000000E+00  0.60317959835E+02  0.60339084406E+03  0.60036843222E+03 0.  0.
        5    1    3    3  502    0 -0.40399880003E+02  0.23537602520E+03 -0.15256512164E+03  0.28342940900E+03  0.46999998093E+01 0. -1.
       -5    1    3    3    0  502  0.40399880003E+02 -0.23537602520E+03  0.21288308148E+03  0.31996143506E+03  0.46999998093E+01 0.  1.
</event>
<event>
 5   0  0.3640827E-02  0.5950315E+03  0.7818609E-02  0.9915768E-01
        1   -1    0    0  501    0  0.00000000000E+00  0.00000000000E+00  0.84765190713E+02  0.84765190862E+02  0.50400001928E-02 0.  1.
       -1   -1    0    0    0  501  0.00000000000E+00  0.00000000000E+00 -0.10442450026E+04  0.10442450026E+04  0.50400001928E-02 0. -1.
    10030    2    1    2    0    0  0.00000000000E+00  0.00000000000E+00 -0.95947981187E+03  0.11290101935E+04  0.59503151811E+03 0.  0.
        3    1    3    3  502    0 -0.18513013317E+03  0.72300758799E+02 -0.59668982983E+02  0.20751135791E+03  0.10100000352E+00 0.  1.
       -3    1    3    3    0  502  0.18513013317E+03 -0.72300758799E+02 -0.89981082889E+03  0.92149883555E+03  0.10100000352E+00 0. -1.
</event>
<event>
 5   0  0.5872632E-02  0.5921355E+03  0.7818609E-02  0.9921858E-01
        2   -1    0    0  501    0  0.00000000000E+00  0.00000000000E+00  0.25593232065E+03  0.25593232066E+03  0.25500000920E-02 0.  1.
       -2   -1    0    0    0  501  0.00000000000E+00  0.00000000000E+00 -0.34249726396E+03  0.34249726397E+03  0.25500000920E-02 0. -1.
    10030    2    1    2    0    0  0.00000000000E+00  0.00000000000E+00 -0.86564943308E+02  0.59842958463E+03  0.59213552364E+03 0.  0.
        1    1    3    3  502    0 -0.87129970246E+02  0.21670194196E+03 -0.22716358997E+03  0.32581384255E+03  0.50400001928E-02 0. -1.
       -1    1    3    3    0  502  0.87129970246E+02 -0.21670194196E+03  0.14059864666E+03  0.27261574208E+03  0.50400001928E-02 0.  1.
</event>
<event>
 5   0  0.3640827E-02  0.5962039E+03  0.7818609E-02  0.9913313E-01
       -1   -1    0    0    0  501  0.00000000000E+00  0.00000000000E+00  0.40812091230E+02  0.40812091541E+02  0.50400001928E-02 0.  1.
        1   -1    0    0  501    0  0.00000000000E+00  0.00000000000E+00 -0.21774131620E+04  0.21774131620E+04  0.50400001928E-02 0. -1.
    10030    2    1    2    0    0  0.00000000000E+00  0.00000000000E+00 -0.21366010708E+04  0.22182252536E+04  0.59620394150E+03 0.  0.
        3    1    3    3  502    0 -0.15357811360E+03  0.92487740473E+02 -0.18217275166E+03  0.25559174628E+03  0.10100000352E+00 0.  1.
       -3    1    3    3    0  502  0.15357811360E+03 -0.92487740473E+02 -0.19544283191E+04  0.19626335073E+04  0.10100000352E+00 0. -1.
</event>
<event>
 5   0  0.5999117E-02  0.6022577E+03  0.7818609E-02  0.9900733E-01
       -2   -1    0    0    0  501  0.00000000000E+00  0.00000000000E+00  0.17068733665E+03  0.17068733667E+03  0.25500000920E-02 0. -1.
        2   -1    0    0  501    0  0.00000000000E+00  0.00000000000E+00 -0.53125541498E+03  0.53125541499E+03  0.25500000920E-02 0.  1.
    10030    2    1    2    0    0  0.00000000000E+00  0.00000000000E+00 -0.36056807833E+03  0.70194275166E+03  0.60225765873E+03 0.  0.
        5    1    3    3  502    0 -0.15519064278E+03 -0.23658123437E+03 -0.60277083845E+02  0.28932720732E+03  0.46999998093E+01 0. -1.
       -5    1    3    3    0  502  0.15519064278E+03  0.23658123437E+03 -0.30029099448E+03  0.41261554434E+03  0.46999998093E+01 0.  1.
</event>
<event>
 5   0  0.5935451E-02  0.5998923E+03  0.7818609E-02  0.9905630E-01
       -2   -1    0    0    0  501  0.00000000000E+00  0.00000000000E+00  0.24094408266E+03  0.24094408268E+03  0.25500000920E-02 0.  1.
        2   -1    0    0  501    0  0.00000000000E+00  0.00000000000E+00 -0.37339657908E+03  0.37339657909E+03  0.25500000920E-02 0. -1.
    10030    2    1    2    0    0  0.00000000000E+00  0.00000000000E+00 -0.13245249641E+03  0.61434066176E+03  0.59989231108E+03 0.  0.
        3    1    3    3  502    0 -0.64441149519E+02 -0.14026340646E+03 -0.32959970518E+03  0.36395392675E+03  0.10100000352E+00 0. -1.
       -3    1    3    3    0  502  0.64441149519E+02  0.14026340646E+03  0.19714720877E+03  0.25038673501E+03  0.10100000352E+00 0.  1.
</event>
<event>
 5   0  0.2388000E-02  0.5894542E+03  0.7818609E-02  0.9927530E-01
        3   -1    0    0  501    0  0.00000000000E+00  0.00000000000E+00  0.92563260888E+03  0.92563261439E+03  0.10100000352E+00 0. -1.
       -3   -1    0    0    0  501  0.00000000000E+00  0.00000000000E+00 -0.93842887892E+02  0.93842942243E+02  0.10100000352E+00 0.  1.
    10030    2    1    2    0    0  0.00000000000E+00  0.00000000000E+00  0.83178972098E+03  0.10194755566E+04  0.58945421419E+03 0.  0.
        1    1    3    3  502    0  0.10354505638E+03  0.24291737828E+03  0.64228187480E+03  0.69444685765E+03  0.50400001928E-02 0. -1.
       -1    1    3    3    0  502 -0.10354505638E+03 -0.24291737828E+03  0.18950784618E+03  0.32502869898E+03  0.50400001928E-02 0.  1.
</event>
<event>
 5   0  0.5935451E-02  0.5988654E+03  0.7818609E-02  0.9907763E-01
        2   -1    0    0  501    0  0.00000000000E+00  0.00000000000E+00  0.75405932710E+03  0.75405932710E+03  0.25500000920E-02 0. -1.
       -2   -1    0    0    0  501  0.00000000000E+00  0.00000000000E+00 -0.11890304880E+03  0.11890304882E+03  0.25500000920E-02 0.  1.
    10030    2    1    2    0    0  0.00000000000E+00  0.00000000000E+00  0.63515627830E+03  0.87296237592E+03  0.59886543724E+03 0.  0.
        3    1    3    3  502    0 -0.28231942744E+03  0.77351401283E+02  0.40945268182E+03  0.50332793211E+03  0.10100000352E+00 0.  1.
       -3    1    3    3    0  502  0.28231942744E+03 -0.77351401283E+02  0.22570359648E+03  0.36963444382E+03  0.10100000352E+00 0. -1.
</event>
<event>
 5   0  0.3478183E-02  0.5991877E+03  0.7818609E-02  0.9907093E-01
       -1   -1    0    0    0  501  0.00000000000E+00  0.00000000000E+00  0.75435061753E+03  0.75435061754E+03  0.50400001928E-02 0. -1.
        1   -1    0    0  501    0  0.00000000000E+00  0.00000000000E+00 -0.11898507456E+03  0.11898507467E+03  0.50400001928E-02 0.  1.
    10030    2    1    2    0    0  0.00000000000E+00  0.00000000000E+00  0.63536554297E+03  0.87333569221E+03  0.59918766517E+03 0.  0.
        4    1    3    3  502    0 -0.16457555397E+03  0.95751108124E+02  0.65481570385E+03  0.68193739198E+03  0.12699999809E+01 0. -1.
       -4    1    3    3    0  502  0.16457555397E+03 -0.95751108124E+02 -0.19450160887E+02  0.19139830023E+03  0.12699999809E+01 0.  1.
</event>
<event>
 5   0  0.3478183E-02  0.6075082E+03  0.7818609E-02  0.9889950E-01
       -1   -1    0    0    0  501  0.00000000000E+00  0.00000000000E+00  0.11505401812E+04  0.11505401812E+04  0.50400001928E-02 0.  1.
        1   -1    0    0  501    0  0.00000000000E+00  0.00000000000E+00 -0.80194123881E+02  0.80194124040E+02  0.50400001928E-02 0. -1.
    10030    2    1    2    0    0  0.00000000000E+00  0.00000000000E+00  0.10703460574E+04  0.12307343053E+04  0.60750822852E+03 0.  0.
        4    1    3    3  502    0 -0.19037265923E+03 -0.23545693449E+03  0.58409823681E+03  0.65791646926E+03  0.12699999809E+01 0. -1.
       -4    1    3    3    0  502  0.19037265923E+03  0.23545693449E+03  0.48624782054E+03  0.57281783602E+03  0.12699999809E+01 0.  1.
</event>
<event>
 5   0  0.3651984E-02  0.6061588E+03  0.7818609E-02  0.9892710E-01
        1   -1    0    0  501    0  0.00000000000E+00  0.00000000000E+00  0.13120020423E+04  0.13120020423E+04  0.50400001928E-02 0.  1.
       -1   -1    0    0    0  501  0.00000000000E+00  0.00000000000E+00 -0.70012932015E+02  0.70012932197E+02  0.50400001928E-02 0. -1.
    10030    2    1    2    0    0  0.00000000000E+00  0.00000000000E+00  0.12419891103E+04  0.13820149745E+04  0.60615875783E+03 0.  0.
        1    1    3    3  502    0 -0.20687046544E+03  0.12233038107E+03  0.10419968260E+04  0.10693537754E+04  0.50400001928E-02 0.  1.
       -1    1    3    3    0  502  0.20687046544E+03 -0.12233038107E+03  0.19999228427E+03  0.31266119906E+03  0.50400001928E-02 0. -1.
</event>
<event>
 5   0  0.3703280E-02  0.5915860E+03  0.7818609E-02  0.9923018E-01
       -1   -1    0    0    0  501  0.00000000000E+00  0.00000000000E+00  0.86495262275E+02  0.86495262422E+02  0.50400001928E-02 0.  1.
        1   -1    0    0  501    0  0.00000000000E+00  0.00000000000E+00 -0.10115410813E+04  0.10115410813E+04  0.50400001928E-02 0. -1.
    10030    2    1    2    0    0  0.00000000000E+00  0.00000000000E+00 -0.92504581904E+03  0.10980363437E+04  0.59158604181E+03 0.  0.
        5    1    3    3  502    0  0.19484219048E+03  0.26774508262E+02 -0.52536974902E+02  0.20362361655E+03  0.46999998093E+01 0.  1.
       -5    1    3    3    0  502 -0.19484219048E+03 -0.26774508262E+02 -0.87250884413E+03  0.89441272720E+03  0.46999998093E+01 0. -1.
</event>
<event>
 5   0  0.3640827E-02  0.6097802E+03  0.7818609E-02  0.9885320E-01
       -1   -1    0    0    0  501  0.00000000000E+00  0.00000000000E+00  0.58933178590E+03  0.58933178592E+03  0.50400001928E-02 0. -1.
        1   -1    0    0  501    0  0.00000000000E+00  0.00000000000E+00 -0.15773453366E+03  0.15773453374E+03  0.50400001928E-02 0.  1.
    10030    2    1    2    0    0  0.00000000000E+00  0.00000000000E+00  0.43159725224E+03  0.74706631966E+03  0.60978020453E+03 0.  0.
        3    1    3    3  502    0 -0.35996426438E+02  0.16965406859E+03  0.52301271618E+03  0.55101774672E+03  0.10100000352E+00 0. -1.
       -3    1    3    3    0  502  0.35996426438E+02 -0.16965406859E+03 -0.91415463947E+02  0.19604857295E+03  0.10100000352E+00 0.  1.
</event>
<event>
 5   0  0.3767635E-02  0.6135237E+03  0.7818609E-02  0.9877739E-01
        1   -1    0    0  501    0  0.00000000000E+00  0.00000000000E+00  0.75937141138E+03  0.75937141140E+03  0.50400001928E-02 0. -1.
       -1   -1    0    0    0  501  0.00000000000E+00  0.00000000000E+00 -0.12392200590E+03  0.12392200600E+03  0.50400001928E-02 0.  1.
    10030    2    1    2    0    0  0.00000000000E+00  0.00000000000E+00  0.63544940548E+03  0.88329341740E+03  0.61352368683E+03 0.  0.
        2    1    3    3  502    0  0.27066475913E+03  0.14074506838E+03  0.27142429221E+03  0.40833776768E+03  0.25500000920E-02 0.  1.
       -2    1    3    3    0  502 -0.27066475913E+03 -0.14074506838E+03  0.36402511327E+03  0.47495564972E+03  0.25500000920E-02 0. -1.
</event>
<event>
 5   0  0.2388000E-02  0.5985379E+03  0.7818609E-02  0.9908444E-01
       -4   -1    0    0    0  501  0.00000000000E+00  0.00000000000E+00  0.56612803903E+03  0.56612946352E+03  0.12699999809E+01 0. -1.
        4   -1    0    0  501    0  0.00000000000E+00  0.00000000000E+00 -0.15819664258E+03  0.15820174027E+03  0.12699999809E+01 0.  1.
    10030    2    1    2    0    0  0.00000000000E+00  0.00000000000E+00  0.40793139645E+03  0.72433120379E+03  0.59853794247E+03 0.  0.
        5    1    3    3  502    0  0.21523570789E+03  0.16227752914E+03  0.46739730101E+02  0.27361852785E+03  0.46999998093E+01 0.  1.
       -5    1    3    3    0  502 -0.21523570789E+03 -0.16227752914E+03  0.36119166634E+03  0.45071267594E+03  0.46999998093E+01 0. -1.
</event>
<event>
 5   0  0.5755078E-02  0.6085915E+03  0.7818609E-02  0.9887740E-01
       -2   -1    0    0    0  501  0.00000000000E+00  0.00000000000E+00  0.48325907422E+02  0.48325907489E+02  0.25500000920E-02 0. -1.
        2   -1    0    0  501    0  0.00000000000E+00  0.00000000000E+00 -0.19160717641E+04  0.19160717641E+04  0.25500000920E-02 0.  1.
    10030    2    1    2    0    0  0.00000000000E+00  0.00000000000E+00 -0.18677458566E+04  0.19643976716E+04  0.60859151079E+03 0.  0.
        2    1    3    3  502    0  0.20802594465E+03  0.49966298934E+02 -0.23541538560E+03  0.31810663065E+03  0.25500000920E-02 0. -1.
       -2    1    3    3    0  502 -0.20802594465E+03 -0.49966298934E+02 -0.16323304710E+04  0.16462910409E+04  0.25500000920E-02 0.  1.
</event>
<event>
 5   0  0.3640827E-02  0.6016033E+03  0.7818609E-02  0.9902085E-01
       -1   -1    0    0    0  501  0.00000000000E+00  0.00000000000E+00  0.61918615467E+02  0.61918615673E+02  0.50400001928E-02 0. -1.
        1   -1    0    0  501    0  0.00000000000E+00  0.00000000000E+00 -0.14612992149E+04  0.14612992149E+04  0.50400001928E-02 0.  1.
    10030    2    1    2    0    0  0.00000000000E+00  0.00000000000E+00 -0.13993805994E+04  0.15232178306E+04  0.60160327237E+03 0.  0.
        3    1    3    3  502    0 -0.16367369985E+03 -0.22667383304E+03 -0.98062633059E+03  0.10197049167E+04  0.10100000352E+00 0.  1.
       -3    1    3    3    0  502  0.16367369985E+03  0.22667383304E+03 -0.41875426883E+03  0.50351291391E+03  0.10100000352E+00 0. -1.
</event>
<event>
 5   0  0.3651984E-02  0.5967227E+03  0.7818609E-02  0.9912229E-01
        1   -1    0    0  501    0  0.00000000000E+00  0.00000000000E+00  0.25252505122E+03  0.25252505127E+03  0.50400001928E-02 0.  1.
       -1   -1    0    0    0  501  0.00000000000E+00  0.00000000000E+00 -0.35251748742E+03  0.35251748746E+03  0.50400001928E-02 0. -1.
    10030    2    1    2    0    0  0.00000000000E+00  0.00000000000E+00 -0.99992436204E+02  0.60504253873E+03  0.59672270476E+03 0.  0.
        1    1    3    3  502    0  0.34516354896E+01  0.31490615189E+02  0.25081496180E+03  0.25280766943E+03  0.50400001928E-02 0.  1.
       -1    1    3    3    0  502 -0.34516354896E+01 -0.31490615189E+02 -0.35080739800E+03  0.35223486930E+03  0.50400001928E-02 0. -1.
</event>
<event>
 5   0  0.5755078E-02  0.6064808E+03  0.7818609E-02  0.9892051E-01
       -2   -1    0    0    0  501  0.00000000000E+00  0.00000000000E+00  0.20054197180E+03  0.20054197182E+03  0.25500000920E-02 0. -1.
        2   -1    0    0  501    0  0.00000000000E+00  0.00000000000E+00 -0.45853113455E+03  0.45853113455E+03  0.25500000920E-02 0.  1.
    10030    2    1    2    0    0  0.00000000000E+00  0.00000000000E+00 -0.25798916274E+03  0.65907310637E+03  0.60648079232E+03 0.  0.
        2    1    3    3  502    0 -0.16005692405E+03  0.45812352058E+02  0.14643570325E+03  0.22172145978E+03  0.25500000920E-02 0. -1.
       -2    1    3    3    0  502  0.16005692405E+03 -0.45812352058E+02 -0.40442486599E+03  0.43735164659E+03  0.25500000920E-02 0.  1.
</event>
<event>
 5   0  0.3767635E-02  0.6032246E+03  0.7818609E-02  0.9898739E-01
       -1   -1    0    0    0  501  0.00000000000E+00  0.00000000000E+00  0.14779207042E+03  0.14779207051E+03  0.50400001928E-02 0. -1.
        1   -1    0    0  501    0  0.00000000000E+00  0.00000000000E+00 -0.61552671849E+03  0.61552671851E+03  0.50400001928E-02 0.  1.
    10030    2    1    2    0    0  0.00000000000E+00  0.00000000000E+00 -0.46773464806E+03  0.76331878901E+03  0.60322456238E+03 0.  0.
        2    1    3    3  502    0 -0.17680781982E+03 -0.92979279651E+02 -0.51981302480E+03  0.55687676586E+03  0.25500000920E-02 0.  1.
       -2    1    3    3    0  502  0.17680781982E+03  0.92979279651E+02  0.52078376737E+02  0.20644202315E+03  0.25500000920E-02 0. -1.
</event>
<event>
 5   0  0.3640827E-02  0.5899084E+03  0.7818609E-02  0.9926567E-01
        1   -1    0    0  501    0  0.00000000000E+00  0.00000000000E+00  0.62464547182E+02  0.62464547385E+02  0.50400001928E-02 0. -1.
       -1   -1    0    0    0  501  0.00000000000E+00  0.00000000000E+00 -0.13927579031E+04  0.13927579031E+04  0.50400001928E-02 0.  1.
    10030    2    1    2    0    0  0.00000000000E+00  0.00000000000E+00 -0.13302933559E+04  0.14552224505E+04  0.58990844004E+03 0.  0.
        3    1    3    3  502    0  0.28050569639E+03 -0.69395497618E+02 -0.51923018213E+03  0.59422148483E+03  0.10100000352E+00 0. -1.
       -3    1    3    3    0  502 -0.28050569639E+03  0.69395497618E+02 -0.81106317381E+03  0.86100096569E+03  0.10100000352E+00 0.  1.
</event>
<event>
 5   0  0.5872632E-02  0.5986711E+03  0.7818609E-02  0.9908167E-01
       -2   -1    0    0    0  501  0.00000000000E+00  0.00000000000E+00  0.54632901546E+03  0.54632901547E+03  0.25500000920E-02 0.  1.
        2   -1    0    0  501    0  0.00000000000E+00  0.00000000000E+00 -0.16400698134E+03  0.16400698136E+03  0.25500000920E-02 0. -1.
    10030    2    1    2    0    0  0.00000000000E+00  0.00000000000E+00  0.38232203412E+03  0.71033599683E+03  0.59867110388E+03 0.  0.
        1    1    3    3  502    0 -0.13997643286E+03 -0.13291480979E+03  0.46261785376E+03  0.50127340550E+03  0.50400001928E-02 0.  1.
       -1    1    3    3    0  502  0.13997643286E+03  0.13291480979E+03 -0.80295819637E+02  0.20906259133E+03  0.50400001928E-02 0. -1.
</event>
<event>
 5   0  0.5755078E-02  0.6023868E+03  0.7818609E-02  0.9900467E-01
        2   -1    0    0  501    0  0.00000000000E+00  0.00000000000E+00  0.21611061399E+03  0.21611061401E+03  0.25500000920E-02 0. -1.
       -2   -1    0    0    0  501  0.00000000000E+00  0.00000000000E+00 -0.41977330566E+03  0.41977330566E+03  0.25500000920E-02 0.  1.
    10030    2    1    2    0    0  0.00000000000E+00  0.00000000000E+00 -0.20366269166E+03  0.63588391967E+03  0.60238680872E+03 0.  0.
        2    1    3    3  502    0  0.59140940858E+02  0.18251252901E+03  0.14326283389E+03  0.23944250607E+03  0.25500000920E-02 0. -1.
       -2    1    3    3    0  502 -0.59140940858E+02 -0.18251252901E+03 -0.34692552556E+03  0.39644141360E+03  0.25500000920E-02 0.  1.
</event>
<event>
 5   0  0.6007360E-02  0.6008566E+03  0.7818609E-02  0.9903630E-01
       -2   -1    0    0    0  501  0.00000000000E+00  0.00000000000E+00  0.11300957886E+03  0.11300957889E+03  0.25500000920E-02 0.  1.
        2   -1    0    0  501    0  0.00000000000E+00  0.00000000000E+00 -0.79866826919E+03  0.79866826920E+03  0.25500000920E-02 0. -1.
    10030    2    1    2    0    0  0.00000000000E+00  0.00000000000E+00 -0.68565869033E+03  0.91167784808E+03  0.60085660441E+03 0.  0.
        4    1    3    3  502    0 -0.92974617456E+02 -0.10960279009E+03  0.57456751308E+02  0.15478999405E+03  0.12699999809E+01 0.  1.
       -4    1    3    3    0  502  0.92974617456E+02  0.10960279009E+03 -0.74311544164E+03  0.75688785404E+03  0.12699999809E+01 0. -1.
</event>
<event>
 5   0  0.5999117E-02  0.6112044E+03  0.7818609E-02  0.9882429E-01
        2   -1    0    0  501    0  0.00000000000E+00  0.00000000000E+00  0.15015846577E+04  0.15015846577E+04  0.25500000920E-02 0. -1.
       -2   -1    0    0    0  501  0.00000000000E+00  0.00000000000E+00 -0.62196106776E+02  0.62196106828E+02  0.25500000920E-02 0.  1.
    10030    2    1    2    0    0  0.00000000000E+00  0.00000000000E+00  0.14393885509E+04  0.15637807645E+04  0.61120444941E+03 0.  0.
        5    1    3    3  502    0  0.16659084848E+03 -0.76967717355E+02  0.94586320625E+02  0.20650714844E+03  0.46999998093E+01 0.  1.
       -5    1    3    3    0  502 -0.16659084848E+03  0.76967717355E+02  0.13448022303E+04  0.13572736161E+04  0.46999998093E+01 0. -1.
</event>
<event>
 5   0  0.6007360E-02  0.6215784E+03  0.7818609E-02  0.9861622E-01
       -2   -1    0    0    0  501  0.00000000000E+00  0.00000000000E+00  0.76739456198E+02  0.76739456240E+02  0.25500000920E-02 0. -1.
        2   -1    0    0  501    0  0.00000000000E+00  0.00000000000E+00 -0.12586735620E+04  0.12586735620E+04  0.25500000920E-02 0.  1.
    10030    2    1    2    0    0  0.00000000000E+00  0.00000000000E+00 -0.11819341058E+04  0.13354130183E+04  0.62157839316E+03 0.  0.
        4    1    3    3  502    0  0.10763660415E+03  0.15722953873E+03 -0.63479902139E+02  0.20084341483E+03  0.12699999809E+01 0. -1.
       -4    1    3    3    0  502 -0.10763660415E+03 -0.15722953873E+03 -0.11184542037E+04  0.11345696034E+04  0.12699999809E+01 0.  1.
</event>
<event>
 5   0  0.5872632E-02  0.6046338E+03  0.7818609E-02  0.9895839E-01
       -2   -1    0    0    0  501  0.00000000000E+00  0.00000000000E+00  0.21646814420E+03  0.21646814421E+03  0.25500000920E-02 0. -1.
        2   -1    0    0  501    0  0.00000000000E+00  0.00000000000E+00 -0.42221225443E+03  0.42221225444E+03  0.25500000920E-02 0.  1.
    10030    2    1    2    0    0  0.00000000000E+00  0.00000000000E+00 -0.20574411023E+03  0.63868039865E+03  0.60463378397E+03 0.  0.
        1    1    3    3  502    0 -0.11424740270E+03  0.14237150408E+03  0.15168184960E+03  0.23733836125E+03  0.50400001928E-02 0. -1.
       -1    1    3    3    0  502  0.11424740270E+03 -0.14237150408E+03 -0.35742595983E+03  0.40134203740E+03  0.50400001928E-02 0.  1.
</event>
<event>
 5   0  0.3767635E-02  0.5706024E+03  0.7818609E-02  0.9968347E-01
        1   -1    0    0  501    0  0.00000000000E+00  0.00000000000E+00  0.28688322548E+03  0.28688322552E+03  0.50400001928E-02 0. -1.
       -1   -1    0    0    0  501  0.00000000000E+00  0.00000000000E+00 -0.28372787839E+03  0.28372787844E+03  0.50400001928E-02 0.  1.
    10030    2    1    2    0    0  0.00000000000E+00  0.00000000000E+00  0.31553470866E+01  0.57061110396E+03  0.57060237972E+03 0.  0.
        2    1    3    3  502    0  0.63854199491E+02  0.26966124768E+03 -0.66263039653E+02  0.28493040857E+03  0.25500000920E-02 0. -1.
       -2    1    3    3    0  502 -0.63854199491E+02 -0.26966124768E+03  0.69418386740E+02  0.28568069539E+03  0.25500000920E-02 0.  1.
</event>
<event>
 5   0  0.5755078E-02  0.6029736E+03  0.7818609E-02  0.9899256E-01
        2   -1    0    0  501    0  0.00000000000E+00  0.00000000000E+00  0.13748569858E+04  0.13748569858E+04  0.25500000920E-02 0.  1.
       -2   -1    0    0    0  501  0.00000000000E+00  0.00000000000E+00 -0.66111822132E+02  0.66111822181E+02  0.25500000920E-02 0. -1.
    10030    2    1    2    0    0  0.00000000000E+00  0.00000000000E+00  0.13087451637E+04  0.14409688080E+04  0.60297363306E+03 0.  0.
        2    1    3    3  502    0 -0.87568705234E+02 -0.15152345822E+03  0.12410438702E+04  0.12533225939E+04  0.25500000920E-02 0.  1.
       -2    1    3    3    0  502  0.87568705234E+02  0.15152345822E+03  0.67701293459E+02  0.18764621411E+03  0.25500000920E-02 0. -1.
</event>
<event>
 5   0  0.5935451E-02  0.5847092E+03  0.7818609E-02  0.9937647E-01
       -2   -1    0    0    0  501  0.00000000000E+00  0.00000000000E+00  0.57451644751E+02  0.57451644807E+02  0.25500000920E-02 0.  1.
        2   -1    0    0  501    0  0.00000000000E+00  0.00000000000E+00 -0.14877071241E+04  0.14877071241E+04  0.25500000920E-02 0. -1.
    10030    2    1    2    0    0  0.00000000000E+00  0.00000000000E+00 -0.14302554794E+04  0.15451587689E+04  0.58470923110E+03 0.  0.
        3    1    3    3  502    0 -0.92031023916E+02  0.20636687984E+03 -0.22489526269E+03  0.31880227075E+03  0.10100000352E+00 0.  1.
       -3    1    3    3    0  502  0.92031023916E+02 -0.20636687984E+03 -0.12053602167E+04  0.12263564982E+04  0.10100000352E+00 0. -1.
</event>
<event>
 5   0  0.5999117E-02  0.5968246E+03  0.7818609E-02  0.9912016E-01
        2   -1    0    0  501    0  0.00000000000E+00  0.00000000000E+00  0.60889970229E+03  0.60889970230E+03  0.25500000920E-02 0.  1.
       -2   -1    0    0    0  501  0.00000000000E+00  0.00000000000E+00 -0.14624722362E+03  0.14624722365E+03  0.25500000920E-02 0. -1.
    10030    2    1    2    0    0  0.00000000000E+00  0.00000000000E+00  0.46265247867E+03  0.75514692595E+03  0.59682456698E+03 0.  0.
        5    1    3    3  502    0  0.15184098756E+03  0.19951146761E+03  0.43600092811E+03  0.50297058614E+03  0.46999998093E+01 0.  1.
       -5    1    3    3    0  502 -0.15184098756E+03 -0.19951146761E+03  0.26651550559E+02  0.25217633980E+03  0.46999998093E+01 0. -1.
</event>
<event>
 5   0  0.5872632E-02  0.6086154E+03  0.7818609E-02  0.9887691E-01
       -2   -1    0    0    0  501  0.00000000000E+00  0.00000000000E+00  0.78809764412E+02  0.78809764453E+02  0.25500000920E-02 0.  1.
        2   -1    0    0  501    0  0.00000000000E+00  0.00000000000E+00 -0.11750216849E+04  0.11750216849E+04  0.25500000920E-02 0. -1.
    10030    2    1    2    0    0  0.00000000000E+00  0.00000000000E+00 -0.10962119205E+04  0.12538314493E+04  0.60861541943E+03 0.  0.
        1    1    3    3  502    0 -0.20052645343E+03 -0.71497733716E+02 -0.99606341492E+03  0.10185603129E+04  0.50400001928E-02 0. -1.
       -1    1    3    3    0  502  0.20052645343E+03  0.71497733716E+02 -0.10014850555E+03  0.23527113644E+03  0.50400001928E-02 0.  1.
</event>
<event>
 5   0  0.3651984E-02  0.5927458E+03  0.7818609E-02  0.9920572E-01
       -1   -1    0    0    0  501  0.00000000000E+00  0.00000000000E+00  0.16319562221E+03  0.16319562228E+03  0.50400001928E-02 0.  1.
        1   -1    0    0  501    0  0.00000000000E+00  0.00000000000E+00 -0.53823072254E+03  0.53823072256E+03  0.50400001928E-02 0. -1.
    10030    2    1    2    0    0  0.00000000000E+00  0.00000000000E+00 -0.37503510033E+03  0.70142634485E+03  0.59274580620E+03 0.  0.
        1    1    3    3  502    0 -0.11051516595E+03 -0.19862531420E+02 -0.51208546117E+03  0.52425150608E+03  0.50400001928E-02 0. -1.
       -1    1    3    3    0  502  0.11051516595E+03  0.19862531420E+02  0.13705036084E+03  0.17717483876E+03  0.50400001928E-02 0.  1.
</event>
<event>
 5   0  0.5755078E-02  0.5539166E+03  0.7818609E-02  0.1000591E+00
        2   -1    0    0  501    0  0.00000000000E+00  0.00000000000E+00  0.22129864276E+04  0.22129864276E+04  0.25500000920E-02 0. -1.
       -2   -1    0    0    0  501  0.00000000000E+00  0.00000000000E+00 -0.34661715659E+02  0.34661715752E+02  0.25500000920E-02 0.  1.
    10030    2    1    2    0    0  0.00000000000E+00  0.00000000000E+00  0.21783247119E+04  0.22476481433E+04  0.55391662339E+03 0.  0.
        2    1    3    3  502    0  0.12180148106E+03 -0.19033236029E+03  0.17389567340E+04  0.17535770673E+04  0.25500000920E-02 0. -1.
       -2    1    3    3    0  502 -0.12180148106E+03  0.19033236029E+03  0.43936797788E+03  0.49407107601E+03  0.25500000920E-02 0.  1.
</event>
<event>
 5   0  0.3640827E-02  0.5976708E+03  0.7818609E-02  0.9910250E-01
        1   -1    0    0  501    0  0.00000000000E+00  0.00000000000E+00  0.35883197353E+03  0.35883197356E+03  0.50400001928E-02 0. -1.
       -1   -1    0    0    0  501  0.00000000000E+00  0.00000000000E+00 -0.24887023635E+03  0.24887023640E+03  0.50400001928E-02 0.  1.
    10030    2    1    2    0    0  0.00000000000E+00  0.00000000000E+00  0.10996173718E+03  0.60770220996E+03  0.59767080601E+03 0.  0.
        3    1    3    3  502    0 -0.22766286547E+03  0.20005007979E+02  0.25075343026E+03  0.33927551289E+03  0.10100000352E+00 0. -1.
       -3    1    3    3    0  502  0.22766286547E+03 -0.20005007979E+02 -0.14079169308E+03  0.26842669707E+03  0.10100000352E+00 0.  1.
</event>
<event>
 5   0  0.5999117E-02  0.5996606E+03  0.7818609E-02  0.9906110E-01
       -2   -1    0    0    0  501  0.00000000000E+00  0.00000000000E+00  0.13324846615E+03  0.13324846617E+03  0.25500000920E-02 0. -1.
        2   -1    0    0  501    0  0.00000000000E+00  0.00000000000E+00 -0.67466601295E+03  0.67466601295E+03  0.25500000920E-02 0.  1.
    10030    2    1    2    0    0  0.00000000000E+00  0.00000000000E+00 -0.54141754680E+03  0.80791447913E+03  0.59966060868E+03 0.  0.
        5    1    3    3  502    0 -0.13073077141E+03  0.15255481708E+03  0.29081681058E+02  0.20305501959E+03  0.46999998093E+01 0. -1.
       -5    1    3    3    0  502  0.13073077141E+03 -0.15255481708E+03 -0.57049922786E+03  0.60485945954E+03  0.46999998093E+01 0.  1.
</event>
<event>
 5   0  0.3767635E-02  0.6004452E+03  0.7818609E-02  0.9904483E-01
        1   -1    0    0  501    0  0.00000000000E+00  0.00000000000E+00  0.10956825096E+04  0.10956825096E+04  0.50400001928E-02 0.  1.
       -1   -1    0    0    0  501  0.00000000000E+00  0.00000000000E+00 -0.82262511432E+02  0.82262511587E+02  0.50400001928E-02 0. -1.
    10030    2    1    2    0    0  0.00000000000E+00  0.00000000000E+00  0.10134199982E+04  0.11779450212E+04  0.60044515178E+03 0.  0.
        2    1    3    3  502    0  0.27397744053E+03 -0.58732975557E+02  0.29523349684E+03  0.40703319030E+03  0.25500000920E-02 0. -1.
       -2    1    3    3    0  502 -0.27397744053E+03  0.58732975557E+02  0.71818650136E+03  0.77091183094E+03  0.25500000920E-02 0.  1.
</event>
<event>
 5   0  0.6007360E-02  0.6128614E+03  0.7818609E-02  0.9879076E-01
       -2   -1    0    0    0  501  0.00000000000E+00  0.00000000000E+00  0.36708934899E+03  0.36708934900E+03  0.25500000920E-02 0.  1.
        2   -1    0    0  501    0  0.00000000000E+00  0.00000000000E+00 -0.25579540178E+03  0.25579540180E+03  0.25500000920E-02 0. -1.
    10030    2    1    2    0    0  0.00000000000E+00  0.00000000000E+00  0.11129394720E+03  0.62288475079E+03  0.61286137918E+03 0.  0.
        4    1    3    3  502    0  0.60838582050E+02  0.79812921677E+02 -0.23861671793E+03  0.25886480353E+03  0.12699999809E+01 0. -1.
       -4    1    3    3    0  502 -0.60838582050E+02 -0.79812921677E+02  0.34991066513E+03  0.36401994726E+03  0.12699999809E+01 0.  1.
</event>
<event>
 5   0  0.3651984E-02  0.5966834E+03  0.7818609E-02  0.9912311E-01
        1   -1    0    0  501    0  0.00000000000E+00  0.00000000000E+00  0.31012526379E+03  0.31012526383E+03  0.50400001928E-02 0.  1.
       -1   -1    0    0    0  501  0.00000000000E+00  0.00000000000E+00 -0.28700585322E+03  0.28700585327E+03  0.50400001928E-02 0. -1.
    10030    2    1    2    0    0  0.00000000000E+00  0.00000000000E+00  0.23119410565E+02  0.59713111710E+03  0.59668338661E+03 0.  0.
        1    1    3    3  502    0 -0.29743972866E+03 -0.18329413108E+02 -0.26427150086E+01  0.29801567666E+03  0.50400001928E-02 0.  1.
       -1    1    3    3    0  502  0.29743972866E+03  0.18329413108E+02  0.25762125574E+02  0.29911544044E+03  0.50400001928E-02 0. -1.
</event>
<event>
 5   0  0.5872632E-02  0.5970444E+03  0.7818609E-02  0.9911557E-01
        2   -1    0    0  501    0  0.00000000000E+00  0.00000000000E+00  0.36291812758E+03  0.36291812759E+03  0.25500000920E-02 0. -1.
       -2   -1    0    0    0  501  0.00000000000E+00  0.00000000000E+00 -0.24555263144E+03  0.24555263145E+03  0.25500000920E-02 0.  1.
    10030    2    1    2    0    0  0.00000000000E+00  0.00000000000E+00  0.11736549614E+03  0.60847075904E+03  0.59704439108E+03 0.  0.
        1    1    3    3  502    0  0.99646101920E+02  0.23486795039E+03  0.21664325954E+03  0.33470375212E+03  0.50400001928E-02 0. -1.
       -1    1    3    3    0  502 -0.99646101920E+02 -0.23486795039E+03 -0.99277763400E+02  0.27376700693E+03  0.50400001928E-02 0.  1.
</event>
<event>
 5   0  0.3478183E-02  0.6034262E+03  0.7818609E-02  0.9898323E-01
       -1   -1    0    0    0  501  0.00000000000E+00  0.00000000000E+00  0.43180892300E+02  0.43180892594E+02  0.50400001928E-02 0.  1.
        1   -1    0    0  501    0  0.00000000000E+00  0.00000000000E+00 -0.21081265329E+04  0.21081265329E+04  0.50400001928E-02 0. -1.
    10030    2    1    2    0    0  0.00000000000E+00  0.00000000000E+00 -0.20649456406E+04  0.21513074255E+04  0.60342616812E+03 0.  0.
        4    1    3    3  502    0 -0.33874253941E+02 -0.68239367588E+02  0.83147225500E+01  0.76647399694E+02  0.12699999809E+01 0.  1.
       -4    1    3    3    0  502  0.33874253941E+02  0.68239367588E+02 -0.20732603631E+04  0.20746600258E+04  0.12699999809E+01 0. -1.
</event>
<event>
 5   0  0.2388000E-02  0.6013446E+03  0.7818609E-02  0.9902620E-01
        3   -1    0    0  501    0  0.00000000000E+00  0.00000000000E+00  0.89381569775E+03  0.89381570345E+03  0.10100000352E+00 0.  1.
       -3   -1    0    0    0  501  0.00000000000E+00  0.00000000000E+00 -0.10114367560E+03  0.10114372603E+03  0.10100000352E+00 0. -1.
    10030    2    1    2    0    0  0.00000000000E+00  0.00000000000E+00  0.79267202215E+03  0.99495942948E+03  0.60134460305E+03 0.  0.
        2    1    3    3  502    0  0.21184462622E+03  0.16657922295E+03  0.61693920617E+03  0.67323158519E+03  0.25500000920E-02 0.  1.
       -2    1    3    3    0  502 -0.21184462622E+03 -0.16657922295E+03  0.17573281597E+03  0.32172784429E+03  0.25500000920E-02 0. -1.
</event>
<event>
 5   0  0.5935451E-02  0.5995057E+03  0.7818609E-02  0.9906432E-01
       -2   -1    0    0    0  501  0.00000000000E+00  0.00000000000E+00  0.13394183484E+03  0.13394183486E+03  0.25500000920E-02 0. -1.
        2   -1    0    0  501    0  0.00000000000E+00  0.00000000000E+00 -0.67082669911E+03  0.67082669912E+03  0.25500000920E-02 0.  1.
    10030    2    1    2    0    0  0.00000000000E+00  0.00000000000E+00 -0.53688486427E+03  0.80476853398E+03  0.59950565952E+03 0.  0.
        3    1    3    3  502    0 -0.21298617507E+03 -0.15284258518E+03 -0.73321143740E+02  0.27221309104E+03  0.10100000352E+00 0. -1.
       -3    1    3    3    0  502  0.21298617507E+03  0.15284258518E+03 -0.46356372053E+03  0.53255544294E+03  0.10100000352E+00 0.  1.
</event>
<event>
 5   0  0.3640827E-02  0.6031898E+03  0.7818609E-02  0.9898810E-01
        1   -1    0    0  501    0  0.00000000000E+00  0.00000000000E+00  0.58014028178E+03  0.58014028180E+03  0.50400001928E-02 0. -1.
       -1   -1    0    0    0  501  0.00000000000E+00  0.00000000000E+00 -0.15678876258E+03  0.15678876266E+03  0.50400001928E-02 0.  1.
    10030    2    1    2    0    0  0.00000000000E+00  0.00000000000E+00  0.42335151920E+03  0.73692904446E+03  0.60318977756E+03 0.  0.
        3    1    3    3  502    0 -0.43066552741E+02 -0.45123275441E+02 -0.14882198611E+03  0.16136552204E+03  0.10100000352E+00 0.  1.
       -3    1    3    3    0  502  0.43066552741E+02  0.45123275441E+02  0.57217350532E+03  0.57556352242E+03  0.10100000352E+00 0. -1.
</event>
<event>
 5   0  0.5872632E-02  0.5998415E+03  0.7818609E-02  0.9905735E-01
        2   -1    0    0  501    0  0.00000000000E+00  0.00000000000E+00  0.56579798394E+03  0.56579798394E+03  0.25500000920E-02 0.  1.
       -2   -1    0    0    0  501  0.00000000000E+00  0.00000000000E+00 -0.15898332786E+03  0.15898332788E+03  0.25500000920E-02 0. -1.
    10030    2    1    2    0    0  0.00000000000E+00  0.00000000000E+00  0.40681465607E+03  0.72478131182E+03  0.59984146703E+03 0.  0.
        1    1    3    3  502    0 -0.27101484524E+03  0.56563710731E+02  0.34277458390E+03  0.44061651706E+03  0.50400001928E-02 0.  1.
       -1    1    3    3    0  502  0.27101484524E+03 -0.56563710731E+02  0.64040072177E+02  0.28416479476E+03  0.50400001928E-02 0. -1.
</event>
<event>
 5   0  0.3478183E-02  0.6235365E+03  0.7818609E-02  0.9857744E-01
       -1   -1    0    0    0  501  0.00000000000E+00  0.00000000000E+00  0.44127806457E+03  0.44127806460E+03  0.50400001928E-02 0. -1.
        1   -1    0    0  501    0  0.00000000000E+00  0.00000000000E+00 -0.22026800852E+03  0.22026800857E+03  0.50400001928E-02 0.  1.
    10030    2    1    2    0    0  0.00000000000E+00  0.00000000000E+00  0.22101005605E+03  0.66154607317E+03  0.62353649617E+03 0.  0.
        4    1    3    3  502    0  0.10640298235E+03 -0.11162965154E+03 -0.17696381331E+03  0.23473512280E+03  0.12699999809E+01 0.  1.
       -4    1    3    3    0  502 -0.10640298235E+03  0.11162965154E+03  0.39797386937E+03  0.42681095037E+03  0.12699999809E+01 0. -1.
</event>
<event>
 5   0  0.5935451E-02  0.6837604E+03  0.7818609E-02  0.9745414E-01
       -2   -1    0    0    0  501  0.00000000000E+00  0.00000000000E+00  0.30213562723E+03  0.30213562724E+03  0.25500000920E-02 0. -1.
        2   -1    0    0  501    0  0.00000000000E+00  0.00000000000E+00 -0.38685300097E+03  0.38685300098E+03  0.25500000920E-02 0.  1.
    10030    2    1    2    0    0  0.00000000000E+00  0.00000000000E+00 -0.84717373740E+02  0.68898862821E+03  0.68376040862E+03 0.  0.
        3    1    3    3  502    0  0.13531827110E+03  0.67550993587E+02 -0.35131015416E+03  0.38248268699E+03  0.10100000352E+00 0.  1.
       -3    1    3    3    0  502 -0.13531827110E+03 -0.67550993587E+02  0.26659278042E+03  0.30650594122E+03  0.10100000352E+00 0. -1.
</event>
<event>
 5   0  0.3478183E-02  0.5777710E+03  0.7818609E-02  0.9952628E-01
       -1   -1    0    0    0  501  0.00000000000E+00  0.00000000000E+00  0.41200825000E+03  0.41200825003E+03  0.50400001928E-02 0.  1.
        1   -1    0    0  501    0  0.00000000000E+00  0.00000000000E+00 -0.20255623629E+03  0.20255623635E+03  0.50400001928E-02 0. -1.
    10030    2    1    2    0    0  0.00000000000E+00  0.00000000000E+00  0.20945201371E+03  0.61456448639E+03  0.57777102894E+03 0.  0.
        4    1    3    3  502    0 -0.90315408336E+02 -0.24604780905E+03 -0.24487597077E+02  0.26324447312E+03  0.12699999809E+01 0. -1.
       -4    1    3    3    0  502  0.90315408336E+02  0.24604780905E+03  0.23393961079E+03  0.35132001326E+03  0.12699999809E+01 0.  1.
</event>
<event>
 5   0  0.3703280E-02  0.6033810E+03  0.7818609E-02  0.9898416E-01
        1   -1    0    0  501    0  0.00000000000E+00  0.00000000000E+00  0.11308844741E+04  0.11308844741E+04  0.50400001928E-02 0. -1.
       -1   -1    0    0    0  501  0.00000000000E+00  0.00000000000E+00 -0.80483171321E+02  0.80483171479E+02  0.50400001928E-02 0.  1.
    10030    2    1    2    0    0  0.00000000000E+00  0.00000000000E+00  0.10504013027E+04  0.12113676455E+04  0.60338103706E+03 0.  0.
        5    1    3    3  502    0 -0.17160586625E+03 -0.49779606804E+02  0.37265315270E+02  0.18258525763E+03  0.46999998093E+01 0.  1.
       -5    1    3    3    0  502  0.17160586625E+03  0.49779606804E+02  0.10131359875E+04  0.10287823879E+04  0.46999998093E+01 0. -1.
</event>
<event>
 5   0  0.3478183E-02  0.5982619E+03  0.7818609E-02  0.9909019E-01
        1   -1    0    0  501    0  0.00000000000E+00  0.00000000000E+00  0.40536618343E+03  0.40536618346E+03  0.50400001928E-02 0.  1.
       -1   -1    0    0    0  501  0.00000000000E+00  0.00000000000E+00 -0.22073699894E+03  0.22073699899E+03  0.50400001928E-02 0. -1.
    10030    2    1    2    0    0  0.00000000000E+00  0.00000000000E+00  0.18462918449E+03  0.62610318245E+03  0.59826186517E+03 0.  0.
        4    1    3    3  502    0 -0.26208538460E+03  0.19460029359E+02 -0.57198375849E+02  0.26896228112E+03  0.12699999809E+01 0.  1.
       -4    1    3    3    0  502  0.26208538460E+03 -0.19460029359E+02  0.24182756034E+03  0.35714090133E+03  0.12699999809E+01 0. -1.
</event>
<event>
 5   0  0.3640827E-02  0.5992322E+03  0.7818609E-02  0.9907000E-01
        1   -1    0    0  501    0  0.00000000000E+00  0.00000000000E+00  0.84698254461E+03  0.84698254463E+03  0.50400001928E-02 0. -1.
       -1   -1    0    0    0  501  0.00000000000E+00  0.00000000000E+00 -0.10598778797E+03  0.10598778809E+03  0.50400001928E-02 0.  1.
    10030    2    1    2    0    0  0.00000000000E+00  0.00000000000E+00  0.74099475664E+03  0.95297033272E+03  0.59923219680E+03 0.  0.
        3    1    3    3  502    0  0.23961164400E+03  0.17497293187E+03  0.43684493298E+03  0.52807458990E+03  0.10100000352E+00 0. -1.
       -3    1    3    3    0  502 -0.23961164400E+03 -0.17497293187E+03  0.30414982366E+03  0.42489574282E+03  0.10100000352E+00 0.  1.
</event>
<event>
 5   0  0.5755078E-02  0.5937157E+03  0.7818609E-02  0.9918530E-01
        2   -1    0    0  501    0  0.00000000000E+00  0.00000000000E+00  0.65625562800E+03  0.65625562801E+03  0.25500000920E-02 0. -1.
       -2   -1    0    0    0  501  0.00000000000E+00  0.00000000000E+00 -0.13428391669E+03  0.13428391672E+03  0.25500000920E-02 0.  1.
    10030    2    1    2    0    0  0.00000000000E+00  0.00000000000E+00  0.52197171131E+03  0.79053954473E+03  0.59371567637E+03 0.  0.
        2    1    3    3  502    0 -0.76122097603E+02 -0.25665773940E+03  0.90174054169E+02  0.28248739616E+03  0.25500000920E-02 0. -1.
       -2    1    3    3    0  502  0.76122097603E+02  0.25665773940E+03  0.43179765714E+03  0.50805214856E+03  0.25500000920E-02 0.  1.
</event>
<event>
 5   0  0.6007360E-02  0.6509487E+03  0.7818609E-02  0.9805001E-01
        2   -1    0    0  501    0  0.00000000000E+00  0.00000000000E+00  0.62160324770E+03  0.62160324771E+03  0.25500000920E-02 0.  1.
       -2   -1    0    0    0  501  0.00000000000E+00  0.00000000000E+00 -0.17041990356E+03  0.17041990358E+03  0.25500000920E-02 0. -1.
    10030    2    1    2    0    0  0.00000000000E+00  0.00000000000E+00  0.45118334414E+03  0.79202315129E+03  0.65094874003E+03 0.  0.
        4    1    3    3  502    0 -0.16575391900E+02 -0.54674559757E+02 -0.16426810349E+03  0.17392433362E+03  0.12699999809E+01 0. -1.
       -4    1    3    3    0  502  0.16575391900E+02  0.54674559757E+02  0.61545144763E+03  0.61809881766E+03  0.12699999809E+01 0.  1.
</event>
<event>
 5   0  0.5999117E-02  0.5824379E+03  0.7818609E-02  0.9942527E-01
       -2   -1    0    0    0  501  0.00000000000E+00  0.00000000000E+00  0.90505315142E+02  0.90505315178E+02  0.25500000920E-02 0. -1.
        2   -1    0    0  501    0  0.00000000000E+00  0.00000000000E+00 -0.93705514420E+03  0.93705514421E+03  0.25500000920E-02 0.  1.
    10030    2    1    2    0    0  0.00000000000E+00  0.00000000000E+00 -0.84654982906E+03  0.10275604594E+04  0.58243788047E+03 0.  0.
        5    1    3    3  502    0  0.62727916068E+02  0.63859922753E+02  0.65561377663E+02  0.11105523593E+03  0.46999998093E+01 0. -1.
       -5    1    3    3    0  502 -0.62727916068E+02 -0.63859922753E+02 -0.91211120673E+03  0.91650522345E+03  0.46999998093E+01 0.  1.
</event>
<event>
 5   0  0.5999117E-02  0.5985602E+03  0.7818609E-02  0.9908398E-01
        2   -1    0    0  501    0  0.00000000000E+00  0.00000000000E+00  0.25266505329E+03  0.25266505330E+03  0.25500000920E-02 0.  1.
       -2   -1    0    0    0  501  0.00000000000E+00  0.00000000000E+00 -0.35449535794E+03  0.35449535795E+03  0.25500000920E-02 0. -1.
    10030    2    1    2    0    0  0.00000000000E+00  0.00000000000E+00 -0.10183030465E+03  0.60716041125E+03  0.59856023427E+03 0.  0.
        5    1    3    3  502    0 -0.15474614821E+03 -0.19514015017E+03 -0.21919160582E+03  0.33180280085E+03  0.46999998093E+01 0. -1.
       -5    1    3    3    0  502  0.15474614821E+03  0.19514015017E+03  0.11736130117E+03  0.27535761040E+03  0.46999998093E+01 0.  1.
</event>
<event>
 5   0  0.3767635E-02  0.5948208E+03  0.7818609E-02  0.9916210E-01
       -1   -1    0    0    0  501  0.00000000000E+00  0.00000000000E+00  0.76380494358E+03  0.76380494359E+03  0.50400001928E-02 0. -1.
        1   -1    0    0  501    0  0.00000000000E+00  0.00000000000E+00 -0.11580566503E+03  0.11580566514E+03  0.50400001928E-02 0.  1.
    10030    2    1    2    0    0  0.00000000000E+00  0.00000000000E+00  0.64799927855E+03  0.87961060873E+03  0.59482077804E+03 0.  0.
        2    1    3    3  502    0 -0.10418558654E+03 -0.26753788346E+03  0.20924588224E+03  0.35526749748E+03  0.25500000920E-02 0.  1.
       -2    1    3    3    0  502  0.10418558654E+03  0.26753788346E+03  0.43875339631E+03  0.52434311125E+03  0.25500000920E-02 0. -1.
</event>
<event>
 5   0  0.3478183E-02  0.6000467E+03  0.7818609E-02  0.9905309E-01
        1   -1    0    0  501    0  0.00000000000E+00  0.00000000000E+00  0.26855451710E+03  0.26855451715E+03  0.50400001928E-02 0.  1.
       -1   -1    0    0    0  501  0.00000000000E+00  0.00000000000E+00 -0.33517960684E+03  0.33517960688E+03  0.50400001928E-02 0. -1.
    10030    2    1    2    0    0  0.00000000000E+00  0.00000000000E+00 -0.66625089739E+02  0.60373412403E+03  0.60004665646E+03 0.  0.
        4    1    3    3  502    0 -0.20455097334E+02 -0.90687907976E+02  0.25369413137E+03  0.27019443527E+03  0.12699999809E+01 0.  1.
       -4    1    3    3    0  502  0.20455097334E+02  0.90687907976E+02 -0.32031922111E+03  0.33353968875E+03  0.12699999809E+01 0. -1.
</event>
<event>
 5   0  0.5935451E-02  0.6547995E+03  0.7818609E-02  0.9797815E-01
       -2   -1    0    0    0  501  0.00000000000E+00  0.00000000000E+00  0.57818366853E+03  0.57818366854E+03  0.25500000920E-02 0.  1.
        2   -1    0    0  501    0  0.00000000000E+00  0.00000000000E+00 -0.18539197123E+03  0.18539197124E+03  0.25500000920E-02 0. -1.
    10030    2    1    2    0    0  0.00000000000E+00  0.00000000000E+00  0.39279169731E+03  0.76357563978E+03  0.65479954199E+03 0.  0.
        3    1    3    3  502    0  0.21087670562E+03 -0.24968253621E+03  0.21913509248E+03  0.39348513672E+03  0.10100000352E+00 0.  1.
       -3    1    3    3    0  502 -0.21087670562E+03  0.24968253621E+03  0.17365660483E+03  0.37009050307E+03  0.10100000352E+00 0. -1.
</event>
<event>
 5   0  0.5872632E-02  0.5984684E+03  0.7818609E-02  0.9908589E-01
        2   -1    0    0  501    0  0.00000000000E+00  0.00000000000E+00  0.27554171115E+03  0.27554171116E+03  0.25500000920E-02 0. -1.
       -2   -1    0    0    0  501  0.00000000000E+00  0.00000000000E+00 -0.32496383727E+03  0.32496383728E+03  0.25500000920E-02 0.  1.
    10030    2    1    2    0    0  0.00000000000E+00  0.00000000000E+00 -0.49422126121E+02  0.60050554845E+03  0.59846835101E+03 0.  0.
        1    1    3    3  502    0  0.71872171786E+02  0.26612090979E+03 -0.14153394204E+03  0.30986739822E+03  0.50400001928E-02 0.  1.
       -1    1    3    3    0  502 -0.71872171786E+02 -0.26612090979E+03  0.92111815919E+02  0.29063815022E+03  0.50400001928E-02 0. -1.
</event>
<event>
 5   0  0.2388000E-02  0.5938833E+03  0.7818609E-02  0.9918178E-01
       -3   -1    0    0    0  501  0.00000000000E+00  0.00000000000E+00  0.14751827949E+03  0.14751831406E+03  0.10100000352E+00 0. -1.
        3   -1    0    0  501    0  0.00000000000E+00  0.00000000000E+00 -0.59771797877E+03  0.59771798731E+03  0.10100000352E+00 0.  1.
    10030    2    1    2    0    0  0.00000000000E+00  0.00000000000E+00 -0.45019969929E+03  0.74523630137E+03  0.59388330136E+03 0.  0.
        2    1    3    3  502    0  0.21638840821E+03  0.17471434831E+03 -0.35566064938E+03  0.45149035897E+03  0.25500000920E-02 0.  1.
       -2    1    3    3    0  502 -0.21638840821E+03 -0.17471434831E+03 -0.94539049903E+02  0.29374594240E+03  0.25500000920E-02 0. -1.
</event>
<event>
 5   0  0.5999117E-02  0.5906586E+03  0.7818609E-02  0.9924978E-01
       -2   -1    0    0    0  501  0.00000000000E+00  0.00000000000E+00  0.12975118239E+03  0.12975118242E+03  0.25500000920E-02 0. -1.
        2   -1    0    0  501    0  0.00000000000E+00  0.00000000000E+00 -0.67220499408E+03  0.67220499408E+03  0.25500000920E-02 0.  1.
    10030    2    1    2    0    0  0.00000000000E+00  0.00000000000E+00 -0.54245381168E+03  0.80195617650E+03  0.59065859108E+03 0.  0.
        5    1    3    3  502    0 -0.17559433539E+02  0.12060914150E+02 -0.67110958285E+03  0.67146404337E+03  0.46999998093E+01 0.  1.
       -5    1    3    3    0  502  0.17559433539E+02 -0.12060914150E+02  0.12865577116E+03  0.13049213313E+03  0.46999998093E+01 0. -1.
</event>
<event>
 5   0  0.3640827E-02  0.5854943E+03  0.7818609E-02  0.9935966E-01
       -1   -1    0    0    0  501  0.00000000000E+00  0.00000000000E+00  0.16915224521E+03  0.16915224528E+03  0.50400001928E-02 0.  1.
        1   -1    0    0  501    0  0.00000000000E+00  0.00000000000E+00 -0.50664946670E+03  0.50664946673E+03  0.50400001928E-02 0. -1.
    10030    2    1    2    0    0  0.00000000000E+00  0.00000000000E+00 -0.33749722150E+03  0.67580171201E+03  0.58549430351E+03 0.  0.
        3    1    3    3  502    0 -0.15619485475E+03  0.24242686465E+03 -0.22684339223E+03  0.36691354861E+03  0.10100000352E+00 0.  1.
       -3    1    3    3    0  502  0.15619485475E+03 -0.24242686465E+03 -0.11065382926E+03  0.30888816340E+03  0.10100000352E+00 0. -1.
</event>
<event>
 5   0  0.2388000E-02  0.5985551E+03  0.7818609E-02  0.9908408E-01
       -3   -1    0    0    0  501  0.00000000000E+00  0.00000000000E+00  0.65857168173E+03  0.65857168947E+03  0.10100000352E+00 0.  1.
        3   -1    0    0  501    0  0.00000000000E+00  0.00000000000E+00 -0.13600196073E+03  0.13600199823E+03  0.10100000352E+00 0. -1.
    10030    2    1    2    0    0  0.00000000000E+00  0.00000000000E+00  0.52256972100E+03  0.79457368770E+03  0.59855512017E+03 0.  0.
        4    1    3    3  502    0 -0.26949443811E+03  0.12412963784E+03  0.20935951179E+03  0.36313694006E+03  0.12699999809E+01 0. -1.
       -4    1    3    3    0  502  0.26949443811E+03 -0.12412963784E+03  0.31321020921E+03  0.43143674764E+03  0.12699999809E+01 0.  1.
</event>
<event>
 5   0  0.5755078E-02  0.5992222E+03  0.7818609E-02  0.9907021E-01
        2   -1    0    0  501    0  0.00000000000E+00  0.00000000000E+00  0.65606479746E+03  0.65606479747E+03  0.25500000920E-02 0.  1.
       -2   -1    0    0    0  501  0.00000000000E+00  0.00000000000E+00 -0.13682612320E+03  0.13682612323E+03  0.25500000920E-02 0. -1.
    10030    2    1    2    0    0  0.00000000000E+00  0.00000000000E+00  0.51923867426E+03  0.79289092069E+03  0.59922217188E+03 0.  0.
        2    1    3    3  502    0  0.14783075324E+03 -0.19419616073E+03  0.48956977237E+03  0.54703257898E+03  0.25500000920E-02 0.  1.
       -2    1    3    3    0  502 -0.14783075324E+03  0.19419616073E+03  0.29668901891E+02  0.24585834171E+03  0.25500000920E-02 0. -1.
</event>
<event>
 5   0  0.3651984E-02  0.6165127E+03  0.7818609E-02  0.9871728E-01
        1   -1    0    0  501    0  0.00000000000E+00  0.00000000000E+00  0.35183877191E+03  0.35183877194E+03  0.50400001928E-02 0.  1.
       -1   -1    0    0    0  501  0.00000000000E+00  0.00000000000E+00 -0.27007246026E+03  0.27007246031E+03  0.50400001928E-02 0. -1.
    10030    2    1    2    0    0  0.00000000000E+00  0.00000000000E+00  0.81766311643E+02  0.62191123225E+03  0.61651265282E+03 0.  0.
        1    1    3    3  502    0  0.29434997154E+03 -0.42655081946E+01  0.13312711094E+03  0.32308346909E+03  0.50400001928E-02 0.  1.
       -1    1    3    3    0  502 -0.29434997154E+03  0.42655081946E+01 -0.51360799299E+02  0.29882776316E+03  0.50400001928E-02 0. -1.
</event>
<event>
 5   0  0.5935451E-02  0.6048891E+03  0.7818609E-02  0.9895314E-01
       -2   -1    0    0    0  501  0.00000000000E+00  0.00000000000E+00  0.31139196187E+03  0.31139196188E+03  0.25500000920E-02 0.  1.
        2   -1    0    0  501    0  0.00000000000E+00  0.00000000000E+00 -0.29375422304E+03  0.29375422305E+03  0.25500000920E-02 0. -1.
    10030    2    1    2    0    0  0.00000000000E+00  0.00000000000E+00  0.17637738831E+02  0.60514618494E+03  0.60488909340E+03 0.  0.
        3    1    3    3  502    0  0.17358045596E+03  0.16573863497E+03 -0.17530615253E+03  0.29720653951E+03  0.10100000352E+00 0. -1.
       -3    1    3    3    0  502 -0.17358045596E+03 -0.16573863497E+03  0.19294389136E+03  0.30793964543E+03  0.10100000352E+00 0.  1.
</event>
<event>
 5   0  0.5755078E-02  0.5853786E+03  0.7818609E-02  0.9936214E-01
        2   -1    0    0  501    0  0.00000000000E+00  0.00000000000E+00  0.45295473033E+03  0.45295473034E+03  0.25500000920E-02 0.  1.
       -2   -1    0    0    0  501  0.00000000000E+00  0.00000000000E+00 -0.18912932231E+03  0.18912932232E+03  0.25500000920E-02 0. -1.
    10030    2    1    2    0    0  0.00000000000E+00  0.00000000000E+00  0.26382540802E+03  0.64208405266E+03  0.58537858243E+03 0.  0.
        2    1    3    3  502    0  0.27464333359E+03 -0.85440024046E+02  0.72458086250E+02  0.29661276551E+03  0.25500000920E-02 0. -1.
       -2    1    3    3    0  502 -0.27464333359E+03  0.85440024046E+02  0.19136732177E+03  0.34547128715E+03  0.25500000920E-02 0.  1.
</event>
<event>
 5   0  0.3651984E-02  0.6033959E+03  0.7818609E-02  0.9898386E-01
       -1   -1    0    0    0  501  0.00000000000E+00  0.00000000000E+00  0.35934552784E+03  0.35934552788E+03  0.50400001928E-02 0. -1.
        1   -1    0    0  501    0  0.00000000000E+00  0.00000000000E+00 -0.25329841397E+03  0.25329841402E+03  0.50400001928E-02 0.  1.
    10030    2    1    2    0    0  0.00000000000E+00  0.00000000000E+00  0.10604711387E+03  0.61264394190E+03  0.60339589755E+03 0.  0.
        1    1    3    3  502    0  0.20177100208E+02  0.92111818111E+02 -0.23795204086E+03  0.25595483232E+03  0.50400001928E-02 0.  1.
       -1    1    3    3    0  502 -0.20177100208E+02 -0.92111818111E+02  0.34399915474E+03  0.35668910958E+03  0.50400001928E-02 0. -1.
</event>
<event>
 5   0  0.5999117E-02  0.6160299E+03  0.7818609E-02  0.9872696E-01
       -2   -1    0    0    0  501  0.00000000000E+00  0.00000000000E+00  0.13453209269E+03  0.13453209272E+03  0.25500000920E-02 0. -1.
        2   -1    0    0  501    0  0.00000000000E+00  0.00000000000E+00 -0.70520880444E+03  0.70520880444E+03  0.25500000920E-02 0.  1.
    10030    2    1    2    0    0  0.00000000000E+00  0.00000000000E+00 -0.57067671175E+03  0.83974089716E+03  0.61602992219E+03 0.  0.
        5    1    3    3  502    0  0.57549630539E+02  0.44816547666E+02  0.12253876953E+03  0.14268259514E+03  0.46999998093E+01 0. -1.
       -5    1    3    3    0  502 -0.57549630539E+02 -0.44816547666E+02 -0.69321548128E+03  0.69705830201E+03  0.46999998093E+01 0.  1.
</event>
<event>
 5   0  0.5755078E-02  0.5784774E+03  0.7818609E-02  0.9951093E-01
        2   -1    0    0  501    0  0.00000000000E+00  0.00000000000E+00  0.74753957836E+03  0.74753957836E+03  0.25500000920E-02 0.  1.
       -2   -1    0    0    0  501  0.00000000000E+00  0.00000000000E+00 -0.11191249580E+03  0.11191249583E+03  0.25500000920E-02 0. -1.
    10030    2    1    2    0    0  0.00000000000E+00  0.00000000000E+00  0.63562708255E+03  0.85945207420E+03  0.57847738051E+03 0.  0.
        2    1    3    3  502    0  0.84085282189E+02 -0.26627529356E+03  0.20578090285E+03  0.34686978338E+03  0.25500000920E-02 0. -1.
       -2    1    3    3    0  502 -0.84085282189E+02  0.26627529356E+03  0.42984617970E+03  0.51258229081E+03  0.25500000920E-02 0.  1.
</event>
<event>
 5   0  0.5999117E-02  0.6006012E+03  0.7818609E-02  0.9904160E-01
       -2   -1    0    0    0  501  0.00000000000E+00  0.00000000000E+00  0.11448077433E+03  0.11448077436E+03  0.25500000920E-02 0. -1.
        2   -1    0    0  501    0  0.00000000000E+00  0.00000000000E+00 -0.78773448368E+03  0.78773448368E+03  0.25500000920E-02 0.  1.
    10030    2    1    2    0    0  0.00000000000E+00  0.00000000000E+00 -0.67325370935E+03  0.90221525805E+03  0.60060121104E+03 0.  0.
        5    1    3    3  502    0  0.11512490655E+03 -0.16040967675E+03  0.31907780438E+01  0.19752792098E+03  0.46999998093E+01 0. -1.
       -5    1    3    3    0  502 -0.11512490655E+03  0.16040967675E+03 -0.67644448739E+03  0.70468733707E+03  0.46999998093E+01 0.  1.
</event>
<event>
 5   0  0.3478183E-02  0.5996393E+03  0.7818609E-02  0.9906155E-01
       -1   -1    0    0    0  501  0.00000000000E+00  0.00000000000E+00  0.14523314782E+03  0.14523314791E+03  0.50400001928E-02 0. -1.
        1   -1    0    0  501    0  0.00000000000E+00  0.00000000000E+00 -0.61894847302E+03  0.61894847304E+03  0.50400001928E-02 0.  1.
    10030    2    1    2    0    0  0.00000000000E+00  0.00000000000E+00 -0.47371532520E+03  0.76418162095E+03  0.59963934200E+03 0.  0.
        4    1    3    3  502    0  0.17160102854E+02  0.29821763953E+03 -0.20406829620E+03  0.36176471922E+03  0.12699999809E+01 0.  1.
       -4    1    3    3    0  502 -0.17160102854E+02 -0.29821763953E+03 -0.26964702900E+03  0.40241690173E+03  0.12699999809E+01 0. -1.
</event>
<event>
 5   0  0.6007360E-02  0.5220058E+03  0.7818609E-02  0.1008190E+00
       -2   -1    0    0    0  501  0.00000000000E+00  0.00000000000E+00  0.11299779652E+03  0.11299779655E+03  0.25500000920E-02 0.  1.
        2   -1    0    0  501    0  0.00000000000E+00  0.00000000000E+00 -0.60286578892E+03  0.60286578893E+03  0.25500000920E-02 0. -1.
    10030    2    1    2    0    0  0.00000000000E+00  0.00000000000E+00 -0.48986799240E+03  0.71586358547E+03  0.52200576915E+03 0.  0.
        4    1    3    3  502    0 -0.24447248272E+03  0.73367951424E+02 -0.17018179890E+03  0.30677859880E+03  0.12699999809E+01 0.  1.
       -4    1    3    3    0  502  0.24447248272E+03 -0.73367951424E+02 -0.31968619350E+03  0.40908498667E+03  0.12699999809E+01 0. -1.
</event>
<event>
 5   0  0.5935451E-02  0.6035976E+03  0.7818609E-02  0.9897970E-01
        2   -1    0    0  501    0  0.00000000000E+00  0.00000000000E+00  0.10278628078E+04  0.10278628078E+04  0.25500000920E-02 0. -1.
       -2   -1    0    0    0  501  0.00000000000E+00  0.00000000000E+00 -0.88613503232E+02  0.88613503269E+02  0.25500000920E-02 0.  1.
    10030    2    1    2    0    0  0.00000000000E+00  0.00000000000E+00  0.93924930458E+03  0.11164763111E+04  0.60359762844E+03 0.  0.
        3    1    3    3  502    0  0.17340641632E+03 -0.24681189477E+03  0.48780615429E+03  0.57353356570E+03  0.10100000352E+00 0. -1.
       -3    1    3    3    0  502 -0.17340641632E+03  0.24681189477E+03  0.45144315028E+03  0.54294274538E+03  0.10100000352E+00 0.  1.
</event>
<event>
 5   0  0.5999117E-02  0.5976073E+03  0.7818609E-02  0.9910383E-01
       -2   -1    0    0    0  501  0.00000000000E+00  0.00000000000E+00  0.71568277980E+02  0.71568278025E+02  0.25500000920E-02 0. -1.
        2   -1    0    0  501    0  0.00000000000E+00  0.00000000000E+00 -0.12475305549E+04  0.12475305549E+04  0.25500000920E-02 0.  1.
    10030    2    1    2    0    0  0.00000000000E+00  0.00000000000E+00 -0.11759622769E+04  0.13190988329E+04  0.59760727430E+03 0.  0.
        5    1    3    3  502    0 -0.13039425525E+03  0.16409823544E+03 -0.10579372942E+04  0.10785102230E+04  0.46999998093E+01 0.  1.
       -5    1    3    3    0  502  0.13039425525E+03 -0.16409823544E+03 -0.11802498272E+03  0.24058860992E+03  0.46999998093E+01 0. -1.
</event>
<event>
 5   0  0.5935451E-02  0.6023769E+03  0.7818609E-02  0.9900487E-01
        2   -1    0    0  501    0  0.00000000000E+00  0.00000000000E+00  0.39017685259E+03  0.39017685260E+03  0.25500000920E-02 0. -1.
       -2   -1    0    0    0  501  0.00000000000E+00  0.00000000000E+00 -0.23249579669E+03  0.23249579670E+03  0.25500000920E-02 0.  1.
    10030    2    1    2    0    0  0.00000000000E+00  0.00000000000E+00  0.15768105590E+03  0.62267264930E+03  0.60237688601E+03 0.  0.
        3    1    3    3  502    0 -0.16037608003E+03  0.81255335514E+02  0.32862561030E+03  0.37459006733E+03  0.10100000352E+00 0. -1.
       -3    1    3    3    0  502  0.16037608003E+03 -0.81255335514E+02 -0.17094455440E+03  0.24808258197E+03  0.10100000352E+00 0.  1.
</event>
<event>
 5   0  0.3640827E-02  0.5977670E+03  0.7818609E-02  0.9910050E-01
        1   -1    0    0  501    0  0.00000000000E+00  0.00000000000E+00  0.29788295015E+03  0.29788295019E+03  0.50400001928E-02 0. -1.
       -1   -1    0    0    0  501  0.00000000000E+00  0.00000000000E+00 -0.29988740148E+03  0.29988740152E+03  0.50400001928E-02 0.  1.
    10030    2    1    2    0    0  0.00000000000E+00  0.00000000000E+00 -0.20044513356E+01  0.59777035171E+03  0.59776699103E+03 0.  0.
        3    1    3    3  502    0  0.35809375525E+02  0.10412384391E+03  0.27686125804E+03  0.29795344040E+03  0.10100000352E+00 0. -1.
       -3    1    3    3    0  502 -0.35809375525E+02 -0.10412384391E+03 -0.27886570937E+03  0.29981691131E+03  0.10100000352E+00 0.  1.
</event>
<event>
 5   0  0.3640827E-02  0.5908446E+03  0.7818609E-02  0.9924585E-01
       -1   -1    0    0    0  501  0.00000000000E+00  0.00000000000E+00  0.29286314021E+03  0.29286314025E+03  0.50400001928E-02 0.  1.
        1   -1    0    0  501    0  0.00000000000E+00  0.00000000000E+00 -0.29800386505E+03  0.29800386509E+03  0.50400001928E-02 0. -1.
    10030    2    1    2    0    0  0.00000000000E+00  0.00000000000E+00 -0.51407248375E+01  0.59086700534E+03  0.59084464197E+03 0.  0.
        3    1    3    3  502    0  0.24576870161E+03  0.33309395361E+02  0.15794293074E+03  0.29403698761E+03  0.10100000352E+00 0.  1.
       -3    1    3    3    0  502 -0.24576870161E+03 -0.33309395361E+02 -0.16308365558E+03  0.29683001773E+03  0.10100000352E+00 0. -1.
</event>
<event>
 5   0  0.6007360E-02  0.5390845E+03  0.7818609E-02  0.1004052E+00
        2   -1    0    0  501    0  0.00000000000E+00  0.00000000000E+00  0.88997653215E+03  0.88997653215E+03  0.25500000920E-02 0.  1.
       -2   -1    0    0    0  501  0.00000000000E+00  0.00000000000E+00 -0.81634759463E+02  0.81634759503E+02  0.25500000920E-02 0. -1.
    10030    2    1    2    0    0  0.00000000000E+00  0.00000000000E+00  0.80834177268E+03  0.97161129165E+03  0.53908448373E+03 0.  0.
        4    1    3    3  502    0 -0.22481321205E+03  0.47117869675E+02  0.14998188685E+03  0.27433055470E+03  0.12699999809E+01 0. -1.
       -4    1    3    3    0  502  0.22481321205E+03 -0.47117869675E+02  0.65835988583E+03  0.69728073695E+03  0.12699999809E+01 0.  1.
</event>
<event>
 5   0  0.3703280E-02  0.5910459E+03  0.7818609E-02  0.9924159E-01
        1   -1    0    0  501    0  0.00000000000E+00  0.00000000000E+00  0.67234252177E+03  0.67234252179E+03  0.50400001928E-02 0. -1.
       -1   -1    0    0    0  501  0.00000000000E+00  0.00000000000E+00 -0.12989481956E+03  0.12989481966E+03  0.50400001928E-02 0.  1.
    10030    2    1    2    0    0  0.00000000000E+00  0.00000000000E+00  0.54244770221E+03  0.80223734145E+03  0.59104588856E+03 0.  0.
        5    1    3    3  502    0  0.13982889990E+03  0.70978166035E+02 -0.68706999061E+02  0.17126810275E+03  0.46999998093E+01 0.  1.
       -5    1    3    3    0  502 -0.13982889990E+03 -0.70978166035E+02  0.61115470127E+03  0.63096923870E+03  0.46999998093E+01 0. -1.
</event>
<event>
 5   0  0.3703280E-02  0.5220783E+03  0.7818609E-02  0.1008172E+00
       -1   -1    0    0    0  501  0.00000000000E+00  0.00000000000E+00  0.37795737139E+02  0.37795737475E+02  0.50400001928E-02 0. -1.
        1   -1    0    0  501    0  0.00000000000E+00  0.00000000000E+00 -0.18028868495E+04  0.18028868495E+04  0.50400001928E-02 0.  1.
    10030    2    1    2    0    0  0.00000000000E+00  0.00000000000E+00 -0.17650911123E+04  0.18406825870E+04  0.52207829976E+03 0.  0.
        5    1    3    3  502    0  0.17732255591E+03  0.81585338708E+02 -0.27167693013E+03  0.33455926334E+03  0.46999998093E+01 0. -1.
       -5    1    3    3    0  502 -0.17732255591E+03 -0.81585338708E+02 -0.14934141822E+04  0.15061233236E+04  0.46999998093E+01 0.  1.
</event>
<event>
 5   0  0.3640827E-02  0.5910358E+03  0.7818609E-02  0.9924180E-01
        1   -1    0    0  501    0  0.00000000000E+00  0.00000000000E+00  0.94101079065E+03  0.94101079066E+03  0.50400001928E-02 0.  1.
       -1   -1    0    0    0  501  0.00000000000E+00  0.00000000000E+00 -0.92805341695E+02  0.92805341832E+02  0.50400001928E-02 0. -1.
    10030    2    1    2    0    0  0.00000000000E+00  0.00000000000E+00  0.84820544895E+03  0.10338161325E+04  0.59103579601E+03 0.  0.
        3    1    3    3  502    0 -0.10181631961E+03  0.26493481468E+03  0.28014145453E+03  0.39879351012E+03  0.10100000352E+00 0.  1.
       -3    1    3    3    0  502  0.10181631961E+03 -0.26493481468E+03  0.56806399443E+03  0.63502262238E+03  0.10100000352E+00 0. -1.
</event>
<event>
 5   0  0.3703280E-02  0.5979927E+03  0.7818609E-02  0.9909579E-01
        1   -1    0    0  501    0  0.00000000000E+00  0.00000000000E+00  0.14391171107E+04  0.14391171107E+04  0.50400001928E-02 0.  1.
       -1   -1    0    0    0  501  0.00000000000E+00  0.00000000000E+00 -0.62120601998E+02  0.62120602203E+02  0.50400001928E-02 0. -1.
    10030    2    1    2    0    0  0.00000000000E+00  0.00000000000E+00  0.13769965087E+04  0.15012377129E+04  0.59799271375E+03 0.  0.
        5    1    3    3  502    0  0.22673267389E+03  0.94110501042E+02  0.26015554232E+03  0.35772543663E+03  0.46999998093E+01 0. -1.
       -5    1    3    3    0  502 -0.22673267389E+03 -0.94110501042E+02  0.11168409664E+04  0.11435122763E+04  0.46999998093E+01 0.  1.
</event>
<event>
 5   0  0.3651984E-02  0.5988328E+03  0.7818609E-02  0.9907831E-01
       -1   -1    0    0    0  501  0.00000000000E+00  0.00000000000E+00  0.24907969587E+03  0.24907969592E+03  0.50400001928E-02 0. -1.
        1   -1    0    0  501    0  0.00000000000E+00  0.00000000000E+00 -0.35992567053E+03  0.35992567056E+03  0.50400001928E-02 0.  1.
    10030    2    1    2    0    0  0.00000000000E+00  0.00000000000E+00 -0.11084597466E+03  0.60900536648E+03  0.59883278660E+03 0.  0.
        1    1    3    3  502    0  0.43877433006E+01 -0.10379026953E+03  0.23016492179E+03  0.25252240215E+03  0.50400001928E-02 0. -1.
       -1    1    3    3    0  502 -0.43877433006E+01  0.10379026953E+03 -0.34101089645E+03  0.35648296434E+03  0.50400001928E-02 0.  1.
</event>
<event>
 5   0  0.5872632E-02  0.5659173E+03  0.7818609E-02  0.9978754E-01
       -2   -1    0    0    0  501  0.00000000000E+00  0.00000000000E+00  0.61556159541E+02  0.61556159594E+02  0.25500000920E-02 0. -1.
        2   -1    0    0  501    0  0.00000000000E+00  0.00000000000E+00 -0.13006917802E+04  0.13006917802E+04  0.25500000920E-02 0.  1.
    10030    2    1    2    0    0  0.00000000000E+00  0.00000000000E+00 -0.12391356207E+04  0.13622479398E+04  0.56591727585E+03 0.  0.
        1    1    3    3  502    0 -0.21094136490E+03  0.13185309431E+03 -0.29496742732E+03  0.38585914672E+03  0.50400001928E-02 0.  1.
       -1    1    3    3    0  502  0.21094136490E+03 -0.13185309431E+03 -0.94416819337E+03  0.97638879310E+03  0.50400001928E-02 0. -1.
</event>
<event>
 5   0  0.3767635E-02  0.6045026E+03  0.7818609E-02  0.9896108E-01
        1   -1    0    0  501    0  0.00000000000E+00  0.00000000000E+00  0.43724177880E+03  0.43724177883E+03  0.50400001928E-02 0. -1.
       -1   -1    0    0    0  501  0.00000000000E+00  0.00000000000E+00 -0.20893669526E+03  0.20893669532E+03  0.50400001928E-02 0.  1.
    10030    2    1    2    0    0  0.00000000000E+00  0.00000000000E+00  0.22830508355E+03  0.64617847415E+03  0.60450261313E+03 0.  0.
        2    1    3    3  502    0 -0.21976660506E+03  0.83361641824E+02  0.31727783663E+03  0.39485661910E+03  0.25500000920E-02 0. -1.
       -2    1    3    3    0  502  0.21976660506E+03 -0.83361641824E+02 -0.88972753079E+02  0.25132185505E+03  0.25500000920E-02 0.  1.
</event>
<event>
 5   0  0.3640827E-02  0.6028564E+03  0.7818609E-02  0.9899498E-01
       -1   -1    0    0    0  501  0.00000000000E+00  0.00000000000E+00  0.41153063180E+03  0.41153063183E+03  0.50400001928E-02 0. -1.
        1   -1    0    0  501    0  0.00000000000E+00  0.00000000000E+00 -0.22078296641E+03  0.22078296647E+03  0.50400001928E-02 0.  1.
    10030    2    1    2    0    0  0.00000000000E+00  0.00000000000E+00  0.19074766538E+03  0.63231359830E+03  0.60285637987E+03 0.  0.
        3    1    3    3  502    0 -0.15094787524E+03 -0.18300671707E+03 -0.99675792391E+02  0.25731691224E+03  0.10100000352E+00 0.  1.
       -3    1    3    3    0  502  0.15094787524E+03  0.18300671707E+03  0.29042345777E+03  0.37499668606E+03  0.10100000352E+00 0. -1.
</event>
<event>
 5   0  0.2388000E-02  0.6173509E+03  0.7818609E-02  0.9870048E-01
        3   -1    0    0  501    0  0.00000000000E+00  0.00000000000E+00  0.19223373263E+03  0.19223375916E+03  0.10100000352E+00 0.  1.
       -3   -1    0    0    0  501  0.00000000000E+00  0.00000000000E+00 -0.49564938600E+03  0.49564939629E+03  0.10100000352E+00 0. -1.
    10030    2    1    2    0    0  0.00000000000E+00  0.00000000000E+00 -0.30341565337E+03  0.68788315545E+03  0.61735093491E+03 0.  0.
        5    1    3    3  502    0  0.50912148266E+02 -0.61730001414E+02 -0.48385112205E+03  0.49044534683E+03  0.46999998093E+01 0. -1.
       -5    1    3    3    0  502 -0.50912148266E+02  0.61730001414E+02  0.18043546868E+03  0.19743780862E+03  0.46999998093E+01 0.  1.
</event>
<event>
 5   0  0.3767635E-02  0.6041169E+03  0.7818609E-02  0.9896902E-01
       -1   -1    0    0    0  501  0.00000000000E+00  0.00000000000E+00  0.24356005729E+03  0.24356005734E+03  0.50400001928E-02 0.  1.
        1   -1    0    0  501    0  0.00000000000E+00  0.00000000000E+00 -0.37460696281E+03  0.37460696284E+03  0.50400001928E-02 0. -1.
    10030    2    1    2    0    0  0.00000000000E+00  0.00000000000E+00 -0.13104690552E+03  0.61816702018E+03  0.60411685409E+03 0.  0.
        2    1    3    3  502    0  0.80710436124E+02  0.29137538905E+02  0.23082594720E+03  0.24625959592E+03  0.25500000920E-02 0.  1.
       -2    1    3    3    0  502 -0.80710436124E+02 -0.29137538905E+02 -0.36187285273E+03  0.37190742426E+03  0.25500000920E-02 0. -1.
</event>
<event>
 5   0  0.3640827E-02  0.6005221E+03  0.7818609E-02  0.9904323E-01
       -1   -1    0    0    0  501  0.00000000000E+00  0.00000000000E+00  0.10093345308E+03  0.10093345320E+03  0.50400001928E-02 0. -1.
        1   -1    0    0  501    0  0.00000000000E+00  0.00000000000E+00 -0.89322920868E+03  0.89322920869E+03  0.50400001928E-02 0.  1.
    10030    2    1    2    0    0  0.00000000000E+00  0.00000000000E+00 -0.79229575560E+03  0.99416266189E+03  0.60052213445E+03 0.  0.
        3    1    3    3  502    0 -0.16363173544E+03  0.13535024498E+03 -0.44723370901E+02  0.21701434000E+03  0.10100000352E+00 0. -1.
       -3    1    3    3    0  502  0.16363173544E+03 -0.13535024498E+03 -0.74757238470E+03  0.77714832189E+03  0.10100000352E+00 0.  1.
</event>
<event>
 5   0  0.5999117E-02  0.5973995E+03  0.7818609E-02  0.9910816E-01
       -2   -1    0    0    0  501  0.00000000000E+00  0.00000000000E+00  0.26268603800E+03  0.26268603801E+03  0.25500000920E-02 0.  1.
        2   -1    0    0  501    0  0.00000000000E+00  0.00000000000E+00 -0.33965090063E+03  0.33965090064E+03  0.25500000920E-02 0. -1.
    10030    2    1    2    0    0  0.00000000000E+00  0.00000000000E+00 -0.76964862637E+02  0.60233693865E+03  0.59739952928E+03 0.  0.
        5    1    3    3  502    0 -0.30320524725E+02  0.29493891101E+03 -0.74712179676E+02  0.30579780123E+03  0.46999998093E+01 0. -1.
       -5    1    3    3    0  502  0.30320524725E+02 -0.29493891101E+03 -0.22526829608E+01  0.29653913742E+03  0.46999998093E+01 0.  1.
</event>
<event>
 5   0  0.5872632E-02  0.6003697E+03  0.7818609E-02  0.9904639E-01
        2   -1    0    0  501    0  0.00000000000E+00  0.00000000000E+00  0.17523590587E+04  0.17523590587E+04  0.25500000920E-02 0.  1.
       -2   -1    0    0    0  501  0.00000000000E+00  0.00000000000E+00 -0.51422642896E+02  0.51422642959E+02  0.25500000920E-02 0. -1.
    10030    2    1    2    0    0  0.00000000000E+00  0.00000000000E+00  0.17009364159E+04  0.18037817017E+04  0.60036966666E+03 0.  0.
        1    1    3    3  502    0 -0.95172426825E+02 -0.93263359449E+02  0.16586327214E+04  0.16639766673E+04  0.50400001928E-02 0.  1.
       -1    1    3    3    0  502  0.95172426825E+02  0.93263359449E+02  0.42303694493E+02  0.13980503438E+03  0.50400001928E-02 0. -1.
</event>
<event>
 5   0  0.3651984E-02  0.5972868E+03  0.7818609E-02  0.9911051E-01
        1   -1    0    0  501    0  0.00000000000E+00  0.00000000000E+00  0.37058328583E+03  0.37058328586E+03  0.50400001928E-02 0. -1.
       -1   -1    0    0    0  501  0.00000000000E+00  0.00000000000E+00 -0.24066892711E+03  0.24066892716E+03  0.50400001928E-02 0.  1.
    10030    2    1    2    0    0  0.00000000000E+00  0.00000000000E+00  0.12991435872E+03  0.61125221302E+03  0.59728680492E+03 0.  0.
        1    1    3    3  502    0 -0.14541159906E+03  0.29418497256E+02  0.33020433650E+03  0.36200122236E+03  0.50400001928E-02 0. -1.
       -1    1    3    3    0  502  0.14541159906E+03 -0.29418497256E+02 -0.20028997778E+03  0.24925099066E+03  0.50400001928E-02 0.  1.
</event>
<event>
 5   0  0.5755078E-02  0.5959023E+03  0.7818609E-02  0.9913944E-01
       -2   -1    0    0    0  501  0.00000000000E+00  0.00000000000E+00  0.99594997834E+02  0.99594997866E+02  0.25500000920E-02 0. -1.
        2   -1    0    0  501    0  0.00000000000E+00  0.00000000000E+00 -0.89135894638E+03  0.89135894638E+03  0.25500000920E-02 0.  1.
    10030    2    1    2    0    0  0.00000000000E+00  0.00000000000E+00 -0.79176394854E+03  0.99095394425E+03  0.59590231532E+03 0.  0.
        2    1    3    3  502    0  0.10838326265E+03 -0.26863944401E+03 -0.51182181881E+03  0.58811194233E+03  0.25500000920E-02 0. -1.
       -2    1    3    3    0  502 -0.10838326265E+03  0.26863944401E+03 -0.27994212973E+03  0.40284200191E+03  0.25500000920E-02 0.  1.
</event>
<event>
 5   0  0.5999117E-02  0.6013851E+03  0.7818609E-02  0.9902537E-01
       -2   -1    0    0    0  501  0.00000000000E+00  0.00000000000E+00  0.14057631717E+03  0.14057631720E+03  0.25500000920E-02 0. -1.
        2   -1    0    0  501    0  0.00000000000E+00  0.00000000000E+00 -0.64318102366E+03  0.64318102367E+03  0.25500000920E-02 0.  1.
    10030    2    1    2    0    0  0.00000000000E+00  0.00000000000E+00 -0.50260470649E+03  0.78375734087E+03  0.60138513315E+03 0.  0.
        5    1    3    3  502    0 -0.56338128732E+02  0.25918230991E+03 -0.66789647475E+02  0.27355511607E+03  0.46999998093E+01 0. -1.
       -5    1    3    3    0  502  0.56338128732E+02 -0.25918230991E+03 -0.43581505901E+03  0.51020222479E+03  0.46999998093E+01 0.  1.
</event>
<event>
 5   0  0.3767635E-02  0.5946132E+03  0.7818609E-02  0.9916645E-01
       -1   -1    0    0    0  501  0.00000000000E+00  0.00000000000E+00  0.86810864799E+02  0.86810864946E+02  0.50400001928E-02 0.  1.
        1   -1    0    0  501    0  0.00000000000E+00  0.00000000000E+00 -0.10182046817E+04  0.10182046817E+04  0.50400001928E-02 0. -1.
    10030    2    1    2    0    0  0.00000000000E+00  0.00000000000E+00 -0.93139381687E+03  0.11050155466E+04  0.59461324925E+03 0.  0.
        2    1    3    3  502    0  0.61052329986E+02  0.33402639293E+02  0.71461168152E+02  0.99748793821E+02  0.25500000920E-02 0.  1.
       -2    1    3    3    0  502 -0.61052329986E+02 -0.33402639293E+02 -0.10028549850E+04  0.10052667528E+04  0.25500000920E-02 0. -1.
</event>
<event>
 5   0  0.5755078E-02  0.5375655E+03  0.7818609E-02  0.1004414E+00
       -2   -1    0    0    0  501  0.00000000000E+00  0.00000000000E+00  0.77806779488E+02  0.77806779529E+02  0.25500000920E-02 0. -1.
        2   -1    0    0  501    0  0.00000000000E+00  0.00000000000E+00 -0.92850744998E+03  0.92850744998E+03  0.25500000920E-02 0.  1.
    10030    2    1    2    0    0  0.00000000000E+00  0.00000000000E+00 -0.85070067049E+03  0.10063142295E+04  0.53756552879E+03 0.  0.
        2    1    3    3  502    0 -0.29953125239E+01  0.18114504758E+03 -0.53669871446E+02  0.18895225658E+03  0.25500000920E-02 0. -1.
       -2    1    3    3    0  502  0.29953125239E+01 -0.18114504758E+03 -0.79703079904E+03  0.81736197293E+03  0.25500000920E-02 0.  1.
</event>
<event>
 5   0  0.5935451E-02  0.5733865E+03  0.7818609E-02  0.9962213E-01
       -2   -1    0    0    0  501  0.00000000000E+00  0.00000000000E+00  0.10115650619E+03  0.10115650622E+03  0.25500000920E-02 0. -1.
        2   -1    0    0  501    0  0.00000000000E+00  0.00000000000E+00 -0.81253333406E+03  0.81253333407E+03  0.25500000920E-02 0.  1.
    10030    2    1    2    0    0  0.00000000000E+00  0.00000000000E+00 -0.71137682787E+03  0.91368984029E+03  0.57338654765E+03 0.  0.
        3    1    3    3  502    0 -0.24563703758E+03  0.89744800304E+02 -0.16848579590E+03  0.31109348600E+03  0.10100000352E+00 0. -1.
       -3    1    3    3    0  502  0.24563703758E+03 -0.89744800304E+02 -0.54289103197E+03  0.60259635429E+03  0.10100000352E+00 0.  1.
</event>
<event>
 5   0  0.3703280E-02  0.5968177E+03  0.7818609E-02  0.9912030E-01
       -1   -1    0    0    0  501  0.00000000000E+00  0.00000000000E+00  0.15163295170E+03  0.15163295178E+03  0.50400001928E-02 0. -1.
        1   -1    0    0  501    0  0.00000000000E+00  0.00000000000E+00 -0.58725925232E+03  0.58725925234E+03  0.50400001928E-02 0.  1.
    10030    2    1    2    0    0  0.00000000000E+00  0.00000000000E+00 -0.43562630062E+03  0.73889220412E+03  0.59681774063E+03 0.  0.
        5    1    3    3  502    0  0.21355309236E+03  0.19262235712E+03 -0.11940957200E+03  0.31143062085E+03  0.46999998093E+01 0.  1.
       -5    1    3    3    0  502 -0.21355309236E+03 -0.19262235712E+03 -0.31621672862E+03  0.42746158328E+03  0.46999998093E+01 0. -1.
</event>
<event>
 5   0  0.3640827E-02  0.6002916E+03  0.7818609E-02  0.9904801E-01
        1   -1    0    0  501    0  0.00000000000E+00  0.00000000000E+00  0.14805460703E+03  0.14805460711E+03  0.50400001928E-02 0.  1.
       -1   -1    0    0    0  501  0.00000000000E+00  0.00000000000E+00 -0.60847482864E+03  0.60847482866E+03  0.50400001928E-02 0. -1.
    10030    2    1    2    0    0  0.00000000000E+00  0.00000000000E+00 -0.46042022161E+03  0.75652943577E+03  0.60029160141E+03 0.  0.
        3    1    3    3  502    0 -0.52759218792E+02  0.27294318638E+03 -0.87593582670E+02  0.29146897619E+03  0.10100000352E+00 0. -1.
       -3    1    3    3    0  502  0.52759218792E+02 -0.27294318638E+03 -0.37282663895E+03  0.46506045958E+03  0.10100000352E+00 0.  1.
</event>
<event>
 5   0  0.5872632E-02  0.5878369E+03  0.7818609E-02  0.9930967E-01
        2   -1    0    0  501    0  0.00000000000E+00  0.00000000000E+00  0.92745292636E+03  0.92745292636E+03  0.25500000920E-02 0. -1.
       -2   -1    0    0    0  501  0.00000000000E+00  0.00000000000E+00 -0.93145474540E+02  0.93145474575E+02  0.25500000920E-02 0.  1.
    10030    2    1    2    0    0  0.00000000000E+00  0.00000000000E+00  0.83430745182E+03  0.10205984009E+04  0.58783685818E+03 0.  0.
        1    1    3    3  502    0  0.11672351085E+03  0.41040814252E+02 -0.45727633355E+02  0.13190808503E+03  0.50400001928E-02 0.  1.
       -1    1    3    3    0  502 -0.11672351085E+03 -0.41040814252E+02  0.88003508517E+03  0.88869031590E+03  0.50400001928E-02 0. -1.
</event>
<event>
 5   0  0.3478183E-02  0.5951728E+03  0.7818609E-02  0.9915472E-01
       -1   -1    0    0    0  501  0.00000000000E+00  0.00000000000E+00  0.24525181691E+03  0.24525181696E+03  0.50400001928E-02 0.  1.
        1   -1    0    0  501    0  0.00000000000E+00  0.00000000000E+00 -0.36108867158E+03  0.36108867162E+03  0.50400001928E-02 0. -1.
    10030    2    1    2    0    0  0.00000000000E+00  0.00000000000E+00 -0.11583685467E+03  0.60634048858E+03  0.59517275744E+03 0.  0.
        4    1    3    3  502    0 -0.29597275773E+03 -0.30676385132E+02 -0.61880616760E+02  0.30392719120E+03  0.12699999809E+01 0.  1.
       -4    1    3    3    0  502  0.29597275773E+03  0.30676385132E+02 -0.53956237911E+02  0.30241329738E+03  0.12699999809E+01 0. -1.
</event>
<event>
 5   0  0.3767635E-02  0.5925384E+03  0.7818609E-02  0.9921009E-01
        1   -1    0    0  501    0  0.00000000000E+00  0.00000000000E+00  0.80477748215E+03  0.80477748216E+03  0.50400001928E-02 0.  1.
       -1   -1    0    0    0  501  0.00000000000E+00  0.00000000000E+00 -0.10906796912E+03  0.10906796923E+03  0.50400001928E-02 0. -1.
    10030    2    1    2    0    0  0.00000000000E+00  0.00000000000E+00  0.69570951303E+03  0.91384545140E+03  0.59253842282E+03 0.  0.
        2    1    3    3  502    0 -0.24984016750E+03  0.13268444626E+03  0.48362730351E+03  0.56028621283E+03  0.25500000920E-02 0.  1.
       -2    1    3    3    0  502  0.24984016750E+03 -0.13268444626E+03  0.21208220951E+03  0.35355923857E+03  0.25500000920E-02 0. -1.
</event>
<event>
 5   0  0.6007360E-02  0.6052995E+03  0.7818609E-02  0.9894472E-01
       -2   -1    0    0    0  501  0.00000000000E+00  0.00000000000E+00  0.83421306836E+02  0.83421306875E+02  0.25500000920E-02 0.  1.
        2   -1    0    0  501    0  0.00000000000E+00  0.00000000000E+00 -0.10980034727E+04  0.10980034727E+04  0.25500000920E-02 0. -1.
    10030    2    1    2    0    0  0.00000000000E+00  0.00000000000E+00 -0.10145821659E+04  0.11814247796E+04  0.60529954445E+03 0.  0.
        4    1    3    3  502    0  0.12859509515E+02  0.26053535670E+03 -0.20775954945E+03  0.33348115744E+03  0.12699999809E+01 0.  1.
       -4    1    3    3    0  502 -0.12859509515E+02 -0.26053535670E+03 -0.80682261642E+03  0.84794362215E+03  0.12699999809E+01 0. -1.
</event>
<event>
 5   0  0.5755078E-02  0.5945550E+03  0.7818609E-02  0.9916768E-01
        2   -1    0    0  501    0  0.00000000000E+00  0.00000000000E+00  0.20222997625E+03  0.20222997626E+03  0.25500000920E-02 0.  1.
       -2   -1    0    0    0  501  0.00000000000E+00  0.00000000000E+00 -0.43699703822E+03  0.43699703822E+03  0.25500000920E-02 0. -1.
    10030    2    1    2    0    0  0.00000000000E+00  0.00000000000E+00 -0.23476706197E+03  0.63922701449E+03  0.59455496185E+03 0.  0.
        2    1    3    3  502    0 -0.15488565665E+02  0.20821821061E+03  0.11012683518E+03  0.23605643124E+03  0.25500000920E-02 0.  1.
       -2    1    3    3    0  502  0.15488565665E+02 -0.20821821061E+03 -0.34489389715E+03  0.40317058325E+03  0.25500000920E-02 0. -1.
</event>
<event>
 5   0  0.5935451E-02  0.6064509E+03  0.7818609E-02  0.9892112E-01
        2   -1    0    0  501    0  0.00000000000E+00  0.00000000000E+00  0.26951369838E+04  0.26951369838E+04  0.25500000920E-02 0. -1.
       -2   -1    0    0    0  501  0.00000000000E+00  0.00000000000E+00 -0.34115395883E+02  0.34115395978E+02  0.25500000920E-02 0.  1.
    10030    2    1    2    0    0  0.00000000000E+00  0.00000000000E+00  0.26610215879E+04  0.27292523798E+04  0.60645087284E+03 0.  0.
        3    1    3    3  502    0 -0.15831204768E+03 -0.24020562130E+03  0.89922120128E+03  0.94411875523E+03  0.10100000352E+00 0. -1.
       -3    1    3    3    0  502  0.15831204768E+03  0.24020562130E+03  0.17618003866E+04  0.17851336246E+04  0.10100000352E+00 0.  1.
</event>
<event>
 5   0  0.2388000E-02  0.5950682E+03  0.7818609E-02  0.9915691E-01
       -4   -1    0    0    0  501  0.00000000000E+00  0.00000000000E+00  0.23417723151E+03  0.23418067525E+03  0.12699999809E+01 0. -1.
        4   -1    0    0  501    0  0.00000000000E+00  0.00000000000E+00 -0.37802497425E+03  0.37802710757E+03  0.12699999809E+01 0.  1.
    10030    2    1    2    0    0  0.00000000000E+00  0.00000000000E+00 -0.14384774274E+03  0.61220778282E+03  0.59506822823E+03 0.  0.
        2    1    3    3  502    0 -0.22994329963E+02  0.95062218725E+02  0.21716965074E+03  0.23817687094E+03  0.25500000920E-02 0. -1.
       -2    1    3    3    0  502  0.22994329963E+02 -0.95062218725E+02 -0.36101739348E+03  0.37403091188E+03  0.25500000920E-02 0.  1.
</event>
<event>
 5   0  0.6007360E-02  0.5989961E+03  0.7818609E-02  0.9907491E-01
        2   -1    0    0  501    0  0.00000000000E+00  0.00000000000E+00  0.23690644031E+03  0.23690644032E+03  0.25500000920E-02 0. -1.
       -2   -1    0    0    0  501  0.00000000000E+00  0.00000000000E+00 -0.37862659670E+03  0.37862659671E+03  0.25500000920E-02 0.  1.
    10030    2    1    2    0    0  0.00000000000E+00  0.00000000000E+00 -0.14172015639E+03  0.61553303704E+03  0.59899609093E+03 0.  0.
        4    1    3    3  502    0 -0.21385009450E+02  0.40472940566E+02 -0.37500782965E+03  0.37779341279E+03  0.12699999809E+01 0.  1.
       -4    1    3    3    0  502  0.21385009450E+02 -0.40472940566E+02  0.23328767325E+03  0.23773962425E+03  0.12699999809E+01 0. -1.
</event>
<event>
 5   0  0.5935451E-02  0.5816081E+03  0.7818609E-02  0.9944316E-01
       -2   -1    0    0    0  501  0.00000000000E+00  0.00000000000E+00  0.64627408878E+02  0.64627408928E+02  0.25500000920E-02 0. -1.
        2   -1    0    0  501    0  0.00000000000E+00  0.00000000000E+00 -0.13085312561E+04  0.13085312561E+04  0.25500000920E-02 0.  1.
    10030    2    1    2    0    0  0.00000000000E+00  0.00000000000E+00 -0.12439038472E+04  0.13731586650E+04  0.58160806236E+03 0.  0.
        3    1    3    3  502    0  0.15040803574E+03 -0.90688617481E+01 -0.12091746006E+04  0.12185269987E+04  0.10100000352E+00 0.  1.
       -3    1    3    3    0  502 -0.15040803574E+03  0.90688617481E+01 -0.34729246578E+02  0.15463166635E+03  0.10100000352E+00 0. -1.
</event>
<event>
 5   0  0.3640827E-02  0.6012828E+03  0.7818609E-02  0.9902748E-01
       -1   -1    0    0    0  501  0.00000000000E+00  0.00000000000E+00  0.14852931926E+03  0.14852931934E+03  0.50400001928E-02 0.  1.
        1   -1    0    0  501    0  0.00000000000E+00  0.00000000000E+00 -0.60853479937E+03  0.60853479940E+03  0.50400001928E-02 0. -1.
    10030    2    1    2    0    0  0.00000000000E+00  0.00000000000E+00 -0.46000548012E+03  0.75706411874E+03  0.60128282708E+03 0.  0.
        3    1    3    3  502    0 -0.41356808116E+02 -0.15154923122E+03 -0.55274956362E+03  0.57463870853E+03  0.10100000352E+00 0. -1.
       -3    1    3    3    0  502  0.41356808116E+02  0.15154923122E+03  0.92744083502E+02  0.18242541020E+03  0.10100000352E+00 0.  1.
</event>
<event>
 5   0  0.5935451E-02  0.6115492E+03  0.7818609E-02  0.9881731E-01
       -2   -1    0    0    0  501  0.00000000000E+00  0.00000000000E+00  0.28397422608E+03  0.28397422609E+03  0.25500000920E-02 0.  1.
        2   -1    0    0  501    0  0.00000000000E+00  0.00000000000E+00 -0.32924851265E+03  0.32924851266E+03  0.25500000920E-02 0. -1.
    10030    2    1    2    0    0  0.00000000000E+00  0.00000000000E+00 -0.45274286571E+02  0.61322273876E+03  0.61154915281E+03 0.  0.
        3    1    3    3  502    0  0.11475057211E+03 -0.10240837194E+03 -0.28763847332E+03  0.32617643995E+03  0.10100000352E+00 0. -1.
       -3    1    3    3    0  502 -0.11475057211E+03  0.10240837194E+03  0.24236418675E+03  0.28704629881E+03  0.10100000352E+00 0.  1.
</event>
<event>
 5   0  0.3767635E-02  0.5991141E+03  0.7818609E-02  0.9907246E-01
       -1   -1    0    0    0  501  0.00000000000E+00  0.00000000000E+00  0.87469255276E+02  0.87469255421E+02  0.50400001928E-02 0.  1.
        1   -1    0    0  501    0  0.00000000000E+00  0.00000000000E+00 -0.10258967283E+04  0.10258967284E+04  0.50400001928E-02 0. -1.
    10030    2    1    2    0    0  0.00000000000E+00  0.00000000000E+00 -0.93842747307E+03  0.11133659838E+04  0.59911408899E+03 0.  0.
        2    1    3    3  502    0  0.13416901197E+03  0.10044296800E+03 -0.78165828747E+01  0.16778323090E+03  0.25500000920E-02 0.  1.
       -2    1    3    3    0  502 -0.13416901197E+03 -0.10044296800E+03 -0.93061089020E+03  0.94558275289E+03  0.25500000920E-02 0. -1.
</event>
<event>
 5   0  0.3651984E-02  0.6069624E+03  0.7818609E-02  0.9891066E-01
       -1   -1    0    0    0  501  0.00000000000E+00  0.00000000000E+00  0.10247196992E+03  0.10247197005E+03  0.50400001928E-02 0. -1.
        1   -1    0    0  501    0  0.00000000000E+00  0.00000000000E+00 -0.89879062774E+03  0.89879062775E+03  0.50400001928E-02 0.  1.
    10030    2    1    2    0    0  0.00000000000E+00  0.00000000000E+00 -0.79631865781E+03  0.10012625978E+04  0.60696242468E+03 0.  0.
        1    1    3    3  502    0  0.27930021833E+03  0.11653529008E+03 -0.43547742997E+03  0.53031092562E+03  0.50400001928E-02 0.  1.
       -1    1    3    3    0  502 -0.27930021833E+03 -0.11653529008E+03 -0.36084122785E+03  0.47095167218E+03  0.50400001928E-02 0. -1.
</event>
<event>
 5   0  0.6007360E-02  0.6004338E+03  0.7818609E-02  0.9904507E-01
       -2   -1    0    0    0  501  0.00000000000E+00  0.00000000000E+00  0.45829953879E+03  0.45829953879E+03  0.25500000920E-02 0. -1.
        2   -1    0    0  501    0  0.00000000000E+00  0.00000000000E+00 -0.19666216596E+03  0.19666216598E+03  0.25500000920E-02 0.  1.
    10030    2    1    2    0    0  0.00000000000E+00  0.00000000000E+00  0.26163737282E+03  0.65496170477E+03  0.60043377641E+03 0.  0.
        4    1    3    3  502    0  0.60442884587E+02 -0.25946630961E+03 -0.20141722316E+02  0.26717673926E+03  0.12699999809E+01 0.  1.
       -4    1    3    3    0  502 -0.60442884587E+02  0.25946630961E+03  0.28177909514E+03  0.38778496551E+03  0.12699999809E+01 0. -1.
</event>
<event>
 5   0  0.6007360E-02  0.6045598E+03  0.7818609E-02  0.9895991E-01
        2   -1    0    0  501    0  0.00000000000E+00  0.00000000000E+00  0.30292602156E+03  0.30292602157E+03  0.25500000920E-02 0.  1.
       -2   -1    0    0    0  501  0.00000000000E+00  0.00000000000E+00 -0.30163513424E+03  0.30163513425E+03  0.25500000920E-02 0. -1.
    10030    2    1    2    0    0  0.00000000000E+00  0.00000000000E+00  0.12908873160E+01  0.60456115582E+03  0.60455977764E+03 0.  0.
        4    1    3    3  502    0  0.18567863036E+03  0.13611308868E+03 -0.19523300471E+03  0.30186232907E+03  0.12699999809E+01 0. -1.
       -4    1    3    3    0  502 -0.18567863036E+03 -0.13611308868E+03  0.19652389202E+03  0.30269882675E+03  0.12699999809E+01 0.  1.
</event>
<event>
 5   0  0.6007360E-02  0.6039231E+03  0.7818609E-02  0.9897300E-01
       -2   -1    0    0    0  501  0.00000000000E+00  0.00000000000E+00  0.13127950508E+03  0.13127950510E+03  0.25500000920E-02 0. -1.
        2   -1    0    0  501    0  0.00000000000E+00  0.00000000000E+00 -0.69455455035E+03  0.69455455036E+03  0.25500000920E-02 0.  1.
    10030    2    1    2    0    0  0.00000000000E+00  0.00000000000E+00 -0.56327504528E+03  0.82583405546E+03  0.60392309985E+03 0.  0.
        4    1    3    3  502    0  0.15222776870E+03 -0.10386515589E+03 -0.60873493312E+03  0.63601972915E+03  0.12699999809E+01 0.  1.
       -4    1    3    3    0  502 -0.15222776870E+03  0.10386515589E+03  0.45459887843E+02  0.18981432631E+03  0.12699999809E+01 0. -1.
</event>
<event>
 5   0  0.2388000E-02  0.5930230E+03  0.7818609E-02  0.9919988E-01
        3   -1    0    0  501    0  0.00000000000E+00  0.00000000000E+00  0.18023939530E+03  0.18023942360E+03  0.10100000352E+00 0. -1.
       -3   -1    0    0    0  501  0.00000000000E+00  0.00000000000E+00 -0.48779051244E+03  0.48779052290E+03  0.10100000352E+00 0.  1.
    10030    2    1    2    0    0  0.00000000000E+00  0.00000000000E+00 -0.30755111714E+03  0.66802994650E+03  0.59302303477E+03 0.  0.
        2    1    3    3  502    0  0.25057255013E+03 -0.12972942743E+03 -0.51131120808E+02  0.28675899069E+03  0.25500000920E-02 0.  1.
       -2    1    3    3    0  502 -0.25057255013E+03  0.12972942743E+03 -0.25641999633E+03  0.38127095581E+03  0.25500000920E-02 0. -1.
</event>
<event>
 5   0  0.3651984E-02  0.5976503E+03  0.7818609E-02  0.9910293E-01
        1   -1    0    0  501    0  0.00000000000E+00  0.00000000000E+00  0.12597851006E+03  0.12597851016E+03  0.50400001928E-02 0. -1.
       -1   -1    0    0    0  501  0.00000000000E+00  0.00000000000E+00 -0.70882295313E+03  0.70882295314E+03  0.50400001928E-02 0.  1.
    10030    2    1    2    0    0  0.00000000000E+00  0.00000000000E+00 -0.58284444306E+03  0.83480146331E+03  0.59765026423E+03 0.  0.
        1    1    3    3  502    0 -0.22473027995E+03  0.18413992641E+03 -0.19379309394E+03  0.34923770488E+03  0.50400001928E-02 0. -1.
       -1    1    3    3    0  502  0.22473027995E+03 -0.18413992641E+03 -0.38905134912E+03  0.48556375843E+03  0.50400001928E-02 0.  1.
</event>
<event>
 5   0  0.2388000E-02  0.5917717E+03  0.7818609E-02  0.9922626E-01
        3   -1    0    0  501    0  0.00000000000E+00  0.00000000000E+00  0.26626208879E+03  0.26626210795E+03  0.10100000352E+00 0. -1.
       -3   -1    0    0    0  501  0.00000000000E+00  0.00000000000E+00 -0.32880546268E+03  0.32880547819E+03  0.10100000352E+00 0.  1.
    10030    2    1    2    0    0  0.00000000000E+00  0.00000000000E+00 -0.62543373888E+02  0.59506758614E+03  0.59177171144E+03 0.  0.
        2    1    3    3  502    0  0.11300776308E+03 -0.15518210300E+03  0.19514049891E+03  0.27373719866E+03  0.25500000920E-02 0. -1.
       -2    1    3    3    0  502 -0.11300776308E+03  0.15518210300E+03 -0.25768387280E+03  0.32133038748E+03  0.25500000920E-02 0.  1.
</event>
<event>
 5   0  0.5935451E-02  0.6012967E+03  0.7818609E-02  0.9902720E-01
        2   -1    0    0  501    0  0.00000000000E+00  0.00000000000E+00  0.12993831834E+04  0.12993831834E+04  0.25500000920E-02 0. -1.
       -2   -1    0    0    0  501  0.00000000000E+00  0.00000000000E+00 -0.69563329728E+02  0.69563329774E+02  0.25500000920E-02 0.  1.
    10030    2    1    2    0    0  0.00000000000E+00  0.00000000000E+00  0.12298198536E+04  0.13689465131E+04  0.60129666841E+03 0.  0.
        3    1    3    3  502    0 -0.19261511453E+03 -0.72789024729E+02  0.11616819416E+03  0.23641887404E+03  0.10100000352E+00 0.  1.
       -3    1    3    3    0  502  0.19261511453E+03  0.72789024729E+02  0.11136516595E+04  0.11325276391E+04  0.10100000352E+00 0. -1.
</event>
<event>
 5   0  0.2388000E-02  0.6041894E+03  0.7818609E-02  0.9896752E-01
        3   -1    0    0  501    0  0.00000000000E+00  0.00000000000E+00  0.56524928644E+03  0.56524929547E+03  0.10100000352E+00 0. -1.
       -3   -1    0    0    0  501  0.00000000000E+00  0.00000000000E+00 -0.16145297860E+03  0.16145301020E+03  0.10100000352E+00 0.  1.
    10030    2    1    2    0    0  0.00000000000E+00  0.00000000000E+00  0.40379630784E+03  0.72670230566E+03  0.60418936008E+03 0.  0.
        4    1    3    3  502    0  0.39049942462E+01  0.16343511455E+03 -0.10364699475E+03  0.19357323696E+03  0.12699999809E+01 0.  1.
       -4    1    3    3    0  502 -0.39049942462E+01 -0.16343511455E+03  0.50744330259E+03  0.53312906870E+03  0.12699999809E+01 0. -1.
</event>
<event>
 5   0  0.5872632E-02  0.5984783E+03  0.7818609E-02  0.9908568E-01
       -2   -1    0    0    0  501  0.00000000000E+00  0.00000000000E+00  0.14457654251E+03  0.14457654253E+03  0.25500000920E-02 0. -1.
        2   -1    0    0  501    0  0.00000000000E+00  0.00000000000E+00 -0.61935415424E+03  0.61935415425E+03  0.25500000920E-02 0.  1.
    10030    2    1    2    0    0  0.00000000000E+00  0.00000000000E+00 -0.47477761174E+03  0.76393069678E+03  0.59847834453E+03 0.  0.
        1    1    3    3  502    0 -0.13201435503E+03  0.87250148581E+02  0.86799875127E+02  0.18048433923E+03  0.50400001928E-02 0. -1.
       -1    1    3    3    0  502  0.13201435503E+03 -0.87250148581E+02 -0.56157748686E+03  0.58344635755E+03  0.50400001928E-02 0.  1.
</event>
<event>
 5   0  0.2388000E-02  0.5976177E+03  0.7818609E-02  0.9910361E-01
       -4   -1    0    0    0  501  0.00000000000E+00  0.00000000000E+00  0.78516431000E+03  0.78516533711E+03  0.12699999809E+01 0. -1.
        4   -1    0    0  501    0  0.00000000000E+00  0.00000000000E+00 -0.11371259653E+03  0.11371968832E+03  0.12699999809E+01 0.  1.
    10030    2    1    2    0    0  0.00000000000E+00  0.00000000000E+00  0.67145171347E+03  0.89888502542E+03  0.59761767495E+03 0.  0.
        4    1    3    3  502    0 -0.11789868195E+03 -0.12271170545E+03  0.70515914389E+03  0.72540284875E+03  0.12699999809E+01 0. -1.
       -4    1    3    3    0  502  0.11789868195E+03  0.12271170545E+03 -0.33707430425E+02  0.17348217668E+03  0.12699999809E+01 0.  1.
</event>
<event>
 5   0  0.3651984E-02  0.6027467E+03  0.7818609E-02  0.9899724E-01
        1   -1    0    0  501    0  0.00000000000E+00  0.00000000000E+00  0.77111694652E+03  0.77111694654E+03  0.50400001928E-02 0. -1.
       -1   -1    0    0    0  501  0.00000000000E+00  0.00000000000E+00 -0.11778484168E+03  0.11778484178E+03  0.50400001928E-02 0.  1.
    10030    2    1    2    0    0  0.00000000000E+00  0.00000000000E+00  0.65333210484E+03  0.88890178832E+03  0.60274667155E+03 0.  0.
        1    1    3    3  502    0 -0.47472382329E+02  0.14464553871E+03 -0.56911011191E+02  0.16252637378E+03  0.50400001928E-02 0.  1.
       -1    1    3    3    0  502  0.47472382329E+02 -0.14464553871E+03  0.71024311604E+03  0.72637541454E+03  0.50400001928E-02 0. -1.
</event>
<event>
 5   0  0.2388000E-02  0.6016711E+03  0.7818609E-02  0.9901945E-01
        4   -1    0    0  501    0  0.00000000000E+00  0.00000000000E+00  0.48492339254E+03  0.48492505559E+03  0.12699999809E+01 0. -1.
       -4   -1    0    0    0  501  0.00000000000E+00  0.00000000000E+00 -0.18662742579E+03  0.18663174691E+03  0.12699999809E+01 0.  1.
    10030    2    1    2    0    0  0.00000000000E+00  0.00000000000E+00  0.29829596676E+03  0.67155680250E+03  0.60167105232E+03 0.  0.
        5    1    3    3  502    0 -0.22477175177E+03 -0.16469286875E+03  0.27559307815E+03  0.39194351140E+03  0.46999998093E+01 0. -1.
       -5    1    3    3    0  502  0.22477175177E+03  0.16469286875E+03  0.22702888609E+02  0.27961329110E+03  0.46999998093E+01 0.  1.
</event>
<event>
 5   0  0.5935451E-02  0.5788219E+03  0.7818609E-02  0.9950345E-01
        2   -1    0    0  501    0  0.00000000000E+00  0.00000000000E+00  0.82028876450E+02  0.82028876489E+02  0.25500000920E-02 0. -1.
       -2   -1    0    0    0  501  0.00000000000E+00  0.00000000000E+00 -0.10210878819E+04  0.10210878819E+04  0.25500000920E-02 0.  1.
    10030    2    1    2    0    0  0.00000000000E+00  0.00000000000E+00 -0.93905900545E+03  0.11031167584E+04  0.57882187841E+03 0.  0.
        3    1    3    3  502    0  0.21146491517E+03  0.27270660861E+02 -0.84248947407E+03  0.86905099011E+03  0.10100000352E+00 0.  1.
       -3    1    3    3    0  502 -0.21146491517E+03 -0.27270660861E+02 -0.96569531378E+02  0.23406576828E+03  0.10100000352E+00 0. -1.
</event>
<event>
 5   0  0.3767635E-02  0.6037828E+03  0.7818609E-02  0.9897589E-01
        1   -1    0    0  501    0  0.00000000000E+00  0.00000000000E+00  0.34906662528E+03  0.34906662531E+03  0.50400001928E-02 0.  1.
       -1   -1    0    0    0  501  0.00000000000E+00  0.00000000000E+00 -0.26109173916E+03  0.26109173921E+03  0.50400001928E-02 0. -1.
    10030    2    1    2    0    0  0.00000000000E+00  0.00000000000E+00  0.87974886117E+02  0.61015836452E+03  0.60378278313E+03 0.  0.
        2    1    3    3  502    0  0.23294186755E+01 -0.13320713733E+03 -0.22977689228E+03  0.26560682947E+03  0.25500000920E-02 0. -1.
       -2    1    3    3    0  502 -0.23294186755E+01  0.13320713733E+03  0.31775177839E+03  0.34455153505E+03  0.25500000920E-02 0.  1.
</event>
<event>
 5   0  0.5755078E-02  0.5975868E+03  0.7818609E-02  0.9910425E-01
        2   -1    0    0  501    0  0.00000000000E+00  0.00000000000E+00  0.23865648328E+03  0.23865648329E+03  0.25500000920E-02 0. -1.
       -2   -1    0    0    0  501  0.00000000000E+00  0.00000000000E+00 -0.37408373714E+03  0.37408373715E+03  0.25500000920E-02 0.  1.
    10030    2    1    2    0    0  0.00000000000E+00  0.00000000000E+00 -0.13542725386E+03  0.61274022044E+03  0.59758684445E+03 0.  0.
        2    1    3    3  502    0  0.27198100980E+03 -0.84123621069E+02 -0.16071676080E+03  0.32692557337E+03  0.25500000920E-02 0.  1.
       -2    1    3    3    0  502 -0.27198100980E+03  0.84123621069E+02  0.25289506938E+02  0.28581464707E+03  0.25500000920E-02 0. -1.
</event>
<event>
 5   0  0.3640827E-02  0.6086552E+03  0.7818609E-02  0.9887610E-01
        1   -1    0    0  501    0  0.00000000000E+00  0.00000000000E+00  0.14535310130E+04  0.14535310130E+04  0.50400001928E-02 0.  1.
       -1   -1    0    0    0  501  0.00000000000E+00  0.00000000000E+00 -0.63717456479E+02  0.63717456678E+02  0.50400001928E-02 0. -1.
    10030    2    1    2    0    0  0.00000000000E+00  0.00000000000E+00  0.13898135565E+04  0.15172484696E+04  0.60865523646E+03 0.  0.
        3    1    3    3  502    0  0.24585198307E+03 -0.16116098128E+03  0.49863665081E+03  0.57883899247E+03  0.10100000352E+00 0. -1.
       -3    1    3    3    0  502 -0.24585198307E+03  0.16116098128E+03  0.89117690566E+03  0.93840947717E+03  0.10100000352E+00 0.  1.
</event>
<event>
 5   0  0.3651984E-02  0.5926599E+03  0.7818609E-02  0.9920753E-01
        1   -1    0    0  501    0  0.00000000000E+00  0.00000000000E+00  0.69457076436E+02  0.69457076618E+02  0.50400001928E-02 0. -1.
       -1   -1    0    0    0  501  0.00000000000E+00  0.00000000000E+00 -0.12642546077E+04  0.12642546077E+04  0.50400001928E-02 0.  1.
    10030    2    1    2    0    0  0.00000000000E+00  0.00000000000E+00 -0.11947975312E+04  0.13337116843E+04  0.59265986551E+03 0.  0.
        1    1    3    3  502    0 -0.31057716222E+02  0.28575051414E+03 -0.75957459496E+03  0.81214007622E+03  0.50400001928E-02 0.  1.
       -1    1    3    3    0  502  0.31057716222E+02 -0.28575051414E+03 -0.43522293627E+03  0.52157160807E+03  0.50400001928E-02 0. -1.
</event>
<event>
 5   0  0.6007360E-02  0.5927334E+03  0.7818609E-02  0.9920598E-01
       -2   -1    0    0    0  501  0.00000000000E+00  0.00000000000E+00  0.13436174922E+03  0.13436174924E+03  0.25500000920E-02 0.  1.
        2   -1    0    0  501    0  0.00000000000E+00  0.00000000000E+00 -0.65370693975E+03  0.65370693976E+03  0.25500000920E-02 0. -1.
    10030    2    1    2    0    0  0.00000000000E+00  0.00000000000E+00 -0.51934519053E+03  0.78806868900E+03  0.59273335629E+03 0.  0.
        4    1    3    3  502    0  0.64061053821E+02  0.52133216161E+02 -0.63809231869E+03  0.64341674747E+03  0.12699999809E+01 0. -1.
       -4    1    3    3    0  502 -0.64061053821E+02 -0.52133216161E+02  0.11874712816E+03  0.14465194154E+03  0.12699999809E+01 0.  1.
</event>
<event>
 5   0  0.5999117E-02  0.6392875E+03  0.7818609E-02  0.9827091E-01
       -2   -1    0    0    0  501  0.00000000000E+00  0.00000000000E+00  0.19538399321E+03  0.19538399323E+03  0.25500000920E-02 0. -1.
        2   -1    0    0  501    0  0.00000000000E+00  0.00000000000E+00 -0.52292983462E+03  0.52292983462E+03  0.25500000920E-02 0.  1.
    10030    2    1    2    0    0  0.00000000000E+00  0.00000000000E+00 -0.32754584140E+03  0.71831382785E+03  0.63928747607E+03 0.  0.
        5    1    3    3  502    0  0.65107960170E+02 -0.18761080994E+03  0.11760978163E+03  0.23084846375E+03  0.46999998093E+01 0. -1.
       -5    1    3    3    0  502 -0.65107960170E+02  0.18761080994E+03 -0.44515562303E+03  0.48746536410E+03  0.46999998093E+01 0.  1.
</event>
<event>
 5   0  0.2388000E-02  0.5839788E+03  0.7818609E-02  0.9939214E-01
        4   -1    0    0  501    0  0.00000000000E+00  0.00000000000E+00  0.14451239314E+03  0.14451797352E+03  0.12699999809E+01 0. -1.
       -4   -1    0    0    0  501  0.00000000000E+00  0.00000000000E+00 -0.58995120816E+03  0.58995257514E+03  0.12699999809E+01 0.  1.
    10030    2    1    2    0    0  0.00000000000E+00  0.00000000000E+00 -0.44543881502E+03  0.73447054866E+03  0.58397880863E+03 0.  0.
        3    1    3    3  502    0 -0.42347966863E+02  0.35920590619E+02 -0.58325234114E+03  0.58588987256E+03  0.10100000352E+00 0.  1.
       -3    1    3    3    0  502  0.42347966863E+02 -0.35920590619E+02  0.13781352612E+03  0.14858067610E+03  0.10100000352E+00 0. -1.
</event>
<event>
 5   0  0.3767635E-02  0.6040620E+03  0.7818609E-02  0.9897014E-01
        1   -1    0    0  501    0  0.00000000000E+00  0.00000000000E+00  0.88113505133E+03  0.88113505135E+03  0.50400001928E-02 0.  1.
       -1   -1    0    0    0  501  0.00000000000E+00  0.00000000000E+00 -0.10352864104E+03  0.10352864116E+03  0.50400001928E-02 0. -1.
    10030    2    1    2    0    0  0.00000000000E+00  0.00000000000E+00  0.77760641030E+03  0.98466369251E+03  0.60406196537E+03 0.  0.
        2    1    3    3  502    0  0.35182032686E+00 -0.29944253537E+03  0.45311891810E+03  0.54312310732E+03  0.25500000920E-02 0.  1.
       -2    1    3    3    0  502 -0.35182032686E+00  0.29944253537E+03  0.32448749220E+03  0.44154058518E+03  0.25500000920E-02 0. -1.
</event>
<event>
 5   0  0.3651984E-02  0.6026559E+03  0.7818609E-02  0.9899911E-01
        1   -1    0    0  501    0  0.00000000000E+00  0.00000000000E+00  0.31609632480E+03  0.31609632484E+03  0.50400001928E-02 0.  1.
       -1   -1    0    0    0  501  0.00000000000E+00  0.00000000000E+00 -0.28724958459E+03  0.28724958463E+03  0.50400001928E-02 0. -1.
    10030    2    1    2    0    0  0.00000000000E+00  0.00000000000E+00  0.28846740215E+02  0.60334590947E+03  0.60265591514E+03 0.  0.
        1    1    3    3  502    0 -0.19684958466E+03  0.14019425962E+03  0.19461373911E+03  0.31028808692E+03  0.50400001928E-02 0.  1.
       -1    1    3    3    0  502  0.19684958466E+03 -0.14019425962E+03 -0.16576699889E+03  0.29305782255E+03  0.50400001928E-02 0. -1.
</event>
<event>
 5   0  0.3703280E-02  0.6603513E+03  0.7818609E-02  0.9787547E-01
        1   -1    0    0  501    0  0.00000000000E+00  0.00000000000E+00  0.48482873542E+03  0.48482873545E+03  0.50400001928E-02 0. -1.
       -1   -1    0    0    0  501  0.00000000000E+00  0.00000000000E+00 -0.22485455292E+03  0.22485455297E+03  0.50400001928E-02 0.  1.
    10030    2    1    2    0    0  0.00000000000E+00  0.00000000000E+00  0.25997418251E+03  0.70968328842E+03  0.66035126584E+03 0.  0.
        5    1    3    3  502    0 -0.22375907234E+03 -0.17537107664E+02  0.39018616795E+03  0.45015887001E+03  0.46999998093E+01 0. -1.
       -5    1    3    3    0  502  0.22375907234E+03  0.17537107664E+02 -0.13021198544E+03  0.25952441840E+03  0.46999998093E+01 0.  1.
</event>
<event>
 5   0  0.3640827E-02  0.5996661E+03  0.7818609E-02  0.9906099E-01
       -1   -1    0    0    0  501  0.00000000000E+00  0.00000000000E+00  0.15544864691E+03  0.15544864699E+03  0.50400001928E-02 0.  1.
        1   -1    0    0  501    0  0.00000000000E+00  0.00000000000E+00 -0.57832514091E+03  0.57832514093E+03  0.50400001928E-02 0. -1.
    10030    2    1    2    0    0  0.00000000000E+00  0.00000000000E+00 -0.42287649400E+03  0.73377378793E+03  0.59966610932E+03 0.  0.
        3    1    3    3  502    0  0.52082754101E+02  0.15444304286E+03 -0.51938324124E+03  0.54435671048E+03  0.10100000352E+00 0. -1.
       -3    1    3    3    0  502 -0.52082754101E+02 -0.15444304286E+03  0.96506747240E+02  0.18941707744E+03  0.10100000352E+00 0.  1.
</event>
<event>
 5   0  0.5872632E-02  0.5988940E+03  0.7818609E-02  0.9907703E-01
        2   -1    0    0  501    0  0.00000000000E+00  0.00000000000E+00  0.15845146816E+04  0.15845146816E+04  0.25500000920E-02 0.  1.
       -2   -1    0    0    0  501  0.00000000000E+00  0.00000000000E+00 -0.56590513606E+02  0.56590513663E+02  0.25500000920E-02 0. -1.
    10030    2    1    2    0    0  0.00000000000E+00  0.00000000000E+00  0.15279241680E+04  0.16411051953E+04  0.59889397959E+03 0.  0.
        1    1    3    3  502    0 -0.26795402069E+03 -0.10432063671E+03  0.99300220068E+03  0.10337966546E+04  0.50400001928E-02 0.  1.
       -1    1    3    3    0  502  0.26795402069E+03  0.10432063671E+03  0.53492196734E+03  0.60730854071E+03  0.50400001928E-02 0. -1.
</event>
<event>
 5   0  0.3640827E-02  0.6029545E+03  0.7818609E-02  0.9899295E-01
       -1   -1    0    0    0  501  0.00000000000E+00  0.00000000000E+00  0.20182345277E+03  0.20182345284E+03  0.50400001928E-02 0.  1.
        1   -1    0    0  501    0  0.00000000000E+00  0.00000000000E+00 -0.45033688463E+03  0.45033688466E+03  0.50400001928E-02 0. -1.
    10030    2    1    2    0    0  0.00000000000E+00  0.00000000000E+00 -0.24851343185E+03  0.65216033749E+03  0.60295454222E+03 0.  0.
        3    1    3    3  502    0  0.22278155775E+03 -0.40208147718E+02 -0.33960321918E+03  0.40814050803E+03  0.10100000352E+00 0. -1.
       -3    1    3    3    0  502 -0.22278155775E+03  0.40208147718E+02  0.91089787322E+02  0.24401982946E+03  0.10100000352E+00 0.  1.
</event>
<event>
 5   0  0.3651984E-02  0.6002948E+03  0.7818609E-02  0.9904795E-01
        1   -1    0    0  501    0  0.00000000000E+00  0.00000000000E+00  0.37340282147E+03  0.37340282151E+03  0.50400001928E-02 0.  1.
       -1   -1    0    0    0  501  0.00000000000E+00  0.00000000000E+00 -0.24126350466E+03  0.24126350471E+03  0.50400001928E-02 0. -1.
    10030    2    1    2    0    0  0.00000000000E+00  0.00000000000E+00  0.13213931681E+03  0.61466632622E+03  0.60029483884E+03 0.  0.
        1    1    3    3  502    0 -0.96210223205E+02 -0.71936597914E+02 -0.21557396425E+03  0.24678617315E+03  0.50400001928E-02 0. -1.
       -1    1    3    3    0  502  0.96210223205E+02  0.71936597914E+02  0.34771328107E+03  0.36788015307E+03  0.50400001928E-02 0.  1.
</event>
<event>
 5   0  0.3651984E-02  0.5844201E+03  0.7818609E-02  0.9938267E-01
       -1   -1    0    0    0  501  0.00000000000E+00  0.00000000000E+00  0.11135162598E+04  0.11135162598E+04  0.50400001928E-02 0. -1.
        1   -1    0    0  501    0  0.00000000000E+00  0.00000000000E+00 -0.76682041421E+02  0.76682041587E+02  0.50400001928E-02 0.  1.
    10030    2    1    2    0    0  0.00000000000E+00  0.00000000000E+00  0.10368342184E+04  0.11901983014E+04  0.58442005462E+03 0.  0.
        1    1    3    3  502    0  0.20288059615E+03 -0.11756618757E+03  0.16330775301E+03  0.28574773310E+03  0.50400001928E-02 0.  1.
       -1    1    3    3    0  502 -0.20288059615E+03  0.11756618757E+03  0.87352646534E+03  0.90445056827E+03  0.50400001928E-02 0. -1.
</event>
<event>
 5   0  0.3767635E-02  0.6053541E+03  0.7818609E-02  0.9894360E-01
       -1   -1    0    0    0  501  0.00000000000E+00  0.00000000000E+00  0.51494594516E+03  0.51494594518E+03  0.50400001928E-02 0.  1.
        1   -1    0    0  501    0  0.00000000000E+00  0.00000000000E+00 -0.17790877271E+03  0.17790877278E+03  0.50400001928E-02 0. -1.
    10030    2    1    2    0    0  0.00000000000E+00  0.00000000000E+00  0.33703717245E+03  0.69285471796E+03  0.60535411504E+03 0.  0.
        2    1    3    3  502    0 -0.13294182807E+03 -0.16402453549E+03 -0.79707291197E+02  0.22567859927E+03  0.25500000920E-02 0. -1.
       -2    1    3    3    0  502  0.13294182807E+03  0.16402453549E+03  0.41674446364E+03  0.46717611869E+03  0.25500000920E-02 0.  1.
</event>
<event>
 5   0  0.3640827E-02  0.5989527E+03  0.7818609E-02  0.9907581E-01
       -1   -1    0    0    0  501  0.00000000000E+00  0.00000000000E+00  0.23987604004E+03  0.23987604009E+03  0.50400001928E-02 0.  1.
        1   -1    0    0  501    0  0.00000000000E+00  0.00000000000E+00 -0.37388508438E+03  0.37388508442E+03  0.50400001928E-02 0. -1.
    10030    2    1    2    0    0  0.00000000000E+00  0.00000000000E+00 -0.13400904435E+03  0.61376112451E+03  0.59895266423E+03 0.  0.
        3    1    3    3  502    0  0.46050981354E+02  0.11404233474E+03 -0.34681179540E+03  0.36797388307E+03  0.10100000352E+00 0. -1.
       -3    1    3    3    0  502 -0.46050981354E+02 -0.11404233474E+03  0.21280275105E+03  0.24578724144E+03  0.10100000352E+00 0.  1.
</event>
<event>
 5   0  0.5872632E-02  0.6181616E+03  0.7818609E-02  0.9868427E-01
       -2   -1    0    0    0  501  0.00000000000E+00  0.00000000000E+00  0.11560386424E+03  0.11560386427E+03  0.25500000920E-02 0.  1.
        2   -1    0    0  501    0  0.00000000000E+00  0.00000000000E+00 -0.82636468183E+03  0.82636468184E+03  0.25500000920E-02 0. -1.
    10030    2    1    2    0    0  0.00000000000E+00  0.00000000000E+00 -0.71076081760E+03  0.94196854611E+03  0.61816163099E+03 0.  0.
        1    1    3    3  502    0 -0.14661026311E+03 -0.18105827439E+03 -0.45874549401E+02  0.23744713576E+03  0.50400001928E-02 0.  1.
       -1    1    3    3    0  502  0.14661026311E+03  0.18105827439E+03 -0.66488626819E+03  0.70452141034E+03  0.50400001928E-02 0. -1.
</event>
<event>
 5   0  0.5935451E-02  0.5926909E+03  0.7818609E-02  0.9920687E-01
       -2   -1    0    0    0  501  0.00000000000E+00  0.00000000000E+00  0.77388056930E+03  0.77388056930E+03  0.25500000920E-02 0.  1.
        2   -1    0    0  501    0  0.00000000000E+00  0.00000000000E+00 -0.11348084413E+03  0.11348084415E+03  0.25500000920E-02 0. -1.
    10030    2    1    2    0    0  0.00000000000E+00  0.00000000000E+00  0.66039972517E+03  0.88736141346E+03  0.59269088156E+03 0.  0.
        3    1    3    3  502    0  0.70191638811E+02  0.27030076411E+03  0.18175114116E+03  0.33320092550E+03  0.10100000352E+00 0. -1.
       -3    1    3    3    0  502 -0.70191638811E+02 -0.27030076411E+03  0.47864858402E+03  0.55416048796E+03  0.10100000352E+00 0.  1.
</event>
<event>
 5   0  0.3640827E-02  0.5980183E+03  0.7818609E-02  0.9909526E-01
       -1   -1    0    0    0  501  0.00000000000E+00  0.00000000000E+00  0.21416188831E+03  0.21416188837E+03  0.50400001928E-02 0. -1.
        1   -1    0    0  501    0  0.00000000000E+00  0.00000000000E+00 -0.41747138639E+03  0.41747138642E+03  0.50400001928E-02 0.  1.
    10030    2    1    2    0    0  0.00000000000E+00  0.00000000000E+00 -0.20330949808E+03  0.63163327479E+03  0.59801826211E+03 0.  0.
        3    1    3    3  502    0 -0.59002599900E+02  0.28300142338E+03 -0.18233803105E+03  0.34178689296E+03  0.10100000352E+00 0.  1.
       -3    1    3    3    0  502  0.59002599900E+02 -0.28300142338E+03 -0.20971467038E+02  0.28984638183E+03  0.10100000352E+00 0. -1.
</event>
<event>
 5   0  0.5999117E-02  0.5973211E+03  0.7818609E-02  0.9910980E-01
        2   -1    0    0  501    0  0.00000000000E+00  0.00000000000E+00  0.39254219980E+03  0.39254219981E+03  0.25500000920E-02 0. -1.
       -2   -1    0    0    0  501  0.00000000000E+00  0.00000000000E+00 -0.22723193078E+03  0.22723193080E+03  0.25500000920E-02 0.  1.
    10030    2    1    2    0    0  0.00000000000E+00  0.00000000000E+00  0.16531026901E+03  0.61977413060E+03  0.59732109282E+03 0.  0.
        5    1    3    3  502    0  0.20716116958E+03 -0.72270946446E+02 -0.12753600880E+03  0.25382348871E+03  0.46999998093E+01 0. -1.
       -5    1    3    3    0  502 -0.20716116958E+03  0.72270946446E+02  0.29284627781E+03  0.36595064190E+03  0.46999998093E+01 0.  1.
</event>
<event>
 5   0  0.3767635E-02  0.5983068E+03  0.7818609E-02  0.9908925E-01
       -1   -1    0    0    0  501  0.00000000000E+00  0.00000000000E+00  0.13335186400E+03  0.13335186409E+03  0.50400001928E-02 0.  1.
        1   -1    0    0  501    0  0.00000000000E+00  0.00000000000E+00 -0.67110249804E+03  0.67110249806E+03  0.50400001928E-02 0. -1.
    10030    2    1    2    0    0  0.00000000000E+00  0.00000000000E+00 -0.53775063404E+03  0.80445436216E+03  0.59830684133E+03 0.  0.
        2    1    3    3  502    0 -0.28927295862E+03 -0.23852369803E+02 -0.36625082383E+03  0.46731942619E+03  0.25500000920E-02 0. -1.
       -2    1    3    3    0  502  0.28927295862E+03  0.23852369803E+02 -0.17149981021E+03  0.33713493596E+03  0.25500000920E-02 0.  1.
</event>
<event>
 5   0  0.3767635E-02  0.5986848E+03  0.7818609E-02  0.9908139E-01
       -1   -1    0    0    0  501  0.00000000000E+00  0.00000000000E+00  0.74625109441E+02  0.74625109611E+02  0.50400001928E-02 0.  1.
        1   -1    0    0  501    0  0.00000000000E+00  0.00000000000E+00 -0.12007467509E+04  0.12007467509E+04  0.50400001928E-02 0. -1.
    10030    2    1    2    0    0  0.00000000000E+00  0.00000000000E+00 -0.11261216414E+04  0.12753718605E+04  0.59868475113E+03 0.  0.
        2    1    3    3  502    0 -0.18252693295E+03  0.19794445569E+03 -0.28442604226E+03  0.39165834896E+03  0.25500000920E-02 0.  1.
       -2    1    3    3    0  502  0.18252693295E+03 -0.19794445569E+03 -0.84169559917E+03  0.88371351153E+03  0.25500000920E-02 0. -1.
</event>
<event>
 5   0  0.3651984E-02  0.6558003E+03  0.7818609E-02  0.9795956E-01
       -1   -1    0    0    0  501  0.00000000000E+00  0.00000000000E+00  0.31991989815E+03  0.31991989819E+03  0.50400001928E-02 0. -1.
        1   -1    0    0  501    0  0.00000000000E+00  0.00000000000E+00 -0.33607948685E+03  0.33607948688E+03  0.50400001928E-02 0.  1.
    10030    2    1    2    0    0  0.00000000000E+00  0.00000000000E+00 -0.16159588695E+02  0.65599938507E+03  0.65580032091E+03 0.  0.
        1    1    3    3  502    0  0.17314854653E+03 -0.26076150123E+03 -0.10579022849E+03  0.33040664666E+03  0.50400001928E-02 0.  1.
       -1    1    3    3    0  502 -0.17314854653E+03  0.26076150123E+03  0.89630639797E+02  0.32559273841E+03  0.50400001928E-02 0. -1.
</event>
<event>
 5   0  0.3640827E-02  0.6072577E+03  0.7818609E-02  0.9890462E-01
       -1   -1    0    0    0  501  0.00000000000E+00  0.00000000000E+00  0.22001956545E+03  0.22001956551E+03  0.50400001928E-02 0.  1.
        1   -1    0    0  501    0  0.00000000000E+00  0.00000000000E+00 -0.41901037960E+03  0.41901037963E+03  0.50400001928E-02 0. -1.
    10030    2    1    2    0    0  0.00000000000E+00  0.00000000000E+00 -0.19899081415E+03  0.63902994514E+03  0.60725771026E+03 0.  0.
        3    1    3    3  502    0 -0.29230660080E+03  0.64094003366E+02 -0.15355727095E+03  0.33634957381E+03  0.10100000352E+00 0. -1.
       -3    1    3    3    0  502  0.29230660080E+03 -0.64094003366E+02 -0.45433543199E+02  0.30268037133E+03  0.10100000352E+00 0.  1.
</event>
<event>
 5   0  0.5999117E-02  0.6006934E+03  0.7818609E-02  0.9903969E-01
        2   -1    0    0  501    0  0.00000000000E+00  0.00000000000E+00  0.67445880961E+03  0.67445880961E+03  0.25500000920E-02 0.  1.
       -2   -1    0    0    0  501  0.00000000000E+00  0.00000000000E+00 -0.13374892647E+03  0.13374892649E+03  0.25500000920E-02 0. -1.
    10030    2    1    2    0    0  0.00000000000E+00  0.00000000000E+00  0.54070988314E+03  0.80820773610E+03  0.60069340513E+03 0.  0.
        5    1    3    3  502    0  0.99476739081E+02  0.24127075756E+03  0.70433957829E+02  0.27035205286E+03  0.46999998093E+01 0. -1.
       -5    1    3    3    0  502 -0.99476739081E+02 -0.24127075756E+03  0.47027592531E+03  0.53785568324E+03  0.46999998093E+01 0.  1.
</event>
<event>
 5   0  0.6007360E-02  0.5885756E+03  0.7818609E-02  0.9929396E-01
        2   -1    0    0  501    0  0.00000000000E+00  0.00000000000E+00  0.98311245041E+02  0.98311245075E+02  0.25500000920E-02 0.  1.
       -2   -1    0    0    0  501  0.00000000000E+00  0.00000000000E+00 -0.88092976841E+03  0.88092976842E+03  0.25500000920E-02 0. -1.
    10030    2    1    2    0    0  0.00000000000E+00  0.00000000000E+00 -0.78261852337E+03  0.97924101349E+03  0.58857557661E+03 0.  0.
        4    1    3    3  502    0  0.34177395031E+02 -0.19557795507E+03 -0.75270970998E+03  0.77845510548E+03  0.12699999809E+01 0. -1.
       -4    1    3    3    0  502 -0.34177395031E+02  0.19557795507E+03 -0.29908813390E+02  0.20078590802E+03  0.12699999809E+01 0.  1.
</event>
<event>
 5   0  0.3703280E-02  0.5977967E+03  0.7818609E-02  0.9909988E-01
       -1   -1    0    0    0  501  0.00000000000E+00  0.00000000000E+00  0.11013154944E+03  0.11013154956E+03  0.50400001928E-02 0. -1.
        1   -1    0    0  501    0  0.00000000000E+00  0.00000000000E+00 -0.81121365834E+03  0.81121365836E+03  0.50400001928E-02 0.  1.
    10030    2    1    2    0    0  0.00000000000E+00  0.00000000000E+00 -0.70108210890E+03  0.92134520792E+03  0.59779667843E+03 0.  0.
        5    1    3    3  502    0  0.23506319389E+03 -0.11902207679E+03 -0.13313856666E+03  0.29524384467E+03  0.46999998093E+01 0. -1.
       -5    1    3    3    0  502 -0.23506319389E+03  0.11902207679E+03 -0.56794354224E+03  0.62610136325E+03  0.46999998093E+01 0.  1.
</event>
<event>
 5   0  0.3703280E-02  0.6008806E+03  0.7818609E-02  0.9903581E-01
       -1   -1    0    0    0  501  0.00000000000E+00  0.00000000000E+00  0.50603443506E+02  0.50603443757E+02  0.50400001928E-02 0. -1.
        1   -1    0    0  501    0  0.00000000000E+00  0.00000000000E+00 -0.17837596766E+04  0.17837596767E+04  0.50400001928E-02 0.  1.
    10030    2    1    2    0    0  0.00000000000E+00  0.00000000000E+00 -0.17331562331E+04  0.18343631204E+04  0.60088062795E+03 0.  0.
        5    1    3    3  502    0 -0.16001184793E+03 -0.69316008416E+00 -0.90436213954E+02  0.18386155319E+03  0.46999998093E+01 0. -1.
       -5    1    3    3    0  502  0.16001184793E+03  0.69316008416E+00 -0.16427200192E+04  0.16505015672E+04  0.46999998093E+01 0.  1.
</event>
<event>
 5   0  0.5872632E-02  0.5981459E+03  0.7818609E-02  0.9909260E-01
       -2   -1    0    0    0  501  0.00000000000E+00  0.00000000000E+00  0.86847951209E+02  0.86847951246E+02  0.25500000920E-02 0.  1.
        2   -1    0    0  501    0  0.00000000000E+00  0.00000000000E+00 -0.10298993015E+04  0.10298993015E+04  0.25500000920E-02 0. -1.
    10030    2    1    2    0    0  0.00000000000E+00  0.00000000000E+00 -0.94305135024E+03  0.11167472527E+04  0.59814594976E+03 0.  0.
        1    1    3    3  502    0  0.45657619950E+02  0.62309494129E+02  0.67901201725E+02  0.10284777362E+03  0.50400001928E-02 0.  1.
       -1    1    3    3    0  502 -0.45657619950E+02 -0.62309494129E+02 -0.10109525520E+04  0.10138994791E+04  0.50400001928E-02 0. -1.
</event>
<event>
 5   0  0.6007360E-02  0.6025710E+03  0.7818609E-02  0.9900086E-01
       -2   -1    0    0    0  501  0.00000000000E+00  0.00000000000E+00  0.10088176281E+03  0.10088176284E+03  0.25500000920E-02 0.  1.
        2   -1    0    0  501    0  0.00000000000E+00  0.00000000000E+00 -0.89979538946E+03  0.89979538946E+03  0.25500000920E-02 0. -1.
    10030    2    1    2    0    0  0.00000000000E+00  0.00000000000E+00 -0.79891362665E+03  0.10006771523E+04  0.60257097531E+03 0.  0.
        4    1    3    3  502    0  0.25358912201E+03 -0.20977853469E+02 -0.66735593541E+03  0.71422200370E+03  0.12699999809E+01 0. -1.
       -4    1    3    3    0  502 -0.25358912201E+03  0.20977853469E+02 -0.13155769124E+03  0.28645514860E+03  0.12699999809E+01 0.  1.
</event>
<event>
 5   0  0.6007360E-02  0.5943640E+03  0.7818609E-02  0.9917168E-01
       -2   -1    0    0    0  501  0.00000000000E+00  0.00000000000E+00  0.77133242955E+02  0.77133242997E+02  0.25500000920E-02 0.  1.
        2   -1    0    0  501    0  0.00000000000E+00  0.00000000000E+00 -0.11449947097E+04  0.11449947097E+04  0.25500000920E-02 0. -1.
    10030    2    1    2    0    0  0.00000000000E+00  0.00000000000E+00 -0.10678614668E+04  0.12221279527E+04  0.59436404722E+03 0.  0.
        4    1    3    3  502    0 -0.24453384623E+02  0.24091001891E+03 -0.88816913025E+03  0.92058765039E+03  0.12699999809E+01 0. -1.
       -4    1    3    3    0  502  0.24453384623E+02 -0.24091001891E+03 -0.17969233654E+03  0.30154030235E+03  0.12699999809E+01 0.  1.
</event>
<event>
 5   0  0.3478183E-02  0.5743546E+03  0.7818609E-02  0.9960089E-01
        1   -1    0    0  501    0  0.00000000000E+00  0.00000000000E+00  0.52604903886E+03  0.52604903889E+03  0.50400001928E-02 0. -1.
       -1   -1    0    0    0  501  0.00000000000E+00  0.00000000000E+00 -0.15677396047E+03  0.15677396055E+03  0.50400001928E-02 0.  1.
    10030    2    1    2    0    0  0.00000000000E+00  0.00000000000E+00  0.36927507839E+03  0.68282299944E+03  0.57435456387E+03 0.  0.
        4    1    3    3  502    0  0.24270079937E+03 -0.12860672515E+03  0.28428730523E+03  0.39530273536E+03  0.12699999809E+01 0. -1.
       -4    1    3    3    0  502 -0.24270079937E+03  0.12860672515E+03  0.84987773161E+02  0.28752026408E+03  0.12699999809E+01 0.  1.
</event>
<event>
 5   0  0.3640827E-02  0.6019956E+03  0.7818609E-02  0.9901274E-01
       -1   -1    0    0    0  501  0.00000000000E+00  0.00000000000E+00  0.98778346531E+02  0.98778346660E+02  0.50400001928E-02 0. -1.
        1   -1    0    0  501    0  0.00000000000E+00  0.00000000000E+00 -0.91720175936E+03  0.91720175937E+03  0.50400001928E-02 0.  1.
    10030    2    1    2    0    0  0.00000000000E+00  0.00000000000E+00 -0.81842341283E+03  0.10159801060E+04  0.60199559233E+03 0.  0.
        3    1    3    3  502    0  0.19755703464E+03  0.13360702112E+03 -0.71912197457E+03  0.75763846427E+03  0.10100000352E+00 0.  1.
       -3    1    3    3    0  502 -0.19755703464E+03 -0.13360702112E+03 -0.99301438252E+02  0.25834164176E+03  0.10100000352E+00 0. -1.
</event>
<event>
 5   0  0.3651984E-02  0.5954860E+03  0.7818609E-02  0.9914816E-01
       -1   -1    0    0    0  501  0.00000000000E+00  0.00000000000E+00  0.30409559003E+03  0.30409559008E+03  0.50400001928E-02 0. -1.
        1   -1    0    0  501    0  0.00000000000E+00  0.00000000000E+00 -0.29152306916E+03  0.29152306921E+03  0.50400001928E-02 0.  1.
    10030    2    1    2    0    0  0.00000000000E+00  0.00000000000E+00  0.12572520870E+02  0.59561865928E+03  0.59548595198E+03 0.  0.
        1    1    3    3  502    0  0.45400804077E+02 -0.21537379872E+03 -0.19426721074E+03  0.29357597889E+03  0.50400001928E-02 0.  1.
       -1    1    3    3    0  502 -0.45400804077E+02  0.21537379872E+03  0.20683973161E+03  0.30204268040E+03  0.50400001928E-02 0. -1.
</event>
<event>
 5   0  0.6007360E-02  0.6081899E+03  0.7818609E-02  0.9888559E-01
        2   -1    0    0  501    0  0.00000000000E+00  0.00000000000E+00  0.10845039674E+04  0.10845039674E+04  0.25500000920E-02 0. -1.
       -2   -1    0    0    0  501  0.00000000000E+00  0.00000000000E+00 -0.85268238977E+02  0.85268239015E+02  0.25500000920E-02 0.  1.
    10030    2    1    2    0    0  0.00000000000E+00  0.00000000000E+00  0.99923572844E+03  0.11697722064E+04  0.60818991603E+03 0.  0.
        4    1    3    3  502    0  0.21115373890E+03  0.19075171041E+03  0.70587608633E+03  0.76107475233E+03  0.12699999809E+01 0. -1.
       -4    1    3    3    0  502 -0.21115373890E+03 -0.19075171041E+03  0.29335964211E+03  0.40869745411E+03  0.12699999809E+01 0.  1.
</event>
<event>
 5   0  0.3478183E-02  0.6052444E+03  0.7818609E-02  0.9894585E-01
       -1   -1    0    0    0  501  0.00000000000E+00  0.00000000000E+00  0.11004379129E+03  0.11004379140E+03  0.50400001928E-02 0. -1.
        1   -1    0    0  501    0  0.00000000000E+00  0.00000000000E+00 -0.83221586935E+03  0.83221586937E+03  0.50400001928E-02 0.  1.
    10030    2    1    2    0    0  0.00000000000E+00  0.00000000000E+00 -0.72217207807E+03  0.94225966077E+03  0.60524437872E+03 0.  0.
        4    1    3    3  502    0  0.26560071180E+03 -0.14489560782E+02 -0.58574885801E+03  0.64331720251E+03  0.12699999809E+01 0.  1.
       -4    1    3    3    0  502 -0.26560071180E+03  0.14489560782E+02 -0.13642322006E+03  0.29894245826E+03  0.12699999809E+01 0. -1.
</event>
<event>
 5   0  0.2388000E-02  0.6055118E+03  0.7818609E-02  0.9894036E-01
       -3   -1    0    0    0  501  0.00000000000E+00  0.00000000000E+00  0.89158644188E+03  0.89158644760E+03  0.10100000352E+00 0. -1.
        3   -1    0    0  501    0  0.00000000000E+00  0.00000000000E+00 -0.10280676868E+03  0.10280681829E+03  0.10100000352E+00 0.  1.
    10030    2    1    2    0    0  0.00000000000E+00  0.00000000000E+00  0.78877967320E+03  0.99439326590E+03  0.60551184498E+03 0.  0.
        3    1    3    3  502    0  0.12729278769E+02  0.44940820617E+02 -0.96854014486E+02  0.10752870416E+03  0.10100000352E+00 0.  1.
       -3    1    3    3    0  502 -0.12729278769E+02 -0.44940820617E+02  0.88563368768E+03  0.88686456173E+03  0.10100000352E+00 0. -1.
</event>
<event>
 5   0  0.5872632E-02  0.6019690E+03  0.7818609E-02  0.9901329E-01
        2   -1    0    0  501    0  0.00000000000E+00  0.00000000000E+00  0.76636270924E+03  0.76636270924E+03  0.25500000920E-02 0. -1.
       -2   -1    0    0    0  501  0.00000000000E+00  0.00000000000E+00 -0.11820990552E+03  0.11820990554E+03  0.25500000920E-02 0.  1.
    10030    2    1    2    0    0  0.00000000000E+00  0.00000000000E+00  0.64815280372E+03  0.88457261478E+03  0.60196898081E+03 0.  0.
        1    1    3    3  502    0  0.95795806744E+02 -0.22207197506E+03  0.60804680146E+02  0.24937924502E+03  0.50400001928E-02 0.  1.
       -1    1    3    3    0  502 -0.95795806744E+02  0.22207197506E+03  0.58734812357E+03  0.63519336976E+03  0.50400001928E-02 0. -1.
</event>
<event>
 5   0  0.3640827E-02  0.6034092E+03  0.7818609E-02  0.9898358E-01
        1   -1    0    0  501    0  0.00000000000E+00  0.00000000000E+00  0.18907371233E+04  0.18907371233E+04  0.50400001928E-02 0.  1.
       -1   -1    0    0    0  501  0.00000000000E+00  0.00000000000E+00 -0.48142952119E+02  0.48142952382E+02  0.50400001928E-02 0. -1.
    10030    2    1    2    0    0  0.00000000000E+00  0.00000000000E+00  0.18425941712E+04  0.19388800757E+04  0.60340920464E+03 0.  0.
        3    1    3    3  502    0  0.10283815537E+03  0.26703710357E+03  0.61408409452E+03  0.67748342136E+03  0.10100000352E+00 0. -1.
       -3    1    3    3    0  502 -0.10283815537E+03 -0.26703710357E+03  0.12285100767E+04  0.12613966544E+04  0.10100000352E+00 0.  1.
</event>
<event>
 5   0  0.5935451E-02  0.5896986E+03  0.7818609E-02  0.9927012E-01
        2   -1    0    0  501    0  0.00000000000E+00  0.00000000000E+00  0.15154604901E+04  0.15154604901E+04  0.25500000920E-02 0.  1.
       -2   -1    0    0    0  501  0.00000000000E+00  0.00000000000E+00 -0.57366129582E+02  0.57366129639E+02  0.25500000920E-02 0. -1.
    10030    2    1    2    0    0  0.00000000000E+00  0.00000000000E+00  0.14580943606E+04  0.15728266198E+04  0.58969857690E+03 0.  0.
        3    1    3    3  502    0 -0.21121858162E+03 -0.19872961049E+03  0.87091822096E+03  0.91793534910E+03  0.10100000352E+00 0.  1.
       -3    1    3    3    0  502  0.21121858162E+03  0.19872961049E+03  0.58717613959E+03  0.65489127068E+03  0.10100000352E+00 0. -1.
</event>
<event>
 5   0  0.5872632E-02  0.5899665E+03  0.7818609E-02  0.9926444E-01
       -2   -1    0    0    0  501  0.00000000000E+00  0.00000000000E+00  0.59722716843E+02  0.59722716897E+02  0.25500000920E-02 0.  1.
        2   -1    0    0  501    0  0.00000000000E+00  0.00000000000E+00 -0.14569850968E+04  0.14569850968E+04  0.25500000920E-02 0. -1.
    10030    2    1    2    0    0  0.00000000000E+00  0.00000000000E+00 -0.13972623799E+04  0.15167078137E+04  0.58996646827E+03 0.  0.
        1    1    3    3  502    0  0.23271914740E+03 -0.11650101196E+03 -0.10556391489E+04  0.10872463842E+04  0.50400001928E-02 0. -1.
       -1    1    3    3    0  502 -0.23271914740E+03  0.11650101196E+03 -0.34162323105E+03  0.42946142943E+03  0.50400001928E-02 0.  1.
</event>
<event>
 5   0  0.3703280E-02  0.5954702E+03  0.7818609E-02  0.9914849E-01
        1   -1    0    0  501    0  0.00000000000E+00  0.00000000000E+00  0.44928327405E+03  0.44928327408E+03  0.50400001928E-02 0.  1.
       -1   -1    0    0    0  501  0.00000000000E+00  0.00000000000E+00 -0.19730579163E+03  0.19730579169E+03  0.50400001928E-02 0. -1.
    10030    2    1    2    0    0  0.00000000000E+00  0.00000000000E+00  0.25197748243E+03  0.64658906577E+03  0.59547020776E+03 0.  0.
        5    1    3    3  502    0 -0.91108574384E+02 -0.26360183516E+03  0.12949062363E+02  0.27924266873E+03  0.46999998093E+01 0. -1.
       -5    1    3    3    0  502  0.91108574384E+02  0.26360183516E+03  0.23902842006E+03  0.36734639704E+03  0.46999998093E+01 0.  1.
</event>
<event>
 5   0  0.3767635E-02  0.6003628E+03  0.7818609E-02  0.9904654E-01
       -1   -1    0    0    0  501  0.00000000000E+00  0.00000000000E+00  0.45038857830E+03  0.45038857833E+03  0.50400001928E-02 0.  1.
        1   -1    0    0  501    0  0.00000000000E+00  0.00000000000E+00 -0.20006916061E+03  0.20006916067E+03  0.50400001928E-02 0. -1.
    10030    2    1    2    0    0  0.00000000000E+00  0.00000000000E+00  0.25031941770E+03  0.65045773900E+03  0.60036277312E+03 0.  0.
        2    1    3    3  502    0  0.33325021180E+02  0.22138307939E+03 -0.91495583806E+02  0.24185215884E+03  0.25500000920E-02 0. -1.
       -2    1    3    3    0  502 -0.33325021180E+02 -0.22138307939E+03  0.34181500150E+03  0.40860558015E+03  0.25500000920E-02 0.  1.
</event>
<event>
 5   0  0.5755078E-02  0.6021948E+03  0.7818609E-02  0.9900863E-01
       -2   -1    0    0    0  501  0.00000000000E+00  0.00000000000E+00  0.10910392719E+03  0.10910392722E+03  0.25500000920E-02 0.  1.
        2   -1    0    0  501    0  0.00000000000E+00  0.00000000000E+00 -0.83094761164E+03  0.83094761164E+03  0.25500000920E-02 0. -1.
    10030    2    1    2    0    0  0.00000000000E+00  0.00000000000E+00 -0.72184368444E+03  0.94005153886E+03  0.60219481146E+03 0.  0.
        2    1    3    3  502    0 -0.13771588230E+03  0.36270428390E+02 -0.77504972490E+03  0.78802492619E+03  0.25500000920E-02 0. -1.
       -2    1    3    3    0  502  0.13771588230E+03 -0.36270428390E+02  0.53206040464E+02  0.15202661268E+03  0.25500000920E-02 0.  1.
</event>
<event>
 5   0  0.5755078E-02  0.6336396E+03  0.7818609E-02  0.9837972E-01
        2   -1    0    0  501    0  0.00000000000E+00  0.00000000000E+00  0.18487994706E+04  0.18487994706E+04  0.25500000920E-02 0. -1.
       -2   -1    0    0    0  501  0.00000000000E+00  0.00000000000E+00 -0.54291877958E+02  0.54291878018E+02  0.25500000920E-02 0.  1.
    10030    2    1    2    0    0  0.00000000000E+00  0.00000000000E+00  0.17945075926E+04  0.19030913486E+04  0.63363963035E+03 0.  0.
        2    1    3    3  502    0 -0.79806586090E+02  0.26506079907E+02  0.18146679030E+04  0.18166153313E+04  0.25500000920E-02 0. -1.
       -2    1    3    3    0  502  0.79806586090E+02 -0.26506079907E+02 -0.20160310401E+02  0.86476017353E+02  0.25500000920E-02 0.  1.
</event>
<event>
 5   0  0.3651984E-02  0.5996895E+03  0.7818609E-02  0.9906050E-01
       -1   -1    0    0    0  501  0.00000000000E+00  0.00000000000E+00  0.12218135842E+03  0.12218135852E+03  0.50400001928E-02 0. -1.
        1   -1    0    0  501    0  0.00000000000E+00  0.00000000000E+00 -0.73584772986E+03  0.73584772988E+03  0.50400001928E-02 0.  1.
    10030    2    1    2    0    0  0.00000000000E+00  0.00000000000E+00 -0.61366637144E+03  0.85802908840E+03  0.59968950391E+03 0.  0.
        1    1    3    3  502    0 -0.83434452199E+02  0.23618709107E+03 -0.71029687444E+02  0.26036679190E+03  0.50400001928E-02 0. -1.
       -1    1    3    3    0  502  0.83434452199E+02 -0.23618709107E+03 -0.54263668400E+03  0.59766229649E+03  0.50400001928E-02 0.  1.
</event>
<event>
 5   0  0.2388000E-02  0.5812923E+03  0.7818609E-02  0.9944997E-01
       -4   -1    0    0    0  501  0.00000000000E+00  0.00000000000E+00  0.22577375108E+03  0.22577732300E+03  0.12699999809E+01 0.  1.
        4   -1    0    0  501    0  0.00000000000E+00  0.00000000000E+00 -0.37415096219E+03  0.37415311760E+03  0.12699999809E+01 0. -1.
    10030    2    1    2    0    0  0.00000000000E+00  0.00000000000E+00 -0.14837721111E+03  0.59993044059E+03  0.58129229891E+03 0.  0.
        5    1    3    3  502    0  0.13434216948E+03 -0.10962760601E+03  0.16649922670E+03  0.24043733693E+03  0.46999998093E+01 0.  1.
       -5    1    3    3    0  502 -0.13434216948E+03  0.10962760601E+03 -0.31487643781E+03  0.35949310367E+03  0.46999998093E+01 0. -1.
</event>
<event>
 5   0  0.5872632E-02  0.5977031E+03  0.7818609E-02  0.9910183E-01
        2   -1    0    0  501    0  0.00000000000E+00  0.00000000000E+00  0.12086769742E+04  0.12086769742E+04  0.25500000920E-02 0.  1.
       -2   -1    0    0    0  501  0.00000000000E+00  0.00000000000E+00 -0.73892563568E+02  0.73892563612E+02  0.25500000920E-02 0. -1.
    10030    2    1    2    0    0  0.00000000000E+00  0.00000000000E+00  0.11347844106E+04  0.12825695378E+04  0.59770307069E+03 0.  0.
        1    1    3    3  502    0 -0.95383997861E+02  0.86458144452E+02  0.11461268246E+04  0.11533342169E+04  0.50400001928E-02 0.  1.
       -1    1    3    3    0  502  0.95383997861E+02 -0.86458144452E+02 -0.11342413971E+02  0.12923532091E+03  0.50400001928E-02 0. -1.
</event>
<event>
 5   0  0.3478183E-02  0.6071169E+03  0.7818609E-02  0.9890750E-01
       -1   -1    0    0    0  501  0.00000000000E+00  0.00000000000E+00  0.10106738764E+03  0.10106738777E+03  0.50400001928E-02 0. -1.
        1   -1    0    0  501    0  0.00000000000E+00  0.00000000000E+00 -0.91174543668E+03  0.91174543670E+03  0.50400001928E-02 0.  1.
    10030    2    1    2    0    0  0.00000000000E+00  0.00000000000E+00 -0.81067804904E+03  0.10128128245E+04  0.60711689006E+03 0.  0.
        4    1    3    3  502    0 -0.77727987464E+02  0.83071824411E+02 -0.87483210584E+03  0.88219918066E+03  0.12699999809E+01 0.  1.
       -4    1    3    3    0  502  0.77727987464E+02 -0.83071824411E+02  0.64154056792E+02  0.13061364381E+03  0.12699999809E+01 0. -1.
</event>
<event>
 5   0  0.5872632E-02  0.6023793E+03  0.7818609E-02  0.9900482E-01
       -2   -1    0    0    0  501  0.00000000000E+00  0.00000000000E+00  0.20081339235E+03  0.20081339237E+03  0.25500000920E-02 0. -1.
        2   -1    0    0  501    0  0.00000000000E+00  0.00000000000E+00 -0.45173888577E+03  0.45173888577E+03  0.25500000920E-02 0.  1.
    10030    2    1    2    0    0  0.00000000000E+00  0.00000000000E+00 -0.25092549341E+03  0.65255227814E+03  0.60237934266E+03 0.  0.
        1    1    3    3  502    0 -0.16557961828E+03 -0.52791265082E+02 -0.39194290806E+03  0.42874557824E+03  0.50400001928E-02 0.  1.
       -1    1    3    3    0  502  0.16557961828E+03  0.52791265082E+02  0.14101741465E+03  0.22380669990E+03  0.50400001928E-02 0. -1.
</event>
<event>
 5   0  0.3651984E-02  0.5988650E+03  0.7818609E-02  0.9907764E-01
        1   -1    0    0  501    0  0.00000000000E+00  0.00000000000E+00  0.65258634661E+03  0.65258634663E+03  0.50400001928E-02 0. -1.
       -1   -1    0    0    0  501  0.00000000000E+00  0.00000000000E+00 -0.13739152652E+03  0.13739152662E+03  0.50400001928E-02 0.  1.
    10030    2    1    2    0    0  0.00000000000E+00  0.00000000000E+00  0.51519482009E+03  0.78997787325E+03  0.59886504120E+03 0.  0.
        1    1    3    3  502    0 -0.11649495704E+03  0.23963817849E+03  0.43780313365E+03  0.51251255152E+03  0.50400001928E-02 0. -1.
       -1    1    3    3    0  502  0.11649495704E+03 -0.23963817849E+03  0.77391686436E+02  0.27746532173E+03  0.50400001928E-02 0.  1.
</event>
<event>
 5   0  0.6007360E-02  0.5898189E+03  0.7818609E-02  0.9926757E-01
        2   -1    0    0  501    0  0.00000000000E+00  0.00000000000E+00  0.10364922956E+04  0.10364922956E+04  0.25500000920E-02 0.  1.
       -2   -1    0    0    0  501  0.00000000000E+00  0.00000000000E+00 -0.83909522181E+02  0.83909522220E+02  0.25500000920E-02 0. -1.
    10030    2    1    2    0    0  0.00000000000E+00  0.00000000000E+00  0.95258277338E+03  0.11204018178E+04  0.58981886470E+03 0.  0.
        4    1    3    3  502    0 -0.13407645438E+03 -0.14979235294E+03  0.66425616415E+02  0.21172675795E+03  0.12699999809E+01 0. -1.
       -4    1    3    3    0  502  0.13407645438E+03  0.14979235294E+03  0.88615715697E+03  0.90867505984E+03  0.12699999809E+01 0.  1.
</event>
<event>
 5   0  0.3703280E-02  0.5947287E+03  0.7818609E-02  0.9916403E-01
       -1   -1    0    0    0  501  0.00000000000E+00  0.00000000000E+00  0.57723762039E+02  0.57723762259E+02  0.50400001928E-02 0.  1.
        1   -1    0    0  501    0  0.00000000000E+00  0.00000000000E+00 -0.15318744062E+04  0.15318744062E+04  0.50400001928E-02 0. -1.
    10030    2    1    2    0    0  0.00000000000E+00  0.00000000000E+00 -0.14741506442E+04  0.15895981685E+04  0.59472869068E+03 0.  0.
        5    1    3    3  502    0  0.23198391609E+03 -0.12540518281E+03 -0.11041417631E+04  0.11352066420E+04  0.46999998093E+01 0. -1.
       -5    1    3    3    0  502 -0.23198391609E+03  0.12540518281E+03 -0.37000888110E+03  0.45439152643E+03  0.46999998093E+01 0.  1.
</event>
<event>
 5   0  0.5935451E-02  0.5857844E+03  0.7818609E-02  0.9935346E-01
        2   -1    0    0  501    0  0.00000000000E+00  0.00000000000E+00  0.59456542236E+03  0.59456542236E+03  0.25500000920E-02 0. -1.
       -2   -1    0    0    0  501  0.00000000000E+00  0.00000000000E+00 -0.14428328247E+03  0.14428328249E+03  0.25500000920E-02 0.  1.
    10030    2    1    2    0    0  0.00000000000E+00  0.00000000000E+00  0.45028213988E+03  0.73884870486E+03  0.58578443404E+03 0.  0.
        3    1    3    3  502    0  0.26296447960E+02  0.73359785318E+02  0.58124879323E+03  0.58644976862E+03  0.10100000352E+00 0. -1.
       -3    1    3    3    0  502 -0.26296447960E+02 -0.73359785318E+02 -0.13096665335E+03  0.15239893624E+03  0.10100000352E+00 0.  1.
</event>
<event>
 5   0  0.5755078E-02  0.5696237E+03  0.7818609E-02  0.9970512E-01
        2   -1    0    0  501    0  0.00000000000E+00  0.00000000000E+00  0.25660422085E+03  0.25660422086E+03  0.25500000920E-02 0.  1.
       -2   -1    0    0    0  501  0.00000000000E+00  0.00000000000E+00 -0.31612028960E+03  0.31612028961E+03  0.25500000920E-02 0. -1.
    10030    2    1    2    0    0  0.00000000000E+00  0.00000000000E+00 -0.59516068749E+02  0.57272451047E+03  0.56962373762E+03 0.  0.
        2    1    3    3  502    0  0.46815545148E+02 -0.26615520133E+03  0.60662114384E+02  0.27696602425E+03  0.25500000920E-02 0.  1.
       -2    1    3    3    0  502 -0.46815545148E+02  0.26615520133E+03 -0.12017818313E+03  0.29575848622E+03  0.25500000920E-02 0. -1.
</event>
<event>
 5   0  0.5872632E-02  0.5997889E+03  0.7818609E-02  0.9905844E-01
        2   -1    0    0  501    0  0.00000000000E+00  0.00000000000E+00  0.15871815187E+04  0.15871815187E+04  0.25500000920E-02 0. -1.
       -2   -1    0    0    0  501  0.00000000000E+00  0.00000000000E+00 -0.56664390180E+02  0.56664390237E+02  0.25500000920E-02 0.  1.
    10030    2    1    2    0    0  0.00000000000E+00  0.00000000000E+00  0.15305171285E+04  0.16438459089E+04  0.59978887255E+03 0.  0.
        1    1    3    3  502    0 -0.11455076900E+03 -0.27677977464E+03  0.80476190270E+03  0.85870288365E+03  0.50400001928E-02 0. -1.
       -1    1    3    3    0  502  0.11455076900E+03  0.27677977464E+03  0.72575522581E+03  0.78514302527E+03  0.50400001928E-02 0.  1.
</event>
<event>
 5   0  0.3767635E-02  0.5944706E+03  0.7818609E-02  0.9916945E-01
        1   -1    0    0  501    0  0.00000000000E+00  0.00000000000E+00  0.82052089887E+03  0.82052089889E+03  0.50400001928E-02 0.  1.
       -1   -1    0    0    0  501  0.00000000000E+00  0.00000000000E+00 -0.10767405261E+03  0.10767405273E+03  0.50400001928E-02 0. -1.
    10030    2    1    2    0    0  0.00000000000E+00  0.00000000000E+00  0.71284684626E+03  0.92819495161E+03  0.59447055602E+03 0.  0.
        2    1    3    3  502    0 -0.23878498930E+03  0.10702190538E+03  0.13629169366E+03  0.29503793843E+03  0.25500000920E-02 0. -1.
       -2    1    3    3    0  502  0.23878498930E+03 -0.10702190538E+03  0.57655515260E+03  0.63315701318E+03  0.25500000920E-02 0.  1.
</event>
<event>
 5   0  0.5755078E-02  0.6070463E+03  0.7818609E-02  0.9890894E-01
       -2   -1    0    0    0  501  0.00000000000E+00  0.00000000000E+00  0.92086046110E+02  0.92086046145E+02  0.25500000920E-02 0.  1.
        2   -1    0    0  501    0  0.00000000000E+00  0.00000000000E+00 -0.10004371232E+04  0.10004371232E+04  0.25500000920E-02 0. -1.
    10030    2    1    2    0    0  0.00000000000E+00  0.00000000000E+00 -0.90835107710E+03  0.10925231694E+04  0.60704628845E+03 0.  0.
        2    1    3    3  502    0 -0.48288988156E+02 -0.36141665502E+02 -0.98954261227E+03  0.99137915445E+03  0.25500000920E-02 0. -1.
       -2    1    3    3    0  502  0.48288988156E+02  0.36141665502E+02  0.81191535172E+02  0.10114401491E+03  0.25500000920E-02 0.  1.
</event>
<event>
 5   0  0.3640827E-02  0.5972929E+03  0.7818609E-02  0.9911038E-01
       -1   -1    0    0    0  501  0.00000000000E+00  0.00000000000E+00  0.92766378826E+02  0.92766378963E+02  0.50400001928E-02 0.  1.
        1   -1    0    0  501    0  0.00000000000E+00  0.00000000000E+00 -0.96144438739E+03  0.96144438740E+03  0.50400001928E-02 0. -1.
    10030    2    1    2    0    0  0.00000000000E+00  0.00000000000E+00 -0.86867800856E+03  0.10542107664E+04  0.59729294099E+03 0.  0.
        3    1    3    3  502    0  0.20583498062E+03 -0.21081735952E+03 -0.52040252831E+03  0.59802240761E+03  0.10100000352E+00 0. -1.
       -3    1    3    3    0  502 -0.20583498062E+03  0.21081735952E+03 -0.34827548025E+03  0.45618835876E+03  0.10100000352E+00 0.  1.
</event>
<event>
 5   0  0.3767635E-02  0.6162132E+03  0.7818609E-02  0.9872328E-01
       -1   -1    0    0    0  501  0.00000000000E+00  0.00000000000E+00  0.81008785740E+03  0.81008785742E+03  0.50400001928E-02 0.  1.
        1   -1    0    0  501    0  0.00000000000E+00  0.00000000000E+00 -0.11718443971E+03  0.11718443982E+03  0.50400001928E-02 0. -1.
    10030    2    1    2    0    0  0.00000000000E+00  0.00000000000E+00  0.69290341769E+03  0.92727229723E+03  0.61621324797E+03 0.  0.
        2    1    3    3  502    0 -0.27843656194E+03  0.12800995870E+03  0.39442182877E+03  0.49948177901E+03  0.25500000920E-02 0. -1.
       -2    1    3    3    0  502  0.27843656194E+03 -0.12800995870E+03  0.29848158892E+03  0.42779051822E+03  0.25500000920E-02 0.  1.
</event>
<event>
 5   0  0.3767635E-02  0.5977568E+03  0.7818609E-02  0.9910071E-01
        1   -1    0    0  501    0  0.00000000000E+00  0.00000000000E+00  0.28757906640E+03  0.28757906644E+03  0.50400001928E-02 0.  1.
       -1   -1    0    0    0  501  0.00000000000E+00  0.00000000000E+00 -0.31062173468E+03  0.31062173472E+03  0.50400001928E-02 0. -1.
    10030    2    1    2    0    0  0.00000000000E+00  0.00000000000E+00 -0.23042668280E+02  0.59820080116E+03  0.59775683514E+03 0.  0.
        2    1    3    3  502    0  0.28640531402E+01 -0.26775942060E+03 -0.14437911134E+03  0.30421807626E+03  0.25500000920E-02 0. -1.
       -2    1    3    3    0  502 -0.28640531402E+01  0.26775942060E+03  0.12133644306E+03  0.29398272491E+03  0.25500000920E-02 0.  1.
</event>
<event>
 5   0  0.3703280E-02  0.5976320E+03  0.7818609E-02  0.9910331E-01
        1   -1    0    0  501    0  0.00000000000E+00  0.00000000000E+00  0.12239665559E+04  0.12239665559E+04  0.50400001928E-02 0. -1.
       -1   -1    0    0    0  501  0.00000000000E+00  0.00000000000E+00 -0.72952166813E+02  0.72952166987E+02  0.50400001928E-02 0.  1.
    10030    2    1    2    0    0  0.00000000000E+00  0.00000000000E+00  0.11510143890E+04  0.12969187229E+04  0.59763203554E+03 0.  0.
        5    1    3    3  502    0  0.20307231237E+03 -0.19458874522E+03  0.79430815057E+03  0.84264504501E+03  0.46999998093E+01 0. -1.
       -5    1    3    3    0  502 -0.20307231237E+03  0.19458874522E+03  0.35670623847E+03  0.45427367784E+03  0.46999998093E+01 0.  1.
</event>
<event>
 5   0  0.5872632E-02  0.5932995E+03  0.7818609E-02  0.9919406E-01
        2   -1    0    0  501    0  0.00000000000E+00  0.00000000000E+00  0.12401800689E+04  0.12401800690E+04  0.25500000920E-02 0. -1.
       -2   -1    0    0    0  501  0.00000000000E+00  0.00000000000E+00 -0.70958299255E+02  0.70958299301E+02  0.25500000920E-02 0.  1.
    10030    2    1    2    0    0  0.00000000000E+00  0.00000000000E+00  0.11692217697E+04  0.13111383683E+04  0.59329948085E+03 0.  0.
        1    1    3    3  502    0 -0.65906872372E+02 -0.28430439548E+03  0.46708266479E+03  0.55076212732E+03  0.50400001928E-02 0.  1.
       -1    1    3    3    0  502  0.65906872372E+02  0.28430439548E+03  0.70213910490E+03  0.76037624093E+03  0.50400001928E-02 0. -1.
</event>
<event>
 5   0  0.6007360E-02  0.6001426E+03  0.7818609E-02  0.9905110E-01
       -2   -1    0    0    0  501  0.00000000000E+00  0.00000000000E+00  0.51937822559E+03  0.51937822560E+03  0.25500000920E-02 0. -1.
        2   -1    0    0  501    0  0.00000000000E+00  0.00000000000E+00 -0.17336647778E+03  0.17336647780E+03  0.25500000920E-02 0.  1.
    10030    2    1    2    0    0  0.00000000000E+00  0.00000000000E+00  0.34601174781E+03  0.69274470340E+03  0.60014256179E+03 0.  0.
        4    1    3    3  502    0  0.13268266098E+03  0.87790151051E+02 -0.12067079669E+03  0.19968688795E+03  0.12699999809E+01 0.  1.
       -4    1    3    3    0  502 -0.13268266098E+03 -0.87790151051E+02  0.46668254450E+03  0.49305781546E+03  0.12699999809E+01 0. -1.
</event>
<event>
 5   0  0.5935451E-02  0.5985025E+03  0.7818609E-02  0.9908518E-01
       -2   -1    0    0    0  501  0.00000000000E+00  0.00000000000E+00  0.24738128433E+03  0.24738128434E+03  0.25500000920E-02 0.  1.
        2   -1    0    0  501    0  0.00000000000E+00  0.00000000000E+00 -0.36199710019E+03  0.36199710020E+03  0.25500000920E-02 0. -1.
    10030    2    1    2    0    0  0.00000000000E+00  0.00000000000E+00 -0.11461581586E+03  0.60937838454E+03  0.59850248981E+03 0.  0.
        3    1    3    3  502    0 -0.17827109352E+03  0.18662101429E+03 -0.21153090392E+03  0.33369644779E+03  0.10100000352E+00 0. -1.
       -3    1    3    3    0  502  0.17827109352E+03 -0.18662101429E+03  0.96915088055E+02  0.27568193675E+03  0.10100000352E+00 0.  1.
</event>
<event>
 5   0  0.2388000E-02  0.5910079E+03  0.7818609E-02  0.9924239E-01
       -4   -1    0    0    0  501  0.00000000000E+00  0.00000000000E+00  0.16031935597E+03  0.16032438616E+03  0.12699999809E+01 0. -1.
        4   -1    0    0  501    0  0.00000000000E+00  0.00000000000E+00 -0.54466464248E+03  0.54466612311E+03  0.12699999809E+01 0.  1.
    10030    2    1    2    0    0  0.00000000000E+00  0.00000000000E+00 -0.38434528651E+03  0.70499050927E+03  0.59100788396E+03 0.  0.
        5    1    3    3  502    0 -0.18178593723E+03  0.12349151217E+03 -0.42775661240E+03  0.48093044196E+03  0.46999998093E+01 0.  1.
       -5    1    3    3    0  502  0.18178593723E+03 -0.12349151217E+03  0.43411325891E+02  0.22406006732E+03  0.46999998093E+01 0. -1.
</event>
<event>
 5   0  0.2388000E-02  0.5880935E+03  0.7818609E-02  0.9930421E-01
        4   -1    0    0  501    0  0.00000000000E+00  0.00000000000E+00  0.17049191038E+03  0.17049664045E+03  0.12699999809E+01 0. -1.
       -4   -1    0    0    0  501  0.00000000000E+00  0.00000000000E+00 -0.50712878231E+03  0.50713037253E+03  0.12699999809E+01 0.  1.
    10030    2    1    2    0    0  0.00000000000E+00  0.00000000000E+00 -0.33663687193E+03  0.67762701298E+03  0.58809351737E+03 0.  0.
        4    1    3    3  502    0 -0.14699912928E+03  0.23936737629E+03 -0.68156722272E+02  0.28905438334E+03  0.12699999809E+01 0. -1.
       -4    1    3    3    0  502  0.14699912928E+03 -0.23936737629E+03 -0.26848014966E+03  0.38857262964E+03  0.12699999809E+01 0.  1.
</event>
<event>
 5   0  0.3703280E-02  0.5992588E+03  0.7818609E-02  0.9906945E-01
        1   -1    0    0  501    0  0.00000000000E+00  0.00000000000E+00  0.75065053363E+03  0.75065053365E+03  0.50400001928E-02 0.  1.
       -1   -1    0    0    0  501  0.00000000000E+00  0.00000000000E+00 -0.11959998287E+03  0.11959998298E+03  0.50400001928E-02 0. -1.
    10030    2    1    2    0    0  0.00000000000E+00  0.00000000000E+00  0.63105055076E+03  0.87025051662E+03  0.59925884563E+03 0.  0.
        5    1    3    3  502    0 -0.13503154671E+03 -0.26648489762E+03  0.34825586974E+03  0.45885941210E+03  0.46999998093E+01 0.  1.
       -5    1    3    3    0  502  0.13503154671E+03  0.26648489762E+03  0.28279468102E+03  0.41139110452E+03  0.46999998093E+01 0. -1.
</event>
<event>
 5   0  0.3703280E-02  0.6001924E+03  0.7818609E-02  0.9905007E-01
       -1   -1    0    0    0  501  0.00000000000E+00  0.00000000000E+00  0.15602571825E+03  0.15602571833E+03  0.50400001928E-02 0.  1.
        1   -1    0    0  501    0  0.00000000000E+00  0.00000000000E+00 -0.57719803704E+03  0.57719803706E+03  0.50400001928E-02 0. -1.
    10030    2    1    2    0    0  0.00000000000E+00  0.00000000000E+00 -0.42117231880E+03  0.73322375539E+03  0.60019243027E+03 0.  0.
        5    1    3    3  502    0  0.94047422421E+02 -0.11670040862E+03 -0.52814819819E+03  0.54902323474E+03  0.46999998093E+01 0. -1.
       -5    1    3    3    0  502 -0.94047422421E+02  0.11670040862E+03  0.10697587940E+03  0.18420052065E+03  0.46999998093E+01 0.  1.
</event>
<event>
 5   0  0.3478183E-02  0.6036297E+03  0.7818609E-02  0.9897904E-01
       -1   -1    0    0    0  501  0.00000000000E+00  0.00000000000E+00  0.18709366278E+03  0.18709366285E+03  0.50400001928E-02 0.  1.
        1   -1    0    0  501    0  0.00000000000E+00  0.00000000000E+00 -0.48688015180E+03  0.48688015182E+03  0.50400001928E-02 0. -1.
    10030    2    1    2    0    0  0.00000000000E+00  0.00000000000E+00 -0.29978648901E+03  0.67397381467E+03  0.60362965788E+03 0.  0.
        4    1    3    3  502    0  0.26352926737E+03  0.34566012137E+02  0.97677652546E+01  0.26596899461E+03  0.12699999809E+01 0.  1.
       -4    1    3    3    0  502 -0.26352926737E+03 -0.34566012137E+02 -0.30955425427E+03  0.40800482006E+03  0.12699999809E+01 0. -1.
</event>
<event>
 5   0  0.3651984E-02  0.5992505E+03  0.7818609E-02  0.9906962E-01
        1   -1    0    0  501    0  0.00000000000E+00  0.00000000000E+00  0.22223661817E+03  0.22223661823E+03  0.50400001928E-02 0. -1.
       -1   -1    0    0    0  501  0.00000000000E+00  0.00000000000E+00 -0.40396260064E+03  0.40396260067E+03  0.50400001928E-02 0.  1.
    10030    2    1    2    0    0  0.00000000000E+00  0.00000000000E+00 -0.18172598247E+03  0.62619921890E+03  0.59925047272E+03 0.  0.
        1    1    3    3  502    0  0.10155189284E+03  0.10834526652E+03 -0.36280405419E+03  0.39201819534E+03  0.50400001928E-02 0.  1.
       -1    1    3    3    0  502 -0.10155189284E+03 -0.10834526652E+03  0.18107807171E+03  0.23418102357E+03  0.50400001928E-02 0. -1.
</event>
<event>
 5   0  0.6007360E-02  0.6001810E+03  0.7818609E-02  0.9905031E-01
        2   -1    0    0  501    0  0.00000000000E+00  0.00000000000E+00  0.26476960353E+04  0.26476960353E+04  0.25500000920E-02 0.  1.
       -2   -1    0    0    0  501  0.00000000000E+00  0.00000000000E+00 -0.34012331078E+02  0.34012331174E+02  0.25500000920E-02 0. -1.
    10030    2    1    2    0    0  0.00000000000E+00  0.00000000000E+00  0.26136837043E+04  0.26817083665E+04  0.60018102029E+03 0.  0.
        4    1    3    3  502    0 -0.29375138081E+03 -0.59713100423E+02  0.12441005786E+04  0.12797044153E+04  0.12699999809E+01 0. -1.
       -4    1    3    3    0  502  0.29375138081E+03  0.59713100423E+02  0.13695831257E+04  0.14020039512E+04  0.12699999809E+01 0.  1.
</event>
<event>
 5   0  0.5999117E-02  0.5994708E+03  0.7818609E-02  0.9906505E-01
        2   -1    0    0  501    0  0.00000000000E+00  0.00000000000E+00  0.10483551958E+04  0.10483551958E+04  0.25500000920E-02 0.  1.
       -2   -1    0    0    0  501  0.00000000000E+00  0.00000000000E+00 -0.85697381752E+02  0.85697381790E+02  0.25500000920E-02 0. -1.
    10030    2    1    2    0    0  0.00000000000E+00  0.00000000000E+00  0.96265781400E+03  0.11340525775E+04  0.59947075140E+03 0.  0.
        5    1    3    3  502    0 -0.11831714802E+03  0.13522468164E+02  0.10016045441E+04  0.10086701926E+04  0.46999998093E+01 0.  1.
       -5    1    3    3    0  502  0.11831714802E+03 -0.13522468164E+02 -0.38946730141E+02  0.12538238491E+03  0.46999998093E+01 0. -1.
</event>
<event>
 5   0  0.3703280E-02  0.5618135E+03  0.7818609E-02  0.9987960E-01
        1   -1    0    0  501    0  0.00000000000E+00  0.00000000000E+00  0.15167815463E+04  0.15167815463E+04  0.50400001928E-02 0.  1.
       -1   -1    0    0    0  501  0.00000000000E+00  0.00000000000E+00 -0.52023708458E+02  0.52023708702E+02  0.50400001928E-02 0. -1.
    10030    2    1    2    0    0  0.00000000000E+00  0.00000000000E+00  0.14647578378E+04  0.15688052550E+04  0.56181349630E+03 0.  0.
        5    1    3    3  502    0  0.23182764454E+03 -0.11796576021E+03  0.10282480877E+04  0.10606489510E+04  0.46999998093E+01 0.  1.
       -5    1    3    3    0  502 -0.23182764454E+03  0.11796576021E+03  0.43650975008E+03  0.50815630397E+03  0.46999998093E+01 0. -1.
</event>
<event>
 5   0  0.5872632E-02  0.6022506E+03  0.7818609E-02  0.9900748E-01
        2   -1    0    0  501    0  0.00000000000E+00  0.00000000000E+00  0.24099977017E+03  0.24099977019E+03  0.25500000920E-02 0.  1.
       -2   -1    0    0    0  501  0.00000000000E+00  0.00000000000E+00 -0.37625118828E+03  0.37625118829E+03  0.25500000920E-02 0. -1.
    10030    2    1    2    0    0  0.00000000000E+00  0.00000000000E+00 -0.13525141811E+03  0.61725095848E+03  0.60225061199E+03 0.  0.
        1    1    3    3  502    0 -0.10616393404E+03 -0.19889789441E+03  0.13695894542E+03  0.26379709257E+03  0.50400001928E-02 0.  1.
       -1    1    3    3    0  502  0.10616393404E+03  0.19889789441E+03 -0.27221036353E+03  0.35345386591E+03  0.50400001928E-02 0. -1.
</event>
<event>
 5   0  0.5755078E-02  0.6004476E+03  0.7818609E-02  0.9904478E-01
       -2   -1    0    0    0  501  0.00000000000E+00  0.00000000000E+00  0.94165807304E+02  0.94165807339E+02  0.25500000920E-02 0.  1.
        2   -1    0    0  501    0  0.00000000000E+00  0.00000000000E+00 -0.95718760691E+03  0.95718760691E+03  0.25500000920E-02 0. -1.
    10030    2    1    2    0    0  0.00000000000E+00  0.00000000000E+00 -0.86302179960E+03  0.10513534143E+04  0.60044764557E+03 0.  0.
        2    1    3    3  502    0 -0.99572066074E+02  0.18876591501E+03 -0.80123568905E+03  0.82917175327E+03  0.25500000920E-02 0. -1.
       -2    1    3    3    0  502  0.99572066074E+02 -0.18876591501E+03 -0.61786110556E+02  0.22218166098E+03  0.25500000920E-02 0.  1.
</event>
<event>
 5   0  0.5755078E-02  0.6046524E+03  0.7818609E-02  0.9895801E-01
        2   -1    0    0  501    0  0.00000000000E+00  0.00000000000E+00  0.70406841237E+03  0.70406841237E+03  0.25500000920E-02 0.  1.
       -2   -1    0    0    0  501  0.00000000000E+00  0.00000000000E+00 -0.12981854250E+03  0.12981854252E+03  0.25500000920E-02 0. -1.
    10030    2    1    2    0    0  0.00000000000E+00  0.00000000000E+00  0.57424986987E+03  0.83388695490E+03  0.60465241296E+03 0.  0.
        2    1    3    3  502    0  0.85071520425E+02  0.19432908469E+03  0.58419658920E+03  0.62151959871E+03  0.25500000920E-02 0.  1.
       -2    1    3    3    0  502 -0.85071520425E+02 -0.19432908469E+03 -0.99467193259E+01  0.21236735619E+03  0.25500000920E-02 0. -1.
</event>
<event>
 5   0  0.3478183E-02  0.6015228E+03  0.7818609E-02  0.9902252E-01
       -1   -1    0    0    0  501  0.00000000000E+00  0.00000000000E+00  0.76224195535E+02  0.76224195701E+02  0.50400001928E-02 0. -1.
        1   -1    0    0  501    0  0.00000000000E+00  0.00000000000E+00 -0.11867284825E+04  0.11867284825E+04  0.50400001928E-02 0.  1.
    10030    2    1    2    0    0  0.00000000000E+00  0.00000000000E+00 -0.11105042869E+04  0.12629526782E+04  0.60152281422E+03 0.  0.
        4    1    3    3  502    0  0.28377316081E+02 -0.29131817388E+03 -0.70047747902E+03  0.75917182641E+03  0.12699999809E+01 0.  1.
       -4    1    3    3    0  502 -0.28377316081E+02  0.29131817388E+03 -0.41002680792E+03  0.50378085178E+03  0.12699999809E+01 0. -1.
</event>
<event>
 5   0  0.3651984E-02  0.5810245E+03  0.7818609E-02  0.9945575E-01
       -1   -1    0    0    0  501  0.00000000000E+00  0.00000000000E+00  0.71449805824E+03  0.71449805826E+03  0.50400001928E-02 0.  1.
        1   -1    0    0  501    0  0.00000000000E+00  0.00000000000E+00 -0.11812119051E+03  0.11812119062E+03  0.50400001928E-02 0. -1.
    10030    2    1    2    0    0  0.00000000000E+00  0.00000000000E+00  0.59637686773E+03  0.83261924888E+03  0.58102447903E+03 0.  0.
        1    1    3    3  502    0  0.18744394597E+03  0.22162692480E+03  0.31536283335E+03  0.42861106304E+03  0.50400001928E-02 0. -1.
       -1    1    3    3    0  502 -0.18744394597E+03 -0.22162692480E+03  0.28101403439E+03  0.40400818584E+03  0.50400001928E-02 0.  1.
</event>
<event>
 5   0  0.5999117E-02  0.6047628E+03  0.7818609E-02  0.9895574E-01
       -2   -1    0    0    0  501  0.00000000000E+00  0.00000000000E+00  0.19669890738E+03  0.19669890740E+03  0.25500000920E-02 0. -1.
        2   -1    0    0  501    0  0.00000000000E+00  0.00000000000E+00 -0.46484503471E+03  0.46484503472E+03  0.25500000920E-02 0.  1.
    10030    2    1    2    0    0  0.00000000000E+00  0.00000000000E+00 -0.26814612733E+03  0.66154394211E+03  0.60476279792E+03 0.  0.
        5    1    3    3  502    0  0.21156155701E+02  0.30156538877E+03 -0.13933668790E+03  0.33290549593E+03  0.46999998093E+01 0. -1.
       -5    1    3    3    0  502 -0.21156155701E+02 -0.30156538877E+03 -0.12880943943E+03  0.32863844618E+03  0.46999998093E+01 0.  1.
</event>
<event>
 5   0  0.3703280E-02  0.6032732E+03  0.7818609E-02  0.9898638E-01
        1   -1    0    0  501    0  0.00000000000E+00  0.00000000000E+00  0.81473800180E+03  0.81473800181E+03  0.50400001928E-02 0.  1.
       -1   -1    0    0    0  501  0.00000000000E+00  0.00000000000E+00 -0.11167348185E+03  0.11167348196E+03  0.50400001928E-02 0. -1.
    10030    2    1    2    0    0  0.00000000000E+00  0.00000000000E+00  0.70306451995E+03  0.92641148378E+03  0.60327317035E+03 0.  0.
        5    1    3    3  502    0 -0.11578148637E+02 -0.27696104689E+03  0.53401577468E+03  0.60169461741E+03  0.46999998093E+01 0. -1.
       -5    1    3    3    0  502  0.11578148637E+02  0.27696104689E+03  0.16904874527E+03  0.32471686636E+03  0.46999998093E+01 0.  1.
</event>
<event>
 5   0  0.5755078E-02  0.6015938E+03  0.7818609E-02  0.9902105E-01
        2   -1    0    0  501    0  0.00000000000E+00  0.00000000000E+00  0.31382017409E+03  0.31382017410E+03  0.25500000920E-02 0. -1.
       -2   -1    0    0    0  501  0.00000000000E+00  0.00000000000E+00 -0.28831408723E+03  0.28831408724E+03  0.25500000920E-02 0.  1.
    10030    2    1    2    0    0  0.00000000000E+00  0.00000000000E+00  0.25506086855E+02  0.60213426134E+03  0.60159380666E+03 0.  0.
        2    1    3    3  502    0 -0.16374684502E+03 -0.10946388319E+03 -0.21479103927E+03  0.29142848442E+03  0.25500000920E-02 0.  1.
       -2    1    3    3    0  502  0.16374684502E+03  0.10946388319E+03  0.24029712612E+03  0.31070577691E+03  0.25500000920E-02 0. -1.
</event>
<event>
 5   0  0.6007360E-02  0.6100657E+03  0.7818609E-02  0.9884740E-01
        2   -1    0    0  501    0  0.00000000000E+00  0.00000000000E+00  0.12506114547E+04  0.12506114547E+04  0.25500000920E-02 0.  1.
       -2   -1    0    0    0  501  0.00000000000E+00  0.00000000000E+00 -0.74399643785E+02  0.74399643829E+02  0.25500000920E-02 0. -1.
    10030    2    1    2    0    0  0.00000000000E+00  0.00000000000E+00  0.11762118110E+04  0.13250110986E+04  0.61006572360E+03 0.  0.
        4    1    3    3  502    0  0.23786464428E+03 -0.18107177482E+02  0.10009753849E+04  0.10290096175E+04  0.12699999809E+01 0.  1.
       -4    1    3    3    0  502 -0.23786464428E+03  0.18107177482E+02  0.17523642608E+03  0.29600148108E+03  0.12699999809E+01 0. -1.
</event>
<event>
 5   0  0.3478183E-02  0.6029514E+03  0.7818609E-02  0.9899302E-01
        1   -1    0    0  501    0  0.00000000000E+00  0.00000000000E+00  0.49614334379E+03  0.49614334381E+03  0.50400001928E-02 0.  1.
       -1   -1    0    0    0  501  0.00000000000E+00  0.00000000000E+00 -0.18318816208E+03  0.18318816215E+03  0.50400001928E-02 0. -1.
    10030    2    1    2    0    0  0.00000000000E+00  0.00000000000E+00  0.31295518170E+03  0.67933150596E+03  0.60295136556E+03 0.  0.
        4    1    3    3  502    0 -0.99508585535E+01 -0.25244707944E+03  0.34180630844E+03  0.42504318945E+03  0.12699999809E+01 0. -1.
       -4    1    3    3    0  502  0.99508585535E+01  0.25244707944E+03 -0.28851126740E+02  0.25428831651E+03  0.12699999809E+01 0.  1.
</event>
<event>
 5   0  0.5999117E-02  0.5470491E+03  0.7818609E-02  0.1002179E+00
        2   -1    0    0  501    0  0.00000000000E+00  0.00000000000E+00  0.89797606429E+03  0.89797606430E+03  0.25500000920E-02 0. -1.
       -2   -1    0    0    0  501  0.00000000000E+00  0.00000000000E+00 -0.83315890918E+02  0.83315890958E+02  0.25500000920E-02 0.  1.
    10030    2    1    2    0    0  0.00000000000E+00  0.00000000000E+00  0.81466017337E+03  0.98129195525E+03  0.54704908680E+03 0.  0.
        5    1    3    3  502    0  0.96111059164E+02  0.25546206742E+03  0.43815942077E+03  0.51624022663E+03  0.46999998093E+01 0. -1.
       -5    1    3    3    0  502 -0.96111059164E+02 -0.25546206742E+03  0.37650075260E+03  0.46505172862E+03  0.46999998093E+01 0.  1.
</event>
<event>
 5   0  0.5935451E-02  0.6013796E+03  0.7818609E-02  0.9902548E-01
       -2   -1    0    0    0  501  0.00000000000E+00  0.00000000000E+00  0.98517908220E+03  0.98517908220E+03  0.25500000920E-02 0.  1.
        2   -1    0    0  501    0  0.00000000000E+00  0.00000000000E+00 -0.91774543253E+02  0.91774543289E+02  0.25500000920E-02 0. -1.
    10030    2    1    2    0    0  0.00000000000E+00  0.00000000000E+00  0.89340453895E+03  0.10769536255E+04  0.60137961493E+03 0.  0.
        3    1    3    3  502    0 -0.17105612705E+03 -0.19494452476E+03  0.17422445363E+03  0.31243837276E+03  0.10100000352E+00 0. -1.
       -3    1    3    3    0  502  0.17105612705E+03  0.19494452476E+03  0.71918008532E+03  0.76451525273E+03  0.10100000352E+00 0.  1.
</event>
<event>
 5   0  0.6007360E-02  0.5985131E+03  0.7818609E-02  0.9908496E-01
        2   -1    0    0  501    0  0.00000000000E+00  0.00000000000E+00  0.14144421283E+04  0.14144421283E+04  0.25500000920E-02 0.  1.
       -2   -1    0    0    0  501  0.00000000000E+00  0.00000000000E+00 -0.63314346820E+02  0.63314346872E+02  0.25500000920E-02 0. -1.
    10030    2    1    2    0    0  0.00000000000E+00  0.00000000000E+00  0.13511277815E+04  0.14777564751E+04  0.59851308927E+03 0.  0.
        4    1    3    3  502    0 -0.19624899356E+02 -0.27468892127E+03  0.96470308045E+03  0.10032411407E+04  0.12699999809E+01 0.  1.
       -4    1    3    3    0  502  0.19624899356E+02  0.27468892127E+03  0.38642470101E+03  0.47451533441E+03  0.12699999809E+01 0. -1.
</event>
<event>
 5   0  0.3767635E-02  0.6014564E+03  0.7818609E-02  0.9902389E-01
       -1   -1    0    0    0  501  0.00000000000E+00  0.00000000000E+00  0.12249728987E+03  0.12249728997E+03  0.50400001928E-02 0. -1.
        1   -1    0    0  501    0  0.00000000000E+00  0.00000000000E+00 -0.73828131854E+03  0.73828131855E+03  0.50400001928E-02 0.  1.
    10030    2    1    2    0    0  0.00000000000E+00  0.00000000000E+00 -0.61578402867E+03  0.86077860853E+03  0.60145643478E+03 0.  0.
        2    1    3    3  502    0  0.39067597260E+02 -0.42314582402E+00  0.11884965182E+03  0.12510673824E+03  0.25500000920E-02 0. -1.
       -2    1    3    3    0  502 -0.39067597260E+02  0.42314582402E+00 -0.73463368049E+03  0.73567187029E+03  0.25500000920E-02 0.  1.
</event>
<event>
 5   0  0.5935451E-02  0.5468565E+03  0.7818609E-02  0.1002224E+00
        2   -1    0    0  501    0  0.00000000000E+00  0.00000000000E+00  0.10681780983E+04  0.10681780983E+04  0.25500000920E-02 0.  1.
       -2   -1    0    0    0  501  0.00000000000E+00  0.00000000000E+00 -0.69991138205E+02  0.69991138252E+02  0.25500000920E-02 0. -1.
    10030    2    1    2    0    0  0.00000000000E+00  0.00000000000E+00  0.99818696012E+03  0.11381692366E+04  0.54685647454E+03 0.  0.
        3    1    3    3  502    0  0.75275626165E+02 -0.30823377818E+02 -0.44225943374E+02  0.92587497984E+02  0.10100000352E+00 0. -1.
       -3    1    3    3    0  502 -0.75275626165E+02  0.30823377818E+02  0.10424129035E+04  0.10455817386E+04  0.10100000352E+00 0.  1.
</event>
<event>
 5   0  0.3640827E-02  0.5572101E+03  0.7818609E-02  0.9998387E-01
       -1   -1    0    0    0  501  0.00000000000E+00  0.00000000000E+00  0.11550640731E+03  0.11550640742E+03  0.50400001928E-02 0.  1.
        1   -1    0    0  501    0  0.00000000000E+00  0.00000000000E+00 -0.67200413125E+03  0.67200413127E+03  0.50400001928E-02 0. -1.
    10030    2    1    2    0    0  0.00000000000E+00  0.00000000000E+00 -0.55649772394E+03  0.78751053868E+03  0.55721013253E+03 0.  0.
        3    1    3    3  502    0 -0.16340228808E+03 -0.10651742638E+03  0.29056795882E+01  0.19507619806E+03  0.10100000352E+00 0.  1.
       -3    1    3    3    0  502  0.16340228808E+03  0.10651742638E+03 -0.55940340353E+03  0.59243434063E+03  0.10100000352E+00 0. -1.
</event>
<event>
 5   0  0.6007360E-02  0.6041656E+03  0.7818609E-02  0.9896801E-01
        2   -1    0    0  501    0  0.00000000000E+00  0.00000000000E+00  0.15363029232E+04  0.15363029232E+04  0.25500000920E-02 0. -1.
       -2   -1    0    0    0  501  0.00000000000E+00  0.00000000000E+00 -0.59398454851E+02  0.59398454906E+02  0.25500000920E-02 0.  1.
    10030    2    1    2    0    0  0.00000000000E+00  0.00000000000E+00  0.14769044683E+04  0.15957013781E+04  0.60416560599E+03 0.  0.
        4    1    3    3  502    0  0.20937243302E+03 -0.21032475888E+03  0.88737010993E+03  0.93568191433E+03  0.12699999809E+01 0.  1.
       -4    1    3    3    0  502 -0.20937243302E+03  0.21032475888E+03  0.58953435839E+03  0.66001946375E+03  0.12699999809E+01 0. -1.
</event>
<event>
 5   0  0.3651984E-02  0.6167034E+03  0.7818609E-02  0.9871345E-01
        1   -1    0    0  501    0  0.00000000000E+00  0.00000000000E+00  0.10432412840E+04  0.10432412840E+04  0.50400001928E-02 0.  1.
       -1   -1    0    0    0  501  0.00000000000E+00  0.00000000000E+00 -0.91139777011E+02  0.91139777150E+02  0.50400001928E-02 0. -1.
    10030    2    1    2    0    0  0.00000000000E+00  0.00000000000E+00  0.95210150699E+03  0.11343810612E+04  0.61670342330E+03 0.  0.
        1    1    3    3  502    0  0.20375682188E+03  0.11342753619E+03  0.10496880069E+03  0.25573638296E+03  0.50400001928E-02 0. -1.
       -1    1    3    3    0  502 -0.20375682188E+03 -0.11342753619E+03  0.84713270630E+03  0.87864467821E+03  0.50400001928E-02 0.  1.
</event>
<event>
 5   0  0.5999117E-02  0.5985346E+03  0.7818609E-02  0.9908451E-01
        2   -1    0    0  501    0  0.00000000000E+00  0.00000000000E+00  0.82321429402E+03  0.82321429402E+03  0.25500000920E-02 0. -1.
       -2   -1    0    0    0  501  0.00000000000E+00  0.00000000000E+00 -0.10879417933E+03  0.10879417936E+03  0.25500000920E-02 0.  1.
    10030    2    1    2    0    0  0.00000000000E+00  0.00000000000E+00  0.71442011469E+03  0.93200847338E+03  0.59853462237E+03 0.  0.
        5    1    3    3  502    0 -0.17339812042E+03 -0.17273810597E+03  0.89156328114E+02  0.26053080866E+03  0.46999998093E+01 0.  1.
       -5    1    3    3    0  502  0.17339812042E+03  0.17273810597E+03  0.62526378657E+03  0.67147766472E+03  0.46999998093E+01 0. -1.
</event>
<event>
 5   0  0.3703280E-02  0.5930369E+03  0.7818609E-02  0.9919958E-01
       -1   -1    0    0    0  501  0.00000000000E+00  0.00000000000E+00  0.29642960023E+03  0.29642960028E+03  0.50400001928E-02 0. -1.
        1   -1    0    0  501    0  0.00000000000E+00  0.00000000000E+00 -0.29660733545E+03  0.29660733550E+03  0.50400001928E-02 0.  1.
    10030    2    1    2    0    0  0.00000000000E+00  0.00000000000E+00 -0.17773521785E+00  0.59303693577E+03  0.59303690914E+03 0.  0.
        5    1    3    3  502    0 -0.69295935049E+01 -0.16415752259E+02 -0.29603415914E+03  0.29660716371E+03  0.46999998093E+01 0.  1.
       -5    1    3    3    0  502  0.69295935049E+01  0.16415752259E+02  0.29585642392E+03  0.29642977206E+03  0.46999998093E+01 0. -1.
</event>
<event>
 5   0  0.3703280E-02  0.5991102E+03  0.7818609E-02  0.9907254E-01
       -1   -1    0    0    0  501  0.00000000000E+00  0.00000000000E+00  0.78861907318E+02  0.78861907479E+02  0.50400001928E-02 0. -1.
        1   -1    0    0  501    0  0.00000000000E+00  0.00000000000E+00 -0.11378531496E+04  0.11378531497E+04  0.50400001928E-02 0.  1.
    10030    2    1    2    0    0  0.00000000000E+00  0.00000000000E+00 -0.10589912423E+04  0.12167150571E+04  0.59911023938E+03 0.  0.
        5    1    3    3  502    0  0.75938237901E+02 -0.78447527883E+02 -0.10959247239E+04  0.11013599417E+04  0.46999998093E+01 0.  1.
       -5    1    3    3    0  502 -0.75938237901E+02  0.78447527883E+02  0.36933481586E+02  0.11535511548E+03  0.46999998093E+01 0. -1.
</event>
<event>
 5   0  0.5999117E-02  0.6118254E+03  0.7818609E-02  0.9881171E-01
       -2   -1    0    0    0  501  0.00000000000E+00  0.00000000000E+00  0.27908410050E+03  0.27908410051E+03  0.25500000920E-02 0.  1.
        2   -1    0    0  501    0  0.00000000000E+00  0.00000000000E+00 -0.33532033097E+03  0.33532033098E+03  0.25500000920E-02 0. -1.
    10030    2    1    2    0    0  0.00000000000E+00  0.00000000000E+00 -0.56236230466E+02  0.61440443149E+03  0.61182537690E+03 0.  0.
        5    1    3    3  502    0 -0.18627102361E+03  0.13104389543E+03  0.17692654225E+03  0.28843454738E+03  0.46999998093E+01 0.  1.
       -5    1    3    3    0  502  0.18627102361E+03 -0.13104389543E+03 -0.23316277272E+03  0.32596988411E+03  0.46999998093E+01 0. -1.
</event>
<event>
 5   0  0.3478183E-02  0.6013615E+03  0.7818609E-02  0.9902585E-01
       -1   -1    0    0    0  501  0.00000000000E+00  0.00000000000E+00  0.96802878891E+02  0.96802879022E+02  0.50400001928E-02 0.  1.
        1   -1    0    0  501    0  0.00000000000E+00  0.00000000000E+00 -0.93394847145E+03  0.93394847147E+03  0.50400001928E-02 0. -1.
    10030    2    1    2    0    0  0.00000000000E+00  0.00000000000E+00 -0.83714559256E+03  0.10307513505E+04  0.60136145818E+03 0.  0.
        4    1    3    3  502    0  0.17091576047E+02  0.12323222098E+03 -0.88775685621E+03  0.89643301530E+03  0.12699999809E+01 0. -1.
       -4    1    3    3    0  502 -0.17091576047E+02 -0.12323222098E+03  0.50611263654E+02  0.13431833519E+03  0.12699999809E+01 0.  1.
</event>
<event>
 5   0  0.3478183E-02  0.6176659E+03  0.7818609E-02  0.9869418E-01
        1   -1    0    0  501    0  0.00000000000E+00  0.00000000000E+00  0.44991174941E+03  0.44991174943E+03  0.50400001928E-02 0. -1.
       -1   -1    0    0    0  501  0.00000000000E+00  0.00000000000E+00 -0.21199220403E+03  0.21199220409E+03  0.50400001928E-02 0.  1.
    10030    2    1    2    0    0  0.00000000000E+00  0.00000000000E+00  0.23791954537E+03  0.66190395353E+03  0.61766587539E+03 0.  0.
        4    1    3    3  502    0 -0.85265723924E+02  0.13136228342E+03  0.40420009479E+03  0.43348082161E+03  0.12699999809E+01 0. -1.
       -4    1    3    3    0  502  0.85265723924E+02 -0.13136228342E+03 -0.16628054941E+03  0.22842313191E+03  0.12699999809E+01 0.  1.
</event>
<event>
 5   0  0.3703280E-02  0.5974095E+03  0.7818609E-02  0.9910795E-01
       -1   -1    0    0    0  501  0.00000000000E+00  0.00000000000E+00  0.49874940427E+03  0.49874940430E+03  0.50400001928E-02 0. -1.
        1   -1    0    0  501    0  0.00000000000E+00  0.00000000000E+00 -0.17889648873E+03  0.17889648880E+03  0.50400001928E-02 0.  1.
    10030    2    1    2    0    0  0.00000000000E+00  0.00000000000E+00  0.31985291555E+03  0.67764589309E+03  0.59740946498E+03 0.  0.
        5    1    3    3  502    0 -0.22361818218E+03 -0.15103985029E+03  0.30511911378E+03  0.40735474879E+03  0.46999998093E+01 0.  1.
       -5    1    3    3    0  502  0.22361818218E+03  0.15103985029E+03  0.14733801772E+02  0.27029114430E+03  0.46999998093E+01 0. -1.
</event>
<event>
 5   0  0.3767635E-02  0.6065150E+03  0.7818609E-02  0.9891981E-01
       -1   -1    0    0    0  501  0.00000000000E+00  0.00000000000E+00  0.26280166944E+03  0.26280166949E+03  0.50400001928E-02 0. -1.
        1   -1    0    0  501    0  0.00000000000E+00  0.00000000000E+00 -0.34994114883E+03  0.34994114886E+03  0.50400001928E-02 0.  1.
    10030    2    1    2    0    0  0.00000000000E+00  0.00000000000E+00 -0.87139479388E+02  0.61274281835E+03  0.60651502254E+03 0.  0.
        2    1    3    3  502    0  0.20162189068E+03 -0.22218192250E+03  0.10301917909E+01  0.30002875661E+03  0.25500000920E-02 0.  1.
       -2    1    3    3    0  502 -0.20162189068E+03  0.22218192250E+03 -0.88169671179E+02  0.31271406174E+03  0.25500000920E-02 0. -1.
</event>
<event>
 5   0  0.3478183E-02  0.6014601E+03  0.7818609E-02  0.9902381E-01
        1   -1    0    0  501    0  0.00000000000E+00  0.00000000000E+00  0.95793572572E+03  0.95793572574E+03  0.50400001928E-02 0. -1.
       -1   -1    0    0    0  501  0.00000000000E+00  0.00000000000E+00 -0.94409836322E+02  0.94409836456E+02  0.50400001928E-02 0.  1.
    10030    2    1    2    0    0  0.00000000000E+00  0.00000000000E+00  0.86352588940E+03  0.10523455622E+04  0.60146007399E+03 0.  0.
        4    1    3    3  502    0 -0.24921559358E+02 -0.26176669428E+03  0.68708055179E+03  0.73567940294E+03  0.12699999809E+01 0. -1.
       -4    1    3    3    0  502  0.24921559358E+02  0.26176669428E+03  0.17644533761E+03  0.31666615926E+03  0.12699999809E+01 0.  1.
</event>
<event>
 5   0  0.3478183E-02  0.5996006E+03  0.7818609E-02  0.9906235E-01
       -1   -1    0    0    0  501  0.00000000000E+00  0.00000000000E+00  0.37273966304E+03  0.37273966307E+03  0.50400001928E-02 0.  1.
        1   -1    0    0  501    0  0.00000000000E+00  0.00000000000E+00 -0.24113406713E+03  0.24113406718E+03  0.50400001928E-02 0. -1.
    10030    2    1    2    0    0  0.00000000000E+00  0.00000000000E+00  0.13160559591E+03  0.61387373026E+03  0.59960063695E+03 0.  0.
        4    1    3    3  502    0  0.22274134377E+03  0.63682460222E+02  0.26062029706E+03  0.34870290234E+03  0.12699999809E+01 0.  1.
       -4    1    3    3    0  502 -0.22274134377E+03 -0.63682460222E+02 -0.12901470115E+03  0.26517082792E+03  0.12699999809E+01 0. -1.
</event>
<event>
 5   0  0.3651984E-02  0.5972716E+03  0.7818609E-02  0.9911083E-01
       -1   -1    0    0    0  501  0.00000000000E+00  0.00000000000E+00  0.75746720549E+02  0.75746720717E+02  0.50400001928E-02 0. -1.
        1   -1    0    0  501    0  0.00000000000E+00  0.00000000000E+00 -0.11773886194E+04  0.11773886194E+04  0.50400001928E-02 0.  1.
    10030    2    1    2    0    0  0.00000000000E+00  0.00000000000E+00 -0.11016418989E+04  0.12531353402E+04  0.59727155246E+03 0.  0.
        1    1    3    3  502    0 -0.20670858986E+03 -0.13225674849E+03 -0.90788670905E+03  0.94046720577E+03  0.50400001928E-02 0.  1.
       -1    1    3    3    0  502  0.20670858986E+03  0.13225674849E+03 -0.19375518983E+03  0.31266813438E+03  0.50400001928E-02 0. -1.
</event>
<event>
 5   0  0.5755078E-02  0.5998417E+03  0.7818609E-02  0.9905735E-01
        2   -1    0    0  501    0  0.00000000000E+00  0.00000000000E+00  0.10393702511E+04  0.10393702511E+04  0.25500000920E-02 0. -1.
       -2   -1    0    0    0  501  0.00000000000E+00  0.00000000000E+00 -0.86545196800E+02  0.86545196837E+02  0.25500000920E-02 0.  1.
    10030    2    1    2    0    0  0.00000000000E+00  0.00000000000E+00  0.95282505432E+03  0.11259154480E+04  0.59984165562E+03 0.  0.
        2    1    3    3  502    0 -0.49896741574E+02 -0.22783363262E+03  0.12248252051E+03  0.26343844976E+03  0.25500000920E-02 0.  1.
       -2    1    3    3    0  502  0.49896741574E+02  0.22783363262E+03  0.83034253381E+03  0.86247699820E+03  0.25500000920E-02 0. -1.
</event>
<event>
 5   0  0.3651984E-02  0.6006659E+03  0.7818609E-02  0.9904025E-01
       -1   -1    0    0    0  501  0.00000000000E+00  0.00000000000E+00  0.22475683197E+03  0.22475683203E+03  0.50400001928E-02 0.  1.
        1   -1    0    0  501    0  0.00000000000E+00  0.00000000000E+00 -0.40132213115E+03  0.40132213119E+03  0.50400001928E-02 0. -1.
    10030    2    1    2    0    0  0.00000000000E+00  0.00000000000E+00 -0.17656529919E+03  0.62607896321E+03  0.60066593319E+03 0.  0.
        1    1    3    3  502    0 -0.29191396979E+03 -0.83705110340E+01 -0.16136368283E+03  0.33364962067E+03  0.50400001928E-02 0.  1.
       -1    1    3    3    0  502  0.29191396979E+03  0.83705110340E+01 -0.15201616359E+02  0.29242934254E+03  0.50400001928E-02 0. -1.
</event>
<event>
 5   0  0.3478183E-02  0.5673071E+03  0.7818609E-02  0.9975655E-01
        1   -1    0    0  501    0  0.00000000000E+00  0.00000000000E+00  0.35058050453E+03  0.35058050456E+03  0.50400001928E-02 0. -1.
       -1   -1    0    0    0  501  0.00000000000E+00  0.00000000000E+00 -0.22950314854E+03  0.22950314860E+03  0.50400001928E-02 0.  1.
    10030    2    1    2    0    0  0.00000000000E+00  0.00000000000E+00  0.12107735598E+03  0.58008365316E+03  0.56730707605E+03 0.  0.
        4    1    3    3  502    0 -0.14461095281E+03  0.20040989502E+03  0.20289064233E+03  0.31975409199E+03  0.12699999809E+01 0. -1.
       -4    1    3    3    0  502  0.14461095281E+03 -0.20040989502E+03 -0.81813286350E+02  0.26032956117E+03  0.12699999809E+01 0.  1.
</event>
<event>
 5   0  0.5999117E-02  0.6030151E+03  0.7818609E-02  0.9899170E-01
       -2   -1    0    0    0  501  0.00000000000E+00  0.00000000000E+00  0.81846964626E+02  0.81846964666E+02  0.25500000920E-02 0.  1.
        2   -1    0    0  501    0  0.00000000000E+00  0.00000000000E+00 -0.11106925856E+04  0.11106925856E+04  0.25500000920E-02 0. -1.
    10030    2    1    2    0    0  0.00000000000E+00  0.00000000000E+00 -0.10288456210E+04  0.11925395503E+04  0.60301514671E+03 0.  0.
        5    1    3    3  502    0 -0.40283206807E+02  0.20726202862E+02  0.75004566600E+02  0.87750140996E+02  0.46999998093E+01 0.  1.
       -5    1    3    3    0  502  0.40283206807E+02 -0.20726202862E+02 -0.11038501876E+04  0.11047894093E+04  0.46999998093E+01 0. -1.
</event>
<event>
 5   0  0.2388000E-02  0.6132153E+03  0.7818609E-02  0.9878362E-01
       -4   -1    0    0    0  501  0.00000000000E+00  0.00000000000E+00  0.59661057102E+03  0.59661192274E+03  0.12699999809E+01 0.  1.
        4   -1    0    0  501    0  0.00000000000E+00  0.00000000000E+00 -0.15756643934E+03  0.15757155741E+03  0.12699999809E+01 0. -1.
    10030    2    1    2    0    0  0.00000000000E+00  0.00000000000E+00  0.43904413168E+03  0.75418348015E+03  0.61321527392E+03 0.  0.
        2    1    3    3  502    0  0.18996041944E+03 -0.23483550603E+03  0.28431683156E+03  0.41481168807E+03  0.25500000920E-02 0. -1.
       -2    1    3    3    0  502 -0.18996041944E+03  0.23483550603E+03  0.15472730012E+03  0.33937179208E+03  0.25500000920E-02 0.  1.
</event>
<event>
 5   0  0.3640827E-02  0.5960679E+03  0.7818609E-02  0.9913598E-01
       -1   -1    0    0    0  501  0.00000000000E+00  0.00000000000E+00  0.19357597538E+03  0.19357597545E+03  0.50400001928E-02 0. -1.
        1   -1    0    0  501    0  0.00000000000E+00  0.00000000000E+00 -0.45885973619E+03  0.45885973622E+03  0.50400001928E-02 0.  1.
    10030    2    1    2    0    0  0.00000000000E+00  0.00000000000E+00 -0.26528376081E+03  0.65243571167E+03  0.59606785193E+03 0.  0.
        3    1    3    3  502    0  0.73778401236E+02 -0.24955991987E+03 -0.29163983388E+03  0.39086725240E+03  0.10100000352E+00 0. -1.
       -3    1    3    3    0  502 -0.73778401236E+02  0.24955991987E+03  0.26356073068E+02  0.26156845927E+03  0.10100000352E+00 0.  1.
</event>
<event>
 5   0  0.3478183E-02  0.5992887E+03  0.7818609E-02  0.9906883E-01
       -1   -1    0    0    0  501  0.00000000000E+00  0.00000000000E+00  0.12823996565E+03  0.12823996574E+03  0.50400001928E-02 0.  1.
        1   -1    0    0  501    0  0.00000000000E+00  0.00000000000E+00 -0.70014619258E+03  0.70014619260E+03  0.50400001928E-02 0. -1.
    10030    2    1    2    0    0  0.00000000000E+00  0.00000000000E+00 -0.57190622694E+03  0.82838615835E+03  0.59928865743E+03 0.  0.
        4    1    3    3  502    0 -0.92774366146E+02 -0.28459995701E+03 -0.26736194019E+03  0.40135799295E+03  0.12699999809E+01 0. -1.
       -4    1    3    3    0  502  0.92774366146E+02  0.28459995701E+03 -0.30454428675E+03  0.42702816539E+03  0.12699999809E+01 0.  1.
</event>
<event>
 5   0  0.3767635E-02  0.5985198E+03  0.7818609E-02  0.9908482E-01
        1   -1    0    0  501    0  0.00000000000E+00  0.00000000000E+00  0.18227680303E+04  0.18227680303E+04  0.50400001928E-02 0. -1.
       -1   -1    0    0    0  501  0.00000000000E+00  0.00000000000E+00 -0.49132141443E+02  0.49132141702E+02  0.50400001928E-02 0.  1.
    10030    2    1    2    0    0  0.00000000000E+00  0.00000000000E+00  0.17736358888E+04  0.18719001720E+04  0.59851983068E+03 0.  0.
        2    1    3    3  502    0 -0.29697062849E+03 -0.97345877748E+01  0.99828252005E+03  0.10415633952E+04  0.25500000920E-02 0. -1.
       -2    1    3    3    0  502  0.29697062849E+03  0.97345877748E+01  0.77535336876E+03  0.83033677676E+03  0.25500000920E-02 0.  1.
</event>
<event>
 5   0  0.6007360E-02  0.6007270E+03  0.7818609E-02  0.9903899E-01
       -2   -1    0    0    0  501  0.00000000000E+00  0.00000000000E+00  0.98294435249E+02  0.98294435283E+02  0.25500000920E-02 0. -1.
        2   -1    0    0  501    0  0.00000000000E+00  0.00000000000E+00 -0.91783649629E+03  0.91783649629E+03  0.25500000920E-02 0.  1.
    10030    2    1    2    0    0  0.00000000000E+00  0.00000000000E+00 -0.81954206104E+03  0.10161309316E+04  0.60072695985E+03 0.  0.
        4    1    3    3  502    0  0.10444143134E+03 -0.25272647029E+03 -0.61993923959E+03  0.67757284114E+03  0.12699999809E+01 0.  1.
       -4    1    3    3    0  502 -0.10444143134E+03  0.25272647029E+03 -0.19960282145E+03  0.33855809044E+03  0.12699999809E+01 0. -1.
</event>
<event>
 5   0  0.3703280E-02  0.5950036E+03  0.7818609E-02  0.9915826E-01
        1   -1    0    0  501    0  0.00000000000E+00  0.00000000000E+00  0.17550817386E+04  0.17550817386E+04  0.50400001928E-02 0. -1.
       -1   -1    0    0    0  501  0.00000000000E+00  0.00000000000E+00 -0.50429178303E+02  0.50429178554E+02  0.50400001928E-02 0.  1.
    10030    2    1    2    0    0  0.00000000000E+00  0.00000000000E+00  0.17046525603E+04  0.18055109172E+04  0.59500363080E+03 0.  0.
        5    1    3    3  502    0  0.13332581416E+02 -0.26200166035E+03  0.42682476373E+03  0.50102305006E+03  0.46999998093E+01 0.  1.
       -5    1    3    3    0  502 -0.13332581416E+02  0.26200166035E+03  0.12778277966E+04  0.13044878671E+04  0.46999998093E+01 0. -1.
</event>
<event>
 5   0  0.3640827E-02  0.5981222E+03  0.7818609E-02  0.9909309E-01
       -1   -1    0    0    0  501  0.00000000000E+00  0.00000000000E+00  0.18430130505E+03  0.18430130512E+03  0.50400001928E-02 0. -1.
        1   -1    0    0  501    0  0.00000000000E+00  0.00000000000E+00 -0.48527900568E+03  0.48527900571E+03  0.50400001928E-02 0.  1.
    10030    2    1    2    0    0  0.00000000000E+00  0.00000000000E+00 -0.30097770063E+03  0.66958031083E+03  0.59812224200E+03 0.  0.
        3    1    3    3  502    0  0.11968218248E+02 -0.29053398012E+03 -0.22872625276E+03  0.36995802566E+03  0.10100000352E+00 0.  1.
       -3    1    3    3    0  502 -0.11968218248E+02  0.29053398012E+03 -0.72251447869E+02  0.29962228517E+03  0.10100000352E+00 0. -1.
</event>
<event>
 5   0  0.5755078E-02  0.5929871E+03  0.7818609E-02  0.9920063E-01
       -2   -1    0    0    0  501  0.00000000000E+00  0.00000000000E+00  0.62204328793E+02  0.62204328845E+02  0.25500000920E-02 0.  1.
        2   -1    0    0  501    0  0.00000000000E+00  0.00000000000E+00 -0.14132202390E+04  0.14132202390E+04  0.25500000920E-02 0. -1.
    10030    2    1    2    0    0  0.00000000000E+00  0.00000000000E+00 -0.13510159102E+04  0.14754245679E+04  0.59298707050E+03 0.  0.
        2    1    3    3  502    0  0.28778963496E+03 -0.71022737987E+02 -0.69150043664E+03  0.75235627011E+03  0.25500000920E-02 0. -1.
       -2    1    3    3    0  502 -0.28778963496E+03  0.71022737987E+02 -0.65951547358E+03  0.72306829774E+03  0.25500000920E-02 0.  1.
</event>
<event>
 5   0  0.5999117E-02  0.6077243E+03  0.7818609E-02  0.9889509E-01
       -2   -1    0    0    0  501  0.00000000000E+00  0.00000000000E+00  0.42999874485E+03  0.42999874486E+03  0.25500000920E-02 0.  1.
        2   -1    0    0  501    0  0.00000000000E+00  0.00000000000E+00 -0.21472671054E+03  0.21472671055E+03  0.25500000920E-02 0. -1.
    10030    2    1    2    0    0  0.00000000000E+00  0.00000000000E+00  0.21527203432E+03  0.64472545541E+03  0.60772433232E+03 0.  0.
        5    1    3    3  502    0 -0.60986011720E+01  0.11916779352E+03  0.40406165410E+03  0.42133842248E+03  0.46999998093E+01 0.  1.
       -5    1    3    3    0  502  0.60986011720E+01 -0.11916779352E+03 -0.18878961978E+03  0.22338703293E+03  0.46999998093E+01 0. -1.
</event>
<event>
 5   0  0.5935451E-02  0.5951828E+03  0.7818609E-02  0.9915451E-01
        2   -1    0    0  501    0  0.00000000000E+00  0.00000000000E+00  0.56697635056E+03  0.56697635057E+03  0.25500000920E-02 0. -1.
       -2   -1    0    0    0  501  0.00000000000E+00  0.00000000000E+00 -0.15619814284E+03  0.15619814286E+03  0.25500000920E-02 0.  1.
    10030    2    1    2    0    0  0.00000000000E+00  0.00000000000E+00  0.41077820772E+03  0.72317449343E+03  0.59518283914E+03 0.  0.
        3    1    3    3  502    0 -0.60821145843E+02 -0.24884876659E+03  0.21375932194E+02  0.25706392414E+03  0.10100000352E+00 0.  1.
       -3    1    3    3    0  502  0.60821145843E+02  0.24884876659E+03  0.38940227552E+03  0.46611056929E+03  0.10100000352E+00 0. -1.
</event>
<event>
 5   0  0.2388000E-02  0.5907372E+03  0.7818609E-02  0.9924812E-01
       -4   -1    0    0    0  501  0.00000000000E+00  0.00000000000E+00  0.61684352362E+03  0.61684483100E+03  0.12699999809E+01 0.  1.
        4   -1    0    0  501    0  0.00000000000E+00  0.00000000000E+00 -0.14142961487E+03  0.14143531689E+03  0.12699999809E+01 0. -1.
    10030    2    1    2    0    0  0.00000000000E+00  0.00000000000E+00  0.47541390875E+03  0.75828014789E+03  0.59073716495E+03 0.  0.
        1    1    3    3  502    0  0.19058155784E+03 -0.19666775661E+03  0.37973706667E+03  0.46818775775E+03  0.50400001928E-02 0.  1.
       -1    1    3    3    0  502 -0.19058155784E+03  0.19666775661E+03  0.95676842080E+02  0.29009239014E+03  0.50400001928E-02 0. -1.
</event>
<event>
 5   0  0.5935451E-02  0.6027066E+03  0.7818609E-02  0.9899807E-01
        2   -1    0    0  501    0  0.00000000000E+00  0.00000000000E+00  0.73261420696E+03  0.73261420696E+03  0.25500000920E-02 0. -1.
       -2   -1    0    0    0  501  0.00000000000E+00  0.00000000000E+00 -0.12395858709E+03  0.12395858712E+03  0.25500000920E-02 0.  1.
    10030    2    1    2    0    0  0.00000000000E+00  0.00000000000E+00  0.60865561987E+03  0.85657279408E+03  0.60270663507E+03 0.  0.
        3    1    3    3  502    0 -0.45746546927E+02 -0.29134197953E+03  0.39240748822E+03  0.49087324495E+03  0.10100000352E+00 0. -1.
       -3    1    3    3    0  502  0.45746546927E+02  0.29134197953E+03  0.21624813165E+03  0.36569954913E+03  0.10100000352E+00 0.  1.
</event>
<event>
 5   0  0.3703280E-02  0.5979183E+03  0.7818609E-02  0.9909734E-01
       -1   -1    0    0    0  501  0.00000000000E+00  0.00000000000E+00  0.17411704900E+03  0.17411704907E+03  0.50400001928E-02 0. -1.
        1   -1    0    0  501    0  0.00000000000E+00  0.00000000000E+00 -0.51331318556E+03  0.51331318558E+03  0.50400001928E-02 0.  1.
    10030    2    1    2    0    0  0.00000000000E+00  0.00000000000E+00 -0.33919613656E+03  0.68743023465E+03  0.59791831253E+03 0.  0.
        5    1    3    3  502    0  0.10039738357E+03  0.83528745202E+02  0.13953774388E+03  0.19117938662E+03  0.46999998093E+01 0. -1.
       -5    1    3    3    0  502 -0.10039738357E+03 -0.83528745202E+02 -0.47873388044E+03  0.49625084804E+03  0.46999998093E+01 0.  1.
</event>
<event>
 5   0  0.3640827E-02  0.6000777E+03  0.7818609E-02  0.9905245E-01
       -1   -1    0    0    0  501  0.00000000000E+00  0.00000000000E+00  0.16121736026E+03  0.16121736034E+03  0.50400001928E-02 0. -1.
        1   -1    0    0  501    0  0.00000000000E+00  0.00000000000E+00 -0.55839722247E+03  0.55839722249E+03  0.50400001928E-02 0.  1.
    10030    2    1    2    0    0  0.00000000000E+00  0.00000000000E+00 -0.39717986220E+03  0.71961458283E+03  0.60007774903E+03 0.  0.
        3    1    3    3  502    0 -0.54117985398E+02 -0.27997931020E+03 -0.31048356895E+03  0.42156521117E+03  0.10100000352E+00 0.  1.
       -3    1    3    3    0  502  0.54117985398E+02  0.27997931020E+03 -0.86696293256E+02  0.29804937166E+03  0.10100000352E+00 0. -1.
</event>
<event>
 5   0  0.2388000E-02  0.6087623E+03  0.7818609E-02  0.9887392E-01
        3   -1    0    0  501    0  0.00000000000E+00  0.00000000000E+00  0.98491159364E+03  0.98491159881E+03  0.10100000352E+00 0. -1.
       -3   -1    0    0    0  501  0.00000000000E+00  0.00000000000E+00 -0.94067168418E+02  0.94067222640E+02  0.10100000352E+00 0.  1.
    10030    2    1    2    0    0  0.00000000000E+00  0.00000000000E+00  0.89084442522E+03  0.10789788215E+04  0.60876227479E+03 0.  0.
        4    1    3    3  502    0  0.14591498269E+02 -0.13827845122E+03 -0.34481348706E+02  0.14326345732E+03  0.12699999809E+01 0.  1.
       -4    1    3    3    0  502 -0.14591498269E+02  0.13827845122E+03  0.92532577392E+03  0.93571536414E+03  0.12699999809E+01 0. -1.
</event>
<event>
 5   0  0.3478183E-02  0.6022296E+03  0.7818609E-02  0.9900791E-01
       -1   -1    0    0    0  501  0.00000000000E+00  0.00000000000E+00  0.38250813037E+02  0.38250813369E+02  0.50400001928E-02 0. -1.
        1   -1    0    0  501    0  0.00000000000E+00  0.00000000000E+00 -0.23704100912E+04  0.23704100912E+04  0.50400001928E-02 0.  1.
    10030    2    1    2    0    0  0.00000000000E+00  0.00000000000E+00 -0.23321592781E+04  0.24086609045E+04  0.60222956960E+03 0.  0.
        4    1    3    3  502    0 -0.65318819723E+02 -0.61209733698E+02 -0.16208969292E+02  0.90980895219E+02  0.12699999809E+01 0. -1.
       -4    1    3    3    0  502  0.65318819723E+02  0.61209733698E+02 -0.23159503088E+04  0.23176800093E+04  0.12699999809E+01 0.  1.
</event>
<event>
 5   0  0.6007360E-02  0.5888309E+03  0.7818609E-02  0.9928853E-01
       -2   -1    0    0    0  501  0.00000000000E+00  0.00000000000E+00  0.19101243683E+03  0.19101243685E+03  0.25500000920E-02 0.  1.
        2   -1    0    0  501    0  0.00000000000E+00  0.00000000000E+00 -0.45379487199E+03  0.45379487200E+03  0.25500000920E-02 0. -1.
    10030    2    1    2    0    0  0.00000000000E+00  0.00000000000E+00 -0.26278243516E+03  0.64480730884E+03  0.58883092421E+03 0.  0.
        4    1    3    3  502    0  0.20703088574E+03 -0.15431471685E+03 -0.28627220580E+03  0.38552329138E+03  0.12699999809E+01 0. -1.
       -4    1    3    3    0  502 -0.20703088574E+03  0.15431471685E+03  0.23489770641E+02  0.25928401746E+03  0.12699999809E+01 0.  1.
</event>
<event>
 5   0  0.3478183E-02  0.5983900E+03  0.7818609E-02  0.9908752E-01
        1   -1    0    0  501    0  0.00000000000E+00  0.00000000000E+00  0.28933951194E+03  0.28933951198E+03  0.50400001928E-02 0.  1.
       -1   -1    0    0    0  501  0.00000000000E+00  0.00000000000E+00 -0.30938620427E+03  0.30938620431E+03  0.50400001928E-02 0. -1.
    10030    2    1    2    0    0  0.00000000000E+00  0.00000000000E+00 -0.20046692331E+02  0.59872571629E+03  0.59839001786E+03 0.  0.
        4    1    3    3  502    0  0.13025867715E+03  0.26273135423E+03  0.49347561186E+02  0.29737498577E+03  0.12699999809E+01 0.  1.
       -4    1    3    3    0  502 -0.13025867715E+03 -0.26273135423E+03 -0.69394253517E+02  0.30135073052E+03  0.12699999809E+01 0. -1.
</event>
<event>
 5   0  0.5999117E-02  0.6036926E+03  0.7818609E-02  0.9897774E-01
       -2   -1    0    0    0  501  0.00000000000E+00  0.00000000000E+00  0.17615472957E+03  0.17615472958E+03  0.25500000920E-02 0. -1.
        2   -1    0    0  501    0  0.00000000000E+00  0.00000000000E+00 -0.51722257484E+03  0.51722257485E+03  0.25500000920E-02 0.  1.
    10030    2    1    2    0    0  0.00000000000E+00  0.00000000000E+00 -0.34106784527E+03  0.69337730443E+03  0.60369264632E+03 0.  0.
        5    1    3    3  502    0 -0.29160771441E+02  0.27521138832E+03 -0.30882673403E+03  0.41471399844E+03  0.46999998093E+01 0. -1.
       -5    1    3    3    0  502  0.29160771441E+02 -0.27521138832E+03 -0.32241111245E+02  0.27866330599E+03  0.46999998093E+01 0.  1.
</event>
<event>
 5   0  0.3640827E-02  0.6033290E+03  0.7818609E-02  0.9898523E-01
       -1   -1    0    0    0  501  0.00000000000E+00  0.00000000000E+00  0.68815735707E+02  0.68815735891E+02  0.50400001928E-02 0. -1.
        1   -1    0    0  501    0  0.00000000000E+00  0.00000000000E+00 -0.13223933971E+04  0.13223933971E+04  0.50400001928E-02 0.  1.
    10030    2    1    2    0    0  0.00000000000E+00  0.00000000000E+00 -0.12535776614E+04  0.13912091330E+04  0.60332901355E+03 0.  0.
        3    1    3    3  502    0 -0.29257464014E+03 -0.40313766790E+02 -0.76849019068E+03  0.82328749730E+03  0.10100000352E+00 0.  1.
       -3    1    3    3    0  502  0.29257464014E+03  0.40313766790E+02 -0.48508747068E+03  0.56792163567E+03  0.10100000352E+00 0. -1.
</event>
<event>
 5   0  0.5755078E-02  0.6770073E+03  0.7818609E-02  0.9757381E-01
       -2   -1    0    0    0  501  0.00000000000E+00  0.00000000000E+00  0.20123389178E+03  0.20123389179E+03  0.25500000920E-02 0.  1.
        2   -1    0    0  501    0  0.00000000000E+00  0.00000000000E+00 -0.56941072258E+03  0.56941072258E+03  0.25500000920E-02 0. -1.
    10030    2    1    2    0    0  0.00000000000E+00  0.00000000000E+00 -0.36817683080E+03  0.77064461438E+03  0.67700734333E+03 0.  0.
        2    1    3    3  502    0 -0.57816790504E+02  0.20407351242E+03  0.11620981342E+03  0.24185429597E+03  0.25500000920E-02 0.  1.
       -2    1    3    3    0  502  0.57816790504E+02 -0.20407351242E+03 -0.48438664422E+03  0.52879031841E+03  0.25500000920E-02 0. -1.
</event>
<event>
 5   0  0.6007360E-02  0.6006611E+03  0.7818609E-02  0.9904035E-01
       -2   -1    0    0    0  501  0.00000000000E+00  0.00000000000E+00  0.18771037658E+03  0.18771037659E+03  0.25500000920E-02 0.  1.
        2   -1    0    0  501    0  0.00000000000E+00  0.00000000000E+00 -0.48051916387E+03  0.48051916387E+03  0.25500000920E-02 0. -1.
    10030    2    1    2    0    0  0.00000000000E+00  0.00000000000E+00 -0.29280878729E+03  0.66822954047E+03  0.60066107984E+03 0.  0.
        4    1    3    3  502    0 -0.22082585867E+03  0.69533470933E+02 -0.35923006168E+03  0.42737198499E+03  0.12699999809E+01 0. -1.
       -4    1    3    3    0  502  0.22082585867E+03 -0.69533470933E+02  0.66421274387E+02  0.24085755548E+03  0.12699999809E+01 0.  1.
</event>
<event>
 5   0  0.5755078E-02  0.6027468E+03  0.7818609E-02  0.9899724E-01
        2   -1    0    0  501    0  0.00000000000E+00  0.00000000000E+00  0.60826617247E+03  0.60826617247E+03  0.25500000920E-02 0.  1.
       -2   -1    0    0    0  501  0.00000000000E+00  0.00000000000E+00 -0.14931936970E+03  0.14931936972E+03  0.25500000920E-02 0. -1.
    10030    2    1    2    0    0  0.00000000000E+00  0.00000000000E+00  0.45894680276E+03  0.75758554219E+03  0.60274678429E+03 0.  0.
        2    1    3    3  502    0  0.30104247828E+03 -0.11642949131E+02  0.21943484294E+03  0.37271139277E+03  0.25500000920E-02 0. -1.
       -2    1    3    3    0  502 -0.30104247828E+03  0.11642949131E+02  0.23951195982E+03  0.38487414943E+03  0.25500000920E-02 0.  1.
</event>
<event>
 5   0  0.3478183E-02  0.6011214E+03  0.7818609E-02  0.9903082E-01
        1   -1    0    0  501    0  0.00000000000E+00  0.00000000000E+00  0.70766202066E+03  0.70766202067E+03  0.50400001928E-02 0.  1.
       -1   -1    0    0    0  501  0.00000000000E+00  0.00000000000E+00 -0.12765519927E+03  0.12765519937E+03  0.50400001928E-02 0. -1.
    10030    2    1    2    0    0  0.00000000000E+00  0.00000000000E+00  0.58000682139E+03  0.83531722004E+03  0.60112140641E+03 0.  0.
        4    1    3    3  502    0  0.24878637013E+03  0.39422882584E+02  0.62150398068E+02  0.25944769514E+03  0.12699999809E+01 0. -1.
       -4    1    3    3    0  502 -0.24878637013E+03 -0.39422882584E+02  0.51785642332E+03  0.57586952490E+03  0.12699999809E+01 0.  1.
</event>
<event>
 5   0  0.5999117E-02  0.6011159E+03  0.7818609E-02  0.9903094E-01
       -2   -1    0    0    0  501  0.00000000000E+00  0.00000000000E+00  0.75177535375E+02  0.75177535418E+02  0.25500000920E-02 0.  1.
        2   -1    0    0  501    0  0.00000000000E+00  0.00000000000E+00 -0.12016234972E+04  0.12016234972E+04  0.25500000920E-02 0. -1.
    10030    2    1    2    0    0  0.00000000000E+00  0.00000000000E+00 -0.11264459618E+04  0.12768010326E+04  0.60111593890E+03 0.  0.
        5    1    3    3  502    0 -0.12632724562E+03  0.27258784915E+03 -0.57828645924E+03  0.65169013145E+03  0.46999998093E+01 0.  1.
       -5    1    3    3    0  502  0.12632724562E+03 -0.27258784915E+03 -0.54815950261E+03  0.62511090119E+03  0.46999998093E+01 0. -1.
</event>
<event>
 5   0  0.2388000E-02  0.6019072E+03  0.7818609E-02  0.9901457E-01
        4   -1    0    0  501    0  0.00000000000E+00  0.00000000000E+00  0.29304921126E+03  0.29305196317E+03  0.12699999809E+01 0. -1.
       -4   -1    0    0    0  501  0.00000000000E+00  0.00000000000E+00 -0.30906573125E+03  0.30906834056E+03  0.12699999809E+01 0.  1.
    10030    2    1    2    0    0  0.00000000000E+00  0.00000000000E+00 -0.16016519993E+02  0.60212030373E+03  0.60190724472E+03 0.  0.
        5    1    3    3  502    0  0.58598766361E+02 -0.27878095370E+03 -0.10498770091E+03  0.30363982431E+03  0.46999998093E+01 0.  1.
       -5    1    3    3    0  502 -0.58598766361E+02  0.27878095370E+03  0.88971180914E+02  0.29848047942E+03  0.46999998093E+01 0. -1.
</event>
<event>
 5   0  0.3478183E-02  0.6096062E+03  0.7818609E-02  0.9885674E-01
        1   -1    0    0  501    0  0.00000000000E+00  0.00000000000E+00  0.51697164373E+03  0.51697164375E+03  0.50400001928E-02 0. -1.
       -1   -1    0    0    0  501  0.00000000000E+00  0.00000000000E+00 -0.17970994033E+03  0.17970994040E+03  0.50400001928E-02 0.  1.
    10030    2    1    2    0    0  0.00000000000E+00  0.00000000000E+00  0.33726170340E+03  0.69668158415E+03  0.60960624432E+03 0.  0.
        4    1    3    3  502    0 -0.27899535017E+02 -0.73061504631E+02 -0.16804515622E+03  0.18535683139E+03  0.12699999809E+01 0.  1.
       -4    1    3    3    0  502  0.27899535017E+02  0.73061504631E+02  0.50530685962E+03  0.51132475276E+03  0.12699999809E+01 0. -1.
</event>
<event>
 5   0  0.3703280E-02  0.6032150E+03  0.7818609E-02  0.9898758E-01
        1   -1    0    0  501    0  0.00000000000E+00  0.00000000000E+00  0.11241163223E+03  0.11241163235E+03  0.50400001928E-02 0.  1.
       -1   -1    0    0    0  501  0.00000000000E+00  0.00000000000E+00 -0.80923200940E+03  0.80923200942E+03  0.50400001928E-02 0. -1.
    10030    2    1    2    0    0  0.00000000000E+00  0.00000000000E+00 -0.69682037717E+03  0.92164364176E+03  0.60321502332E+03 0.  0.
        5    1    3    3  502    0  0.15601635796E+02  0.29243578495E+03 -0.45840630943E+03  0.54398578463E+03  0.46999998093E+01 0.  1.
       -5    1    3    3    0  502 -0.15601635796E+02 -0.29243578495E+03 -0.23841406774E+03  0.37765785713E+03  0.46999998093E+01 0. -1.
</event>
<event>
 5   0  0.3767635E-02  0.5661070E+03  0.7818609E-02  0.9978330E-01
       -1   -1    0    0    0  501  0.00000000000E+00  0.00000000000E+00  0.98375983474E+03  0.98375983476E+03  0.50400001928E-02 0. -1.
        1   -1    0    0  501    0  0.00000000000E+00  0.00000000000E+00 -0.81441926967E+02  0.81441927123E+02  0.50400001928E-02 0.  1.
    10030    2    1    2    0    0  0.00000000000E+00  0.00000000000E+00  0.90231790777E+03  0.10652017619E+04  0.56610704537E+03 0.  0.
        2    1    3    3  502    0  0.80945467928E+02  0.60521486752E+02 -0.46332004556E+02  0.11118306431E+03  0.25500000920E-02 0.  1.
       -2    1    3    3    0  502 -0.80945467928E+02 -0.60521486752E+02  0.94864991233E+03  0.95401869757E+03  0.25500000920E-02 0. -1.
</event>
<event>
 5   0  0.5872632E-02  0.6034647E+03  0.7818609E-02  0.9898244E-01
        2   -1    0    0  501    0  0.00000000000E+00  0.00000000000E+00  0.11833825779E+04  0.11833825779E+04  0.25500000920E-02 0.  1.
       -2   -1    0    0    0  501  0.00000000000E+00  0.00000000000E+00 -0.76934044137E+02  0.76934044179E+02  0.25500000920E-02 0. -1.
    10030    2    1    2    0    0  0.00000000000E+00  0.00000000000E+00  0.11064485338E+04  0.12603166221E+04  0.60346468831E+03 0.  0.
        1    1    3    3  502    0 -0.15230259840E+03  0.25307269560E+03  0.68197516572E+03  0.74319041801E+03  0.50400001928E-02 0. -1.
       -1    1    3    3    0  502  0.15230259840E+03 -0.25307269560E+03  0.42447336805E+03  0.51712620408E+03  0.50400001928E-02 0.  1.
</event>
<event>
 5   0  0.3478183E-02  0.6004561E+03  0.7818609E-02  0.9904460E-01
        1   -1    0    0  501    0  0.00000000000E+00  0.00000000000E+00  0.12561615505E+04  0.12561615505E+04  0.50400001928E-02 0. -1.
       -1   -1    0    0    0  501  0.00000000000E+00  0.00000000000E+00 -0.71755813087E+02  0.71755813264E+02  0.50400001928E-02 0.  1.
    10030    2    1    2    0    0  0.00000000000E+00  0.00000000000E+00  0.11844057374E+04  0.13279173638E+04  0.60045613844E+03 0.  0.
        4    1    3    3  502    0 -0.69403582644E+02 -0.21717909938E+03  0.16023992448E+03  0.27867914308E+03  0.12699999809E+01 0. -1.
       -4    1    3    3    0  502  0.69403582644E+02  0.21717909938E+03  0.10241658129E+04  0.10492382207E+04  0.12699999809E+01 0.  1.
</event>
<event>
 5   0  0.5935451E-02  0.5630845E+03  0.7818609E-02  0.9985099E-01
        2   -1    0    0  501    0  0.00000000000E+00  0.00000000000E+00  0.54956848690E+03  0.54956848691E+03  0.25500000920E-02 0. -1.
       -2   -1    0    0    0  501  0.00000000000E+00  0.00000000000E+00 -0.14423325618E+03  0.14423325620E+03  0.25500000920E-02 0.  1.
    10030    2    1    2    0    0  0.00000000000E+00  0.00000000000E+00  0.40533523072E+03  0.69380174311E+03  0.56308454913E+03 0.  0.
        3    1    3    3  502    0  0.20609373789E+03 -0.17720942088E+03  0.29311271073E+03  0.39974101495E+03  0.10100000352E+00 0. -1.
       -3    1    3    3    0  502 -0.20609373789E+03  0.17720942088E+03  0.11222251999E+03  0.29406072815E+03  0.10100000352E+00 0.  1.
</event>
<event>
 5   0  0.5872632E-02  0.6046864E+03  0.7818609E-02  0.9895731E-01
        2   -1    0    0  501    0  0.00000000000E+00  0.00000000000E+00  0.10933214761E+03  0.10933214764E+03  0.25500000920E-02 0. -1.
       -2   -1    0    0    0  501  0.00000000000E+00  0.00000000000E+00 -0.83608894198E+03  0.83608894198E+03  0.25500000920E-02 0.  1.
    10030    2    1    2    0    0  0.00000000000E+00  0.00000000000E+00 -0.72675679436E+03  0.94542108962E+03  0.60468636378E+03 0.  0.
        1    1    3    3  502    0 -0.17603050253E+03  0.19854811621E+03 -0.13678932836E+03  0.29852874677E+03  0.50400001928E-02 0. -1.
       -1    1    3    3    0  502  0.17603050253E+03 -0.19854811621E+03 -0.58996746600E+03  0.64689234285E+03  0.50400001928E-02 0.  1.
</event>
<event>
 5   0  0.5872632E-02  0.5952064E+03  0.7818609E-02  0.9915401E-01
       -2   -1    0    0    0  501  0.00000000000E+00  0.00000000000E+00  0.86177870910E+03  0.86177870910E+03  0.25500000920E-02 0. -1.
        2   -1    0    0  501    0  0.00000000000E+00  0.00000000000E+00 -0.10277308879E+03  0.10277308882E+03  0.25500000920E-02 0.  1.
    10030    2    1    2    0    0  0.00000000000E+00  0.00000000000E+00  0.75900562030E+03  0.96455179792E+03  0.59520638372E+03 0.  0.
        1    1    3    3  502    0 -0.15883935564E+03 -0.20684408328E+02  0.78596240747E+03  0.80211887624E+03  0.50400001928E-02 0. -1.
       -1    1    3    3    0  502  0.15883935564E+03  0.20684408328E+02 -0.26956787162E+02  0.16243292168E+03  0.50400001928E-02 0.  1.
</event>
<event>
 5   0  0.5999117E-02  0.6015041E+03  0.7818609E-02  0.9902290E-01
        2   -1    0    0  501    0  0.00000000000E+00  0.00000000000E+00  0.18995154401E+03  0.18995154403E+03  0.25500000920E-02 0. -1.
       -2   -1    0    0    0  501  0.00000000000E+00  0.00000000000E+00 -0.47618347967E+03  0.47618347968E+03  0.25500000920E-02 0.  1.
    10030    2    1    2    0    0  0.00000000000E+00  0.00000000000E+00 -0.28623193566E+03  0.66613502370E+03  0.60150407215E+03 0.  0.
        5    1    3    3  502    0 -0.18699034036E+03 -0.78252543550E+02 -0.38911137948E+03  0.43876941962E+03  0.46999998093E+01 0.  1.
       -5    1    3    3    0  502  0.18699034036E+03  0.78252543550E+02  0.10287944382E+03  0.22736560408E+03  0.46999998093E+01 0. -1.
</event>
<event>
 5   0  0.3703280E-02  0.6056631E+03  0.7818609E-02  0.9893726E-01
        1   -1    0    0  501    0  0.00000000000E+00  0.00000000000E+00  0.76896209921E+03  0.76896209922E+03  0.50400001928E-02 0.  1.
       -1   -1    0    0    0  501  0.00000000000E+00  0.00000000000E+00 -0.11926068208E+03  0.11926068218E+03  0.50400001928E-02 0. -1.
    10030    2    1    2    0    0  0.00000000000E+00  0.00000000000E+00  0.64970141713E+03  0.88822278141E+03  0.60566308951E+03 0.  0.
        5    1    3    3  502    0 -0.21016145129E+03  0.21698883055E+03  0.29433891817E+03  0.42179316844E+03  0.46999998093E+01 0. -1.
       -5    1    3    3    0  502  0.21016145129E+03 -0.21698883055E+03  0.35536249896E+03  0.46642961297E+03  0.46999998093E+01 0.  1.
</event>
<event>
 5   0  0.5935451E-02  0.6050756E+03  0.7818609E-02  0.9894931E-01
       -2   -1    0    0    0  501  0.00000000000E+00  0.00000000000E+00  0.28373983955E+03  0.28373983956E+03  0.25500000920E-02 0. -1.
        2   -1    0    0  501    0  0.00000000000E+00  0.00000000000E+00 -0.32258113569E+03  0.32258113570E+03  0.25500000920E-02 0.  1.
    10030    2    1    2    0    0  0.00000000000E+00  0.00000000000E+00 -0.38841296142E+02  0.60632097526E+03  0.60507559755E+03 0.  0.
        3    1    3    3  502    0  0.24253700112E+03  0.14640153115E+03 -0.12580650443E+03  0.30997563129E+03  0.10100000352E+00 0.  1.
       -3    1    3    3    0  502 -0.24253700112E+03 -0.14640153115E+03  0.86965208291E+02  0.29634534397E+03  0.10100000352E+00 0. -1.
</event>
<event>
 5   0  0.3767635E-02  0.6288522E+03  0.7818609E-02  0.9847291E-01
       -1   -1    0    0    0  501  0.00000000000E+00  0.00000000000E+00  0.21893182622E+03  0.21893182628E+03  0.50400001928E-02 0. -1.
        1   -1    0    0  501    0  0.00000000000E+00  0.00000000000E+00 -0.45157331076E+03  0.45157331079E+03  0.50400001928E-02 0.  1.
    10030    2    1    2    0    0  0.00000000000E+00  0.00000000000E+00 -0.23264148454E+03  0.67050513707E+03  0.62885219130E+03 0.  0.
        2    1    3    3  502    0 -0.27872488693E+03  0.13524870385E+03 -0.59060814951E+02  0.31538540606E+03  0.25500000920E-02 0. -1.
       -2    1    3    3    0  502  0.27872488693E+03 -0.13524870385E+03 -0.17358066959E+03  0.35511973100E+03  0.25500000920E-02 0.  1.
</event>
<event>
 5   0  0.3651984E-02  0.5964095E+03  0.7818609E-02  0.9912883E-01
       -1   -1    0    0    0  501  0.00000000000E+00  0.00000000000E+00  0.56553210782E+03  0.56553210784E+03  0.50400001928E-02 0. -1.
        1   -1    0    0  501    0  0.00000000000E+00  0.00000000000E+00 -0.15724317678E+03  0.15724317686E+03  0.50400001928E-02 0.  1.
    10030    2    1    2    0    0  0.00000000000E+00  0.00000000000E+00  0.40828893103E+03  0.72277528470E+03  0.59640947425E+03 0.  0.
        1    1    3    3  502    0 -0.11219451122E+03 -0.10210041788E+03  0.51527846148E+03  0.53714429772E+03  0.50400001928E-02 0. -1.
       -1    1    3    3    0  502  0.11219451122E+03  0.10210041788E+03 -0.10698953045E+03  0.18563098698E+03  0.50400001928E-02 0.  1.
</event>
<event>
 5   0  0.3651984E-02  0.6168657E+03  0.7818609E-02  0.9871020E-01
       -1   -1    0    0    0  501  0.00000000000E+00  0.00000000000E+00  0.10221897196E+03  0.10221897208E+03  0.50400001928E-02 0.  1.
        1   -1    0    0  501    0  0.00000000000E+00  0.00000000000E+00 -0.93065732481E+03  0.93065732482E+03  0.50400001928E-02 0. -1.
    10030    2    1    2    0    0  0.00000000000E+00  0.00000000000E+00 -0.82843835285E+03  0.10328762969E+04  0.61686573922E+03 0.  0.
        1    1    3    3  502    0 -0.24376998927E+03 -0.18590480745E+03 -0.47091243485E+03  0.56191006970E+03  0.50400001928E-02 0. -1.
       -1    1    3    3    0  502  0.24376998927E+03  0.18590480745E+03 -0.35752591800E+03  0.47096622721E+03  0.50400001928E-02 0.  1.
</event>
<event>
 5   0  0.3640827E-02  0.6007830E+03  0.7818609E-02  0.9903783E-01
        1   -1    0    0  501    0  0.00000000000E+00  0.00000000000E+00  0.76267545218E+03  0.76267545219E+03  0.50400001928E-02 0.  1.
       -1   -1    0    0    0  501  0.00000000000E+00  0.00000000000E+00 -0.11831383944E+03  0.11831383955E+03  0.50400001928E-02 0. -1.
    10030    2    1    2    0    0  0.00000000000E+00  0.00000000000E+00  0.64436161273E+03  0.88098929175E+03  0.60078302590E+03 0.  0.
        3    1    3    3  502    0  0.17946274308E+03  0.10429274723E+03  0.37615383918E+01  0.20760060850E+03  0.10100000352E+00 0. -1.
       -3    1    3    3    0  502 -0.17946274308E+03 -0.10429274723E+03  0.64060007434E+03  0.67338868325E+03  0.10100000352E+00 0.  1.
</event>
<event>
 5   0  0.5755078E-02  0.6097123E+03  0.7818609E-02  0.9885459E-01
        2   -1    0    0  501    0  0.00000000000E+00  0.00000000000E+00  0.18589695121E+03  0.18589695123E+03  0.25500000920E-02 0.  1.
       -2   -1    0    0    0  501  0.00000000000E+00  0.00000000000E+00 -0.49993969233E+03  0.49993969234E+03  0.25500000920E-02 0. -1.
    10030    2    1    2    0    0  0.00000000000E+00  0.00000000000E+00 -0.31404274112E+03  0.68583664356E+03  0.60971227510E+03 0.  0.
        2    1    3    3  502    0  0.27386114284E+03 -0.13177348358E+03 -0.13009322612E+03  0.33058799739E+03  0.25500000920E-02 0.  1.
       -2    1    3    3    0  502 -0.27386114284E+03  0.13177348358E+03 -0.18394951500E+03  0.35524864617E+03  0.25500000920E-02 0. -1.
</event>
<event>
 5   0  0.3703280E-02  0.5956836E+03  0.7818609E-02  0.9914402E-01
        1   -1    0    0  501    0  0.00000000000E+00  0.00000000000E+00  0.34294490651E+03  0.34294490655E+03  0.50400001928E-02 0. -1.
       -1   -1    0    0    0  501  0.00000000000E+00  0.00000000000E+00 -0.25867053141E+03  0.25867053146E+03  0.50400001928E-02 0.  1.
    10030    2    1    2    0    0  0.00000000000E+00  0.00000000000E+00  0.84274375098E+02  0.60161543801E+03  0.59568361145E+03 0.  0.
        5    1    3    3  502    0 -0.16548963850E+03  0.13495351108E+03  0.25178165536E+03  0.33017474551E+03  0.46999998093E+01 0. -1.
       -5    1    3    3    0  502  0.16548963850E+03 -0.13495351108E+03 -0.16750728026E+03  0.27144069249E+03  0.46999998093E+01 0.  1.
</event>
<event>
 5   0  0.5999117E-02  0.6014951E+03  0.7818609E-02  0.9902309E-01
       -2   -1    0    0    0  501  0.00000000000E+00  0.00000000000E+00  0.20486709742E+03  0.20486709744E+03  0.25500000920E-02 0.  1.
        2   -1    0    0  501    0  0.00000000000E+00  0.00000000000E+00 -0.44150128688E+03  0.44150128689E+03  0.25500000920E-02 0. -1.
    10030    2    1    2    0    0  0.00000000000E+00  0.00000000000E+00 -0.23663418946E+03  0.64636838433E+03  0.60149509444E+03 0.  0.
        5    1    3    3  502    0 -0.11725482708E+03  0.27085422909E+03 -0.18020050218E+03  0.34583958546E+03  0.46999998093E+01 0.  1.
       -5    1    3    3    0  502  0.11725482708E+03 -0.27085422909E+03 -0.56433687283E+02  0.30052879887E+03  0.46999998093E+01 0. -1.
</event>
<event>
 5   0  0.2388000E-02  0.5984503E+03  0.7818609E-02  0.9908626E-01
       -4   -1    0    0    0  501  0.00000000000E+00  0.00000000000E+00  0.16456549572E+04  0.16456554472E+04  0.12699999809E+01 0.  1.
        4   -1    0    0  501    0  0.00000000000E+00  0.00000000000E+00 -0.54399418686E+02  0.54414241273E+02  0.12699999809E+01 0. -1.
    10030    2    1    2    0    0  0.00000000000E+00  0.00000000000E+00  0.15912555385E+04  0.17000696885E+04  0.59845029616E+03 0.  0.
        1    1    3    3  502    0 -0.31029772819E+02 -0.91714758384E+02  0.15999329500E+04  0.16028599091E+04  0.50400001928E-02 0.  1.
       -1    1    3    3    0  502  0.31029772819E+02  0.91714758384E+02 -0.86774115391E+01  0.97209779359E+02  0.50400001928E-02 0. -1.
</event>
<event>
 5   0  0.2388000E-02  0.5964385E+03  0.7818609E-02  0.9912823E-01
        4   -1    0    0  501    0  0.00000000000E+00  0.00000000000E+00  0.25972709761E+03  0.25973020258E+03  0.12699999809E+01 0. -1.
       -4   -1    0    0    0  501  0.00000000000E+00  0.00000000000E+00 -0.34240970885E+03  0.34241206406E+03  0.12699999809E+01 0.  1.
    10030    2    1    2    0    0  0.00000000000E+00  0.00000000000E+00 -0.82682611243E+02  0.60214226664E+03  0.59643850905E+03 0.  0.
        2    1    3    3  502    0  0.22746601964E+03  0.58138581424E+02  0.14430259184E+03  0.27557961238E+03  0.25500000920E-02 0.  1.
       -2    1    3    3    0  502 -0.22746601964E+03 -0.58138581424E+02 -0.22698520308E+03  0.32656265427E+03  0.25500000920E-02 0. -1.
</event>
<event>
 5   0  0.3651984E-02  0.5976175E+03  0.7818609E-02  0.9910361E-01
        1   -1    0    0  501    0  0.00000000000E+00  0.00000000000E+00  0.94843175113E+03  0.94843175115E+03  0.50400001928E-02 0. -1.
       -1   -1    0    0    0  501  0.00000000000E+00  0.00000000000E+00 -0.94141372831E+02  0.94141372966E+02  0.50400001928E-02 0.  1.
    10030    2    1    2    0    0  0.00000000000E+00  0.00000000000E+00  0.85429037830E+03  0.10425731241E+04  0.59761749360E+03 0.  0.
        1    1    3    3  502    0 -0.93719026668E+02 -0.70568616596E+02 -0.52283727227E+02  0.12843976707E+03  0.50400001928E-02 0.  1.
       -1    1    3    3    0  502  0.93719026668E+02  0.70568616596E+02  0.90657410553E+03  0.91413335704E+03  0.50400001928E-02 0. -1.
</event>
<event>
 5   0  0.3767635E-02  0.5962623E+03  0.7818609E-02  0.9913191E-01
        1   -1    0    0  501    0  0.00000000000E+00  0.00000000000E+00  0.10133013238E+04  0.10133013239E+04  0.50400001928E-02 0. -1.
       -1   -1    0    0    0  501  0.00000000000E+00  0.00000000000E+00 -0.87715453433E+02  0.87715453578E+02  0.50400001928E-02 0.  1.
    10030    2    1    2    0    0  0.00000000000E+00  0.00000000000E+00  0.92558587041E+03  0.11010167774E+04  0.59626230862E+03 0.  0.
        2    1    3    3  502    0  0.21425711083E+03 -0.14912337869E+03  0.19687778072E+03  0.32696292169E+03  0.25500000920E-02 0.  1.
       -2    1    3    3    0  502 -0.21425711083E+03  0.14912337869E+03  0.72870808969E+03  0.77405385574E+03  0.25500000920E-02 0. -1.
</event>
<event>
 5   0  0.5872632E-02  0.6014007E+03  0.7818609E-02  0.9902504E-01
       -2   -1    0    0    0  501  0.00000000000E+00  0.00000000000E+00  0.61497233744E+02  0.61497233797E+02  0.25500000920E-02 0.  1.
        2   -1    0    0  501    0  0.00000000000E+00  0.00000000000E+00 -0.14703215979E+04  0.14703215979E+04  0.25500000920E-02 0. -1.
    10030    2    1    2    0    0  0.00000000000E+00  0.00000000000E+00 -0.14088243641E+04  0.15318188317E+04  0.60140073503E+03 0.  0.
        1    1    3    3  502    0  0.16078045128E+02  0.62496535789E+02 -0.14524767588E+04  0.14539095761E+04  0.50400001928E-02 0. -1.
       -1    1    3    3    0  502 -0.16078045128E+02 -0.62496535789E+02  0.43652394675E+02  0.77909255593E+02  0.50400001928E-02 0.  1.
</event>
<event>
 5   0  0.5872632E-02  0.6020354E+03  0.7818609E-02  0.9901192E-01
        2   -1    0    0  501    0  0.00000000000E+00  0.00000000000E+00  0.22757841201E+03  0.22757841202E+03  0.25500000920E-02 0. -1.
       -2   -1    0    0    0  501  0.00000000000E+00  0.00000000000E+00 -0.39815569927E+03  0.39815569927E+03  0.25500000920E-02 0.  1.
    10030    2    1    2    0    0  0.00000000000E+00  0.00000000000E+00 -0.17057728726E+03  0.62573411130E+03  0.60203535371E+03 0.  0.
        1    1    3    3  502    0  0.35043443881E+02 -0.17534164434E+03  0.16639834647E+03  0.24425630991E+03  0.50400001928E-02 0. -1.
       -1    1    3    3    0  502 -0.35043443881E+02  0.17534164434E+03 -0.33697563373E+03  0.38147780139E+03  0.50400001928E-02 0.  1.
</event>
<event>
 5   0  0.3703280E-02  0.5961425E+03  0.7818609E-02  0.9913442E-01
        1   -1    0    0  501    0  0.00000000000E+00  0.00000000000E+00  0.61819871568E+03  0.61819871570E+03  0.50400001928E-02 0.  1.
       -1   -1    0    0    0  501  0.00000000000E+00  0.00000000000E+00 -0.14371829418E+03  0.14371829427E+03  0.50400001928E-02 0. -1.
    10030    2    1    2    0    0  0.00000000000E+00  0.00000000000E+00  0.47448042150E+03  0.76191700997E+03  0.59614248271E+03 0.  0.
        5    1    3    3  502    0  0.13139242397E+03  0.66162461116E+02  0.56851400547E+03  0.58725778390E+03  0.46999998093E+01 0.  1.
       -5    1    3    3    0  502 -0.13139242397E+03 -0.66162461116E+02 -0.94033583968E+02  0.17465922607E+03  0.46999998093E+01 0. -1.
</event>
<event>
 5   0  0.3478183E-02  0.6058665E+03  0.7818609E-02  0.9893309E-01
       -1   -1    0    0    0  501  0.00000000000E+00  0.00000000000E+00  0.15781342211E+03  0.15781342219E+03  0.50400001928E-02 0.  1.
        1   -1    0    0  501    0  0.00000000000E+00  0.00000000000E+00 -0.58150025437E+03  0.58150025439E+03  0.50400001928E-02 0. -1.
    10030    2    1    2    0    0  0.00000000000E+00  0.00000000000E+00 -0.42368683226E+03  0.73931367658E+03  0.60586647089E+03 0.  0.
        4    1    3    3  502    0 -0.20217821457E+03 -0.11087146462E+03 -0.45158125485E+03  0.50704610712E+03  0.12699999809E+01 0. -1.
       -4    1    3    3    0  502  0.20217821457E+03  0.11087146462E+03  0.27894422582E+02  0.23226756947E+03  0.12699999809E+01 0.  1.
</event>
<event>
 5   0  0.5999117E-02  0.5963764E+03  0.7818609E-02  0.9912952E-01
       -2   -1    0    0    0  501  0.00000000000E+00  0.00000000000E+00  0.16116322298E+03  0.16116322300E+03  0.25500000920E-02 0.  1.
        2   -1    0    0  501    0  0.00000000000E+00  0.00000000000E+00 -0.55171524966E+03  0.55171524967E+03  0.25500000920E-02 0. -1.
    10030    2    1    2    0    0  0.00000000000E+00  0.00000000000E+00 -0.39055202668E+03  0.71287847267E+03  0.59637641742E+03 0.  0.
        5    1    3    3  502    0 -0.13739484181E+03  0.18378888922E+02 -0.51080987108E+03  0.52930514876E+03  0.46999998093E+01 0. -1.
       -5    1    3    3    0  502  0.13739484181E+03 -0.18378888922E+02  0.12025784440E+03  0.18357332391E+03  0.46999998093E+01 0.  1.
</event>
<event>
 5   0  0.3703280E-02  0.6030346E+03  0.7818609E-02  0.9899130E-01
        1   -1    0    0  501    0  0.00000000000E+00  0.00000000000E+00  0.44283593654E+03  0.44283593657E+03  0.50400001928E-02 0.  1.
       -1   -1    0    0    0  501  0.00000000000E+00  0.00000000000E+00 -0.20529650633E+03  0.20529650639E+03  0.50400001928E-02 0. -1.
    10030    2    1    2    0    0  0.00000000000E+00  0.00000000000E+00  0.23753943022E+03  0.64813244296E+03  0.60303456179E+03 0.  0.
        5    1    3    3  502    0 -0.99369081902E+02 -0.24916229153E+03  0.26666308088E+03  0.37826888672E+03  0.46999998093E+01 0.  1.
       -5    1    3    3    0  502  0.99369081902E+02  0.24916229153E+03 -0.29123650663E+02  0.26986355624E+03  0.46999998093E+01 0. -1.
</event>
<event>
 5   0  0.3767635E-02  0.5993258E+03  0.7818609E-02  0.9906806E-01
       -1   -1    0    0    0  501  0.00000000000E+00  0.00000000000E+00  0.29309056329E+03  0.29309056333E+03  0.50400001928E-02 0.  1.
        1   -1    0    0  501    0  0.00000000000E+00  0.00000000000E+00 -0.30638265138E+03  0.30638265143E+03  0.50400001928E-02 0. -1.
    10030    2    1    2    0    0  0.00000000000E+00  0.00000000000E+00 -0.13292088095E+02  0.59947321476E+03  0.59932583426E+03 0.  0.
        2    1    3    3  502    0 -0.89952412143E+02 -0.10670176760E+03  0.25860053917E+03  0.29385530883E+03  0.25500000920E-02 0.  1.
       -2    1    3    3    0  502  0.89952412143E+02  0.10670176760E+03 -0.27189262727E+03  0.30561790593E+03  0.25500000920E-02 0. -1.
</event>
<event>
 5   0  0.5999117E-02  0.5960175E+03  0.7818609E-02  0.9913703E-01
       -2   -1    0    0    0  501  0.00000000000E+00  0.00000000000E+00  0.62354224859E+03  0.62354224859E+03  0.25500000920E-02 0. -1.
        2   -1    0    0  501    0  0.00000000000E+00  0.00000000000E+00 -0.14242695885E+03  0.14242695888E+03  0.25500000920E-02 0.  1.
    10030    2    1    2    0    0  0.00000000000E+00  0.00000000000E+00  0.48111528973E+03  0.76596920747E+03  0.59601753731E+03 0.  0.
        5    1    3    3  502    0 -0.74686983594E+02  0.27734759744E+03  0.13865524922E+03  0.31897837460E+03  0.46999998093E+01 0.  1.
       -5    1    3    3    0  502  0.74686983594E+02 -0.27734759744E+03  0.34246004051E+03  0.44699083287E+03  0.46999998093E+01 0. -1.
</event>
<event>
 5   0  0.5872632E-02  0.6004447E+03  0.7818609E-02  0.9904484E-01
       -2   -1    0    0    0  501  0.00000000000E+00  0.00000000000E+00  0.74067704449E+02  0.74067704493E+02  0.25500000920E-02 0. -1.
        2   -1    0    0  501    0  0.00000000000E+00  0.00000000000E+00 -0.12169063586E+04  0.12169063586E+04  0.25500000920E-02 0.  1.
    10030    2    1    2    0    0  0.00000000000E+00  0.00000000000E+00 -0.11428386541E+04  0.12909740631E+04  0.60044470367E+03 0.  0.
        1    1    3    3  502    0  0.17355646959E+03 -0.19787778160E+03 -0.26092049910E+03  0.37061701454E+03  0.50400001928E-02 0. -1.
       -1    1    3    3    0  502 -0.17355646959E+03  0.19787778160E+03 -0.88191815505E+03  0.92035704855E+03  0.50400001928E-02 0.  1.
</event>
<event>
 5   0  0.3767635E-02  0.5926370E+03  0.7818609E-02  0.9920801E-01
       -1   -1    0    0    0  501  0.00000000000E+00  0.00000000000E+00  0.13515448012E+03  0.13515448021E+03  0.50400001928E-02 0.  1.
        1   -1    0    0  501    0  0.00000000000E+00  0.00000000000E+00 -0.64966133161E+03  0.64966133163E+03  0.50400001928E-02 0. -1.
    10030    2    1    2    0    0  0.00000000000E+00  0.00000000000E+00 -0.51450685150E+03  0.78481581184E+03  0.59263695319E+03 0.  0.
        2    1    3    3  502    0  0.14848411973E+03  0.25520100301E+03 -0.29048075582E+03  0.41419096472E+03  0.25500000920E-02 0. -1.
       -2    1    3    3    0  502 -0.14848411973E+03 -0.25520100301E+03 -0.22402609568E+03  0.37062484712E+03  0.25500000920E-02 0.  1.
</event>
<event>
 5   0  0.3703280E-02  0.6006295E+03  0.7818609E-02  0.9904101E-01
        1   -1    0    0  501    0  0.00000000000E+00  0.00000000000E+00  0.36722492637E+03  0.36722492641E+03  0.50400001928E-02 0.  1.
       -1   -1    0    0    0  501  0.00000000000E+00  0.00000000000E+00 -0.24559594104E+03  0.24559594109E+03  0.50400001928E-02 0. -1.
    10030    2    1    2    0    0  0.00000000000E+00  0.00000000000E+00  0.12162898533E+03  0.61282086750E+03  0.60062950774E+03 0.  0.
        5    1    3    3  502    0  0.18324195682E+03 -0.23534767722E+03  0.25459781153E+02  0.29939344409E+03  0.46999998093E+01 0.  1.
       -5    1    3    3    0  502 -0.18324195682E+03  0.23534767722E+03  0.96169204179E+02  0.31342742340E+03  0.46999998093E+01 0. -1.
</event>
<event>
 5   0  0.3640827E-02  0.6001829E+03  0.7818609E-02  0.9905027E-01
        1   -1    0    0  501    0  0.00000000000E+00  0.00000000000E+00  0.78048653308E+03  0.78048653310E+03  0.50400001928E-02 0.  1.
       -1   -1    0    0    0  501  0.00000000000E+00  0.00000000000E+00 -0.11538299498E+03  0.11538299509E+03  0.50400001928E-02 0. -1.
    10030    2    1    2    0    0  0.00000000000E+00  0.00000000000E+00  0.66510353810E+03  0.89586952819E+03  0.60018288475E+03 0.  0.
        3    1    3    3  502    0 -0.13649638269E+02 -0.53418185487E+02  0.77286155860E+03  0.77482566693E+03  0.10100000352E+00 0.  1.
       -3    1    3    3    0  502  0.13649638269E+02  0.53418185487E+02 -0.10775802050E+03  0.12104386126E+03  0.10100000352E+00 0. -1.
</event>
<event>
 5   0  0.3651984E-02  0.5989560E+03  0.7818609E-02  0.9907574E-01
       -1   -1    0    0    0  501  0.00000000000E+00  0.00000000000E+00  0.41725297332E+03  0.41725297335E+03  0.50400001928E-02 0.  1.
        1   -1    0    0  501    0  0.00000000000E+00  0.00000000000E+00 -0.21494651831E+03  0.21494651837E+03  0.50400001928E-02 0. -1.
    10030    2    1    2    0    0  0.00000000000E+00  0.00000000000E+00  0.20230645502E+03  0.63219949172E+03  0.59895600472E+03 0.  0.
        1    1    3    3  502    0  0.19615837669E+03  0.61372712651E+02 -0.12874855569E+03  0.24253022331E+03  0.50400001928E-02 0. -1.
       -1    1    3    3    0  502 -0.19615837669E+03 -0.61372712651E+02  0.33105501070E+03  0.38966926841E+03  0.50400001928E-02 0.  1.
</event>
<event>
 5   0  0.3703280E-02  0.5910311E+03  0.7818609E-02  0.9924190E-01
       -1   -1    0    0    0  501  0.00000000000E+00  0.00000000000E+00  0.14399699459E+03  0.14399699468E+03  0.50400001928E-02 0. -1.
        1   -1    0    0  501    0  0.00000000000E+00  0.00000000000E+00 -0.60646700898E+03  0.60646700900E+03  0.50400001928E-02 0.  1.
    10030    2    1    2    0    0  0.00000000000E+00  0.00000000000E+00 -0.46247001439E+03  0.75046400367E+03  0.59103105384E+03 0.  0.
        5    1    3    3  502    0 -0.22649351774E+03 -0.97739582101E+02 -0.24709629297E+02  0.24796168105E+03  0.46999998093E+01 0. -1.
       -5    1    3    3    0  502  0.22649351774E+03  0.97739582101E+02 -0.43776038509E+03  0.50250232263E+03  0.46999998093E+01 0.  1.
</event>
<event>
 5   0  0.3478183E-02  0.5991559E+03  0.7818609E-02  0.9907159E-01
        1   -1    0    0  501    0  0.00000000000E+00  0.00000000000E+00  0.32713314191E+03  0.32713314195E+03  0.50400001928E-02 0.  1.
       -1   -1    0    0    0  501  0.00000000000E+00  0.00000000000E+00 -0.27434381958E+03  0.27434381963E+03  0.50400001928E-02 0. -1.
    10030    2    1    2    0    0  0.00000000000E+00  0.00000000000E+00  0.52789322328E+02  0.60147696158E+03  0.59915592525E+03 0.  0.
        4    1    3    3  502    0 -0.10048429268E+03  0.24154290960E+03  0.17292335747E+03  0.31359874157E+03  0.12699999809E+01 0.  1.
       -4    1    3    3    0  502  0.10048429268E+03 -0.24154290960E+03 -0.12013403514E+03  0.28787822001E+03  0.12699999809E+01 0. -1.
</event>
<event>
 5   0  0.3640827E-02  0.6010262E+03  0.7818609E-02  0.9903279E-01
       -1   -1    0    0    0  501  0.00000000000E+00  0.00000000000E+00  0.24616406500E+03  0.24616406505E+03  0.50400001928E-02 0.  1.
        1   -1    0    0  501    0  0.00000000000E+00  0.00000000000E+00 -0.36686154005E+03  0.36686154008E+03  0.50400001928E-02 0. -1.
    10030    2    1    2    0    0  0.00000000000E+00  0.00000000000E+00 -0.12069747505E+03  0.61302560513E+03  0.60102621579E+03 0.  0.
        3    1    3    3  502    0  0.11227843641E+03 -0.11083650753E+03  0.20052496906E+03  0.25514986205E+03  0.10100000352E+00 0.  1.
       -3    1    3    3    0  502 -0.11227843641E+03  0.11083650753E+03 -0.32122244411E+03  0.35787574308E+03  0.10100000352E+00 0. -1.
</event>
<event>
 5   0  0.6007360E-02  0.6051915E+03  0.7818609E-02  0.9894693E-01
       -2   -1    0    0    0  501  0.00000000000E+00  0.00000000000E+00  0.94038294439E+02  0.94038294474E+02  0.25500000920E-02 0.  1.
        2   -1    0    0  501    0  0.00000000000E+00  0.00000000000E+00 -0.97369047499E+03  0.97369047500E+03  0.25500000920E-02 0. -1.
    10030    2    1    2    0    0  0.00000000000E+00  0.00000000000E+00 -0.87965218055E+03  0.10677287695E+04  0.60519151217E+03 0.  0.
        4    1    3    3  502    0 -0.14863350487E+03 -0.12575951484E+03 -0.84849729964E+03  0.87054962796E+03  0.12699999809E+01 0. -1.
       -4    1    3    3    0  502  0.14863350487E+03  0.12575951484E+03 -0.31154880917E+02  0.19717914151E+03  0.12699999809E+01 0.  1.
</event>
<event>
 5   0  0.3640827E-02  0.5984440E+03  0.7818609E-02  0.9908640E-01
        1   -1    0    0  501    0  0.00000000000E+00  0.00000000000E+00  0.64058025317E+03  0.64058025319E+03  0.50400001928E-02 0. -1.
       -1   -1    0    0    0  501  0.00000000000E+00  0.00000000000E+00 -0.13976985435E+03  0.13976985444E+03  0.50400001928E-02 0.  1.
    10030    2    1    2    0    0  0.00000000000E+00  0.00000000000E+00  0.50081039883E+03  0.78035010763E+03  0.59844401150E+03 0.  0.
        3    1    3    3  502    0 -0.16226192238E+03 -0.24968278223E+03  0.21209046796E+03  0.36558555770E+03  0.10100000352E+00 0. -1.
       -3    1    3    3    0  502  0.16226192238E+03  0.24968278223E+03  0.28871993087E+03  0.41476454993E+03  0.10100000352E+00 0.  1.
</event>
<event>
 5   0  0.5935451E-02  0.6044041E+03  0.7818609E-02  0.9896311E-01
        2   -1    0    0  501    0  0.00000000000E+00  0.00000000000E+00  0.91344330128E+03  0.91344330128E+03  0.25500000920E-02 0.  1.
       -2   -1    0    0    0  501  0.00000000000E+00  0.00000000000E+00 -0.99980023513E+02  0.99980023546E+02  0.25500000920E-02 0. -1.
    10030    2    1    2    0    0  0.00000000000E+00  0.00000000000E+00  0.81346327777E+03  0.10134233248E+04  0.60440411236E+03 0.  0.
        3    1    3    3  502    0  0.17274293836E+03 -0.24718335573E+03  0.37377465540E+03  0.48025746982E+03  0.10100000352E+00 0.  1.
       -3    1    3    3    0  502 -0.17274293836E+03  0.24718335573E+03  0.43968862237E+03  0.53316585501E+03  0.10100000352E+00 0. -1.
</event>
<event>
 5   0  0.5935451E-02  0.6102111E+03  0.7818609E-02  0.9884445E-01
       -2   -1    0    0    0  501  0.00000000000E+00  0.00000000000E+00  0.54941294824E+02  0.54941294883E+02  0.25500000920E-02 0.  1.
        2   -1    0    0  501    0  0.00000000000E+00  0.00000000000E+00 -0.16943427865E+04  0.16943427866E+04  0.25500000920E-02 0. -1.
    10030    2    1    2    0    0  0.00000000000E+00  0.00000000000E+00 -0.16394014917E+04  0.17492840814E+04  0.61021106716E+03 0.  0.
        3    1    3    3  502    0  0.15216954086E+03 -0.21065592024E+03 -0.36140822817E+03  0.44513751076E+03  0.10100000352E+00 0.  1.
       -3    1    3    3    0  502 -0.15216954086E+03  0.21065592024E+03 -0.12779932636E+04  0.13041465707E+04  0.10100000352E+00 0. -1.
</event>
<event>
 5   0  0.2388000E-02  0.6008587E+03  0.7818609E-02  0.9903626E-01
        4   -1    0    0  501    0  0.00000000000E+00  0.00000000000E+00  0.10700328544E+04  0.10700336081E+04  0.12699999809E+01 0.  1.
       -4   -1    0    0    0  501  0.00000000000E+00  0.00000000000E+00 -0.84344934584E+02  0.84354495375E+02  0.12699999809E+01 0. -1.
    10030    2    1    2    0    0  0.00000000000E+00  0.00000000000E+00  0.98568791986E+03  0.11543881035E+04  0.60085873391E+03 0.  0.
        2    1    3    3  502    0  0.28119531604E+03  0.78023742790E+02  0.63003776572E+03  0.69433860360E+03  0.25500000920E-02 0.  1.
       -2    1    3    3    0  502 -0.28119531604E+03 -0.78023742790E+02  0.35565015414E+03  0.46004949989E+03  0.25500000920E-02 0. -1.
</event>
<event>
 5   0  0.5999117E-02  0.6010930E+03  0.7818609E-02  0.9903141E-01
        2   -1    0    0  501    0  0.00000000000E+00  0.00000000000E+00  0.20645481450E+04  0.20645481450E+04  0.25500000920E-02 0.  1.
       -2   -1    0    0    0  501  0.00000000000E+00  0.00000000000E+00 -0.43752040457E+02  0.43752040531E+02  0.25500000920E-02 0. -1.
    10030    2    1    2    0    0  0.00000000000E+00  0.00000000000E+00  0.20207961046E+04  0.21083001856E+04  0.60109298464E+03 0.  0.
        5    1    3    3  502    0  0.91776641894E+02  0.28413368361E+03  0.89139268912E+03  0.94008399538E+03  0.46999998093E+01 0. -1.
       -5    1    3    3    0  502 -0.91776641894E+02 -0.28413368361E+03  0.11294034155E+04  0.11682161902E+04  0.46999998093E+01 0.  1.
</event>
<event>
 5   0  0.3703280E-02  0.5952437E+03  0.7818609E-02  0.9915323E-01
       -1   -1    0    0    0  501  0.00000000000E+00  0.00000000000E+00  0.15791938197E+03  0.15791938205E+03  0.50400001928E-02 0. -1.
        1   -1    0    0  501    0  0.00000000000E+00  0.00000000000E+00 -0.56091133115E+03  0.56091133117E+03  0.50400001928E-02 0.  1.
    10030    2    1    2    0    0  0.00000000000E+00  0.00000000000E+00 -0.40299194918E+03  0.71883071323E+03  0.59524371746E+03 0.  0.
        5    1    3    3  502    0  0.24375087713E+03 -0.16652615051E+03 -0.24686202757E+03  0.38484854106E+03  0.46999998093E+01 0.  1.
       -5    1    3    3    0  502 -0.24375087713E+03  0.16652615051E+03 -0.15612992161E+03  0.33398217216E+03  0.46999998093E+01 0. -1.
</event>
<event>
 5   0  0.3767635E-02  0.6031598E+03  0.7818609E-02  0.9898872E-01
       -1   -1    0    0    0  501  0.00000000000E+00  0.00000000000E+00  0.78152581436E+03  0.78152581438E+03  0.50400001928E-02 0. -1.
        1   -1    0    0  501    0  0.00000000000E+00  0.00000000000E+00 -0.11637546893E+03  0.11637546904E+03  0.50400001928E-02 0.  1.
    10030    2    1    2    0    0  0.00000000000E+00  0.00000000000E+00  0.66515034543E+03  0.89790128342E+03  0.60315979038E+03 0.  0.
        2    1    3    3  502    0 -0.27401185377E+03  0.93641216119E+02  0.20714479042E+03  0.35603389946E+03  0.25500000920E-02 0.  1.
       -2    1    3    3    0  502  0.27401185377E+03 -0.93641216119E+02  0.45800555502E+03  0.54186738396E+03  0.25500000920E-02 0. -1.
</event>
<event>
 5   0  0.5999117E-02  0.6057172E+03  0.7818609E-02  0.9893615E-01
        2   -1    0    0  501    0  0.00000000000E+00  0.00000000000E+00  0.39108648024E+03  0.39108648025E+03  0.25500000920E-02 0. -1.
       -2   -1    0    0    0  501  0.00000000000E+00  0.00000000000E+00 -0.23453467464E+03  0.23453467465E+03  0.25500000920E-02 0.  1.
    10030    2    1    2    0    0  0.00000000000E+00  0.00000000000E+00  0.15655180560E+03  0.62562115490E+03  0.60571722909E+03 0.  0.
        5    1    3    3  502    0 -0.22057628498E+03 -0.12708919047E+03 -0.91112178439E+02  0.27042388742E+03  0.46999998093E+01 0.  1.
       -5    1    3    3    0  502  0.22057628498E+03  0.12708919047E+03  0.24766398404E+03  0.35519726747E+03  0.46999998093E+01 0. -1.
</event>
<event>
 5   0  0.5872632E-02  0.6001251E+03  0.7818609E-02  0.9905146E-01
        2   -1    0    0  501    0  0.00000000000E+00  0.00000000000E+00  0.59562642313E+03  0.59562642314E+03  0.25500000920E-02 0.  1.
       -2   -1    0    0    0  501  0.00000000000E+00  0.00000000000E+00 -0.15116445121E+03  0.15116445123E+03  0.25500000920E-02 0. -1.
    10030    2    1    2    0    0  0.00000000000E+00  0.00000000000E+00  0.44446197192E+03  0.74679087437E+03  0.60012512492E+03 0.  0.
        1    1    3    3  502    0  0.18389449931E+03 -0.11156864077E+03 -0.38120056875E+02  0.21844424287E+03  0.50400001928E-02 0. -1.
       -1    1    3    3    0  502 -0.18389449931E+03  0.11156864077E+03  0.48258202879E+03  0.52834663150E+03  0.50400001928E-02 0.  1.
</event>
<event>
 5   0  0.3767635E-02  0.5393468E+03  0.7818609E-02  0.1003990E+00
       -1   -1    0    0    0  501  0.00000000000E+00  0.00000000000E+00  0.35022224090E+02  0.35022224452E+02  0.50400001928E-02 0. -1.
        1   -1    0    0  501    0  0.00000000000E+00  0.00000000000E+00 -0.20765027420E+04  0.20765027420E+04  0.50400001928E-02 0.  1.
    10030    2    1    2    0    0  0.00000000000E+00  0.00000000000E+00 -0.20414805179E+04  0.21115249665E+04  0.53934680770E+03 0.  0.
        2    1    3    3  502    0  0.20360459905E+03 -0.70713116377E+02 -0.16552616980E+04  0.16692352939E+04  0.25500000920E-02 0.  1.
       -2    1    3    3    0  502 -0.20360459905E+03  0.70713116377E+02 -0.38621881993E+03  0.44228967256E+03  0.25500000920E-02 0. -1.
</event>
<event>
 5   0  0.5872632E-02  0.5951466E+03  0.7818609E-02  0.9915527E-01
        2   -1    0    0  501    0  0.00000000000E+00  0.00000000000E+00  0.14324578051E+04  0.14324578051E+04  0.25500000920E-02 0. -1.
       -2   -1    0    0    0  501  0.00000000000E+00  0.00000000000E+00 -0.61816730912E+02  0.61816730965E+02  0.25500000920E-02 0.  1.
    10030    2    1    2    0    0  0.00000000000E+00  0.00000000000E+00  0.13706410742E+04  0.14942745361E+04  0.59514656589E+03 0.  0.
        1    1    3    3  502    0 -0.23122676098E+03 -0.14702456594E+03  0.97669744272E+03  0.10144061971E+04  0.50400001928E-02 0.  1.
       -1    1    3    3    0  502  0.23122676098E+03  0.14702456594E+03  0.39394363146E+03  0.47986833900E+03  0.50400001928E-02 0. -1.
</event>
<event>
 5   0  0.3478183E-02  0.6026119E+03  0.7818609E-02  0.9900002E-01
        1   -1    0    0  501    0  0.00000000000E+00  0.00000000000E+00  0.49452585230E+03  0.49452585233E+03  0.50400001928E-02 0.  1.
       -1   -1    0    0    0  501  0.00000000000E+00  0.00000000000E+00 -0.18358045633E+03  0.18358045640E+03  0.50400001928E-02 0. -1.
    10030    2    1    2    0    0  0.00000000000E+00  0.00000000000E+00  0.31094539597E+03  0.67810630873E+03  0.60261192044E+03 0.  0.
        4    1    3    3  502    0 -0.44166034730E+02  0.13377375232E+03 -0.14423531394E+03  0.20162215682E+03  0.12699999809E+01 0. -1.
       -4    1    3    3    0  502  0.44166034730E+02 -0.13377375232E+03  0.45518070992E+03  0.47648415190E+03  0.12699999809E+01 0.  1.
</event>
<event>
 5   0  0.2388000E-02  0.5790065E+03  0.7818609E-02  0.9949944E-01
       -3   -1    0    0    0  501  0.00000000000E+00  0.00000000000E+00  0.17426752237E+03  0.17426755164E+03  0.10100000352E+00 0.  1.
        3   -1    0    0  501    0  0.00000000000E+00  0.00000000000E+00 -0.48093944932E+03  0.48093945993E+03  0.10100000352E+00 0. -1.
    10030    2    1    2    0    0  0.00000000000E+00  0.00000000000E+00 -0.30667192696E+03  0.65520701157E+03  0.57900652606E+03 0.  0.
        4    1    3    3  502    0 -0.24177213508E+03 -0.77891501986E+02  0.38296503613E+01  0.25404159207E+03  0.12699999809E+01 0.  1.
       -4    1    3    3    0  502  0.24177213508E+03  0.77891501986E+02 -0.31050157732E+03  0.40116541949E+03  0.12699999809E+01 0. -1.
</event>
<event>
 5   0  0.5935451E-02  0.5603715E+03  0.7818609E-02  0.9991214E-01
        2   -1    0    0  501    0  0.00000000000E+00  0.00000000000E+00  0.53138685640E+03  0.53138685641E+03  0.25500000920E-02 0. -1.
       -2   -1    0    0    0  501  0.00000000000E+00  0.00000000000E+00 -0.14773427008E+03  0.14773427010E+03  0.25500000920E-02 0.  1.
    10030    2    1    2    0    0  0.00000000000E+00  0.00000000000E+00  0.38365258632E+03  0.67912112651E+03  0.56037148168E+03 0.  0.
        3    1    3    3  502    0 -0.21051632365E+02 -0.13393795303E+03 -0.10533079437E+03  0.17168905886E+03  0.10100000352E+00 0.  1.
       -3    1    3    3    0  502  0.21051632365E+02  0.13393795303E+03  0.48898338069E+03  0.50743206765E+03  0.10100000352E+00 0. -1.
</event>
<event>
 5   0  0.3478183E-02  0.5994118E+03  0.7818609E-02  0.9906627E-01
        1   -1    0    0  501    0  0.00000000000E+00  0.00000000000E+00  0.44161379836E+03  0.44161379839E+03  0.50400001928E-02 0. -1.
       -1   -1    0    0    0  501  0.00000000000E+00  0.00000000000E+00 -0.20339856560E+03  0.20339856566E+03  0.50400001928E-02 0.  1.
    10030    2    1    2    0    0  0.00000000000E+00  0.00000000000E+00  0.23821523276E+03  0.64501236405E+03  0.59941175552E+03 0.  0.
        4    1    3    3  502    0 -0.23897102815E+03 -0.17744306562E+03  0.81386501400E+02  0.30857506274E+03  0.12699999809E+01 0.  1.
       -4    1    3    3    0  502  0.23897102815E+03  0.17744306562E+03  0.15682873136E+03  0.33643730131E+03  0.12699999809E+01 0. -1.
</event>
<event>
 5   0  0.5935451E-02  0.5834784E+03  0.7818609E-02  0.9940289E-01
        2   -1    0    0  501    0  0.00000000000E+00  0.00000000000E+00  0.84007615622E+03  0.84007615622E+03  0.25500000920E-02 0.  1.
       -2   -1    0    0    0  501  0.00000000000E+00  0.00000000000E+00 -0.10131432522E+03  0.10131432525E+03  0.25500000920E-02 0. -1.
    10030    2    1    2    0    0  0.00000000000E+00  0.00000000000E+00  0.73876183100E+03  0.94139048148E+03  0.58347835922E+03 0.  0.
        3    1    3    3  502    0 -0.13657048880E+03  0.13346645688E+03  0.72523572238E+03  0.74995443645E+03  0.10100000352E+00 0.  1.
       -3    1    3    3    0  502  0.13657048880E+03 -0.13346645688E+03  0.13526108613E+02  0.19143604503E+03  0.10100000352E+00 0. -1.
</event>
<event>
 5   0  0.6007360E-02  0.5995681E+03  0.7818609E-02  0.9906302E-01
        2   -1    0    0  501    0  0.00000000000E+00  0.00000000000E+00  0.19670622509E+03  0.19670622510E+03  0.25500000920E-02 0. -1.
       -2   -1    0    0    0  501  0.00000000000E+00  0.00000000000E+00 -0.45687666411E+03  0.45687666412E+03  0.25500000920E-02 0.  1.
    10030    2    1    2    0    0  0.00000000000E+00  0.00000000000E+00 -0.26017043903E+03  0.65358288923E+03  0.59956812436E+03 0.  0.
        4    1    3    3  502    0  0.12438523650E+03 -0.15582626697E+03 -0.37411765752E+03  0.42393295119E+03  0.12699999809E+01 0.  1.
       -4    1    3    3    0  502 -0.12438523650E+03  0.15582626697E+03  0.11394721849E+03  0.22964993804E+03  0.12699999809E+01 0. -1.
</event>
<event>
 5   0  0.5755078E-02  0.5911602E+03  0.7818609E-02  0.9923917E-01
       -2   -1    0    0    0  501  0.00000000000E+00  0.00000000000E+00  0.27321033728E+03  0.27321033730E+03  0.25500000920E-02 0.  1.
        2   -1    0    0  501    0  0.00000000000E+00  0.00000000000E+00 -0.31978147319E+03  0.31978147320E+03  0.25500000920E-02 0. -1.
    10030    2    1    2    0    0  0.00000000000E+00  0.00000000000E+00 -0.46571135911E+02  0.59299181050E+03  0.59116022923E+03 0.  0.
        2    1    3    3  502    0  0.16726285065E+03 -0.21664610769E+03 -0.13523424378E+03  0.30528789344E+03  0.25500000920E-02 0. -1.
       -2    1    3    3    0  502 -0.16726285065E+03  0.21664610769E+03  0.88663107872E+02  0.28770391706E+03  0.25500000920E-02 0.  1.
</event>
<event>
 5   0  0.5755078E-02  0.5789984E+03  0.7818609E-02  0.9949962E-01
        2   -1    0    0  501    0  0.00000000000E+00  0.00000000000E+00  0.10199123728E+04  0.10199123728E+04  0.25500000920E-02 0. -1.
       -2   -1    0    0    0  501  0.00000000000E+00  0.00000000000E+00 -0.82173522915E+02  0.82173522954E+02  0.25500000920E-02 0.  1.
    10030    2    1    2    0    0  0.00000000000E+00  0.00000000000E+00  0.93773884990E+03  0.11020858958E+04  0.57899842059E+03 0.  0.
        2    1    3    3  502    0 -0.75334104054E+02  0.10772872383E+02 -0.62794133116E+02  0.98662987860E+02  0.25500000920E-02 0.  1.
       -2    1    3    3    0  502  0.75334104054E+02 -0.10772872383E+02  0.10005329830E+04  0.10034229079E+04  0.25500000920E-02 0. -1.
</event>
<event>
 5   0  0.3767635E-02  0.5944100E+03  0.7818609E-02  0.9917072E-01
        1   -1    0    0  501    0  0.00000000000E+00  0.00000000000E+00  0.21304173514E+04  0.21304173514E+04  0.50400001928E-02 0. -1.
       -1   -1    0    0    0  501  0.00000000000E+00  0.00000000000E+00 -0.41461734503E+02  0.41461734810E+02  0.50400001928E-02 0.  1.
    10030    2    1    2    0    0  0.00000000000E+00  0.00000000000E+00  0.20889556169E+04  0.21718790862E+04  0.59440995599E+03 0.  0.
        2    1    3    3  502    0 -0.14991520437E+02 -0.23623316253E+03  0.17011527857E+04  0.17175423293E+04  0.25500000920E-02 0. -1.
       -2    1    3    3    0  502  0.14991520437E+02  0.23623316253E+03  0.38780283124E+03  0.45433675692E+03  0.25500000920E-02 0.  1.
</event>
<event>
 5   0  0.5755078E-02  0.6252439E+03  0.7818609E-02  0.9854374E-01
       -2   -1    0    0    0  501  0.00000000000E+00  0.00000000000E+00  0.20218104123E+03  0.20218104125E+03  0.25500000920E-02 0.  1.
        2   -1    0    0  501    0  0.00000000000E+00  0.00000000000E+00 -0.48339093895E+03  0.48339093896E+03  0.25500000920E-02 0. -1.
    10030    2    1    2    0    0  0.00000000000E+00  0.00000000000E+00 -0.28120989772E+03  0.68557198021E+03  0.62524389918E+03 0.  0.
        2    1    3    3  502    0 -0.23669857793E+02 -0.17410141606E+03  0.14291901014E+03  0.22648931256E+03  0.25500000920E-02 0.  1.
       -2    1    3    3    0  502  0.23669857793E+02  0.17410141606E+03 -0.42412890786E+03  0.45908266764E+03  0.25500000920E-02 0. -1.
</event>
<event>
 5   0  0.5999117E-02  0.5995102E+03  0.7818609E-02  0.9906423E-01
        2   -1    0    0  501    0  0.00000000000E+00  0.00000000000E+00  0.25798718726E+03  0.25798718728E+03  0.25500000920E-02 0.  1.
       -2   -1    0    0    0  501  0.00000000000E+00  0.00000000000E+00 -0.34828520744E+03  0.34828520745E+03  0.25500000920E-02 0. -1.
    10030    2    1    2    0    0  0.00000000000E+00  0.00000000000E+00 -0.90298020176E+02  0.60627239472E+03  0.59951020355E+03 0.  0.
        5    1    3    3  502    0 -0.16002619293E+03 -0.87275014462E+02  0.19545417718E+03  0.26730083417E+03  0.46999998093E+01 0.  1.
       -5    1    3    3    0  502  0.16002619293E+03  0.87275014462E+02 -0.28575219735E+03  0.33897156055E+03  0.46999998093E+01 0. -1.
</event>
<event>
 5   0  0.5999117E-02  0.5950600E+03  0.7818609E-02  0.9915708E-01
       -2   -1    0    0    0  501  0.00000000000E+00  0.00000000000E+00  0.13719500655E+03  0.13719500657E+03  0.25500000920E-02 0.  1.
        2   -1    0    0  501    0  0.00000000000E+00  0.00000000000E+00 -0.64524281987E+03  0.64524281988E+03  0.25500000920E-02 0. -1.
    10030    2    1    2    0    0  0.00000000000E+00  0.00000000000E+00 -0.50804781333E+03  0.78243782645E+03  0.59505997314E+03 0.  0.
        5    1    3    3  502    0 -0.55048932353E+02 -0.28943337805E+03 -0.30823717532E+03  0.42642034606E+03  0.46999998093E+01 0.  1.
       -5    1    3    3    0  502  0.55048932353E+02  0.28943337805E+03 -0.19981063801E+03  0.35601748039E+03  0.46999998093E+01 0. -1.
</event>
<event>
 5   0  0.5935451E-02  0.5938551E+03  0.7818609E-02  0.9918237E-01
       -2   -1    0    0    0  501  0.00000000000E+00  0.00000000000E+00  0.67333800814E+02  0.67333800862E+02  0.25500000920E-02 0.  1.
        2   -1    0    0  501    0  0.00000000000E+00  0.00000000000E+00 -0.13093864022E+04  0.13093864022E+04  0.25500000920E-02 0. -1.
    10030    2    1    2    0    0  0.00000000000E+00  0.00000000000E+00 -0.12420526014E+04  0.13767202031E+04  0.59385507737E+03 0.  0.
        3    1    3    3  502    0 -0.20282142612E+03 -0.20037373804E+03 -0.81331453677E+03  0.86183914491E+03  0.10100000352E+00 0.  1.
       -3    1    3    3    0  502  0.20282142612E+03  0.20037373804E+03 -0.42873806461E+03  0.51488105814E+03  0.10100000352E+00 0. -1.
</event>
<event>
 5   0  0.3640827E-02  0.5975461E+03  0.7818609E-02  0.9910510E-01
        1   -1    0    0  501    0  0.00000000000E+00  0.00000000000E+00  0.24468353161E+03  0.24468353166E+03  0.50400001928E-02 0. -1.
       -1   -1    0    0    0  501  0.00000000000E+00  0.00000000000E+00 -0.36481958399E+03  0.36481958402E+03  0.50400001928E-02 0.  1.
    10030    2    1    2    0    0  0.00000000000E+00  0.00000000000E+00 -0.12013605238E+03  0.60950311568E+03  0.59754612955E+03 0.  0.
        3    1    3    3  502    0 -0.67437091748E+02 -0.10994610581E+03  0.21482315015E+03  0.25056915925E+03  0.10100000352E+00 0. -1.
       -3    1    3    3    0  502  0.67437091748E+02  0.10994610581E+03 -0.33495920252E+03  0.35893395643E+03  0.10100000352E+00 0.  1.
</event>
<event>
 5   0  0.2388000E-02  0.5845187E+03  0.7818609E-02  0.9938056E-01
        3   -1    0    0  501    0  0.00000000000E+00  0.00000000000E+00  0.99584292638E+03  0.99584293150E+03  0.10100000352E+00 0. -1.
       -3   -1    0    0    0  501  0.00000000000E+00  0.00000000000E+00 -0.85772049339E+02  0.85772108805E+02  0.10100000352E+00 0.  1.
    10030    2    1    2    0    0  0.00000000000E+00  0.00000000000E+00  0.91007087704E+03  0.10816150403E+04  0.58451868591E+03 0.  0.
        5    1    3    3  502    0  0.44328315016E+01  0.23656821529E+03  0.13770159676E+03  0.27380283094E+03  0.46999998093E+01 0.  1.
       -5    1    3    3    0  502 -0.44328315016E+01 -0.23656821529E+03  0.77236928028E+03  0.80781220937E+03  0.46999998093E+01 0. -1.
</event>
<event>
 5   0  0.3651984E-02  0.6046241E+03  0.7818609E-02  0.9895859E-01
        1   -1    0    0  501    0  0.00000000000E+00  0.00000000000E+00  0.35453198712E+03  0.35453198716E+03  0.50400001928E-02 0. -1.
       -1   -1    0    0    0  501  0.00000000000E+00  0.00000000000E+00 -0.25778372466E+03  0.25778372471E+03  0.50400001928E-02 0.  1.
    10030    2    1    2    0    0  0.00000000000E+00  0.00000000000E+00  0.96748262463E+02  0.61231571186E+03  0.60462410199E+03 0.  0.
        1    1    3    3  502    0 -0.94815761368E+02  0.13668182093E+03 -0.20726655203E+03  0.26576563434E+03  0.50400001928E-02 0.  1.
       -1    1    3    3    0  502  0.94815761368E+02 -0.13668182093E+03  0.30401481449E+03  0.34655007753E+03  0.50400001928E-02 0. -1.
</event>
<event>
 5   0  0.5935451E-02  0.6066012E+03  0.7818609E-02  0.9891804E-01
        2   -1    0    0  501    0  0.00000000000E+00  0.00000000000E+00  0.62198860997E+03  0.62198860998E+03  0.25500000920E-02 0. -1.
       -2   -1    0    0    0  501  0.00000000000E+00  0.00000000000E+00 -0.14789863858E+03  0.14789863860E+03  0.25500000920E-02 0.  1.
    10030    2    1    2    0    0  0.00000000000E+00  0.00000000000E+00  0.47408997139E+03  0.76988724858E+03  0.60660124840E+03 0.  0.
        3    1    3    3  502    0  0.13423371842E+03  0.14046938967E+03 -0.58543383721E+02  0.20292283897E+03  0.10100000352E+00 0.  1.
       -3    1    3    3    0  502 -0.13423371842E+03 -0.14046938967E+03  0.53263335511E+03  0.56696440962E+03  0.10100000352E+00 0. -1.
</event>
<event>
 5   0  0.2388000E-02  0.6003287E+03  0.7818609E-02  0.9904724E-01
       -4   -1    0    0    0  501  0.00000000000E+00  0.00000000000E+00  0.34449469495E+03  0.34449703591E+03  0.12699999809E+01 0.  1.
        4   -1    0    0  501    0  0.00000000000E+00  0.00000000000E+00 -0.26153373164E+03  0.26153681517E+03  0.12699999809E+01 0. -1.
    10030    2    1    2    0    0  0.00000000000E+00  0.00000000000E+00  0.82960963310E+02  0.60603385108E+03  0.60032866600E+03 0.  0.
        4    1    3    3  502    0 -0.19373378499E+03  0.77787748772E+02  0.25919950658E+03  0.33282083832E+03  0.12699999809E+01 0.  1.
       -4    1    3    3    0  502  0.19373378499E+03 -0.77787748772E+02 -0.17623854327E+03  0.27321301276E+03  0.12699999809E+01 0. -1.
</event>
<event>
 5   0  0.6007360E-02  0.6083571E+03  0.7818609E-02  0.9888218E-01
       -2   -1    0    0    0  501  0.00000000000E+00  0.00000000000E+00  0.77930357364E+02  0.77930357406E+02  0.25500000920E-02 0. -1.
        2   -1    0    0  501    0  0.00000000000E+00  0.00000000000E+00 -0.11872728347E+04  0.11872728347E+04  0.25500000920E-02 0.  1.
    10030    2    1    2    0    0  0.00000000000E+00  0.00000000000E+00 -0.11093424773E+04  0.12652031921E+04  0.60835711987E+03 0.  0.
        4    1    3    3  502    0 -0.29521966414E+03  0.72877147829E+02 -0.53893477701E+03  0.61880371326E+03  0.12699999809E+01 0.  1.
       -4    1    3    3    0  502  0.29521966414E+03 -0.72877147829E+02 -0.57040770033E+03  0.64639947885E+03  0.12699999809E+01 0. -1.
</event>
<event>
 5   0  0.2388000E-02  0.6006836E+03  0.7818609E-02  0.9903989E-01
       -3   -1    0    0    0  501  0.00000000000E+00  0.00000000000E+00  0.83464882583E+03  0.83464883194E+03  0.10100000352E+00 0. -1.
        3   -1    0    0  501    0  0.00000000000E+00  0.00000000000E+00 -0.10807558308E+03  0.10807563027E+03  0.10100000352E+00 0.  1.
    10030    2    1    2    0    0  0.00000000000E+00  0.00000000000E+00  0.72657324276E+03  0.94272446221E+03  0.60068355610E+03 0.  0.
        2    1    3    3  502    0  0.12540614595E+03 -0.66238406542E+02 -0.52212418095E+02  0.15113028999E+03  0.25500000920E-02 0.  1.
       -2    1    3    3    0  502 -0.12540614595E+03  0.66238406542E+02  0.77878566085E+03  0.79159417222E+03  0.25500000920E-02 0. -1.
</event>
<event>
 5   0  0.3478183E-02  0.6008117E+03  0.7818609E-02  0.9903724E-01
       -1   -1    0    0    0  501  0.00000000000E+00  0.00000000000E+00  0.28081402115E+04  0.28081402115E+04  0.50400001928E-02 0. -1.
        1   -1    0    0  501    0  0.00000000000E+00  0.00000000000E+00 -0.32136451290E+02  0.32136451685E+02  0.50400001928E-02 0.  1.
    10030    2    1    2    0    0  0.00000000000E+00  0.00000000000E+00  0.27760037602E+04  0.28402766632E+04  0.60081165665E+03 0.  0.
        4    1    3    3  502    0  0.11021944502E+03  0.21664779984E+03  0.22224575571E+04  0.22357110281E+04  0.12699999809E+01 0. -1.
       -4    1    3    3    0  502 -0.11021944502E+03 -0.21664779984E+03  0.55354620312E+03  0.60456563509E+03  0.12699999809E+01 0.  1.
</event>
<event>
 5   0  0.6007360E-02  0.5999424E+03  0.7818609E-02  0.9905526E-01
       -2   -1    0    0    0  501  0.00000000000E+00  0.00000000000E+00  0.20594699828E+03  0.20594699829E+03  0.25500000920E-02 0. -1.
        2   -1    0    0  501    0  0.00000000000E+00  0.00000000000E+00 -0.43692168534E+03  0.43692168535E+03  0.25500000920E-02 0.  1.
    10030    2    1    2    0    0  0.00000000000E+00  0.00000000000E+00 -0.23097468707E+03  0.64286868364E+03  0.59994236252E+03 0.  0.
        4    1    3    3  502    0  0.15954905382E+03  0.18796891984E+03  0.67597006207E+02  0.25565442212E+03  0.12699999809E+01 0. -1.
       -4    1    3    3    0  502 -0.15954905382E+03 -0.18796891984E+03 -0.29857169327E+03  0.38721426152E+03  0.12699999809E+01 0.  1.
</event>
<event>
 5   0  0.5872632E-02  0.5590344E+03  0.7818609E-02  0.9994242E-01
        2   -1    0    0  501    0  0.00000000000E+00  0.00000000000E+00  0.26700574654E+03  0.26700574656E+03  0.25500000920E-02 0. -1.
       -2   -1    0    0    0  501  0.00000000000E+00  0.00000000000E+00 -0.29261492555E+03  0.29261492556E+03  0.25500000920E-02 0.  1.
    10030    2    1    2    0    0  0.00000000000E+00  0.00000000000E+00 -0.25609179008E+02  0.55962067212E+03  0.55903440557E+03 0.  0.
        1    1    3    3  502    0 -0.18840690023E+03 -0.50398411276E+02 -0.21324620764E+03  0.28898288013E+03  0.50400001928E-02 0.  1.
       -1    1    3    3    0  502  0.18840690023E+03  0.50398411276E+02  0.18763702863E+03  0.27063779199E+03  0.50400001928E-02 0. -1.
</event>
<event>
 5   0  0.5755078E-02  0.5983838E+03  0.7818609E-02  0.9908765E-01
        2   -1    0    0  501    0  0.00000000000E+00  0.00000000000E+00  0.83897052232E+03  0.83897052233E+03  0.25500000920E-02 0.  1.
       -2   -1    0    0    0  501  0.00000000000E+00  0.00000000000E+00 -0.10669719516E+03  0.10669719519E+03  0.25500000920E-02 0. -1.
    10030    2    1    2    0    0  0.00000000000E+00  0.00000000000E+00  0.73227332716E+03  0.94566771752E+03  0.59838382857E+03 0.  0.
        2    1    3    3  502    0 -0.24490275937E+03  0.24309120277E+01  0.63772370714E+03  0.68313600223E+03  0.25500000920E-02 0. -1.
       -2    1    3    3    0  502  0.24490275937E+03 -0.24309120277E+01  0.94549620017E+02  0.26253171529E+03  0.25500000920E-02 0.  1.
</event>
<event>
 5   0  0.3640827E-02  0.5919532E+03  0.7818609E-02  0.9922243E-01
       -1   -1    0    0    0  501  0.00000000000E+00  0.00000000000E+00  0.28523225121E+03  0.28523225125E+03  0.50400001928E-02 0.  1.
        1   -1    0    0  501    0  0.00000000000E+00  0.00000000000E+00 -0.30712565034E+03  0.30712565038E+03  0.50400001928E-02 0. -1.
    10030    2    1    2    0    0  0.00000000000E+00  0.00000000000E+00 -0.21893399134E+02  0.59235790164E+03  0.59195317611E+03 0.  0.
        3    1    3    3  502    0 -0.29244394644E+03 -0.36207129103E+02  0.16779869184E+02  0.29515418381E+03  0.10100000352E+00 0.  1.
       -3    1    3    3    0  502  0.29244394644E+03  0.36207129103E+02 -0.38673268318E+02  0.29720371783E+03  0.10100000352E+00 0. -1.
</event>
<event>
 5   0  0.2388000E-02  0.6046759E+03  0.7818609E-02  0.9895752E-01
        3   -1    0    0  501    0  0.00000000000E+00  0.00000000000E+00  0.65626891508E+03  0.65626892285E+03  0.10100000352E+00 0. -1.
       -3   -1    0    0    0  501  0.00000000000E+00  0.00000000000E+00 -0.13928471850E+03  0.13928475512E+03  0.10100000352E+00 0.  1.
    10030    2    1    2    0    0  0.00000000000E+00  0.00000000000E+00  0.51698419659E+03  0.79555367797E+03  0.60467594215E+03 0.  0.
        2    1    3    3  502    0  0.28235650030E+03 -0.45077490960E+02  0.12924087867E+03  0.31378396738E+03  0.25500000920E-02 0.  1.
       -2    1    3    3    0  502 -0.28235650030E+03  0.45077490960E+02  0.38774331791E+03  0.48176971060E+03  0.25500000920E-02 0. -1.
</event>
<event>
 5   0  0.3478183E-02  0.6021413E+03  0.7818609E-02  0.9900973E-01
        1   -1    0    0  501    0  0.00000000000E+00  0.00000000000E+00  0.16492716725E+04  0.16492716725E+04  0.50400001928E-02 0.  1.
       -1   -1    0    0    0  501  0.00000000000E+00  0.00000000000E+00 -0.54959737841E+02  0.54959738072E+02  0.50400001928E-02 0. -1.
    10030    2    1    2    0    0  0.00000000000E+00  0.00000000000E+00  0.15943119347E+04  0.17042314106E+04  0.60214130884E+03 0.  0.
        4    1    3    3  502    0 -0.14285781202E+03 -0.10108473938E+03  0.10379136536E+03  0.20347171650E+03  0.12699999809E+01 0. -1.
       -4    1    3    3    0  502  0.14285781202E+03  0.10108473938E+03  0.14905205693E+04  0.15007596941E+04  0.12699999809E+01 0.  1.
</event>
<event>
 5   0  0.3767635E-02  0.5988102E+03  0.7818609E-02  0.9907878E-01
        1   -1    0    0  501    0  0.00000000000E+00  0.00000000000E+00  0.38368071832E+03  0.38368071835E+03  0.50400001928E-02 0. -1.
       -1   -1    0    0    0  501  0.00000000000E+00  0.00000000000E+00 -0.23364067296E+03  0.23364067301E+03  0.50400001928E-02 0.  1.
    10030    2    1    2    0    0  0.00000000000E+00  0.00000000000E+00  0.15004004536E+03  0.61732139136E+03  0.59881022455E+03 0.  0.
        2    1    3    3  502    0  0.25710748382E+03 -0.92123059630E+02  0.20150137714E+03  0.33940200552E+03  0.25500000920E-02 0. -1.
       -2    1    3    3    0  502 -0.25710748382E+03  0.92123059630E+02 -0.51461331778E+02  0.27791938584E+03  0.25500000920E-02 0.  1.
</event>
<event>
 5   0  0.5755078E-02  0.6029738E+03  0.7818609E-02  0.9899256E-01
       -2   -1    0    0    0  501  0.00000000000E+00  0.00000000000E+00  0.58243832529E+02  0.58243832585E+02  0.25500000920E-02 0. -1.
        2   -1    0    0  501    0  0.00000000000E+00  0.00000000000E+00 -0.15605831937E+04  0.15605831937E+04  0.25500000920E-02 0.  1.
    10030    2    1    2    0    0  0.00000000000E+00  0.00000000000E+00 -0.15023393611E+04  0.16188270262E+04  0.60297378459E+03 0.  0.
        2    1    3    3  502    0 -0.21506320865E+03 -0.27203807333E+02 -0.13136984505E+04  0.13314637996E+04  0.25500000920E-02 0.  1.
       -2    1    3    3    0  502  0.21506320865E+03  0.27203807333E+02 -0.18864091063E+03  0.28736322663E+03  0.25500000920E-02 0. -1.
</event>
<event>
 5   0  0.5999117E-02  0.6025755E+03  0.7818609E-02  0.9900077E-01
       -2   -1    0    0    0  501  0.00000000000E+00  0.00000000000E+00  0.33290616643E+03  0.33290616644E+03  0.25500000920E-02 0. -1.
        2   -1    0    0  501    0  0.00000000000E+00  0.00000000000E+00 -0.27267232051E+03  0.27267232052E+03  0.25500000920E-02 0.  1.
    10030    2    1    2    0    0  0.00000000000E+00  0.00000000000E+00  0.60233845920E+02  0.60557848695E+03  0.60257546222E+03 0.  0.
        5    1    3    3  502    0  0.65164910715E+02 -0.16850845180E+02 -0.26498192511E+03  0.27343724546E+03  0.46999998093E+01 0.  1.
       -5    1    3    3    0  502 -0.65164910715E+02  0.16850845180E+02  0.32521577103E+03  0.33214124149E+03  0.46999998093E+01 0. -1.
</event>
<event>
 5   0  0.3651984E-02  0.6004815E+03  0.7818609E-02  0.9904408E-01
        1   -1    0    0  501    0  0.00000000000E+00  0.00000000000E+00  0.80340575087E+02  0.80340575245E+02  0.50400001928E-02 0. -1.
       -1   -1    0    0    0  501  0.00000000000E+00  0.00000000000E+00 -0.11220296587E+04  0.11220296588E+04  0.50400001928E-02 0.  1.
    10030    2    1    2    0    0  0.00000000000E+00  0.00000000000E+00 -0.10416890837E+04  0.12023702340E+04  0.60048150063E+03 0.  0.
        1    1    3    3  502    0  0.14163291652E+03 -0.36360887627E+02 -0.10459112073E+04  0.10560834487E+04  0.50400001928E-02 0.  1.
       -1    1    3    3    0  502 -0.14163291652E+03  0.36360887627E+02  0.42221236052E+01  0.14628678527E+03  0.50400001928E-02 0. -1.
</event>
<event>
 5   0  0.5872632E-02  0.6100576E+03  0.7818609E-02  0.9884757E-01
       -2   -1    0    0    0  501  0.00000000000E+00  0.00000000000E+00  0.12147626800E+03  0.12147626802E+03  0.25500000920E-02 0. -1.
        2   -1    0    0  501    0  0.00000000000E+00  0.00000000000E+00 -0.76593203552E+03  0.76593203553E+03  0.25500000920E-02 0.  1.
    10030    2    1    2    0    0  0.00000000000E+00  0.00000000000E+00 -0.64445576753E+03  0.88740830355E+03  0.61005758819E+03 0.  0.
        1    1    3    3  502    0  0.92963423135E+02 -0.29045897923E+03 -0.33070334300E+03  0.44985921993E+03  0.50400001928E-02 0. -1.
       -1    1    3    3    0  502 -0.92963423135E+02  0.29045897923E+03 -0.31375242453E+03  0.43754908363E+03  0.50400001928E-02 0.  1.
</event>
<event>
 5   0  0.3478183E-02  0.6446117E+03  0.7818609E-02  0.9816943E-01
        1   -1    0    0  501    0  0.00000000000E+00  0.00000000000E+00  0.89739307755E+03  0.89739307756E+03  0.50400001928E-02 0.  1.
       -1   -1    0    0    0  501  0.00000000000E+00  0.00000000000E+00 -0.11575872247E+03  0.11575872258E+03  0.50400001928E-02 0. -1.
    10030    2    1    2    0    0  0.00000000000E+00  0.00000000000E+00  0.78163435507E+03  0.10131518001E+04  0.64461174756E+03 0.  0.
        4    1    3    3  502    0 -0.31535227309E+02 -0.12815080100E+03 -0.71340167675E+02  0.15002710016E+03  0.12699999809E+01 0. -1.
       -4    1    3    3    0  502  0.31535227309E+02  0.12815080100E+03  0.85297452275E+03  0.86312469998E+03  0.12699999809E+01 0.  1.
</event>
<event>
 5   0  0.5999117E-02  0.5878969E+03  0.7818609E-02  0.9930839E-01
       -2   -1    0    0    0  501  0.00000000000E+00  0.00000000000E+00  0.14553538523E+03  0.14553538525E+03  0.25500000920E-02 0.  1.
        2   -1    0    0  501    0  0.00000000000E+00  0.00000000000E+00 -0.59370913033E+03  0.59370913034E+03  0.25500000920E-02 0. -1.
    10030    2    1    2    0    0  0.00000000000E+00  0.00000000000E+00 -0.44817374511E+03  0.73924451559E+03  0.58789688553E+03 0.  0.
        5    1    3    3  502    0  0.11681506667E+03  0.25171487283E+03 -0.10231988498E+03  0.29579990849E+03  0.46999998093E+01 0. -1.
       -5    1    3    3    0  502 -0.11681506667E+03 -0.25171487283E+03 -0.34585386012E+03  0.44344460710E+03  0.46999998093E+01 0.  1.
</event>
<event>
 5   0  0.6007360E-02  0.6005664E+03  0.7818609E-02  0.9904232E-01
        2   -1    0    0  501    0  0.00000000000E+00  0.00000000000E+00  0.44929077710E+03  0.44929077711E+03  0.25500000920E-02 0.  1.
       -2   -1    0    0    0  501  0.00000000000E+00  0.00000000000E+00 -0.20069405125E+03  0.20069405127E+03  0.25500000920E-02 0. -1.
    10030    2    1    2    0    0  0.00000000000E+00  0.00000000000E+00  0.24859672585E+03  0.64998482838E+03  0.60056635355E+03 0.  0.
        4    1    3    3  502    0 -0.18604220279E+03 -0.52955759338E+02 -0.12427991085E+03  0.22991981822E+03  0.12699999809E+01 0. -1.
       -4    1    3    3    0  502  0.18604220279E+03  0.52955759338E+02  0.37287663670E+03  0.42006501016E+03  0.12699999809E+01 0.  1.
</event>
<event>
 5   0  0.5999117E-02  0.5966253E+03  0.7818609E-02  0.9912432E-01
        2   -1    0    0  501    0  0.00000000000E+00  0.00000000000E+00  0.78267267108E+03  0.78267267108E+03  0.25500000920E-02 0. -1.
       -2   -1    0    0    0  501  0.00000000000E+00  0.00000000000E+00 -0.11370069225E+03  0.11370069228E+03  0.25500000920E-02 0.  1.
    10030    2    1    2    0    0  0.00000000000E+00  0.00000000000E+00  0.66897197883E+03  0.89637336336E+03  0.59662525767E+03 0.  0.
        5    1    3    3  502    0  0.11237818112E+03 -0.17678470461E+03  0.15470861705E+02  0.21010265333E+03  0.46999998093E+01 0.  1.
       -5    1    3    3    0  502 -0.11237818112E+03  0.17678470461E+03  0.65350111712E+03  0.68627071003E+03  0.46999998093E+01 0. -1.
</event>
<event>
 5   0  0.5999117E-02  0.6040950E+03  0.7818609E-02  0.9896947E-01
       -2   -1    0    0    0  501  0.00000000000E+00  0.00000000000E+00  0.14966774920E+03  0.14966774922E+03  0.25500000920E-02 0. -1.
        2   -1    0    0  501    0  0.00000000000E+00  0.00000000000E+00 -0.60956805206E+03  0.60956805207E+03  0.25500000920E-02 0.  1.
    10030    2    1    2    0    0  0.00000000000E+00  0.00000000000E+00 -0.45990030287E+03  0.75923580129E+03  0.60409495394E+03 0.  0.
        5    1    3    3  502    0  0.11359050261E+03  0.10583691654E+03 -0.55552678258E+03  0.57683303594E+03  0.46999998093E+01 0. -1.
       -5    1    3    3    0  502 -0.11359050261E+03 -0.10583691654E+03  0.95626479714E+02  0.18240276535E+03  0.46999998093E+01 0.  1.
</event>
<event>
 5   0  0.2388000E-02  0.6003135E+03  0.7818609E-02  0.9904756E-01
       -4   -1    0    0    0  501  0.00000000000E+00  0.00000000000E+00  0.32413459887E+03  0.32413708687E+03  0.12699999809E+01 0. -1.
        4   -1    0    0  501    0  0.00000000000E+00  0.00000000000E+00 -0.27794769387E+03  0.27795059530E+03  0.12699999809E+01 0.  1.
    10030    2    1    2    0    0  0.00000000000E+00  0.00000000000E+00  0.46186904994E+02  0.60208768217E+03  0.60031354043E+03 0.  0.
        2    1    3    3  502    0 -0.15525880668E+03 -0.12047448118E+03  0.25064430602E+03  0.31849955387E+03  0.25500000920E-02 0. -1.
       -2    1    3    3    0  502  0.15525880668E+03  0.12047448118E+03 -0.20445740103E+03  0.28358812830E+03  0.25500000920E-02 0.  1.
</event>
<event>
 5   0  0.5872632E-02  0.5927557E+03  0.7818609E-02  0.9920551E-01
       -2   -1    0    0    0  501  0.00000000000E+00  0.00000000000E+00  0.17485907498E+03  0.17485907499E+03  0.25500000920E-02 0.  1.
        2   -1    0    0  501    0  0.00000000000E+00  0.00000000000E+00 -0.50234647850E+03  0.50234647851E+03  0.25500000920E-02 0. -1.
    10030    2    1    2    0    0  0.00000000000E+00  0.00000000000E+00 -0.32748740352E+03  0.67720555350E+03  0.59275573572E+03 0.  0.
        1    1    3    3  502    0 -0.15374856573E+03 -0.51664983749E+02 -0.44714059170E+03  0.47564966181E+03  0.50400001928E-02 0. -1.
       -1    1    3    3    0  502  0.15374856573E+03  0.51664983749E+02  0.11965318817E+03  0.20155589169E+03  0.50400001928E-02 0.  1.
</event>
<event>
 5   0  0.3767635E-02  0.5910377E+03  0.7818609E-02  0.9924176E-01
       -1   -1    0    0    0  501  0.00000000000E+00  0.00000000000E+00  0.91594175703E+02  0.91594175842E+02  0.50400001928E-02 0. -1.
        1   -1    0    0  501    0  0.00000000000E+00  0.00000000000E+00 -0.95346004281E+03  0.95346004282E+03  0.50400001928E-02 0.  1.
    10030    2    1    2    0    0  0.00000000000E+00  0.00000000000E+00 -0.86186586711E+03  0.10450542187E+04  0.59103768667E+03 0.  0.
        2    1    3    3  502    0  0.32158005612E+02 -0.85143905068E+02  0.66195319668E+02  0.11254084702E+03  0.25500000920E-02 0. -1.
       -2    1    3    3    0  502 -0.32158005612E+02  0.85143905068E+02 -0.92806118678E+03  0.93251337165E+03  0.25500000920E-02 0.  1.
</event>
<event>
 5   0  0.6007360E-02  0.5874827E+03  0.7818609E-02  0.9931721E-01
       -2   -1    0    0    0  501  0.00000000000E+00  0.00000000000E+00  0.11390857725E+03  0.11390857728E+03  0.25500000920E-02 0.  1.
        2   -1    0    0  501    0  0.00000000000E+00  0.00000000000E+00 -0.75748459655E+03  0.75748459655E+03  0.25500000920E-02 0. -1.
    10030    2    1    2    0    0  0.00000000000E+00  0.00000000000E+00 -0.64357601930E+03  0.87139317383E+03  0.58748274083E+03 0.  0.
        4    1    3    3  502    0  0.22208145151E+03 -0.33690171262E+02 -0.41034392467E+02  0.22834323509E+03  0.12699999809E+01 0.  1.
       -4    1    3    3    0  502 -0.22208145151E+03  0.33690171262E+02 -0.60254162683E+03  0.64304993874E+03  0.12699999809E+01 0. -1.
</event>
<event>
 5   0  0.3640827E-02  0.5995670E+03  0.7818609E-02  0.9906305E-01
        1   -1    0    0  501    0  0.00000000000E+00  0.00000000000E+00  0.48774179108E+03  0.48774179110E+03  0.50400001928E-02 0.  1.
       -1   -1    0    0    0  501  0.00000000000E+00  0.00000000000E+00 -0.18425762965E+03  0.18425762971E+03  0.50400001928E-02 0. -1.
    10030    2    1    2    0    0  0.00000000000E+00  0.00000000000E+00  0.30348416143E+03  0.67199942082E+03  0.59956699821E+03 0.  0.
        3    1    3    3  502    0 -0.25673074430E+03 -0.14971291076E+03  0.10767985362E+03  0.31610060391E+03  0.10100000352E+00 0. -1.
       -3    1    3    3    0  502  0.25673074430E+03  0.14971291076E+03  0.19580430781E+03  0.35589881691E+03  0.10100000352E+00 0.  1.
</event>
<event>
 5   0  0.5935451E-02  0.5970127E+03  0.7818609E-02  0.9911623E-01
        2   -1    0    0  501    0  0.00000000000E+00  0.00000000000E+00  0.17113159843E+04  0.17113159843E+04  0.25500000920E-02 0. -1.
       -2   -1    0    0    0  501  0.00000000000E+00  0.00000000000E+00 -0.52068731460E+02  0.52068731522E+02  0.25500000920E-02 0.  1.
    10030    2    1    2    0    0  0.00000000000E+00  0.00000000000E+00  0.16592472529E+04  0.17633847159E+04  0.59701273852E+03 0.  0.
        3    1    3    3  502    0 -0.14610797859E+03 -0.25382004635E+03  0.65907870997E+03  0.72121904680E+03  0.10100000352E+00 0.  1.
       -3    1    3    3    0  502  0.14610797859E+03  0.25382004635E+03  0.10001685429E+04  0.10421656691E+04  0.10100000352E+00 0. -1.
</event>
<event>
 5   0  0.3478183E-02  0.5958391E+03  0.7818609E-02  0.9914076E-01
       -1   -1    0    0    0  501  0.00000000000E+00  0.00000000000E+00  0.61938765308E+02  0.61938765513E+02  0.50400001928E-02 0.  1.
        1   -1    0    0  501    0  0.00000000000E+00  0.00000000000E+00 -0.14329647884E+04  0.14329647884E+04  0.50400001928E-02 0. -1.
    10030    2    1    2    0    0  0.00000000000E+00  0.00000000000E+00 -0.13710260231E+04  0.14949035540E+04  0.59583913898E+03 0.  0.
        4    1    3    3  502    0 -0.22093623177E+03  0.12606004296E+03 -0.10745995795E+04  0.11042960754E+04  0.12699999809E+01 0. -1.
       -4    1    3    3    0  502  0.22093623177E+03 -0.12606004296E+03 -0.29642644364E+03  0.39060747859E+03  0.12699999809E+01 0.  1.
</event>
<event>
 5   0  0.5872632E-02  0.5997303E+03  0.7818609E-02  0.9905966E-01
        2   -1    0    0  501    0  0.00000000000E+00  0.00000000000E+00  0.16166340063E+03  0.16166340065E+03  0.25500000920E-02 0.  1.
       -2   -1    0    0    0  501  0.00000000000E+00  0.00000000000E+00 -0.55621192179E+03  0.55621192180E+03  0.25500000920E-02 0. -1.
    10030    2    1    2    0    0  0.00000000000E+00  0.00000000000E+00 -0.39454852116E+03  0.71787532244E+03  0.59973030857E+03 0.  0.
        1    1    3    3  502    0  0.12035682563E+02 -0.14299280868E+03 -0.51244449943E+03  0.53215708772E+03  0.50400001928E-02 0. -1.
       -1    1    3    3    0  502 -0.12035682563E+02  0.14299280868E+03  0.11789597827E+03  0.18571823472E+03  0.50400001928E-02 0.  1.
</event>
<event>
 5   0  0.3703280E-02  0.6036846E+03  0.7818609E-02  0.9897791E-01
        1   -1    0    0  501    0  0.00000000000E+00  0.00000000000E+00  0.35269118127E+03  0.35269118131E+03  0.50400001928E-02 0. -1.
       -1   -1    0    0    0  501  0.00000000000E+00  0.00000000000E+00 -0.25832446990E+03  0.25832446995E+03  0.50400001928E-02 0.  1.
    10030    2    1    2    0    0  0.00000000000E+00  0.00000000000E+00  0.94366711374E+02  0.61101565126E+03  0.60368456156E+03 0.  0.
        5    1    3    3  502    0  0.63924531536E+02  0.17690762910E+03  0.28606650984E+03  0.34240150849E+03  0.46999998093E+01 0. -1.
       -5    1    3    3    0  502 -0.63924531536E+02 -0.17690762910E+03 -0.19169979846E+03  0.26861414277E+03  0.46999998093E+01 0.  1.
</event>
<event>
 5   0  0.3478183E-02  0.5886907E+03  0.7818609E-02  0.9929151E-01
       -1   -1    0    0    0  501  0.00000000000E+00  0.00000000000E+00  0.21525385015E+03  0.21525385021E+03  0.50400001928E-02 0. -1.
        1   -1    0    0  501    0  0.00000000000E+00  0.00000000000E+00 -0.40249772341E+03  0.40249772344E+03  0.50400001928E-02 0.  1.
    10030    2    1    2    0    0  0.00000000000E+00  0.00000000000E+00 -0.18724387326E+03  0.61775157365E+03  0.58869069864E+03 0.  0.
        4    1    3    3  502    0 -0.16457339783E+03  0.22387843616E+03  0.82887441913E+01  0.27798610330E+03  0.12699999809E+01 0. -1.
       -4    1    3    3    0  502  0.16457339783E+03 -0.22387843616E+03 -0.19553261745E+03  0.33976547034E+03  0.12699999809E+01 0.  1.
</event>
<event>
 5   0  0.5935451E-02  0.6059876E+03  0.7818609E-02  0.9893061E-01
       -2   -1    0    0    0  501  0.00000000000E+00  0.00000000000E+00  0.66470755417E+02  0.66470755466E+02  0.25500000920E-02 0. -1.
        2   -1    0    0  501    0  0.00000000000E+00  0.00000000000E+00 -0.13811373310E+04  0.13811373310E+04  0.25500000920E-02 0.  1.
    10030    2    1    2    0    0  0.00000000000E+00  0.00000000000E+00 -0.13146665756E+04  0.14476080864E+04  0.60598759645E+03 0.  0.
        3    1    3    3  502    0 -0.29089578987E+03  0.44055819588E+02 -0.48434497018E+03  0.56670215823E+03  0.10100000352E+00 0.  1.
       -3    1    3    3    0  502  0.29089578987E+03 -0.44055819588E+02 -0.83032160538E+03  0.88090592821E+03  0.10100000352E+00 0. -1.
</event>
<event>
 5   0  0.3703280E-02  0.5982319E+03  0.7818609E-02  0.9909081E-01
        1   -1    0    0  501    0  0.00000000000E+00  0.00000000000E+00  0.17396192543E+03  0.17396192550E+03  0.50400001928E-02 0.  1.
       -1   -1    0    0    0  501  0.00000000000E+00  0.00000000000E+00 -0.51430995757E+03  0.51430995760E+03  0.50400001928E-02 0. -1.
    10030    2    1    2    0    0  0.00000000000E+00  0.00000000000E+00 -0.34034803214E+03  0.68827188310E+03  0.59823189658E+03 0.  0.
        5    1    3    3  502    0  0.15286504702E+03 -0.23728577139E+03 -0.28392916765E+03  0.40038746502E+03  0.46999998093E+01 0. -1.
       -5    1    3    3    0  502 -0.15286504702E+03  0.23728577139E+03 -0.56418864488E+02  0.28788441808E+03  0.46999998093E+01 0.  1.
</event>
<event>
 5   0  0.3640827E-02  0.6039537E+03  0.7818609E-02  0.9897237E-01
       -1   -1    0    0    0  501  0.00000000000E+00  0.00000000000E+00  0.65140681192E+03  0.65140681194E+03  0.50400001928E-02 0. -1.
        1   -1    0    0  501    0  0.00000000000E+00  0.00000000000E+00 -0.13998936548E+03  0.13998936557E+03  0.50400001928E-02 0.  1.
    10030    2    1    2    0    0  0.00000000000E+00  0.00000000000E+00  0.51141744644E+03  0.79139617751E+03  0.60395372775E+03 0.  0.
        3    1    3    3  502    0  0.16367333082E+03  0.24113943726E+03  0.15209231175E+03  0.32873890691E+03  0.10100000352E+00 0.  1.
       -3    1    3    3    0  502 -0.16367333082E+03 -0.24113943726E+03  0.35932513469E+03  0.46265727060E+03  0.10100000352E+00 0. -1.
</event>
<event>
 5   0  0.3767635E-02  0.5972411E+03  0.7818609E-02  0.9911147E-01
       -1   -1    0    0    0  501  0.00000000000E+00  0.00000000000E+00  0.11983161028E+03  0.11983161038E+03  0.50400001928E-02 0. -1.
        1   -1    0    0  501    0  0.00000000000E+00  0.00000000000E+00 -0.74416281975E+03  0.74416281976E+03  0.50400001928E-02 0.  1.
    10030    2    1    2    0    0  0.00000000000E+00  0.00000000000E+00 -0.62433120947E+03  0.86399443015E+03  0.59724108717E+03 0.  0.
        2    1    3    3  502    0 -0.87880563938E+02 -0.11643488472E+03  0.64778932013E+02  0.15961323860E+03  0.25500000920E-02 0. -1.
       -2    1    3    3    0  502  0.87880563938E+02  0.11643488472E+03 -0.68911014149E+03  0.70438119154E+03  0.25500000920E-02 0.  1.
</event>
<event>
 5   0  0.5755078E-02  0.5944873E+03  0.7818609E-02  0.9916910E-01
        2   -1    0    0  501    0  0.00000000000E+00  0.00000000000E+00  0.10056745357E+04  0.10056745357E+04  0.25500000920E-02 0. -1.
       -2   -1    0    0    0  501  0.00000000000E+00  0.00000000000E+00 -0.87855240598E+02  0.87855240635E+02  0.25500000920E-02 0.  1.
    10030    2    1    2    0    0  0.00000000000E+00  0.00000000000E+00  0.91781929514E+03  0.10935297764E+04  0.59448726924E+03 0.  0.
        2    1    3    3  502    0  0.33311841919E+02 -0.16927569723E+03  0.90415480264E+03  0.92046718987E+03  0.25500000920E-02 0. -1.
       -2    1    3    3    0  502 -0.33311841919E+02  0.16927569723E+03  0.13664492493E+02  0.17306258650E+03  0.25500000920E-02 0.  1.
</event>
<event>
 5   0  0.3767635E-02  0.5937132E+03  0.7818609E-02  0.9918536E-01
       -1   -1    0    0    0  501  0.00000000000E+00  0.00000000000E+00  0.38682738046E+03  0.38682738050E+03  0.50400001928E-02 0.  1.
        1   -1    0    0  501    0  0.00000000000E+00  0.00000000000E+00 -0.22781178893E+03  0.22781178899E+03  0.50400001928E-02 0. -1.
    10030    2    1    2    0    0  0.00000000000E+00  0.00000000000E+00  0.15901559153E+03  0.61463916949E+03  0.59371318860E+03 0.  0.
        2    1    3    3  502    0  0.11152605553E+03 -0.26647038527E+03  0.15032429585E+03  0.32564078555E+03  0.25500000920E-02 0.  1.
       -2    1    3    3    0  502 -0.11152605553E+03  0.26647038527E+03  0.86912956864E+01  0.28899838393E+03  0.25500000920E-02 0. -1.
</event>
<event>
 5   0  0.3767635E-02  0.5984931E+03  0.7818609E-02  0.9908537E-01
       -1   -1    0    0    0  501  0.00000000000E+00  0.00000000000E+00  0.74214143387E+02  0.74214143559E+02  0.50400001928E-02 0.  1.
        1   -1    0    0  501    0  0.00000000000E+00  0.00000000000E+00 -0.12066229942E+04  0.12066229942E+04  0.50400001928E-02 0. -1.
    10030    2    1    2    0    0  0.00000000000E+00  0.00000000000E+00 -0.11324088508E+04  0.12808371377E+04  0.59849308106E+03 0.  0.
        2    1    3    3  502    0 -0.15170347246E+03 -0.21046018393E+03 -0.88536740634E+03  0.92259572771E+03  0.25500000920E-02 0. -1.
       -2    1    3    3    0  502  0.15170347246E+03  0.21046018393E+03 -0.24704144442E+03  0.35824141001E+03  0.25500000920E-02 0.  1.
</event>
<event>
 5   0  0.3640827E-02  0.6013796E+03  0.7818609E-02  0.9902548E-01
       -1   -1    0    0    0  501  0.00000000000E+00  0.00000000000E+00  0.13179702678E+04  0.13179702679E+04  0.50400001928E-02 0. -1.
        1   -1    0    0  501    0  0.00000000000E+00  0.00000000000E+00 -0.68601210103E+02  0.68601210288E+02  0.50400001928E-02 0.  1.
    10030    2    1    2    0    0  0.00000000000E+00  0.00000000000E+00  0.12493690577E+04  0.13865714781E+04  0.60137959855E+03 0.  0.
        3    1    3    3  502    0 -0.81291819736E+02  0.14410413115E+03  0.45787099694E+02  0.17167070009E+03  0.10100000352E+00 0.  1.
       -3    1    3    3    0  502  0.81291819736E+02 -0.14410413115E+03  0.12035819580E+04  0.12149007780E+04  0.10100000352E+00 0. -1.
</event>
<event>
 5   0  0.5872632E-02  0.5939783E+03  0.7818609E-02  0.9917978E-01
        2   -1    0    0  501    0  0.00000000000E+00  0.00000000000E+00  0.16451988200E+04  0.16451988200E+04  0.25500000920E-02 0.  1.
       -2   -1    0    0    0  501  0.00000000000E+00  0.00000000000E+00 -0.53612096546E+02  0.53612096607E+02  0.25500000920E-02 0. -1.
    10030    2    1    2    0    0  0.00000000000E+00  0.00000000000E+00  0.15915867235E+04  0.16988109166E+04  0.59397830947E+03 0.  0.
        1    1    3    3  502    0 -0.46992204811E+02 -0.19997631554E+03  0.18235470508E+03  0.27468533375E+03  0.50400001928E-02 0. -1.
       -1    1    3    3    0  502  0.46992204811E+02  0.19997631554E+03  0.14092320184E+04  0.14241255829E+04  0.50400001928E-02 0.  1.
</event>
<event>
 5   0  0.2388000E-02  0.6040778E+03  0.7818609E-02  0.9896982E-01
       -3   -1    0    0    0  501  0.00000000000E+00  0.00000000000E+00  0.78651965456E+03  0.78651966104E+03  0.10100000352E+00 0. -1.
        3   -1    0    0  501    0  0.00000000000E+00  0.00000000000E+00 -0.11598879031E+03  0.11598883429E+03  0.10100000352E+00 0.  1.
    10030    2    1    2    0    0  0.00000000000E+00  0.00000000000E+00  0.67053086424E+03  0.90250849533E+03  0.60407776341E+03 0.  0.
        1    1    3    3  502    0 -0.18458576749E+03 -0.16410400594E+03  0.75521818626E+02  0.25827422527E+03  0.50400001928E-02 0.  1.
       -1    1    3    3    0  502  0.18458576749E+03  0.16410400594E+03  0.59500904562E+03  0.64423427006E+03  0.50400001928E-02 0. -1.
</event>
<event>
 5   0  0.6007360E-02  0.5823793E+03  0.7818609E-02  0.9942653E-01
        2   -1    0    0  501    0  0.00000000000E+00  0.00000000000E+00  0.14052811185E+03  0.14052811188E+03  0.25500000920E-02 0. -1.
       -2   -1    0    0    0  501  0.00000000000E+00  0.00000000000E+00 -0.60337697090E+03  0.60337697091E+03  0.25500000920E-02 0.  1.
    10030    2    1    2    0    0  0.00000000000E+00  0.00000000000E+00 -0.46284885905E+03  0.74390508279E+03  0.58237934877E+03 0.  0.
        4    1    3    3  502    0 -0.93373740350E+02 -0.20961816228E+03 -0.46039321333E+03  0.51441418441E+03  0.12699999809E+01 0. -1.
       -4    1    3    3    0  502  0.93373740350E+02  0.20961816228E+03 -0.24556457232E+01  0.22949089838E+03  0.12699999809E+01 0.  1.
</event>
<event>
 5   0  0.3651984E-02  0.5953492E+03  0.7818609E-02  0.9915102E-01
        1   -1    0    0  501    0  0.00000000000E+00  0.00000000000E+00  0.14866711568E+04  0.14866711568E+04  0.50400001928E-02 0.  1.
       -1   -1    0    0    0  501  0.00000000000E+00  0.00000000000E+00 -0.59603076068E+02  0.59603076282E+02  0.50400001928E-02 0. -1.
    10030    2    1    2    0    0  0.00000000000E+00  0.00000000000E+00  0.14270680807E+04  0.15462742331E+04  0.59534922262E+03 0.  0.
        1    1    3    3  502    0 -0.16384257694E+03 -0.65867718044E+02  0.91128206937E+02  0.19871410726E+03  0.50400001928E-02 0. -1.
       -1    1    3    3    0  502  0.16384257694E+03  0.65867718044E+02  0.13359398738E+04  0.13475601258E+04  0.50400001928E-02 0.  1.
</event>
<event>
 5   0  0.5872632E-02  0.5920027E+03  0.7818609E-02  0.9922138E-01
       -2   -1    0    0    0  501  0.00000000000E+00  0.00000000000E+00  0.20318885095E+03  0.20318885097E+03  0.25500000920E-02 0.  1.
        2   -1    0    0  501    0  0.00000000000E+00  0.00000000000E+00 -0.43120875806E+03  0.43120875807E+03  0.25500000920E-02 0. -1.
    10030    2    1    2    0    0  0.00000000000E+00  0.00000000000E+00 -0.22801990711E+03  0.63439760904E+03  0.59200274350E+03 0.  0.
        1    1    3    3  502    0 -0.14349416964E+02  0.25470794343E+03 -0.27487599744E+03  0.37501847449E+03  0.50400001928E-02 0. -1.
       -1    1    3    3    0  502  0.14349416964E+02 -0.25470794343E+03  0.46856090324E+02  0.25937913455E+03  0.50400001928E-02 0.  1.
</event>
<event>
 5   0  0.2388000E-02  0.5937092E+03  0.7818609E-02  0.9918544E-01
        3   -1    0    0  501    0  0.00000000000E+00  0.00000000000E+00  0.57820797257E+03  0.57820798139E+03  0.10100000352E+00 0. -1.
       -3   -1    0    0    0  501  0.00000000000E+00  0.00000000000E+00 -0.15240645913E+03  0.15240649259E+03  0.10100000352E+00 0.  1.
    10030    2    1    2    0    0  0.00000000000E+00  0.00000000000E+00  0.42580151344E+03  0.73061447398E+03  0.59370917185E+03 0.  0.
        3    1    3    3  502    0 -0.10693898273E+03 -0.11717291990E+03  0.52167225230E+03  0.54525901020E+03  0.10100000352E+00 0. -1.
       -3    1    3    3    0  502  0.10693898273E+03  0.11717291990E+03 -0.95870738859E+02  0.18535546378E+03  0.10100000352E+00 0.  1.
</event>
<event>
 5   0  0.6007360E-02  0.6059249E+03  0.7818609E-02  0.9893190E-01
       -2   -1    0    0    0  501  0.00000000000E+00  0.00000000000E+00  0.10641456251E+03  0.10641456254E+03  0.25500000920E-02 0. -1.
        2   -1    0    0  501    0  0.00000000000E+00  0.00000000000E+00 -0.86253452737E+03  0.86253452738E+03  0.25500000920E-02 0.  1.
    10030    2    1    2    0    0  0.00000000000E+00  0.00000000000E+00 -0.75611996486E+03  0.96894908992E+03  0.60592486135E+03 0.  0.
        4    1    3    3  502    0  0.36904367899E+02  0.23758116842E+03 -0.67282796589E+03  0.71449690590E+03  0.12699999809E+01 0.  1.
       -4    1    3    3    0  502 -0.36904367899E+02 -0.23758116842E+03 -0.83291998969E+02  0.25445218402E+03  0.12699999809E+01 0. -1.
</event>
<event>
 5   0  0.5999117E-02  0.6054299E+03  0.7818609E-02  0.9894204E-01
       -2   -1    0    0    0  501  0.00000000000E+00  0.00000000000E+00  0.55958492893E+02  0.55958492951E+02  0.25500000920E-02 0. -1.
        2   -1    0    0  501    0  0.00000000000E+00  0.00000000000E+00 -0.16375770864E+04  0.16375770864E+04  0.25500000920E-02 0.  1.
    10030    2    1    2    0    0  0.00000000000E+00  0.00000000000E+00 -0.15816185935E+04  0.16935355794E+04  0.60542991602E+03 0.  0.
        5    1    3    3  502    0  0.22425980107E+03 -0.65810746157E+02 -0.25281586151E+03  0.34432755120E+03  0.46999998093E+01 0. -1.
       -5    1    3    3    0  502 -0.22425980107E+03  0.65810746157E+02 -0.13288027320E+04  0.13492080282E+04  0.46999998093E+01 0.  1.
</event>
<event>
 5   0  0.5872632E-02  0.6195229E+03  0.7818609E-02  0.9865710E-01
        2   -1    0    0  501    0  0.00000000000E+00  0.00000000000E+00  0.15631760839E+04  0.15631760839E+04  0.25500000920E-02 0. -1.
       -2   -1    0    0    0  501  0.00000000000E+00  0.00000000000E+00 -0.61382824979E+02  0.61382825032E+02  0.25500000920E-02 0.  1.
    10030    2    1    2    0    0  0.00000000000E+00  0.00000000000E+00  0.15017932589E+04  0.16245589090E+04  0.61952292618E+03 0.  0.
        1    1    3    3  502    0 -0.56167724395E+02 -0.15189569056E+03  0.58472014052E+02  0.17218040111E+03  0.50400001928E-02 0.  1.
       -1    1    3    3    0  502  0.56167724395E+02  0.15189569056E+03  0.14433212449E+04  0.14523785079E+04  0.50400001928E-02 0. -1.
</event>
<event>
 5   0  0.5999117E-02  0.5823853E+03  0.7818609E-02  0.9942640E-01
        2   -1    0    0  501    0  0.00000000000E+00  0.00000000000E+00  0.52174946930E+03  0.52174946930E+03  0.25500000920E-02 0.  1.
       -2   -1    0    0    0  501  0.00000000000E+00  0.00000000000E+00 -0.16251698266E+03  0.16251698268E+03  0.25500000920E-02 0. -1.
    10030    2    1    2    0    0  0.00000000000E+00  0.00000000000E+00  0.35923248664E+03  0.68426645198E+03  0.58238526583E+03 0.  0.
        5    1    3    3  502    0 -0.16810810485E+03  0.10793868239E+03 -0.69237590732E+02  0.21148765458E+03  0.46999998093E+01 0. -1.
       -5    1    3    3    0  502  0.16810810485E+03 -0.10793868239E+03  0.42847007737E+03  0.47277879740E+03  0.46999998093E+01 0.  1.
</event>
<event>
 5   0  0.5872632E-02  0.5999626E+03  0.7818609E-02  0.9905484E-01
       -2   -1    0    0    0  501  0.00000000000E+00  0.00000000000E+00  0.18742986763E+03  0.18742986765E+03  0.25500000920E-02 0.  1.
        2   -1    0    0  501    0  0.00000000000E+00  0.00000000000E+00 -0.48011982336E+03  0.48011982337E+03  0.25500000920E-02 0. -1.
    10030    2    1    2    0    0  0.00000000000E+00  0.00000000000E+00 -0.29268995573E+03  0.66754969102E+03  0.59996264867E+03 0.  0.
        1    1    3    3  502    0 -0.85742852178E+02  0.24970210042E+03 -0.30481811724E+03  0.40325805668E+03  0.50400001928E-02 0. -1.
       -1    1    3    3    0  502  0.85742852178E+02 -0.24970210042E+03  0.12128161512E+02  0.26429163434E+03  0.50400001928E-02 0.  1.
</event>
<event>
 5   0  0.3478183E-02  0.5501081E+03  0.7818609E-02  0.1001469E+00
       -1   -1    0    0    0  501  0.00000000000E+00  0.00000000000E+00  0.64696464265E+02  0.64696464461E+02  0.50400001928E-02 0. -1.
        1   -1    0    0  501    0  0.00000000000E+00  0.00000000000E+00 -0.11693798543E+04  0.11693798543E+04  0.50400001928E-02 0.  1.
    10030    2    1    2    0    0  0.00000000000E+00  0.00000000000E+00 -0.11046833900E+04  0.12340763187E+04  0.55010814239E+03 0.  0.
        4    1    3    3  502    0  0.92404229149E+02 -0.25492965286E+03 -0.44891792051E+03  0.52445836988E+03  0.12699999809E+01 0. -1.
       -4    1    3    3    0  502 -0.92404229149E+02  0.25492965286E+03 -0.65576546947E+03  0.70961794885E+03  0.12699999809E+01 0.  1.
</event>
<event>
 5   0  0.3640827E-02  0.5996714E+03  0.7818609E-02  0.9906088E-01
       -1   -1    0    0    0  501  0.00000000000E+00  0.00000000000E+00  0.51958153867E+03  0.51958153870E+03  0.50400001928E-02 0. -1.
        1   -1    0    0  501    0  0.00000000000E+00  0.00000000000E+00 -0.17302664854E+03  0.17302664861E+03  0.50400001928E-02 0.  1.
    10030    2    1    2    0    0  0.00000000000E+00  0.00000000000E+00  0.34655489013E+03  0.69260818731E+03  0.59967141774E+03 0.  0.
        3    1    3    3  502    0 -0.14813678043E+03 -0.48808758893E+02  0.46903934940E+03  0.49429214251E+03  0.10100000352E+00 0. -1.
       -3    1    3    3    0  502  0.14813678043E+03  0.48808758893E+02 -0.12248445927E+03  0.19831604480E+03  0.10100000352E+00 0.  1.
</event>
<event>
 5   0  0.5872632E-02  0.5779054E+03  0.7818609E-02  0.9952336E-01
       -2   -1    0    0    0  501  0.00000000000E+00  0.00000000000E+00  0.10869315365E+04  0.10869315365E+04  0.25500000920E-02 0. -1.
        2   -1    0    0  501    0  0.00000000000E+00  0.00000000000E+00 -0.76815939748E+02  0.76815939791E+02  0.25500000920E-02 0.  1.
    10030    2    1    2    0    0  0.00000000000E+00  0.00000000000E+00  0.10101155968E+04  0.11637474763E+04  0.57790541595E+03 0.  0.
        1    1    3    3  502    0 -0.19841206010E+03  0.20771612568E+03  0.56810833536E+03  0.63660067169E+03  0.50400001928E-02 0. -1.
       -1    1    3    3    0  502  0.19841206010E+03 -0.20771612568E+03  0.44200726142E+03  0.52714680463E+03  0.50400001928E-02 0.  1.
</event>
<event>
 5   0  0.3767635E-02  0.6001698E+03  0.7818609E-02  0.9905054E-01
        1   -1    0    0  501    0  0.00000000000E+00  0.00000000000E+00  0.14168376643E+03  0.14168376652E+03  0.50400001928E-02 0.  1.
       -1   -1    0    0    0  501  0.00000000000E+00  0.00000000000E+00 -0.63557702193E+03  0.63557702195E+03  0.50400001928E-02 0. -1.
    10030    2    1    2    0    0  0.00000000000E+00  0.00000000000E+00 -0.49389325549E+03  0.77726078847E+03  0.60016979720E+03 0.  0.
        2    1    3    3  502    0  0.12615101273E+02 -0.27790827288E+03 -0.10123679895E+03  0.29604229154E+03  0.25500000920E-02 0.  1.
       -2    1    3    3    0  502 -0.12615101273E+02  0.27790827288E+03 -0.39265645654E+03  0.48121849693E+03  0.25500000920E-02 0. -1.
</event>
<event>
 5   0  0.5755078E-02  0.5971708E+03  0.7818609E-02  0.9911293E-01
        2   -1    0    0  501    0  0.00000000000E+00  0.00000000000E+00  0.24796601251E+03  0.24796601252E+03  0.25500000920E-02 0.  1.
       -2   -1    0    0    0  501  0.00000000000E+00  0.00000000000E+00 -0.35953820259E+03  0.35953820260E+03  0.25500000920E-02 0. -1.
    10030    2    1    2    0    0  0.00000000000E+00  0.00000000000E+00 -0.11157219008E+03  0.60750421512E+03  0.59717084473E+03 0.  0.
        2    1    3    3  502    0 -0.13466116157E+03 -0.26467270511E+03 -0.24135268730E+02  0.29793922278E+03  0.25500000920E-02 0.  1.
       -2    1    3    3    0  502  0.13466116157E+03  0.26467270511E+03 -0.87436921354E+02  0.30956499235E+03  0.25500000920E-02 0. -1.
</event>
<event>
 5   0  0.3478183E-02  0.5815749E+03  0.7818609E-02  0.9944387E-01
       -1   -1    0    0    0  501  0.00000000000E+00  0.00000000000E+00  0.12724587207E+03  0.12724587217E+03  0.50400001928E-02 0. -1.
        1   -1    0    0  501    0  0.00000000000E+00  0.00000000000E+00 -0.66451924578E+03  0.66451924579E+03  0.50400001928E-02 0.  1.
    10030    2    1    2    0    0  0.00000000000E+00  0.00000000000E+00 -0.53727337370E+03  0.79176511797E+03  0.58157486530E+03 0.  0.
        4    1    3    3  502    0  0.10320541940E+03 -0.23951065790E+03 -0.93553108105E+02  0.27707491907E+03  0.12699999809E+01 0. -1.
       -4    1    3    3    0  502 -0.10320541940E+03  0.23951065790E+03 -0.44372026560E+03  0.51469019890E+03  0.12699999809E+01 0.  1.
</event>
<event>
 5   0  0.5999117E-02  0.5609975E+03  0.7818609E-02  0.9989800E-01
       -2   -1    0    0    0  501  0.00000000000E+00  0.00000000000E+00  0.70046545853E+02  0.70046545899E+02  0.25500000920E-02 0. -1.
        2   -1    0    0  501    0  0.00000000000E+00  0.00000000000E+00 -0.11232467032E+04  0.11232467032E+04  0.25500000920E-02 0.  1.
    10030    2    1    2    0    0  0.00000000000E+00  0.00000000000E+00 -0.10532001574E+04  0.11932932491E+04  0.56099751062E+03 0.  0.
        5    1    3    3  502    0  0.19359649676E+01 -0.18520702075E+03 -0.78635977090E+02  0.20127368280E+03  0.46999998093E+01 0. -1.
       -5    1    3    3    0  502 -0.19359649676E+01  0.18520702075E+03 -0.97456418028E+03  0.99201956633E+03  0.46999998093E+01 0.  1.
</event>
<event>
 5   0  0.3478183E-02  0.5952918E+03  0.7818609E-02  0.9915223E-01
       -1   -1    0    0    0  501  0.00000000000E+00  0.00000000000E+00  0.31692811717E+03  0.31692811721E+03  0.50400001928E-02 0.  1.
        1   -1    0    0  501    0  0.00000000000E+00  0.00000000000E+00 -0.27953679099E+03  0.27953679103E+03  0.50400001928E-02 0. -1.
    10030    2    1    2    0    0  0.00000000000E+00  0.00000000000E+00  0.37391326185E+02  0.59646490825E+03  0.59529175662E+03 0.  0.
        4    1    3    3  502    0 -0.28002438925E+02 -0.21041882391E+03  0.22774824620E+03  0.31133758942E+03  0.12699999809E+01 0.  1.
       -4    1    3    3    0  502  0.28002438925E+02  0.21041882391E+03 -0.19035692001E+03  0.28512731882E+03  0.12699999809E+01 0. -1.
</event>
<event>
 5   0  0.5872632E-02  0.5940034E+03  0.7818609E-02  0.9917926E-01
        2   -1    0    0  501    0  0.00000000000E+00  0.00000000000E+00  0.23445467658E+03  0.23445467659E+03  0.25500000920E-02 0. -1.
       -2   -1    0    0    0  501  0.00000000000E+00  0.00000000000E+00 -0.37623486394E+03  0.37623486394E+03  0.25500000920E-02 0.  1.
    10030    2    1    2    0    0  0.00000000000E+00  0.00000000000E+00 -0.14178018736E+03  0.61068954054E+03  0.59400344561E+03 0.  0.
        1    1    3    3  502    0  0.51433297335E+02  0.29218159653E+03 -0.56550016549E+02  0.30201551917E+03  0.50400001928E-02 0. -1.
       -1    1    3    3    0  502 -0.51433297335E+02 -0.29218159653E+03 -0.85230170807E+02  0.30867402136E+03  0.50400001928E-02 0.  1.
</event>
<event>
 5   0  0.3767635E-02  0.6006805E+03  0.7818609E-02  0.9903995E-01
        1   -1    0    0  501    0  0.00000000000E+00  0.00000000000E+00  0.23489257479E+03  0.23489257485E+03  0.50400001928E-02 0.  1.
       -1   -1    0    0    0  501  0.00000000000E+00  0.00000000000E+00 -0.38402345558E+03  0.38402345562E+03  0.50400001928E-02 0. -1.
    10030    2    1    2    0    0  0.00000000000E+00  0.00000000000E+00 -0.14913088079E+03  0.61891603046E+03  0.60068047509E+03 0.  0.
        2    1    3    3  502    0  0.28193234293E+03 -0.21587800729E+02  0.29762478740E+02  0.28431968676E+03  0.25500000920E-02 0.  1.
       -2    1    3    3    0  502 -0.28193234293E+03  0.21587800729E+02 -0.17889335953E+03  0.33459634371E+03  0.25500000920E-02 0. -1.
</event>
<event>
 5   0  0.2388000E-02  0.6043226E+03  0.7818609E-02  0.9896478E-01
        4   -1    0    0  501    0  0.00000000000E+00  0.00000000000E+00  0.12042141504E+03  0.12042811175E+03  0.12699999809E+01 0.  1.
       -4   -1    0    0    0  501  0.00000000000E+00  0.00000000000E+00 -0.75815449933E+03  0.75815556303E+03  0.12699999809E+01 0. -1.
    10030    2    1    2    0    0  0.00000000000E+00  0.00000000000E+00 -0.63773308430E+03  0.87858367478E+03  0.60432258504E+03 0.  0.
        3    1    3    3  502    0 -0.13749837868E+03  0.18911336344E+03 -0.40611370566E+02  0.23731616463E+03  0.10100000352E+00 0.  1.
       -3    1    3    3    0  502  0.13749837868E+03 -0.18911336344E+03 -0.59712171373E+03  0.64126751015E+03  0.10100000352E+00 0. -1.
</event>
<event>
 5   0  0.3640827E-02  0.5983122E+03  0.7818609E-02  0.9908914E-01
       -1   -1    0    0    0  501  0.00000000000E+00  0.00000000000E+00  0.41299331934E+03  0.41299331937E+03  0.50400001928E-02 0. -1.
        1   -1    0    0  501    0  0.00000000000E+00  0.00000000000E+00 -0.21669687827E+03  0.21669687833E+03  0.50400001928E-02 0.  1.
    10030    2    1    2    0    0  0.00000000000E+00  0.00000000000E+00  0.19629644107E+03  0.62969019769E+03  0.59831216960E+03 0.  0.
        3    1    3    3  502    0 -0.20641173269E+03 -0.14608235457E+03  0.26636982029E+03  0.36728565051E+03  0.10100000352E+00 0. -1.
       -3    1    3    3    0  502  0.20641173269E+03  0.14608235457E+03 -0.70073379218E+02  0.26240454719E+03  0.10100000352E+00 0.  1.
</event>
<event>
 5   0  0.3703280E-02  0.5912243E+03  0.7818609E-02  0.9923782E-01
       -1   -1    0    0    0  501  0.00000000000E+00  0.00000000000E+00  0.29120254689E+03  0.29120254694E+03  0.50400001928E-02 0. -1.
        1   -1    0    0  501    0  0.00000000000E+00  0.00000000000E+00 -0.30008848997E+03  0.30008849002E+03  0.50400001928E-02 0.  1.
    10030    2    1    2    0    0  0.00000000000E+00  0.00000000000E+00 -0.88859430796E+01  0.59129103696E+03  0.59122426405E+03 0.  0.
        5    1    3    3  502    0 -0.12249890930E+03 -0.17414655152E+03  0.20059588580E+03  0.29256418712E+03  0.46999998093E+01 0. -1.
       -5    1    3    3    0  502  0.12249890930E+03  0.17414655152E+03 -0.20948182888E+03  0.29872684984E+03  0.46999998093E+01 0.  1.
</event>
<event>
 5   0  0.3478183E-02  0.6016125E+03  0.7818609E-02  0.9902066E-01
        1   -1    0    0  501    0  0.00000000000E+00  0.00000000000E+00  0.16822091090E+04  0.16822091090E+04  0.50400001928E-02 0.  1.
       -1   -1    0    0    0  501  0.00000000000E+00  0.00000000000E+00 -0.53789024772E+02  0.53789025008E+02  0.50400001928E-02 0. -1.
    10030    2    1    2    0    0  0.00000000000E+00  0.00000000000E+00  0.16284200842E+04  0.17359981340E+04  0.60161245880E+03 0.  0.
        4    1    3    3  502    0  0.70577296688E+02  0.90228046326E+02  0.16167970433E+04  0.16208505629E+04  0.12699999809E+01 0.  1.
       -4    1    3    3    0  502 -0.70577296688E+02 -0.90228046326E+02  0.11623040926E+02  0.11514757111E+03  0.12699999809E+01 0. -1.
</event>
<event>
 5   0  0.6007360E-02  0.6045425E+03  0.7818609E-02  0.9896026E-01
       -2   -1    0    0    0  501  0.00000000000E+00  0.00000000000E+00  0.15061225579E+03  0.15061225581E+03  0.25500000920E-02 0. -1.
        2   -1    0    0  501    0  0.00000000000E+00  0.00000000000E+00 -0.60664331647E+03  0.60664331647E+03  0.25500000920E-02 0.  1.
    10030    2    1    2    0    0  0.00000000000E+00  0.00000000000E+00 -0.45603106067E+03  0.75725557228E+03  0.60454253238E+03 0.  0.
        4    1    3    3  502    0 -0.20234482473E+03  0.10997606651E+03  0.17214979604E+02  0.23094616629E+03  0.12699999809E+01 0. -1.
       -4    1    3    3    0  502  0.20234482473E+03 -0.10997606651E+03 -0.47324604028E+03  0.52630940600E+03  0.12699999809E+01 0.  1.
</event>
<event>
 5   0  0.5872632E-02  0.5989950E+03  0.7818609E-02  0.9907493E-01
       -2   -1    0    0    0  501  0.00000000000E+00  0.00000000000E+00  0.25002357514E+03  0.25002357515E+03  0.25500000920E-02 0.  1.
        2   -1    0    0  501    0  0.00000000000E+00  0.00000000000E+00 -0.35876123546E+03  0.35876123547E+03  0.25500000920E-02 0. -1.
    10030    2    1    2    0    0  0.00000000000E+00  0.00000000000E+00 -0.10873766032E+03  0.60878481062E+03  0.59899504745E+03 0.  0.
        1    1    3    3  502    0 -0.13834049626E+03  0.19867168679E+03 -0.23357484265E+03  0.33640115811E+03  0.50400001928E-02 0. -1.
       -1    1    3    3    0  502  0.13834049626E+03 -0.19867168679E+03  0.12483718233E+03  0.27238365251E+03  0.50400001928E-02 0.  1.
</event>
<event>
 5   0  0.5999117E-02  0.6005416E+03  0.7818609E-02  0.9904283E-01
        2   -1    0    0  501    0  0.00000000000E+00  0.00000000000E+00  0.61453767693E+02  0.61453767746E+02  0.25500000920E-02 0.  1.
       -2   -1    0    0    0  501  0.00000000000E+00  0.00000000000E+00 -0.14671606050E+04  0.14671606050E+04  0.25500000920E-02 0. -1.
    10030    2    1    2    0    0  0.00000000000E+00  0.00000000000E+00 -0.14057068373E+04  0.15286143727E+04  0.60054157901E+03 0.  0.
        5    1    3    3  502    0 -0.57283170743E+02 -0.28971932330E+03 -0.56526534979E+03  0.63778182290E+03  0.46999998093E+01 0. -1.
       -5    1    3    3    0  502  0.57283170743E+02  0.28971932330E+03 -0.84044148751E+03  0.89083254985E+03  0.46999998093E+01 0.  1.
</event>
<event>
 5   0  0.5755078E-02  0.6065341E+03  0.7818609E-02  0.9891942E-01
       -2   -1    0    0    0  501  0.00000000000E+00  0.00000000000E+00  0.72875586779E+02  0.72875586824E+02  0.25500000920E-02 0. -1.
        2   -1    0    0  501    0  0.00000000000E+00  0.00000000000E+00 -0.12620262347E+04  0.12620262347E+04  0.25500000920E-02 0.  1.
    10030    2    1    2    0    0  0.00000000000E+00  0.00000000000E+00 -0.11891506479E+04  0.13349018215E+04  0.60653409605E+03 0.  0.
        2    1    3    3  502    0 -0.11735413433E+03  0.10026660482E+03 -0.11691053797E+04  0.11792509376E+04  0.25500000920E-02 0.  1.
       -2    1    3    3    0  502  0.11735413433E+03 -0.10026660482E+03 -0.20045268189E+02  0.15565088393E+03  0.25500000920E-02 0. -1.
</event>
<event>
 5   0  0.2388000E-02  0.6026507E+03  0.7818609E-02  0.9899922E-01
       -4   -1    0    0    0  501  0.00000000000E+00  0.00000000000E+00  0.15030250601E+04  0.15030255967E+04  0.12699999809E+01 0.  1.
        4   -1    0    0  501    0  0.00000000000E+00  0.00000000000E+00 -0.60402265946E+02  0.60415615790E+02  0.12699999809E+01 0. -1.
    10030    2    1    2    0    0  0.00000000000E+00  0.00000000000E+00  0.14426227942E+04  0.15634412125E+04  0.60265072683E+03 0.  0.
        3    1    3    3  502    0  0.25961776368E+03 -0.13583415594E+03  0.53888644825E+03  0.61339295354E+03  0.10100000352E+00 0. -1.
       -3    1    3    3    0  502 -0.25961776368E+03  0.13583415594E+03  0.90373634593E+03  0.95004825893E+03  0.10100000352E+00 0.  1.
</event>
<event>
 5   0  0.3651984E-02  0.6068635E+03  0.7818609E-02  0.9891268E-01
       -1   -1    0    0    0  501  0.00000000000E+00  0.00000000000E+00  0.75092512182E+02  0.75092512351E+02  0.50400001928E-02 0. -1.
        1   -1    0    0  501    0  0.00000000000E+00  0.00000000000E+00 -0.12260985346E+04  0.12260985346E+04  0.50400001928E-02 0.  1.
    10030    2    1    2    0    0  0.00000000000E+00  0.00000000000E+00 -0.11510060224E+04  0.13011910469E+04  0.60686347479E+03 0.  0.
        1    1    3    3  502    0 -0.27285273747E+03 -0.13116576994E+03 -0.53167971779E+03  0.61183036692E+03  0.50400001928E-02 0.  1.
       -1    1    3    3    0  502  0.27285273747E+03  0.13116576994E+03 -0.61932630459E+03  0.68936068001E+03  0.50400001928E-02 0. -1.
</event>
<event>
 5   0  0.5999117E-02  0.5995870E+03  0.7818609E-02  0.9906263E-01
       -2   -1    0    0    0  501  0.00000000000E+00  0.00000000000E+00  0.19136198576E+03  0.19136198578E+03  0.25500000920E-02 0. -1.
        2   -1    0    0  501    0  0.00000000000E+00  0.00000000000E+00 -0.46966567273E+03  0.46966567273E+03  0.25500000920E-02 0.  1.
    10030    2    1    2    0    0  0.00000000000E+00  0.00000000000E+00 -0.27830368697E+03  0.66102765851E+03  0.59958704384E+03 0.  0.
        5    1    3    3  502    0  0.15533591539E+03  0.21312189339E+03 -0.29624486263E+03  0.39665261462E+03  0.46999998093E+01 0.  1.
       -5    1    3    3    0  502 -0.15533591539E+03 -0.21312189339E+03  0.17941175660E+02  0.26437504389E+03  0.46999998093E+01 0. -1.
</event>
<event>
 5   0  0.5872632E-02  0.5968260E+03  0.7818609E-02  0.9912013E-01
        2   -1    0    0  501    0  0.00000000000E+00  0.00000000000E+00  0.68394329222E+03  0.68394329223E+03  0.25500000920E-02 0. -1.
       -2   -1    0    0    0  501  0.00000000000E+00  0.00000000000E+00 -0.13020130986E+03  0.13020130988E+03  0.25500000920E-02 0.  1.
    10030    2    1    2    0    0  0.00000000000E+00  0.00000000000E+00  0.55374198237E+03  0.81414460211E+03  0.59682597975E+03 0.  0.
        1    1    3    3  502    0 -0.12956623301E+01  0.29650307597E+03  0.32281908556E+03  0.43832398386E+03  0.50400001928E-02 0. -1.
       -1    1    3    3    0  502  0.12956623301E+01 -0.29650307597E+03  0.23092289681E+03  0.37582061825E+03  0.50400001928E-02 0.  1.
</event>
<event>
 5   0  0.3703280E-02  0.5845256E+03  0.7818609E-02  0.9938041E-01
        1   -1    0    0  501    0  0.00000000000E+00  0.00000000000E+00  0.11239486535E+04  0.11239486535E+04  0.50400001928E-02 0.  1.
       -1   -1    0    0    0  501  0.00000000000E+00  0.00000000000E+00 -0.75997721811E+02  0.75997721978E+02  0.50400001928E-02 0. -1.
    10030    2    1    2    0    0  0.00000000000E+00  0.00000000000E+00  0.10479509317E+04  0.11999463755E+04  0.58452557585E+03 0.  0.
        5    1    3    3  502    0 -0.14344343661E+03  0.76850315999E+02  0.10222464209E+04  0.10351288932E+04  0.46999998093E+01 0.  1.
       -5    1    3    3    0  502  0.14344343661E+03 -0.76850315999E+02  0.25704510761E+02  0.16481748222E+03  0.46999998093E+01 0. -1.
</event>
<event>
 5   0  0.3651984E-02  0.6103339E+03  0.7818609E-02  0.9884195E-01
        1   -1    0    0  501    0  0.00000000000E+00  0.00000000000E+00  0.11555820222E+04  0.11555820223E+04  0.50400001928E-02 0.  1.
       -1   -1    0    0    0  501  0.00000000000E+00  0.00000000000E+00 -0.80588723512E+02  0.80588723670E+02  0.50400001928E-02 0. -1.
    10030    2    1    2    0    0  0.00000000000E+00  0.00000000000E+00  0.10749932987E+04  0.12361707459E+04  0.61033394201E+03 0.  0.
        1    1    3    3  502    0  0.13255108853E+03  0.25546466038E+01 -0.19214336088E+02  0.13396084513E+03  0.50400001928E-02 0. -1.
       -1    1    3    3    0  502 -0.13255108853E+03 -0.25546466038E+01  0.10942076348E+04  0.11022099008E+04  0.50400001928E-02 0.  1.
</event>
<event>
 5   0  0.5999117E-02  0.6166718E+03  0.7818609E-02  0.9871409E-01
        2   -1    0    0  501    0  0.00000000000E+00  0.00000000000E+00  0.73537312942E+03  0.73537312943E+03  0.25500000920E-02 0.  1.
       -2   -1    0    0    0  501  0.00000000000E+00  0.00000000000E+00 -0.12928270156E+03  0.12928270158E+03  0.25500000920E-02 0. -1.
    10030    2    1    2    0    0  0.00000000000E+00  0.00000000000E+00  0.60609042787E+03  0.86465583101E+03  0.61667179224E+03 0.  0.
        5    1    3    3  502    0 -0.12450557547E+03  0.56975289671E+02 -0.84261144925E+02  0.16084107839E+03  0.46999998093E+01 0. -1.
       -5    1    3    3    0  502  0.12450557547E+03 -0.56975289671E+02  0.69035157279E+03  0.70381475262E+03  0.46999998093E+01 0.  1.
</event>
<event>
 5   0  0.3640827E-02  0.6019055E+03  0.7818609E-02  0.9901461E-01
        1   -1    0    0  501    0  0.00000000000E+00  0.00000000000E+00  0.10397584487E+03  0.10397584499E+03  0.50400001928E-02 0.  1.
       -1   -1    0    0    0  501  0.00000000000E+00  0.00000000000E+00 -0.87109237521E+03  0.87109237522E+03  0.50400001928E-02 0. -1.
    10030    2    1    2    0    0  0.00000000000E+00  0.00000000000E+00 -0.76711653034E+03  0.97506822022E+03  0.60190552661E+03 0.  0.
        3    1    3    3  502    0  0.22033945448E+02 -0.22153935713E+03 -0.55510071501E+02  0.22944838145E+03  0.10100000352E+00 0.  1.
       -3    1    3    3    0  502 -0.22033945448E+02  0.22153935713E+03 -0.71160645884E+03  0.74561983877E+03  0.10100000352E+00 0. -1.
</event>
<event>
 5   0  0.5935451E-02  0.5952908E+03  0.7818609E-02  0.9915225E-01
       -2   -1    0    0    0  501  0.00000000000E+00  0.00000000000E+00  0.11514743790E+03  0.11514743793E+03  0.25500000920E-02 0.  1.
        2   -1    0    0  501    0  0.00000000000E+00  0.00000000000E+00 -0.76938563655E+03  0.76938563656E+03  0.25500000920E-02 0. -1.
    10030    2    1    2    0    0  0.00000000000E+00  0.00000000000E+00 -0.65423819865E+03  0.88453307449E+03  0.59529080230E+03 0.  0.
        3    1    3    3  502    0  0.25609592866E+03 -0.99011719606E+02 -0.15637603241E+03  0.31597771917E+03  0.10100000352E+00 0.  1.
       -3    1    3    3    0  502 -0.25609592866E+03  0.99011719606E+02 -0.49786216623E+03  0.56855535532E+03  0.10100000352E+00 0. -1.
</event>
<event>
 5   0  0.3767635E-02  0.6034516E+03  0.7818609E-02  0.9898271E-01
        1   -1    0    0  501    0  0.00000000000E+00  0.00000000000E+00  0.16097900018E+03  0.16097900026E+03  0.50400001928E-02 0.  1.
       -1   -1    0    0    0  501  0.00000000000E+00  0.00000000000E+00 -0.56553000135E+03  0.56553000137E+03  0.50400001928E-02 0. -1.
    10030    2    1    2    0    0  0.00000000000E+00  0.00000000000E+00 -0.40455100116E+03  0.72650900163E+03  0.60345158622E+03 0.  0.
        2    1    3    3  502    0  0.73567328055E+01  0.12541553567E+03  0.12799291521E+03  0.17934705031E+03  0.25500000920E-02 0.  1.
       -2    1    3    3    0  502 -0.73567328055E+01 -0.12541553567E+03 -0.53254391637E+03  0.54716195132E+03  0.25500000920E-02 0. -1.
</event>
<event>
 5   0  0.5872632E-02  0.5992476E+03  0.7818609E-02  0.9906968E-01
       -2   -1    0    0    0  501  0.00000000000E+00  0.00000000000E+00  0.13737473231E+03  0.13737473234E+03  0.25500000920E-02 0.  1.
        2   -1    0    0  501    0  0.00000000000E+00  0.00000000000E+00 -0.65350032049E+03  0.65350032050E+03  0.25500000920E-02 0. -1.
    10030    2    1    2    0    0  0.00000000000E+00  0.00000000000E+00 -0.51612558818E+03  0.79087505284E+03  0.59924763364E+03 0.  0.
        1    1    3    3  502    0 -0.14164830628E+03  0.18663899379E+02  0.89522885824E+02  0.16860287935E+03  0.50400001928E-02 0.  1.
       -1    1    3    3    0  502  0.14164830628E+03 -0.18663899379E+02 -0.60564847400E+03  0.62227217349E+03  0.50400001928E-02 0. -1.
</event>
<event>
 5   0  0.2388000E-02  0.5949780E+03  0.7818609E-02  0.9915880E-01
        4   -1    0    0  501    0  0.00000000000E+00  0.00000000000E+00  0.22029984942E+03  0.22030351008E+03  0.12699999809E+01 0.  1.
       -4   -1    0    0    0  501  0.00000000000E+00  0.00000000000E+00 -0.40171579645E+03  0.40171780396E+03  0.12699999809E+01 0. -1.
    10030    2    1    2    0    0  0.00000000000E+00  0.00000000000E+00 -0.18141594703E+03  0.62202131404E+03  0.59497795697E+03 0.  0.
        5    1    3    3  502    0  0.35250001039E+02 -0.25699112242E+03 -0.24289444411E+03  0.35539668056E+03  0.46999998093E+01 0. -1.
       -5    1    3    3    0  502 -0.35250001039E+02  0.25699112242E+03  0.61478497077E+02  0.26662463348E+03  0.46999998093E+01 0.  1.
</event>
<event>
 5   0  0.2388000E-02  0.4846037E+03  0.7818609E-02  0.1017878E+00
       -3   -1    0    0    0  501  0.00000000000E+00  0.00000000000E+00  0.17323150169E+04  0.17323150198E+04  0.10100000352E+00 0.  1.
        3   -1    0    0  501    0  0.00000000000E+00  0.00000000000E+00 -0.33891093629E+02  0.33891244125E+02  0.10100000352E+00 0. -1.
    10030    2    1    2    0    0  0.00000000000E+00  0.00000000000E+00  0.16984239232E+04  0.17662062639E+04  0.48460369761E+03 0.  0.
        3    1    3    3  502    0  0.16252497228E+03  0.11387619425E+03  0.13559090365E+04  0.13703545088E+04  0.10100000352E+00 0.  1.
       -3    1    3    3    0  502 -0.16252497228E+03 -0.11387619425E+03  0.34251488670E+03  0.39585175513E+03  0.10100000352E+00 0. -1.
</event>
<event>
 5   0  0.6007360E-02  0.5894325E+03  0.7818609E-02  0.9927576E-01
        2   -1    0    0  501    0  0.00000000000E+00  0.00000000000E+00  0.10927082763E+03  0.10927082766E+03  0.25500000920E-02 0.  1.
       -2   -1    0    0    0  501  0.00000000000E+00  0.00000000000E+00 -0.79488427061E+03  0.79488427061E+03  0.25500000920E-02 0. -1.
    10030    2    1    2    0    0  0.00000000000E+00  0.00000000000E+00 -0.68561344297E+03  0.90415509828E+03  0.58943248006E+03 0.  0.
        4    1    3    3  502    0 -0.26261563429E+03  0.17959029055E+02 -0.13949981875E+03  0.29791158156E+03  0.12699999809E+01 0.  1.
       -4    1    3    3    0  502  0.26261563429E+03 -0.17959029055E+02 -0.54611362423E+03  0.60624351672E+03  0.12699999809E+01 0. -1.
</event>
<event>
 5   0  0.3767635E-02  0.5962098E+03  0.7818609E-02  0.9913301E-01
        1   -1    0    0  501    0  0.00000000000E+00  0.00000000000E+00  0.38448285127E+03  0.38448285130E+03  0.50400001928E-02 0. -1.
       -1   -1    0    0    0  501  0.00000000000E+00  0.00000000000E+00 -0.23113264747E+03  0.23113264753E+03  0.50400001928E-02 0.  1.
    10030    2    1    2    0    0  0.00000000000E+00  0.00000000000E+00  0.15335020380E+03  0.61561549883E+03  0.59620982665E+03 0.  0.
        2    1    3    3  502    0  0.17657508471E+03  0.91759729120E+02 -0.15251326884E+03  0.25071678366E+03  0.25500000920E-02 0.  1.
       -2    1    3    3    0  502 -0.17657508471E+03 -0.91759729120E+02  0.30586347264E+03  0.36489871517E+03  0.25500000920E-02 0. -1.
</event>
<event>
 5   0  0.2388000E-02  0.6037775E+03  0.7818609E-02  0.9897600E-01
        4   -1    0    0  501    0  0.00000000000E+00  0.00000000000E+00  0.36630649481E+03  0.36630869638E+03  0.12699999809E+01 0.  1.
       -4   -1    0    0    0  501  0.00000000000E+00  0.00000000000E+00 -0.24879480533E+03  0.24879804674E+03  0.12699999809E+01 0. -1.
    10030    2    1    2    0    0  0.00000000000E+00  0.00000000000E+00  0.11751168948E+03  0.61510674311E+03  0.60377753209E+03 0.  0.
        4    1    3    3  502    0  0.22492482626E+03 -0.15779172767E+03  0.18618609313E+03  0.33189799783E+03  0.12699999809E+01 0.  1.
       -4    1    3    3    0  502 -0.22492482626E+03  0.15779172767E+03 -0.68674403647E+02  0.28320874528E+03  0.12699999809E+01 0. -1.
</event>
<event>
 5   0  0.3640827E-02  0.6018654E+03  0.7818609E-02  0.9901544E-01
       -1   -1    0    0    0  501  0.00000000000E+00  0.00000000000E+00  0.21121599292E+03  0.21121599298E+03  0.50400001928E-02 0. -1.
        1   -1    0    0  501    0  0.00000000000E+00  0.00000000000E+00 -0.42875769246E+03  0.42875769249E+03  0.50400001928E-02 0.  1.
    10030    2    1    2    0    0  0.00000000000E+00  0.00000000000E+00 -0.21754169954E+03  0.63997368546E+03  0.60186537286E+03 0.  0.
        3    1    3    3  502    0 -0.44877720924E+02  0.29600872571E+03 -0.14111554839E+03  0.33098154590E+03  0.10100000352E+00 0. -1.
       -3    1    3    3    0  502  0.44877720924E+02 -0.29600872571E+03 -0.76426151153E+02  0.30899213956E+03  0.10100000352E+00 0.  1.
</event>
<event>
 5   0  0.3767635E-02  0.6016131E+03  0.7818609E-02  0.9902065E-01
        1   -1    0    0  501    0  0.00000000000E+00  0.00000000000E+00  0.20574376397E+04  0.20574376397E+04  0.50400001928E-02 0.  1.
       -1   -1    0    0    0  501  0.00000000000E+00  0.00000000000E+00 -0.43979259525E+02  0.43979259814E+02  0.50400001928E-02 0. -1.
    10030    2    1    2    0    0  0.00000000000E+00  0.00000000000E+00  0.20134583801E+04  0.21014168995E+04  0.60161311230E+03 0.  0.
        2    1    3    3  502    0 -0.25680985437E+03 -0.43761571066E+02  0.15320492949E+04  0.15540403529E+04  0.25500000920E-02 0.  1.
       -2    1    3    3    0  502  0.25680985437E+03  0.43761571066E+02  0.48140908526E+03  0.54737654661E+03  0.25500000920E-02 0. -1.
</event>
<event>
 5   0  0.3651984E-02  0.6011491E+03  0.7818609E-02  0.9903025E-01
       -1   -1    0    0    0  501  0.00000000000E+00  0.00000000000E+00  0.26337406531E+03  0.26337406536E+03  0.50400001928E-02 0. -1.
        1   -1    0    0  501    0  0.00000000000E+00  0.00000000000E+00 -0.34302949568E+03  0.34302949572E+03  0.50400001928E-02 0.  1.
    10030    2    1    2    0    0  0.00000000000E+00  0.00000000000E+00 -0.79655430373E+02  0.60640356108E+03  0.60114914231E+03 0.  0.
        1    1    3    3  502    0 -0.58673240394E+02 -0.13123811176E+03 -0.30610291569E+03  0.33817892621E+03  0.50400001928E-02 0.  1.
       -1    1    3    3    0  502  0.58673240394E+02  0.13123811176E+03  0.22644748532E+03  0.26822463486E+03  0.50400001928E-02 0. -1.
</event>
<event>
 5   0  0.3640827E-02  0.6063520E+03  0.7818609E-02  0.9892315E-01
        1   -1    0    0  501    0  0.00000000000E+00  0.00000000000E+00  0.71811236398E+03  0.71811236400E+03  0.50400001928E-02 0. -1.
       -1   -1    0    0    0  501  0.00000000000E+00  0.00000000000E+00 -0.12799626128E+03  0.12799626138E+03  0.50400001928E-02 0.  1.
    10030    2    1    2    0    0  0.00000000000E+00  0.00000000000E+00  0.59011610269E+03  0.84610862538E+03  0.60635203577E+03 0.  0.
        3    1    3    3  502    0  0.24604356144E+03  0.17713564499E+03  0.29351881729E+03  0.42198077819E+03  0.10100000352E+00 0. -1.
       -3    1    3    3    0  502 -0.24604356144E+03 -0.17713564499E+03  0.29659728540E+03  0.42412784719E+03  0.10100000352E+00 0.  1.
</event>
<event>
 5   0  0.3703280E-02  0.5965160E+03  0.7818609E-02  0.9912661E-01
       -1   -1    0    0    0  501  0.00000000000E+00  0.00000000000E+00  0.26921773903E+03  0.26921773908E+03  0.50400001928E-02 0.  1.
        1   -1    0    0  501    0  0.00000000000E+00  0.00000000000E+00 -0.33043077107E+03  0.33043077111E+03  0.50400001928E-02 0. -1.
    10030    2    1    2    0    0  0.00000000000E+00  0.00000000000E+00 -0.61213032039E+02  0.59964851019E+03  0.59651596834E+03 0.  0.
        5    1    3    3  502    0 -0.17473516163E+03  0.16012547580E+03 -0.21256310131E+03  0.31839866010E+03  0.46999998093E+01 0. -1.
       -5    1    3    3    0  502  0.17473516163E+03 -0.16012547580E+03  0.15135006927E+03  0.28124985010E+03  0.46999998093E+01 0.  1.
</event>
<event>
 5   0  0.3703280E-02  0.6061120E+03  0.7818609E-02  0.9892806E-01
       -1   -1    0    0    0  501  0.00000000000E+00  0.00000000000E+00  0.97874714206E+02  0.97874714336E+02  0.50400001928E-02 0.  1.
        1   -1    0    0  501    0  0.00000000000E+00  0.00000000000E+00 -0.93837254473E+03  0.93837254474E+03  0.50400001928E-02 0. -1.
    10030    2    1    2    0    0  0.00000000000E+00  0.00000000000E+00 -0.84049783052E+03  0.10362472591E+04  0.60611201839E+03 0.  0.
        5    1    3    3  502    0 -0.26095605849E+03  0.15338412637E+03 -0.44419030308E+03  0.53754243557E+03  0.46999998093E+01 0. -1.
       -5    1    3    3    0  502  0.26095605849E+03 -0.15338412637E+03 -0.39630752744E+03  0.49870482351E+03  0.46999998093E+01 0.  1.
</event>
<event>
 5   0  0.6007360E-02  0.6000135E+03  0.7818609E-02  0.9905378E-01
       -2   -1    0    0    0  501  0.00000000000E+00  0.00000000000E+00  0.69089495762E+02  0.69089495809E+02  0.25500000920E-02 0. -1.
        2   -1    0    0  501    0  0.00000000000E+00  0.00000000000E+00 -0.13027167504E+04  0.13027167504E+04  0.25500000920E-02 0.  1.
    10030    2    1    2    0    0  0.00000000000E+00  0.00000000000E+00 -0.12336272546E+04  0.13718062462E+04  0.60001347798E+03 0.  0.
        4    1    3    3  502    0 -0.29769639188E+03  0.62477741394E+00 -0.70171171585E+03  0.76224961604E+03  0.12699999809E+01 0.  1.
       -4    1    3    3    0  502  0.29769639188E+03 -0.62477741394E+00 -0.53191553880E+03  0.60955663018E+03  0.12699999809E+01 0. -1.
</event>
<event>
 5   0  0.3478183E-02  0.6014815E+03  0.7818609E-02  0.9902337E-01
        1   -1    0    0  501    0  0.00000000000E+00  0.00000000000E+00  0.36244682496E+03  0.36244682499E+03  0.50400001928E-02 0.  1.
       -1   -1    0    0    0  501  0.00000000000E+00  0.00000000000E+00 -0.24954007427E+03  0.24954007432E+03  0.50400001928E-02 0. -1.
    10030    2    1    2    0    0  0.00000000000E+00  0.00000000000E+00  0.11290675069E+03  0.61198689931E+03  0.60148152971E+03 0.  0.
        4    1    3    3  502    0  0.14881730968E+02 -0.27159048296E+03 -0.74086095488E+02  0.28190994802E+03  0.12699999809E+01 0. -1.
       -4    1    3    3    0  502 -0.14881730968E+02  0.27159048296E+03  0.18699284618E+03  0.33007695129E+03  0.12699999809E+01 0.  1.
</event>
<event>
 5   0  0.5935451E-02  0.5985041E+03  0.7818609E-02  0.9908515E-01
        2   -1    0    0  501    0  0.00000000000E+00  0.00000000000E+00  0.18157224868E+04  0.18157224868E+04  0.25500000920E-02 0. -1.
       -2   -1    0    0    0  501  0.00000000000E+00  0.00000000000E+00 -0.49320189653E+02  0.49320189719E+02  0.25500000920E-02 0.  1.
    10030    2    1    2    0    0  0.00000000000E+00  0.00000000000E+00  0.17664022972E+04  0.18650426766E+04  0.59850406004E+03 0.  0.
        3    1    3    3  502    0 -0.27587215257E+03  0.75643367652E+01  0.12437776518E+04  0.12740272843E+04  0.10100000352E+00 0. -1.
       -3    1    3    3    0  502  0.27587215257E+03 -0.75643367652E+01  0.52262464540E+03  0.59101539230E+03  0.10100000352E+00 0.  1.
</event>
<event>
 5   0  0.2388000E-02  0.6001022E+03  0.7818609E-02  0.9905194E-01
        3   -1    0    0  501    0  0.00000000000E+00  0.00000000000E+00  0.32435099520E+03  0.32435101093E+03  0.10100000352E+00 0. -1.
       -3   -1    0    0    0  501  0.00000000000E+00  0.00000000000E+00 -0.27757171351E+03  0.27757173189E+03  0.10100000352E+00 0.  1.
    10030    2    1    2    0    0  0.00000000000E+00  0.00000000000E+00  0.46779281692E+02  0.60192274282E+03  0.60010223056E+03 0.  0.
        5    1    3    3  502    0  0.39023212850E+02 -0.28053549659E+03 -0.75832677491E+02  0.29325016788E+03  0.46999998093E+01 0. -1.
       -5    1    3    3    0  502 -0.39023212850E+02  0.28053549659E+03  0.12261195918E+03  0.30867257494E+03  0.46999998093E+01 0.  1.
</event>
<event>
 5   0  0.5872632E-02  0.5913810E+03  0.7818609E-02  0.9923451E-01
        2   -1    0    0  501    0  0.00000000000E+00  0.00000000000E+00  0.83421592667E+03  0.83421592667E+03  0.25500000920E-02 0.  1.
       -2   -1    0    0    0  501  0.00000000000E+00  0.00000000000E+00 -0.10480842893E+03  0.10480842897E+03  0.25500000920E-02 0. -1.
    10030    2    1    2    0    0  0.00000000000E+00  0.00000000000E+00  0.72940749773E+03  0.93902435564E+03  0.59138096243E+03 0.  0.
        1    1    3    3  502    0 -0.18760678413E+03 -0.19447934803E+03  0.55534060786E+03  0.61759348525E+03  0.50400001928E-02 0.  1.
       -1    1    3    3    0  502  0.18760678413E+03  0.19447934803E+03  0.17406688988E+03  0.32143087039E+03  0.50400001928E-02 0. -1.
</event>
<event>
 5   0  0.3767635E-02  0.6089089E+03  0.7818609E-02  0.9887093E-01
       -1   -1    0    0    0  501  0.00000000000E+00  0.00000000000E+00  0.21739371696E+03  0.21739371701E+03  0.50400001928E-02 0. -1.
        1   -1    0    0  501    0  0.00000000000E+00  0.00000000000E+00 -0.42638079567E+03  0.42638079570E+03  0.50400001928E-02 0.  1.
    10030    2    1    2    0    0  0.00000000000E+00  0.00000000000E+00 -0.20898707871E+03  0.64377451271E+03  0.60890888001E+03 0.  0.
        2    1    3    3  502    0 -0.10769343456E+03 -0.21610999982E+03  0.91573455794E+02  0.25823846670E+03  0.25500000920E-02 0. -1.
       -2    1    3    3    0  502  0.10769343456E+03  0.21610999982E+03 -0.30056053451E+03  0.38553604602E+03  0.25500000920E-02 0.  1.
</event>
<event>
 5   0  0.5872632E-02  0.5771308E+03  0.7818609E-02  0.9954022E-01
       -2   -1    0    0    0  501  0.00000000000E+00  0.00000000000E+00  0.61871084104E+02  0.61871084157E+02  0.25500000920E-02 0. -1.
        2   -1    0    0  501    0  0.00000000000E+00  0.00000000000E+00 -0.13458626957E+04  0.13458626958E+04  0.25500000920E-02 0.  1.
    10030    2    1    2    0    0  0.00000000000E+00  0.00000000000E+00 -0.12839916116E+04  0.14077337799E+04  0.57713077922E+03 0.  0.
        1    1    3    3  502    0  0.16778531615E+03 -0.23041152991E+03 -0.75185701101E+03  0.80407111032E+03  0.50400001928E-02 0.  1.
       -1    1    3    3    0  502 -0.16778531615E+03  0.23041152991E+03 -0.53213460063E+03  0.60366266958E+03  0.50400001928E-02 0. -1.
</event>
<event>
 5   0  0.5872632E-02  0.5785615E+03  0.7818609E-02  0.9950910E-01
       -2   -1    0    0    0  501  0.00000000000E+00  0.00000000000E+00  0.80932830019E+02  0.80932830059E+02  0.25500000920E-02 0. -1.
        2   -1    0    0  501    0  0.00000000000E+00  0.00000000000E+00 -0.10339852670E+04  0.10339852670E+04  0.25500000920E-02 0.  1.
    10030    2    1    2    0    0  0.00000000000E+00  0.00000000000E+00 -0.95305243700E+03  0.11149180971E+04  0.57856150540E+03 0.  0.
        1    1    3    3  502    0  0.22008491018E+03 -0.10208981301E+03 -0.78014337226E+03  0.81699655992E+03  0.50400001928E-02 0.  1.
       -1    1    3    3    0  502 -0.22008491018E+03  0.10208981301E+03 -0.17290906474E+03  0.29792153716E+03  0.50400001928E-02 0. -1.
</event>
<event>
 5   0  0.3767635E-02  0.5964489E+03  0.7818609E-02  0.9912801E-01
       -1   -1    0    0    0  501  0.00000000000E+00  0.00000000000E+00  0.11644034410E+03  0.11644034421E+03  0.50400001928E-02 0.  1.
        1   -1    0    0  501    0  0.00000000000E+00  0.00000000000E+00 -0.76380582671E+03  0.76380582672E+03  0.50400001928E-02 0. -1.
    10030    2    1    2    0    0  0.00000000000E+00  0.00000000000E+00 -0.64736548261E+03  0.88024617093E+03  0.59644886904E+03 0.  0.
        2    1    3    3  502    0 -0.11988157026E+03  0.19839483045E+03 -0.60059201568E+03  0.64377237355E+03  0.25500000920E-02 0. -1.
       -2    1    3    3    0  502  0.11988157026E+03 -0.19839483045E+03 -0.46773466923E+02  0.23647379739E+03  0.25500000920E-02 0.  1.
</event>
<event>
 5   0  0.5872632E-02  0.6020754E+03  0.7818609E-02  0.9901110E-01
        2   -1    0    0  501    0  0.00000000000E+00  0.00000000000E+00  0.67300689102E+03  0.67300689102E+03  0.25500000920E-02 0.  1.
       -2   -1    0    0    0  501  0.00000000000E+00  0.00000000000E+00 -0.13465493782E+03  0.13465493784E+03  0.25500000920E-02 0. -1.
    10030    2    1    2    0    0  0.00000000000E+00  0.00000000000E+00  0.53835195320E+03  0.80766182886E+03  0.60207541412E+03 0.  0.
        1    1    3    3  502    0 -0.14390683776E+03 -0.46105522880E+02  0.61844305420E+03  0.63663703043E+03  0.50400001928E-02 0.  1.
       -1    1    3    3    0  502  0.14390683776E+03  0.46105522880E+02 -0.80091101002E+02  0.17102479843E+03  0.50400001928E-02 0. -1.
</event>
<event>
 5   0  0.3478183E-02  0.6041458E+03  0.7818609E-02  0.9896842E-01
        1   -1    0    0  501    0  0.00000000000E+00  0.00000000000E+00  0.54161441419E+03  0.54161441422E+03  0.50400001928E-02 0.  1.
       -1   -1    0    0    0  501  0.00000000000E+00  0.00000000000E+00 -0.16847415389E+03  0.16847415397E+03  0.50400001928E-02 0. -1.
    10030    2    1    2    0    0  0.00000000000E+00  0.00000000000E+00  0.37314026030E+03  0.71008856819E+03  0.60414577778E+03 0.  0.
        4    1    3    3  502    0  0.27717375515E+03  0.39259669765E+02  0.31996079025E+03  0.42513895659E+03  0.12699999809E+01 0.  1.
       -4    1    3    3    0  502 -0.27717375515E+03 -0.39259669765E+02  0.53179470051E+02  0.28494961160E+03  0.12699999809E+01 0. -1.
</event>
<event>
 5   0  0.2388000E-02  0.6134600E+03  0.7818609E-02  0.9877868E-01
        4   -1    0    0  501    0  0.00000000000E+00  0.00000000000E+00  0.90465682760E+02  0.90474596750E+02  0.12699999809E+01 0.  1.
       -4   -1    0    0    0  501  0.00000000000E+00  0.00000000000E+00 -0.10399281169E+04  0.10399288924E+04  0.12699999809E+01 0. -1.
    10030    2    1    2    0    0  0.00000000000E+00  0.00000000000E+00 -0.94946243415E+03  0.11304034891E+04  0.61345996969E+03 0.  0.
        1    1    3    3  502    0 -0.28901557714E+03 -0.10268769943E+03 -0.48010856963E+03  0.56971835683E+03  0.50400001928E-02 0. -1.
       -1    1    3    3    0  502  0.28901557714E+03  0.10268769943E+03 -0.46935386451E+03  0.56068513232E+03  0.50400001928E-02 0.  1.
</event>
<event>
 5   0  0.3478183E-02  0.6169930E+03  0.7818609E-02  0.9870765E-01
        1   -1    0    0  501    0  0.00000000000E+00  0.00000000000E+00  0.23760785502E+03  0.23760785508E+03  0.50400001928E-02 0.  1.
       -1   -1    0    0    0  501  0.00000000000E+00  0.00000000000E+00 -0.40053428499E+03  0.40053428503E+03  0.50400001928E-02 0. -1.
    10030    2    1    2    0    0  0.00000000000E+00  0.00000000000E+00 -0.16292642997E+03  0.63814214010E+03  0.61699300595E+03 0.  0.
        4    1    3    3  502    0 -0.22563514484E+03  0.19765933791E+03 -0.69661549198E+01  0.30005095012E+03  0.12699999809E+01 0. -1.
       -4    1    3    3    0  502  0.22563514484E+03 -0.19765933791E+03 -0.15596027505E+03  0.33809118998E+03  0.12699999809E+01 0.  1.
</event>
<event>
 5   0  0.5872632E-02  0.5986158E+03  0.7818609E-02  0.9908282E-01
        2   -1    0    0  501    0  0.00000000000E+00  0.00000000000E+00  0.31521870195E+03  0.31521870196E+03  0.25500000920E-02 0. -1.
       -2   -1    0    0    0  501  0.00000000000E+00  0.00000000000E+00 -0.28420020624E+03  0.28420020625E+03  0.25500000920E-02 0.  1.
    10030    2    1    2    0    0  0.00000000000E+00  0.00000000000E+00  0.31018495710E+02  0.59941890822E+03  0.59861580371E+03 0.  0.
        1    1    3    3  502    0  0.53125868597E+02 -0.11900177785E+03  0.28531728012E+03  0.31367137486E+03  0.50400001928E-02 0. -1.
       -1    1    3    3    0  502 -0.53125868597E+02  0.11900177785E+03 -0.25429878441E+03  0.28574753336E+03  0.50400001928E-02 0.  1.
</event>
<event>
 5   0  0.3651984E-02  0.5997353E+03  0.7818609E-02  0.9905955E-01
        1   -1    0    0  501    0  0.00000000000E+00  0.00000000000E+00  0.32148217537E+03  0.32148217541E+03  0.50400001928E-02 0. -1.
       -1   -1    0    0    0  501  0.00000000000E+00  0.00000000000E+00 -0.27970634452E+03  0.27970634457E+03  0.50400001928E-02 0.  1.
    10030    2    1    2    0    0  0.00000000000E+00  0.00000000000E+00  0.41775830852E+02  0.60118851998E+03  0.59973528870E+03 0.  0.
        1    1    3    3  502    0 -0.11463674658E+03 -0.10755857555E+03  0.27686951720E+03  0.31838209815E+03  0.50400001928E-02 0. -1.
       -1    1    3    3    0  502  0.11463674658E+03  0.10755857555E+03 -0.23509368635E+03  0.28280642183E+03  0.50400001928E-02 0.  1.
</event>
<event>
 5   0  0.3767635E-02  0.6010487E+03  0.7818609E-02  0.9903233E-01
       -1   -1    0    0    0  501  0.00000000000E+00  0.00000000000E+00  0.24881312796E+03  0.24881312801E+03  0.50400001928E-02 0.  1.
        1   -1    0    0  501    0  0.00000000000E+00  0.00000000000E+00 -0.36298284054E+03  0.36298284057E+03  0.50400001928E-02 0. -1.
    10030    2    1    2    0    0  0.00000000000E+00  0.00000000000E+00 -0.11416971258E+03  0.61179596859E+03  0.60104873672E+03 0.  0.
        2    1    3    3  502    0 -0.33724720727E+02  0.89953031172E+02  0.23276282976E+03  0.25180833888E+03  0.25500000920E-02 0.  1.
       -2    1    3    3    0  502  0.33724720727E+02 -0.89953031172E+02 -0.34693254234E+03  0.35998762971E+03  0.25500000920E-02 0. -1.
</event>
<event>
 5   0  0.5755078E-02  0.5957352E+03  0.7818609E-02  0.9914294E-01
       -2   -1    0    0    0  501  0.00000000000E+00  0.00000000000E+00  0.58500717452E+03  0.58500717453E+03  0.25500000920E-02 0. -1.
        2   -1    0    0  501    0  0.00000000000E+00  0.00000000000E+00 -0.15166497526E+03  0.15166497529E+03  0.25500000920E-02 0.  1.
    10030    2    1    2    0    0  0.00000000000E+00  0.00000000000E+00  0.43334219926E+03  0.73667214981E+03  0.59573517158E+03 0.  0.
        2    1    3    3  502    0  0.16479734598E+03 -0.11207155546E+03  0.49041826168E+03  0.52936591331E+03  0.25500000920E-02 0. -1.
       -2    1    3    3    0  502 -0.16479734598E+03  0.11207155546E+03 -0.57076062420E+02  0.20730623650E+03  0.25500000920E-02 0.  1.
</event>
<event>
 5   0  0.5755078E-02  0.6162442E+03  0.7818609E-02  0.9872266E-01
        2   -1    0    0  501    0  0.00000000000E+00  0.00000000000E+00  0.13320121976E+04  0.13320121976E+04  0.25500000920E-02 0. -1.
       -2   -1    0    0    0  501  0.00000000000E+00  0.00000000000E+00 -0.71275048840E+02  0.71275048886E+02  0.25500000920E-02 0.  1.
    10030    2    1    2    0    0  0.00000000000E+00  0.00000000000E+00  0.12607371488E+04  0.14032872465E+04  0.61624421936E+03 0.  0.
        2    1    3    3  502    0 -0.63740534366E+02 -0.40876590604E+01 -0.56034621411E+02  0.84967308308E+02  0.25500000920E-02 0.  1.
       -2    1    3    3    0  502  0.63740534366E+02  0.40876590604E+01  0.13167717702E+04  0.13183199382E+04  0.25500000920E-02 0. -1.
</event>
<event>
 5   0  0.5999117E-02  0.5992440E+03  0.7818609E-02  0.9906976E-01
        2   -1    0    0  501    0  0.00000000000E+00  0.00000000000E+00  0.70712815240E+03  0.70712815241E+03  0.25500000920E-02 0. -1.
       -2   -1    0    0    0  501  0.00000000000E+00  0.00000000000E+00 -0.12695484834E+03  0.12695484837E+03  0.25500000920E-02 0.  1.
    10030    2    1    2    0    0  0.00000000000E+00  0.00000000000E+00  0.58017330406E+03  0.83408300078E+03  0.59924401494E+03 0.  0.
        5    1    3    3  502    0 -0.17786523499E+03  0.31706899917E+02  0.62271650153E+03  0.64841290903E+03  0.46999998093E+01 0. -1.
       -5    1    3    3    0  502  0.17786523499E+03 -0.31706899917E+02 -0.42543197463E+02  0.18567009175E+03  0.46999998093E+01 0.  1.
</event>
<event>
 5   0  0.5872632E-02  0.5984957E+03  0.7818609E-02  0.9908532E-01
       -2   -1    0    0    0  501  0.00000000000E+00  0.00000000000E+00  0.18991118006E+03  0.18991118008E+03  0.25500000920E-02 0. -1.
        2   -1    0    0  501    0  0.00000000000E+00  0.00000000000E+00 -0.47153247034E+03  0.47153247035E+03  0.25500000920E-02 0.  1.
    10030    2    1    2    0    0  0.00000000000E+00  0.00000000000E+00 -0.28162129028E+03  0.66144365043E+03  0.59849574063E+03 0.  0.
        1    1    3    3  502    0  0.75800643411E+02  0.26930142161E+03 -0.23431211530E+02  0.28074546287E+03  0.50400001928E-02 0. -1.
       -1    1    3    3    0  502 -0.75800643411E+02 -0.26930142161E+03 -0.25819007875E+03  0.38069818756E+03  0.50400001928E-02 0.  1.
</event>
<event>
 5   0  0.3651984E-02  0.6004008E+03  0.7818609E-02  0.9904575E-01
       -1   -1    0    0    0  501  0.00000000000E+00  0.00000000000E+00  0.25088951783E+03  0.25088951788E+03  0.50400001928E-02 0.  1.
        1   -1    0    0  501    0  0.00000000000E+00  0.00000000000E+00 -0.35920303072E+03  0.35920303075E+03  0.50400001928E-02 0. -1.
    10030    2    1    2    0    0  0.00000000000E+00  0.00000000000E+00 -0.10831351289E+03  0.61009254863E+03  0.60040078349E+03 0.  0.
        1    1    3    3  502    0  0.18201083118E+03 -0.13358201937E+03  0.14689609641E+03  0.26935211477E+03  0.50400001928E-02 0.  1.
       -1    1    3    3    0  502 -0.18201083118E+03  0.13358201937E+03 -0.25520960930E+03  0.34074043386E+03  0.50400001928E-02 0. -1.
</event>
<event>
 5   0  0.6007360E-02  0.6170797E+03  0.7818609E-02  0.9870591E-01
       -2   -1    0    0    0  501  0.00000000000E+00  0.00000000000E+00  0.85435894611E+02  0.85435894649E+02  0.25500000920E-02 0.  1.
        2   -1    0    0  501    0  0.00000000000E+00  0.00000000000E+00 -0.11142486259E+04  0.11142486259E+04  0.25500000920E-02 0. -1.
    10030    2    1    2    0    0  0.00000000000E+00  0.00000000000E+00 -0.10288127313E+04  0.11996845206E+04  0.61707966487E+03 0.  0.
        4    1    3    3  502    0  0.15478180269E+03  0.26258861977E+03 -0.60733966532E+03  0.67953901407E+03  0.12699999809E+01 0. -1.
       -4    1    3    3    0  502 -0.15478180269E+03 -0.26258861977E+03 -0.42147306600E+03  0.52014550651E+03  0.12699999809E+01 0.  1.
</event>
<event>
 5   0  0.5999117E-02  0.6000066E+03  0.7818609E-02  0.9905392E-01
        2   -1    0    0  501    0  0.00000000000E+00  0.00000000000E+00  0.19669037216E+03  0.19669037217E+03  0.25500000920E-02 0. -1.
       -2   -1    0    0    0  501  0.00000000000E+00  0.00000000000E+00 -0.45758201231E+03  0.45758201232E+03  0.25500000920E-02 0.  1.
    10030    2    1    2    0    0  0.00000000000E+00  0.00000000000E+00 -0.26089164015E+03  0.65427238449E+03  0.60000658763E+03 0.  0.
        5    1    3    3  502    0  0.49083916305E+02  0.20524774649E+03  0.10201027234E+03  0.23444413821E+03  0.46999998093E+01 0. -1.
       -5    1    3    3    0  502 -0.49083916305E+02 -0.20524774649E+03 -0.36290191250E+03  0.41982824628E+03  0.46999998093E+01 0.  1.
</event>
<event>
 5   0  0.5872632E-02  0.6026537E+03  0.7818609E-02  0.9899916E-01
       -2   -1    0    0    0  501  0.00000000000E+00  0.00000000000E+00  0.42588480908E+02  0.42588480984E+02  0.25500000920E-02 0. -1.
        2   -1    0    0  501    0  0.00000000000E+00  0.00000000000E+00 -0.21319821117E+04  0.21319821117E+04  0.25500000920E-02 0.  1.
    10030    2    1    2    0    0  0.00000000000E+00  0.00000000000E+00 -0.20893936308E+04  0.21745705927E+04  0.60265372992E+03 0.  0.
        1    1    3    3  502    0 -0.15969509099E+03  0.97067015894E+02 -0.18976162781E+04  0.19067962834E+04  0.50400001928E-02 0.  1.
       -1    1    3    3    0  502  0.15969509099E+03 -0.97067015894E+02 -0.19177735274E+03  0.26777430928E+03  0.50400001928E-02 0. -1.
</event>
<event>
 5   0  0.3651984E-02  0.6026654E+03  0.7818609E-02  0.9899892E-01
       -1   -1    0    0    0  501  0.00000000000E+00  0.00000000000E+00  0.13832358512E+03  0.13832358521E+03  0.50400001928E-02 0.  1.
        1   -1    0    0  501    0  0.00000000000E+00  0.00000000000E+00 -0.65644180614E+03  0.65644180616E+03  0.50400001928E-02 0. -1.
    10030    2    1    2    0    0  0.00000000000E+00  0.00000000000E+00 -0.51811822102E+03  0.79476539138E+03  0.60266536019E+03 0.  0.
        1    1    3    3  502    0  0.58567957879E+02 -0.24822620469E+03 -0.47421474667E+02  0.25941328160E+03  0.50400001928E-02 0.  1.
       -1    1    3    3    0  502 -0.58567957879E+02  0.24822620469E+03 -0.47069674636E+03  0.53535210978E+03  0.50400001928E-02 0. -1.
</event>
<event>
 5   0  0.2388000E-02  0.5956054E+03  0.7818609E-02  0.9914566E-01
       -4   -1    0    0    0  501  0.00000000000E+00  0.00000000000E+00  0.10481994530E+04  0.10482002223E+04  0.12699999809E+01 0. -1.
        4   -1    0    0  501    0  0.00000000000E+00  0.00000000000E+00 -0.84602807035E+02  0.84612338688E+02  0.12699999809E+01 0.  1.
    10030    2    1    2    0    0  0.00000000000E+00  0.00000000000E+00  0.96359664592E+03  0.11328125610E+04  0.59560540826E+03 0.  0.
        4    1    3    3  502    0  0.24253217661E+03 -0.85801884068E+02  0.76709749013E+03  0.80908837111E+03  0.12699999809E+01 0. -1.
       -4    1    3    3    0  502 -0.24253217661E+03  0.85801884068E+02  0.19649915579E+03  0.32372418990E+03  0.12699999809E+01 0.  1.
</event>
<event>
 5   0  0.3767635E-02  0.5994395E+03  0.7818609E-02  0.9906569E-01
        1   -1    0    0  501    0  0.00000000000E+00  0.00000000000E+00  0.16848102801E+03  0.16848102809E+03  0.50400001928E-02 0.  1.
       -1   -1    0    0    0  501  0.00000000000E+00  0.00000000000E+00 -0.53318729359E+03  0.53318729361E+03  0.50400001928E-02 0. -1.
    10030    2    1    2    0    0  0.00000000000E+00  0.00000000000E+00 -0.36470626557E+03  0.70166832169E+03  0.59943954951E+03 0.  0.
        2    1    3    3  502    0  0.81519290842E+02  0.17380023015E+03  0.87074770121E+02  0.21079357290E+03  0.25500000920E-02 0.  1.
       -2    1    3    3    0  502 -0.81519290842E+02 -0.17380023015E+03 -0.45178103570E+03  0.49087474879E+03  0.25500000920E-02 0. -1.
</event>
<event>
 5   0  0.5755078E-02  0.6030756E+03  0.7818609E-02  0.9899046E-01
       -2   -1    0    0    0  501  0.00000000000E+00  0.00000000000E+00  0.20857690194E+03  0.20857690195E+03  0.25500000920E-02 0. -1.
        2   -1    0    0  501    0  0.00000000000E+00  0.00000000000E+00 -0.43593058902E+03  0.43593058902E+03  0.25500000920E-02 0.  1.
    10030    2    1    2    0    0  0.00000000000E+00  0.00000000000E+00 -0.22735368708E+03  0.64450749098E+03  0.60307562287E+03 0.  0.
        2    1    3    3  502    0 -0.74705961855E+02  0.10773945488E+03  0.17652275659E+03  0.21988418423E+03  0.25500000920E-02 0. -1.
       -2    1    3    3    0  502  0.74705961855E+02 -0.10773945488E+03 -0.40387644367E+03  0.42462330675E+03  0.25500000920E-02 0.  1.
</event>
<event>
 5   0  0.6007360E-02  0.6020001E+03  0.7818609E-02  0.9901265E-01
       -2   -1    0    0    0  501  0.00000000000E+00  0.00000000000E+00  0.46747500062E+03  0.46747500063E+03  0.25500000920E-02 0.  1.
        2   -1    0    0  501    0  0.00000000000E+00  0.00000000000E+00 -0.19380936871E+03  0.19380936873E+03  0.25500000920E-02 0. -1.
    10030    2    1    2    0    0  0.00000000000E+00  0.00000000000E+00  0.27366563191E+03  0.66128436936E+03  0.60200011550E+03 0.  0.
        4    1    3    3  502    0  0.19876481201E+03 -0.74288869918E+02 -0.97668960073E+02  0.23359607306E+03  0.12699999809E+01 0. -1.
       -4    1    3    3    0  502 -0.19876481201E+03  0.74288869918E+02  0.37133459199E+03  0.42768829630E+03  0.12699999809E+01 0.  1.
</event>
<event>
 5   0  0.5999117E-02  0.6571936E+03  0.7818609E-02  0.9793374E-01
       -2   -1    0    0    0  501  0.00000000000E+00  0.00000000000E+00  0.51414494186E+03  0.51414494186E+03  0.25500000920E-02 0. -1.
        2   -1    0    0  501    0  0.00000000000E+00  0.00000000000E+00 -0.21001054845E+03  0.21001054847E+03  0.25500000920E-02 0.  1.
    10030    2    1    2    0    0  0.00000000000E+00  0.00000000000E+00  0.30413439340E+03  0.72415549033E+03  0.65719361297E+03 0.  0.
        5    1    3    3  502    0 -0.22646489039E+03  0.43759422868E+02 -0.10576706057E+03  0.25379124250E+03  0.46999998093E+01 0.  1.
       -5    1    3    3    0  502  0.22646489039E+03 -0.43759422868E+02  0.40990145397E+03  0.47036424783E+03  0.46999998093E+01 0. -1.
</event>
<event>
 5   0  0.3478183E-02  0.6018357E+03  0.7818609E-02  0.9901605E-01
       -1   -1    0    0    0  501  0.00000000000E+00  0.00000000000E+00  0.43399565099E+03  0.43399565102E+03  0.50400001928E-02 0. -1.
        1   -1    0    0  501    0  0.00000000000E+00  0.00000000000E+00 -0.20864620966E+03  0.20864620972E+03  0.50400001928E-02 0.  1.
    10030    2    1    2    0    0  0.00000000000E+00  0.00000000000E+00  0.22534944134E+03  0.64264186074E+03  0.60183568394E+03 0.  0.
        4    1    3    3  502    0 -0.13959480727E+03 -0.73511226396E+02 -0.16093988785E+03  0.22537495651E+03  0.12699999809E+01 0.  1.
       -4    1    3    3    0  502  0.13959480727E+03  0.73511226396E+02  0.38628932919E+03  0.41726690423E+03  0.12699999809E+01 0. -1.
</event>
<event>
 5   0  0.3478183E-02  0.6793686E+03  0.7818609E-02  0.9753180E-01
       -1   -1    0    0    0  501  0.00000000000E+00  0.00000000000E+00  0.20710882923E+03  0.20710882929E+03  0.50400001928E-02 0.  1.
        1   -1    0    0  501    0  0.00000000000E+00  0.00000000000E+00 -0.55712458911E+03  0.55712458914E+03  0.50400001928E-02 0. -1.
    10030    2    1    2    0    0  0.00000000000E+00  0.00000000000E+00 -0.35001575988E+03  0.76423341843E+03  0.67936859338E+03 0.  0.
        4    1    3    3  502    0  0.30370922588E+03 -0.13889603083E+03 -0.24482897479E+03  0.41409448325E+03  0.12699999809E+01 0.  1.
       -4    1    3    3    0  502 -0.30370922588E+03  0.13889603083E+03 -0.10518678510E+03  0.35013893517E+03  0.12699999809E+01 0. -1.
</event>
<event>
 5   0  0.5755078E-02  0.5958740E+03  0.7818609E-02  0.9914003E-01
       -2   -1    0    0    0  501  0.00000000000E+00  0.00000000000E+00  0.96624033123E+02  0.96624033157E+02  0.25500000920E-02 0.  1.
        2   -1    0    0  501    0  0.00000000000E+00  0.00000000000E+00 -0.91867899672E+03  0.91867899673E+03  0.25500000920E-02 0. -1.
    10030    2    1    2    0    0  0.00000000000E+00  0.00000000000E+00 -0.82205496360E+03  0.10153030299E+04  0.59587404652E+03 0.  0.
        2    1    3    3  502    0 -0.50112760373E+02 -0.18004646925E+03 -0.80638270990E+03  0.82775666392E+03  0.25500000920E-02 0. -1.
       -2    1    3    3    0  502  0.50112760373E+02  0.18004646925E+03 -0.15672253703E+02  0.18754636596E+03  0.25500000920E-02 0.  1.
</event>
<event>
 5   0  0.5872632E-02  0.5538574E+03  0.7818609E-02  0.1000605E+00
        2   -1    0    0  501    0  0.00000000000E+00  0.00000000000E+00  0.88338099328E+03  0.88338099328E+03  0.25500000920E-02 0.  1.
       -2   -1    0    0    0  501  0.00000000000E+00  0.00000000000E+00 -0.86813637326E+02  0.86813637364E+02  0.25500000920E-02 0. -1.
    10030    2    1    2    0    0  0.00000000000E+00  0.00000000000E+00  0.79656735595E+03  0.97019463064E+03  0.55385744444E+03 0.  0.
        1    1    3    3  502    0 -0.13574287848E+03  0.21977056268E+03  0.57314107241E+03  0.62866200632E+03  0.50400001928E-02 0.  1.
       -1    1    3    3    0  502  0.13574287848E+03 -0.21977056268E+03  0.22342628354E+03  0.34153262433E+03  0.50400001928E-02 0. -1.
</event>
<event>
 5   0  0.5872632E-02  0.6004867E+03  0.7818609E-02  0.9904397E-01
       -2   -1    0    0    0  501  0.00000000000E+00  0.00000000000E+00  0.81886360606E+02  0.81886360646E+02  0.25500000920E-02 0. -1.
        2   -1    0    0  501    0  0.00000000000E+00  0.00000000000E+00 -0.11008677795E+04  0.11008677795E+04  0.25500000920E-02 0.  1.
    10030    2    1    2    0    0  0.00000000000E+00  0.00000000000E+00 -0.10189814189E+04  0.11827541401E+04  0.60048665596E+03 0.  0.
        1    1    3    3  502    0 -0.29344749009E+03  0.60247905574E+02 -0.46986106591E+03  0.55723483457E+03  0.50400001928E-02 0. -1.
       -1    1    3    3    0  502  0.29344749009E+03 -0.60247905574E+02 -0.54912035297E+03  0.62551930557E+03  0.50400001928E-02 0.  1.
</event>
<event>
 5   0  0.2388000E-02  0.5975258E+03  0.7818609E-02  0.9910553E-01
       -4   -1    0    0    0  501  0.00000000000E+00  0.00000000000E+00  0.31412857832E+03  0.31413114557E+03  0.12699999809E+01 0.  1.
        4   -1    0    0  501    0  0.00000000000E+00  0.00000000000E+00 -0.28414371993E+03  0.28414655810E+03  0.12699999809E+01 0. -1.
    10030    2    1    2    0    0  0.00000000000E+00  0.00000000000E+00  0.29984858387E+02  0.59827770366E+03  0.59752583122E+03 0.  0.
        3    1    3    3  502    0 -0.10836848569E+03 -0.27556443204E+03  0.54788947399E+02  0.30113339877E+03  0.10100000352E+00 0.  1.
       -3    1    3    3    0  502  0.10836848569E+03  0.27556443204E+03 -0.24804089013E+02  0.29714430489E+03  0.10100000352E+00 0. -1.
</event>
<event>
 5   0  0.5999117E-02  0.5868427E+03  0.7818609E-02  0.9933086E-01
       -2   -1    0    0    0  501  0.00000000000E+00  0.00000000000E+00  0.11159012781E+03  0.11159012784E+03  0.25500000920E-02 0.  1.
        2   -1    0    0  501    0  0.00000000000E+00  0.00000000000E+00 -0.77153862325E+03  0.77153862326E+03  0.25500000920E-02 0. -1.
    10030    2    1    2    0    0  0.00000000000E+00  0.00000000000E+00 -0.65994849544E+03  0.88312875110E+03  0.58684271690E+03 0.  0.
        5    1    3    3  502    0 -0.16858322684E+03  0.35525160494E+02 -0.68733738555E+03  0.70861633693E+03  0.46999998093E+01 0. -1.
       -5    1    3    3    0  502  0.16858322684E+03 -0.35525160494E+02  0.27388890109E+02  0.17451241417E+03  0.46999998093E+01 0.  1.
</event>
<event>
 5   0  0.3478183E-02  0.5975167E+03  0.7818609E-02  0.9910572E-01
       -1   -1    0    0    0  501  0.00000000000E+00  0.00000000000E+00  0.58062267932E+03  0.58062267934E+03  0.50400001928E-02 0.  1.
        1   -1    0    0  501    0  0.00000000000E+00  0.00000000000E+00 -0.15372554771E+03  0.15372554780E+03  0.50400001928E-02 0. -1.
    10030    2    1    2    0    0  0.00000000000E+00  0.00000000000E+00  0.42689713160E+03  0.73434822714E+03  0.59751665895E+03 0.  0.
        4    1    3    3  502    0 -0.12675705365E+03 -0.41158906545E+02  0.54206204510E+03  0.55820630584E+03  0.12699999809E+01 0.  1.
       -4    1    3    3    0  502  0.12675705365E+03  0.41158906545E+02 -0.11516491349E+03  0.17614192130E+03  0.12699999809E+01 0. -1.
</event>
<event>
 5   0  0.3651984E-02  0.6121575E+03  0.7818609E-02  0.9880499E-01
       -1   -1    0    0    0  501  0.00000000000E+00  0.00000000000E+00  0.34820689674E+03  0.34820689678E+03  0.50400001928E-02 0. -1.
        1   -1    0    0  501    0  0.00000000000E+00  0.00000000000E+00 -0.26904754142E+03  0.26904754147E+03  0.50400001928E-02 0.  1.
    10030    2    1    2    0    0  0.00000000000E+00  0.00000000000E+00  0.79159355320E+02  0.61725443825E+03  0.61215752712E+03 0.  0.
        1    1    3    3  502    0 -0.23246711626E+03 -0.12719585901E+03  0.19403622946E+03  0.32843538948E+03  0.50400001928E-02 0. -1.
       -1    1    3    3    0  502  0.23246711626E+03  0.12719585901E+03 -0.11487687414E+03  0.28881904877E+03  0.50400001928E-02 0.  1.
</event>
<event>
 5   0  0.3651984E-02  0.5922122E+03  0.7818609E-02  0.9921696E-01
        1   -1    0    0  501    0  0.00000000000E+00  0.00000000000E+00  0.63997216335E+03  0.63997216337E+03  0.50400001928E-02 0. -1.
       -1   -1    0    0    0  501  0.00000000000E+00  0.00000000000E+00 -0.13700410470E+03  0.13700410480E+03  0.50400001928E-02 0.  1.
    10030    2    1    2    0    0  0.00000000000E+00  0.00000000000E+00  0.50296805865E+03  0.77697626817E+03  0.59221216914E+03 0.  0.
        1    1    3    3  502    0 -0.25126234906E+02 -0.28461275495E+03  0.14949368184E+03  0.32246567088E+03  0.50400001928E-02 0. -1.
       -1    1    3    3    0  502  0.25126234906E+02  0.28461275495E+03  0.35347437681E+03  0.45451059729E+03  0.50400001928E-02 0.  1.
</event>
<event>
 5   0  0.2388000E-02  0.5212626E+03  0.7818609E-02  0.1008373E+00
        4   -1    0    0  501    0  0.00000000000E+00  0.00000000000E+00  0.42792855635E+02  0.42811696923E+02  0.12699999809E+01 0. -1.
       -4   -1    0    0    0  501  0.00000000000E+00  0.00000000000E+00 -0.15870152098E+04  0.15870157179E+04  0.12699999809E+01 0.  1.
    10030    2    1    2    0    0  0.00000000000E+00  0.00000000000E+00 -0.15442223541E+04  0.16298274148E+04  0.52126262400E+03 0.  0.
        3    1    3    3  502    0 -0.13367839608E+02 -0.79197433883E+02  0.31427456111E+01  0.80379224432E+02  0.10100000352E+00 0. -1.
       -3    1    3    3    0  502  0.13367839608E+02  0.79197433883E+02 -0.15473650997E+04  0.15494481904E+04  0.10100000352E+00 0.  1.
</event>
<event>
 5   0  0.2388000E-02  0.6043987E+03  0.7818609E-02  0.9896322E-01
       -3   -1    0    0    0  501  0.00000000000E+00  0.00000000000E+00  0.11977820971E+03  0.11977825229E+03  0.10100000352E+00 0.  1.
        3   -1    0    0  501    0  0.00000000000E+00  0.00000000000E+00 -0.76244596888E+03  0.76244597557E+03  0.10100000352E+00 0. -1.
    10030    2    1    2    0    0  0.00000000000E+00  0.00000000000E+00 -0.64266775917E+03  0.88222422787E+03  0.60439865945E+03 0.  0.
        4    1    3    3  502    0 -0.24764849054E+03  0.17081787231E+03 -0.27968070203E+03  0.41076931282E+03  0.12699999809E+01 0.  1.
       -4    1    3    3    0  502  0.24764849054E+03 -0.17081787231E+03 -0.36298705715E+03  0.47145491505E+03  0.12699999809E+01 0. -1.
</event>
<event>
 5   0  0.3651984E-02  0.6064483E+03  0.7818609E-02  0.9892117E-01
        1   -1    0    0  501    0  0.00000000000E+00  0.00000000000E+00  0.37171835074E+03  0.37171835077E+03  0.50400001928E-02 0.  1.
       -1   -1    0    0    0  501  0.00000000000E+00  0.00000000000E+00 -0.24735094221E+03  0.24735094226E+03  0.50400001928E-02 0. -1.
    10030    2    1    2    0    0  0.00000000000E+00  0.00000000000E+00  0.12436740853E+03  0.61906929303E+03  0.60644829728E+03 0.  0.
        1    1    3    3  502    0 -0.10497160363E+03  0.97389836802E+02 -0.21066346101E+03  0.25472124315E+03  0.50400001928E-02 0. -1.
       -1    1    3    3    0  502  0.10497160363E+03 -0.97389836802E+02  0.33503086954E+03  0.36434804988E+03  0.50400001928E-02 0.  1.
</event>
<event>
 5   0  0.5935451E-02  0.5935418E+03  0.7818609E-02  0.9918896E-01
        2   -1    0    0  501    0  0.00000000000E+00  0.00000000000E+00  0.31325956312E+03  0.31325956313E+03  0.25500000920E-02 0.  1.
       -2   -1    0    0    0  501  0.00000000000E+00  0.00000000000E+00 -0.28115015411E+03  0.28115015412E+03  0.25500000920E-02 0. -1.
    10030    2    1    2    0    0  0.00000000000E+00  0.00000000000E+00  0.32109409009E+02  0.59440971725E+03  0.59354182482E+03 0.  0.
        3    1    3    3  502    0  0.12291455642E+03  0.17008561416E+03 -0.19409936959E+03  0.28585254906E+03  0.10100000352E+00 0. -1.
       -3    1    3    3    0  502 -0.12291455642E+03 -0.17008561416E+03  0.22620877860E+03  0.30855716819E+03  0.10100000352E+00 0.  1.
</event>
<event>
 5   0  0.3651984E-02  0.5994988E+03  0.7818609E-02  0.9906446E-01
       -1   -1    0    0    0  501  0.00000000000E+00  0.00000000000E+00  0.19457220502E+03  0.19457220509E+03  0.50400001928E-02 0.  1.
        1   -1    0    0  501    0  0.00000000000E+00  0.00000000000E+00 -0.46178079164E+03  0.46178079167E+03  0.50400001928E-02 0. -1.
    10030    2    1    2    0    0  0.00000000000E+00  0.00000000000E+00 -0.26720858662E+03  0.65635299676E+03  0.59949881367E+03 0.  0.
        1    1    3    3  502    0  0.40651154932E+02 -0.97654788229E+01 -0.45857304268E+03  0.46047488148E+03  0.50400001928E-02 0. -1.
       -1    1    3    3    0  502 -0.40651154932E+02  0.97654788229E+01  0.19136445607E+03  0.19587811528E+03  0.50400001928E-02 0.  1.
</event>
<event>
 5   0  0.6007360E-02  0.6046376E+03  0.7818609E-02  0.9895831E-01
       -2   -1    0    0    0  501  0.00000000000E+00  0.00000000000E+00  0.41082638539E+03  0.41082638540E+03  0.25500000920E-02 0. -1.
        2   -1    0    0  501    0  0.00000000000E+00  0.00000000000E+00 -0.22247023823E+03  0.22247023825E+03  0.25500000920E-02 0.  1.
    10030    2    1    2    0    0  0.00000000000E+00  0.00000000000E+00  0.18835614716E+03  0.63329662364E+03  0.60463755701E+03 0.  0.
        4    1    3    3  502    0  0.99863088195E+02  0.24518269527E+03  0.24706902081E+03  0.36212139454E+03  0.12699999809E+01 0. -1.
       -4    1    3    3    0  502 -0.99863088195E+02 -0.24518269527E+03 -0.58712873649E+02  0.27117522910E+03  0.12699999809E+01 0.  1.
</event>
<event>
 5   0  0.5935451E-02  0.5840418E+03  0.7818609E-02  0.9939079E-01
        2   -1    0    0  501    0  0.00000000000E+00  0.00000000000E+00  0.52749390687E+03  0.52749390688E+03  0.25500000920E-02 0.  1.
       -2   -1    0    0    0  501  0.00000000000E+00  0.00000000000E+00 -0.16166294748E+03  0.16166294750E+03  0.25500000920E-02 0. -1.
    10030    2    1    2    0    0  0.00000000000E+00  0.00000000000E+00  0.36583095939E+03  0.68915685438E+03  0.58404184703E+03 0.  0.
        3    1    3    3  502    0 -0.23823493803E+03  0.13590173537E+03  0.64616864052E+02  0.28178097291E+03  0.10100000352E+00 0. -1.
       -3    1    3    3    0  502  0.23823493803E+03 -0.13590173537E+03  0.30121409534E+03  0.40737588147E+03  0.10100000352E+00 0.  1.
</event>
<event>
 5   0  0.5755078E-02  0.5918705E+03  0.7818609E-02  0.9922417E-01
       -2   -1    0    0    0  501  0.00000000000E+00  0.00000000000E+00  0.89086051384E+02  0.89086051421E+02  0.25500000920E-02 0. -1.
        2   -1    0    0  501    0  0.00000000000E+00  0.00000000000E+00 -0.98306829593E+03  0.98306829593E+03  0.25500000920E-02 0.  1.
    10030    2    1    2    0    0  0.00000000000E+00  0.00000000000E+00 -0.89398224454E+03  0.10721543474E+04  0.59187050187E+03 0.  0.
        2    1    3    3  502    0 -0.17810600318E+03 -0.10416291101E+03 -0.83128713864E+03  0.85651034277E+03  0.25500000920E-02 0.  1.
       -2    1    3    3    0  502  0.17810600318E+03  0.10416291101E+03 -0.62695105901E+02  0.21564400458E+03  0.25500000920E-02 0. -1.
</event>
<event>
 5   0  0.3703280E-02  0.5832662E+03  0.7818609E-02  0.9940745E-01
       -1   -1    0    0    0  501  0.00000000000E+00  0.00000000000E+00  0.14013365373E+04  0.14013365373E+04  0.50400001928E-02 0.  1.
        1   -1    0    0  501    0  0.00000000000E+00  0.00000000000E+00 -0.60691952625E+02  0.60691952834E+02  0.50400001928E-02 0. -1.
    10030    2    1    2    0    0  0.00000000000E+00  0.00000000000E+00  0.13406445847E+04  0.14620284901E+04  0.58326615157E+03 0.  0.
        5    1    3    3  502    0  0.76637759098E+02  0.15007088403E+03  0.12668414555E+04  0.12780078168E+04  0.46999998093E+01 0.  1.
       -5    1    3    3    0  502 -0.76637759098E+02 -0.15007088403E+03  0.73803129167E+02  0.18402067337E+03  0.46999998093E+01 0. -1.
</event>
<event>
 5   0  0.3651984E-02  0.5974758E+03  0.7818609E-02  0.9910657E-01
       -1   -1    0    0    0  501  0.00000000000E+00  0.00000000000E+00  0.10084765683E+04  0.10084765683E+04  0.50400001928E-02 0. -1.
        1   -1    0    0  501    0  0.00000000000E+00  0.00000000000E+00 -0.88494198509E+02  0.88494198653E+02  0.50400001928E-02 0.  1.
    10030    2    1    2    0    0  0.00000000000E+00  0.00000000000E+00  0.91998236977E+03  0.10969707669E+04  0.59747577595E+03 0.  0.
        1    1    3    3  502    0  0.12682680454E+03 -0.82596163759E+01  0.95636275655E+03  0.96477094781E+03  0.50400001928E-02 0. -1.
       -1    1    3    3    0  502 -0.12682680454E+03  0.82596163759E+01 -0.36380386774E+02  0.13219981913E+03  0.50400001928E-02 0.  1.
</event>
<event>
 5   0  0.6007360E-02  0.5982697E+03  0.7818609E-02  0.9909002E-01
       -2   -1    0    0    0  501  0.00000000000E+00  0.00000000000E+00  0.25384348814E+03  0.25384348815E+03  0.25500000920E-02 0. -1.
        2   -1    0    0  501    0  0.00000000000E+00  0.00000000000E+00 -0.35250723174E+03  0.35250723175E+03  0.25500000920E-02 0.  1.
    10030    2    1    2    0    0  0.00000000000E+00  0.00000000000E+00 -0.98663743603E+02  0.60635071990E+03  0.59826972280E+03 0.  0.
        4    1    3    3  502    0  0.19541477498E+03 -0.10557473753E+03 -0.25240568531E+03  0.33621897978E+03  0.12699999809E+01 0.  1.
       -4    1    3    3    0  502 -0.19541477498E+03  0.10557473753E+03  0.15374194171E+03  0.27013174013E+03  0.12699999809E+01 0. -1.
</event>
<event>
 5   0  0.6007360E-02  0.5955546E+03  0.7818609E-02  0.9914672E-01
       -2   -1    0    0    0  501  0.00000000000E+00  0.00000000000E+00  0.84126290988E+02  0.84126291026E+02  0.25500000920E-02 0. -1.
        2   -1    0    0  501    0  0.00000000000E+00  0.00000000000E+00 -0.10540262990E+04  0.10540262990E+04  0.25500000920E-02 0.  1.
    10030    2    1    2    0    0  0.00000000000E+00  0.00000000000E+00 -0.96990000800E+03  0.11381525900E+04  0.59555460929E+03 0.  0.
        4    1    3    3  502    0  0.15511369085E+03  0.20873174218E+03 -0.76215883587E+03  0.80530547079E+03  0.12699999809E+01 0.  1.
       -4    1    3    3    0  502 -0.15511369085E+03 -0.20873174218E+03 -0.20774117213E+03  0.33284711923E+03  0.12699999809E+01 0. -1.
</event>
<event>
 5   0  0.5999117E-02  0.6014823E+03  0.7818609E-02  0.9902335E-01
        2   -1    0    0  501    0  0.00000000000E+00  0.00000000000E+00  0.11668284342E+04  0.11668284342E+04  0.25500000920E-02 0.  1.
       -2   -1    0    0    0  501  0.00000000000E+00  0.00000000000E+00 -0.77513750541E+02  0.77513750583E+02  0.25500000920E-02 0. -1.
    10030    2    1    2    0    0  0.00000000000E+00  0.00000000000E+00  0.10893146836E+04  0.12443421847E+04  0.60148232957E+03 0.  0.
        5    1    3    3  502    0  0.59835882480E+02  0.84871637289E+01  0.11540591460E+04  0.11556500194E+04  0.46999998093E+01 0.  1.
       -5    1    3    3    0  502 -0.59835882480E+02 -0.84871637289E+01 -0.64744462424E+02  0.88692165343E+02  0.46999998093E+01 0. -1.
</event>
<event>
 5   0  0.5935451E-02  0.6023296E+03  0.7818609E-02  0.9900585E-01
        2   -1    0    0  501    0  0.00000000000E+00  0.00000000000E+00  0.11874780739E+03  0.11874780742E+03  0.25500000920E-02 0.  1.
       -2   -1    0    0    0  501  0.00000000000E+00  0.00000000000E+00 -0.76380560678E+03  0.76380560679E+03  0.25500000920E-02 0. -1.
    10030    2    1    2    0    0  0.00000000000E+00  0.00000000000E+00 -0.64505779939E+03  0.88255341421E+03  0.60232961440E+03 0.  0.
        3    1    3    3  502    0 -0.14674989678E+03  0.12266107309E+03  0.18335388615E+02  0.19213918844E+03  0.10100000352E+00 0.  1.
       -3    1    3    3    0  502  0.14674989678E+03 -0.12266107309E+03 -0.66339318800E+03  0.69041422577E+03  0.10100000352E+00 0. -1.
</event>
<event>
 5   0  0.2388000E-02  0.5971904E+03  0.7818609E-02  0.9911252E-01
        3   -1    0    0  501    0  0.00000000000E+00  0.00000000000E+00  0.13364009807E+03  0.13364013623E+03  0.10100000352E+00 0. -1.
       -3   -1    0    0    0  501  0.00000000000E+00  0.00000000000E+00 -0.66715814106E+03  0.66715814871E+03  0.10100000352E+00 0.  1.
    10030    2    1    2    0    0  0.00000000000E+00  0.00000000000E+00 -0.53351804300E+03  0.80079828494E+03  0.59719041433E+03 0.  0.
        3    1    3    3  502    0  0.91027986228E+02 -0.11562991420E+03  0.81635189850E+02  0.16828750921E+03  0.10100000352E+00 0. -1.
       -3    1    3    3    0  502 -0.91027986228E+02  0.11562991420E+03 -0.61515323285E+03  0.63251077573E+03  0.10100000352E+00 0.  1.
</event>
<event>
 5   0  0.6007360E-02  0.5956235E+03  0.7818609E-02  0.9914528E-01
       -2   -1    0    0    0  501  0.00000000000E+00  0.00000000000E+00  0.53873958484E+02  0.53873958544E+02  0.25500000920E-02 0.  1.
        2   -1    0    0  501    0  0.00000000000E+00  0.00000000000E+00 -0.16462839757E+04  0.16462839757E+04  0.25500000920E-02 0. -1.
    10030    2    1    2    0    0  0.00000000000E+00  0.00000000000E+00 -0.15924100172E+04  0.17001579343E+04  0.59562348716E+03 0.  0.
        4    1    3    3  502    0  0.20216076962E+03  0.69674623026E+02 -0.20452974874E+03  0.29590126882E+03  0.12699999809E+01 0.  1.
       -4    1    3    3    0  502 -0.20216076962E+03 -0.69674623026E+02 -0.13878802685E+04  0.14042566655E+04  0.12699999809E+01 0. -1.
</event>
<event>
 5   0  0.2388000E-02  0.6009150E+03  0.7818609E-02  0.9903510E-01
        3   -1    0    0  501    0  0.00000000000E+00  0.00000000000E+00  0.84478246674E+02  0.84478307051E+02  0.10100000352E+00 0.  1.
       -3   -1    0    0    0  501  0.00000000000E+00  0.00000000000E+00 -0.10686143559E+04  0.10686143607E+04  0.10100000352E+00 0. -1.
    10030    2    1    2    0    0  0.00000000000E+00  0.00000000000E+00 -0.98413610923E+03  0.11530926677E+04  0.60091498473E+03 0.  0.
        1    1    3    3  502    0  0.13639615525E+03  0.23020129552E+03 -0.22981642945E+03  0.35272104969E+03  0.50400001928E-02 0. -1.
       -1    1    3    3    0  502 -0.13639615525E+03 -0.23020129552E+03 -0.75431967978E+03  0.80037161804E+03  0.50400001928E-02 0.  1.
</event>
<event>
 5   0  0.3703280E-02  0.5987077E+03  0.7818609E-02  0.9908091E-01
        1   -1    0    0  501    0  0.00000000000E+00  0.00000000000E+00  0.36324599601E+03  0.36324599604E+03  0.50400001928E-02 0. -1.
       -1   -1    0    0    0  501  0.00000000000E+00  0.00000000000E+00 -0.24669979860E+03  0.24669979865E+03  0.50400001928E-02 0.  1.
    10030    2    1    2    0    0  0.00000000000E+00  0.00000000000E+00  0.11654619741E+03  0.60994579469E+03  0.59870765515E+03 0.  0.
        5    1    3    3  502    0 -0.15880496580E+03  0.12321771377E+03  0.28422210495E+03  0.34814640180E+03  0.46999998093E+01 0. -1.
       -5    1    3    3    0  502  0.15880496580E+03 -0.12321771377E+03 -0.16767590754E+03  0.26179939289E+03  0.46999998093E+01 0.  1.
</event>
<event>
 5   0  0.3767635E-02  0.6019513E+03  0.7818609E-02  0.9901366E-01
        1   -1    0    0  501    0  0.00000000000E+00  0.00000000000E+00  0.88579127850E+03  0.88579127851E+03  0.50400001928E-02 0.  1.
       -1   -1    0    0    0  501  0.00000000000E+00  0.00000000000E+00 -0.10226601959E+03  0.10226601971E+03  0.50400001928E-02 0. -1.
    10030    2    1    2    0    0  0.00000000000E+00  0.00000000000E+00  0.78352525891E+03  0.98805729822E+03  0.60195132131E+03 0.  0.
        2    1    3    3  502    0  0.23750507317E+02  0.27265193122E+03  0.59732229686E+03  0.65703659603E+03  0.25500000920E-02 0.  1.
       -2    1    3    3    0  502 -0.23750507317E+02 -0.27265193122E+03  0.18620296206E+03  0.33102070219E+03  0.25500000920E-02 0. -1.
</event>
<event>
 5   0  0.2388000E-02  0.6014136E+03  0.7818609E-02  0.9902478E-01
        3   -1    0    0  501    0  0.00000000000E+00  0.00000000000E+00  0.11173723576E+04  0.11173723622E+04  0.10100000352E+00 0.  1.
       -3   -1    0    0    0  501  0.00000000000E+00  0.00000000000E+00 -0.80926058377E+02  0.80926121404E+02  0.10100000352E+00 0. -1.
    10030    2    1    2    0    0  0.00000000000E+00  0.00000000000E+00  0.10364462992E+04  0.11982984836E+04  0.60141360522E+03 0.  0.
        4    1    3    3  502    0 -0.74174312949E+02  0.24370863416E+03  0.19988132445E+03  0.32380531779E+03  0.12699999809E+01 0. -1.
       -4    1    3    3    0  502  0.74174312949E+02 -0.24370863416E+03  0.83656497477E+03  0.87449316577E+03  0.12699999809E+01 0.  1.
</event>
<event>
 5   0  0.6007360E-02  0.6031797E+03  0.7818609E-02  0.9898831E-01
        2   -1    0    0  501    0  0.00000000000E+00  0.00000000000E+00  0.20668929524E+04  0.20668929524E+04  0.25500000920E-02 0. -1.
       -2   -1    0    0    0  501  0.00000000000E+00  0.00000000000E+00 -0.44006359705E+02  0.44006359779E+02  0.25500000920E-02 0.  1.
    10030    2    1    2    0    0  0.00000000000E+00  0.00000000000E+00  0.20228865927E+04  0.21108993121E+04  0.60317969068E+03 0.  0.
        4    1    3    3  502    0  0.21812220778E+03 -0.11439167887E+03  0.40234796447E+03  0.47175019993E+03  0.12699999809E+01 0.  1.
       -4    1    3    3    0  502 -0.21812220778E+03  0.11439167887E+03  0.16205386282E+04  0.16391491122E+04  0.12699999809E+01 0. -1.
</event>
<event>
 5   0  0.5935451E-02  0.5976178E+03  0.7818609E-02  0.9910361E-01
        2   -1    0    0  501    0  0.00000000000E+00  0.00000000000E+00  0.94809746365E+03  0.94809746366E+03  0.25500000920E-02 0. -1.
       -2   -1    0    0    0  501  0.00000000000E+00  0.00000000000E+00 -0.94174671044E+02  0.94174671078E+02  0.25500000920E-02 0.  1.
    10030    2    1    2    0    0  0.00000000000E+00  0.00000000000E+00  0.85392279261E+03  0.10422721347E+04  0.59761782697E+03 0.  0.
        3    1    3    3  502    0 -0.11370670935E+03 -0.23952411639E+03  0.66727111236E+03  0.71801933517E+03  0.10100000352E+00 0. -1.
       -3    1    3    3    0  502  0.11370670935E+03  0.23952411639E+03  0.18665168025E+03  0.32425279956E+03  0.10100000352E+00 0.  1.
</event>
<event>
 5   0  0.3703280E-02  0.6037187E+03  0.7818609E-02  0.9897721E-01
        1   -1    0    0  501    0  0.00000000000E+00  0.00000000000E+00  0.42534314410E+03  0.42534314413E+03  0.50400001928E-02 0.  1.
       -1   -1    0    0    0  501  0.00000000000E+00  0.00000000000E+00 -0.21422481802E+03  0.21422481808E+03  0.50400001928E-02 0. -1.
    10030    2    1    2    0    0  0.00000000000E+00  0.00000000000E+00  0.21111832608E+03  0.63956796221E+03  0.60371866849E+03 0.  0.
        5    1    3    3  502    0 -0.10265690103E+03  0.77135233204E+02  0.39492468621E+03  0.41530215663E+03  0.46999998093E+01 0.  1.
       -5    1    3    3    0  502  0.10265690103E+03 -0.77135233204E+02 -0.18380636013E+03  0.22426580558E+03  0.46999998093E+01 0. -1.
</event>
<event>
 5   0  0.5755078E-02  0.5850969E+03  0.7818609E-02  0.9936817E-01
        2   -1    0    0  501    0  0.00000000000E+00  0.00000000000E+00  0.60803405082E+03  0.60803405082E+03  0.25500000920E-02 0.  1.
       -2   -1    0    0    0  501  0.00000000000E+00  0.00000000000E+00 -0.14075625311E+03  0.14075625314E+03  0.25500000920E-02 0. -1.
    10030    2    1    2    0    0  0.00000000000E+00  0.00000000000E+00  0.46727779770E+03  0.74879030396E+03  0.58509689717E+03 0.  0.
        2    1    3    3  502    0  0.10579307826E+03 -0.12244333549E+03 -0.78268601715E+02  0.17975127214E+03  0.25500000920E-02 0. -1.
       -2    1    3    3    0  502 -0.10579307826E+03  0.12244333549E+03  0.54554639942E+03  0.56903903182E+03  0.25500000920E-02 0.  1.
</event>
<event>
 5   0  0.2388000E-02  0.6121701E+03  0.7818609E-02  0.9880474E-01
       -3   -1    0    0    0  501  0.00000000000E+00  0.00000000000E+00  0.37118590760E+03  0.37118592134E+03  0.10100000352E+00 0. -1.
        3   -1    0    0  501    0  0.00000000000E+00  0.00000000000E+00 -0.25240191519E+03  0.25240193540E+03  0.10100000352E+00 0.  1.
    10030    2    1    2    0    0  0.00000000000E+00  0.00000000000E+00  0.11878399241E+03  0.62358785674E+03  0.61217005662E+03 0.  0.
        3    1    3    3  502    0 -0.35597845423E+02  0.30223274295E+03  0.25974691126E+02  0.30542844054E+03  0.10100000352E+00 0. -1.
       -3    1    3    3    0  502  0.35597845423E+02 -0.30223274295E+03  0.92809301288E+02  0.31815941620E+03  0.10100000352E+00 0.  1.
</event>
<event>
 5   0  0.6007360E-02  0.6002879E+03  0.7818609E-02  0.9904809E-01
       -2   -1    0    0    0  501  0.00000000000E+00  0.00000000000E+00  0.12702710037E+03  0.12702710039E+03  0.25500000920E-02 0.  1.
        2   -1    0    0  501    0  0.00000000000E+00  0.00000000000E+00 -0.70919034904E+03  0.70919034904E+03  0.25500000920E-02 0. -1.
    10030    2    1    2    0    0  0.00000000000E+00  0.00000000000E+00 -0.58216324867E+03  0.83621744943E+03  0.60028790979E+03 0.  0.
        4    1    3    3  502    0  0.53529773956E+02  0.63954898669E+02 -0.69272093017E+03  0.69772456296E+03  0.12699999809E+01 0. -1.
       -4    1    3    3    0  502 -0.53529773956E+02 -0.63954898669E+02  0.11055768150E+03  0.13849288647E+03  0.12699999809E+01 0.  1.
</event>
<event>
 5   0  0.3651984E-02  0.5953459E+03  0.7818609E-02  0.9915109E-01
       -1   -1    0    0    0  501  0.00000000000E+00  0.00000000000E+00  0.22629126071E+03  0.22629126077E+03  0.50400001928E-02 0.  1.
        1   -1    0    0  501    0  0.00000000000E+00  0.00000000000E+00 -0.39157143747E+03  0.39157143750E+03  0.50400001928E-02 0. -1.
    10030    2    1    2    0    0  0.00000000000E+00  0.00000000000E+00 -0.16528017675E+03  0.61786269827E+03  0.59534593061E+03 0.  0.
        1    1    3    3  502    0 -0.12475844759E+03  0.23131873564E+03 -0.22769828090E+03  0.34773486287E+03  0.50400001928E-02 0. -1.
       -1    1    3    3    0  502  0.12475844759E+03 -0.23131873564E+03  0.62418104151E+02  0.27012783540E+03  0.50400001928E-02 0.  1.
</event>
<event>
 5   0  0.5755078E-02  0.6009851E+03  0.7818609E-02  0.9903364E-01
        2   -1    0    0  501    0  0.00000000000E+00  0.00000000000E+00  0.33063491491E+03  0.33063491492E+03  0.25500000920E-02 0. -1.
       -2   -1    0    0    0  501  0.00000000000E+00  0.00000000000E+00 -0.27309815867E+03  0.27309815868E+03  0.25500000920E-02 0.  1.
    10030    2    1    2    0    0  0.00000000000E+00  0.00000000000E+00  0.57536756241E+02  0.60373307360E+03  0.60098514611E+03 0.  0.
        2    1    3    3  502    0 -0.14883973375E+03 -0.25852234482E+03  0.65109987692E+02  0.30532995205E+03  0.25500000920E-02 0.  1.
       -2    1    3    3    0  502  0.14883973375E+03  0.25852234482E+03 -0.75732314512E+01  0.29840312156E+03  0.25500000920E-02 0. -1.
</event>
<event>
 5   0  0.3703280E-02  0.5962889E+03  0.7818609E-02  0.9913135E-01
        1   -1    0    0  501    0  0.00000000000E+00  0.00000000000E+00  0.74383821488E+03  0.74383821490E+03  0.50400001928E-02 0.  1.
       -1   -1    0    0    0  501  0.00000000000E+00  0.00000000000E+00 -0.11950195032E+03  0.11950195042E+03  0.50400001928E-02 0. -1.
    10030    2    1    2    0    0  0.00000000000E+00  0.00000000000E+00  0.62433626456E+03  0.86334016532E+03  0.59628891471E+03 0.  0.
        5    1    3    3  502    0 -0.23556702320E+03 -0.15000704055E+03  0.46314893439E+03  0.54085391749E+03  0.46999998093E+01 0.  1.
       -5    1    3    3    0  502  0.23556702320E+03  0.15000704055E+03  0.16118733017E+03  0.32248624783E+03  0.46999998093E+01 0. -1.
</event>
<event>
 5   0  0.2388000E-02  0.5948046E+03  0.7818609E-02  0.9916244E-01
        3   -1    0    0  501    0  0.00000000000E+00  0.00000000000E+00  0.27032400789E+03  0.27032402676E+03  0.10100000352E+00 0.  1.
       -3   -1    0    0    0  501  0.00000000000E+00  0.00000000000E+00 -0.32719295867E+03  0.32719297426E+03  0.10100000352E+00 0. -1.
    10030    2    1    2    0    0  0.00000000000E+00  0.00000000000E+00 -0.56868950781E+02  0.59751700102E+03  0.59480458047E+03 0.  0.
        2    1    3    3  502    0 -0.18047028340E+03  0.21617742157E+03 -0.12450489682E+03  0.30790204632E+03  0.25500000920E-02 0. -1.
       -2    1    3    3    0  502  0.18047028340E+03 -0.21617742157E+03  0.67635946038E+02  0.28961495471E+03  0.25500000920E-02 0.  1.
</event>
<event>
 5   0  0.3651984E-02  0.6033781E+03  0.7818609E-02  0.9898422E-01
        1   -1    0    0  501    0  0.00000000000E+00  0.00000000000E+00  0.66591610693E+03  0.66591610695E+03  0.50400001928E-02 0. -1.
       -1   -1    0    0    0  501  0.00000000000E+00  0.00000000000E+00 -0.13667832244E+03  0.13667832254E+03  0.50400001928E-02 0.  1.
    10030    2    1    2    0    0  0.00000000000E+00  0.00000000000E+00  0.52923778449E+03  0.80259442949E+03  0.60337814487E+03 0.  0.
        1    1    3    3  502    0 -0.16925653957E+03  0.16765872674E+03  0.18415314125E+02  0.23894842259E+03  0.50400001928E-02 0.  1.
       -1    1    3    3    0  502  0.16925653957E+03 -0.16765872674E+03  0.51082247037E+03  0.56364600690E+03  0.50400001928E-02 0. -1.
</event>
<event>
 5   0  0.5999117E-02  0.5993168E+03  0.7818609E-02  0.9906825E-01
       -2   -1    0    0    0  501  0.00000000000E+00  0.00000000000E+00  0.62743891061E+02  0.62743891112E+02  0.25500000920E-02 0. -1.
        2   -1    0    0  501    0  0.00000000000E+00  0.00000000000E+00 -0.14311376391E+04  0.14311376391E+04  0.25500000920E-02 0.  1.
    10030    2    1    2    0    0  0.00000000000E+00  0.00000000000E+00 -0.13683937481E+04  0.14938815303E+04  0.59931675820E+03 0.  0.
        5    1    3    3  502    0 -0.28852511659E+03  0.77325995328E+02 -0.74249493052E+03  0.80034171721E+03  0.46999998093E+01 0.  1.
       -5    1    3    3    0  502  0.28852511659E+03 -0.77325995328E+02 -0.62589881756E+03  0.69353981305E+03  0.46999998093E+01 0. -1.
</event>
<event>
 5   0  0.3703280E-02  0.5979727E+03  0.7818609E-02  0.9909621E-01
        1   -1    0    0  501    0  0.00000000000E+00  0.00000000000E+00  0.11139588929E+04  0.11139588929E+04  0.50400001928E-02 0.  1.
       -1   -1    0    0    0  501  0.00000000000E+00  0.00000000000E+00 -0.80247881417E+02  0.80247881575E+02  0.50400001928E-02 0. -1.
    10030    2    1    2    0    0  0.00000000000E+00  0.00000000000E+00  0.10337110114E+04  0.11942067744E+04  0.59797271255E+03 0.  0.
        5    1    3    3  502    0 -0.27601839455E+03  0.94788179510E+02  0.64627877697E+03  0.70913278070E+03  0.46999998093E+01 0.  1.
       -5    1    3    3    0  502  0.27601839455E+03 -0.94788179510E+02  0.38743223448E+03  0.48507399375E+03  0.46999998093E+01 0. -1.
</event>
<event>
 5   0  0.5935451E-02  0.6134438E+03  0.7818609E-02  0.9877900E-01
        2   -1    0    0  501    0  0.00000000000E+00  0.00000000000E+00  0.97194633673E+03  0.97194633673E+03  0.25500000920E-02 0. -1.
       -2   -1    0    0    0  501  0.00000000000E+00  0.00000000000E+00 -0.96793757156E+02  0.96793757190E+02  0.25500000920E-02 0.  1.
    10030    2    1    2    0    0  0.00000000000E+00  0.00000000000E+00  0.87515257957E+03  0.10687400939E+04  0.61344384488E+03 0.  0.
        3    1    3    3  502    0  0.61904338867E+02 -0.28703540112E+03  0.59200276695E+03  0.66082429960E+03  0.10100000352E+00 0. -1.
       -3    1    3    3    0  502 -0.61904338867E+02  0.28703540112E+03  0.28314981262E+03  0.40791579432E+03  0.10100000352E+00 0.  1.
</event>
<event>
 5   0  0.3651984E-02  0.6003529E+03  0.7818609E-02  0.9904674E-01
        1   -1    0    0  501    0  0.00000000000E+00  0.00000000000E+00  0.58503985742E+03  0.58503985745E+03  0.50400001928E-02 0.  1.
       -1   -1    0    0    0  501  0.00000000000E+00  0.00000000000E+00 -0.15401669877E+03  0.15401669885E+03  0.50400001928E-02 0. -1.
    10030    2    1    2    0    0  0.00000000000E+00  0.00000000000E+00  0.43102315866E+03  0.73905655629E+03  0.60035292129E+03 0.  0.
        1    1    3    3  502    0 -0.11589964212E+03 -0.25303738592E+03  0.77080068707E+02  0.28879401436E+03  0.50400001928E-02 0. -1.
       -1    1    3    3    0  502  0.11589964212E+03  0.25303738592E+03  0.35394308995E+03  0.45026254193E+03  0.50400001928E-02 0.  1.
</event>
<event>
 5   0  0.3640827E-02  0.5991115E+03  0.7818609E-02  0.9907251E-01
        1   -1    0    0  501    0  0.00000000000E+00  0.00000000000E+00  0.28474318960E+03  0.28474318964E+03  0.50400001928E-02 0.  1.
       -1   -1    0    0    0  501  0.00000000000E+00  0.00000000000E+00 -0.31513883397E+03  0.31513883401E+03  0.50400001928E-02 0. -1.
    10030    2    1    2    0    0  0.00000000000E+00  0.00000000000E+00 -0.30395644366E+02  0.59988202365E+03  0.59911146467E+03 0.  0.
        3    1    3    3  502    0 -0.48044928312E+02 -0.18761447319E+03  0.21362645665E+03  0.28834662972E+03  0.10100000352E+00 0.  1.
       -3    1    3    3    0  502  0.48044928312E+02  0.18761447319E+03 -0.24402210102E+03  0.31153539393E+03  0.10100000352E+00 0. -1.
</event>
<event>
 5   0  0.5935451E-02  0.5648415E+03  0.7818609E-02  0.9981159E-01
       -2   -1    0    0    0  501  0.00000000000E+00  0.00000000000E+00  0.11796351225E+03  0.11796351227E+03  0.25500000920E-02 0. -1.
        2   -1    0    0  501    0  0.00000000000E+00  0.00000000000E+00 -0.67615391371E+03  0.67615391372E+03  0.25500000920E-02 0.  1.
    10030    2    1    2    0    0  0.00000000000E+00  0.00000000000E+00 -0.55819040147E+03  0.79411742599E+03  0.56484153705E+03 0.  0.
        3    1    3    3  502    0 -0.22183373086E+03  0.40568866955E+02 -0.51812272663E+03  0.56507274502E+03  0.10100000352E+00 0.  1.
       -3    1    3    3    0  502  0.22183373086E+03 -0.40568866955E+02 -0.40067674835E+02  0.22904468097E+03  0.10100000352E+00 0. -1.
</event>
<event>
 5   0  0.5999117E-02  0.6012438E+03  0.7818609E-02  0.9902829E-01
        2   -1    0    0  501    0  0.00000000000E+00  0.00000000000E+00  0.90467784969E+03  0.90467784969E+03  0.25500000920E-02 0. -1.
       -2   -1    0    0    0  501  0.00000000000E+00  0.00000000000E+00 -0.99895804555E+02  0.99895804587E+02  0.25500000920E-02 0.  1.
    10030    2    1    2    0    0  0.00000000000E+00  0.00000000000E+00  0.80478204513E+03  0.10045736543E+04  0.60124378309E+03 0.  0.
        5    1    3    3  502    0 -0.23296183504E+03  0.18233632410E+02  0.86486720733E+02  0.24921020203E+03  0.46999998093E+01 0.  1.
       -5    1    3    3    0  502  0.23296183504E+03 -0.18233632410E+02  0.71829532440E+03  0.75536345224E+03  0.46999998093E+01 0. -1.
</event>
<event>
 5   0  0.5999117E-02  0.5950352E+03  0.7818609E-02  0.9915760E-01
        2   -1    0    0  501    0  0.00000000000E+00  0.00000000000E+00  0.14246729506E+04  0.14246729506E+04  0.25500000920E-02 0.  1.
       -2   -1    0    0    0  501  0.00000000000E+00  0.00000000000E+00 -0.62131255979E+02  0.62131256031E+02  0.25500000920E-02 0. -1.
    10030    2    1    2    0    0  0.00000000000E+00  0.00000000000E+00  0.13625416947E+04  0.14868042067E+04  0.59503519164E+03 0.  0.
        5    1    3    3  502    0 -0.63063709507E+02 -0.72914768754E+02 -0.21925421558E+02  0.98976810759E+02  0.46999998093E+01 0. -1.
       -5    1    3    3    0  502  0.63063709507E+02  0.72914768754E+02  0.13844671162E+04  0.13878273959E+04  0.46999998093E+01 0.  1.
</event>
<event>
 5   0  0.3478183E-02  0.6021374E+03  0.7818609E-02  0.9900981E-01
       -1   -1    0    0    0  501  0.00000000000E+00  0.00000000000E+00  0.21858137039E+03  0.21858137045E+03  0.50400001928E-02 0.  1.
        1   -1    0    0  501    0  0.00000000000E+00  0.00000000000E+00 -0.41468481531E+03  0.41468481534E+03  0.50400001928E-02 0. -1.
    10030    2    1    2    0    0  0.00000000000E+00  0.00000000000E+00 -0.19610344492E+03  0.63326618579E+03  0.60213744357E+03 0.  0.
        4    1    3    3  502    0  0.35853572312E+02  0.52782276922E+02 -0.40748901663E+03  0.41245649344E+03  0.12699999809E+01 0. -1.
       -4    1    3    3    0  502 -0.35853572312E+02 -0.52782276922E+02  0.21138557172E+03  0.22080969235E+03  0.12699999809E+01 0.  1.
</event>
<event>
 5   0  0.3703280E-02  0.6014978E+03  0.7818609E-02  0.9902303E-01
        1   -1    0    0  501    0  0.00000000000E+00  0.00000000000E+00  0.89145511225E+02  0.89145511367E+02  0.50400001928E-02 0.  1.
       -1   -1    0    0    0  501  0.00000000000E+00  0.00000000000E+00 -0.10146323045E+04  0.10146323045E+04  0.50400001928E-02 0. -1.
    10030    2    1    2    0    0  0.00000000000E+00  0.00000000000E+00 -0.92548679331E+03  0.11037778159E+04  0.60149784897E+03 0.  0.
        5    1    3    3  502    0 -0.23850612947E+03  0.78205812608E+02 -0.76664486489E+03  0.80670177996E+03  0.46999998093E+01 0. -1.
       -5    1    3    3    0  502  0.23850612947E+03 -0.78205812608E+02 -0.15884192842E+03  0.29707603596E+03  0.46999998093E+01 0.  1.
</event>
<event>
 5   0  0.3767635E-02  0.5961911E+03  0.7818609E-02  0.9913340E-01
        1   -1    0    0  501    0  0.00000000000E+00  0.00000000000E+00  0.48951683105E+03  0.48951683107E+03  0.50400001928E-02 0. -1.
       -1   -1    0    0    0  501  0.00000000000E+00  0.00000000000E+00 -0.18152790506E+03  0.18152790513E+03  0.50400001928E-02 0.  1.
    10030    2    1    2    0    0  0.00000000000E+00  0.00000000000E+00  0.30798892598E+03  0.67104473621E+03  0.59619112662E+03 0.  0.
        2    1    3    3  502    0 -0.50048948758E+02 -0.83822363356E+02 -0.16302385835E+03  0.19002069431E+03  0.25500000920E-02 0.  1.
       -2    1    3    3    0  502  0.50048948758E+02  0.83822363356E+02  0.47101278433E+03  0.48102404189E+03  0.25500000920E-02 0. -1.
</event>
<event>
 5   0  0.3651984E-02  0.6048762E+03  0.7818609E-02  0.9895341E-01
        1   -1    0    0  501    0  0.00000000000E+00  0.00000000000E+00  0.71820673033E+03  0.71820673035E+03  0.50400001928E-02 0.  1.
       -1   -1    0    0    0  501  0.00000000000E+00  0.00000000000E+00 -0.12735722661E+03  0.12735722671E+03  0.50400001928E-02 0. -1.
    10030    2    1    2    0    0  0.00000000000E+00  0.00000000000E+00  0.59084950372E+03  0.84556395706E+03  0.60487624307E+03 0.  0.
        1    1    3    3  502    0  0.19507951655E+03  0.23036724871E+03  0.32134199646E+03  0.44089201146E+03  0.50400001928E-02 0.  1.
       -1    1    3    3    0  502 -0.19507951655E+03 -0.23036724871E+03  0.26950750726E+03  0.40467194560E+03  0.50400001928E-02 0. -1.
</event>
<event>
 5   0  0.2388000E-02  0.5898703E+03  0.7818609E-02  0.9926648E-01
        3   -1    0    0  501    0  0.00000000000E+00  0.00000000000E+00  0.30560705655E+03  0.30560707324E+03  0.10100000352E+00 0. -1.
       -3   -1    0    0    0  501  0.00000000000E+00  0.00000000000E+00 -0.28463585213E+03  0.28463587005E+03  0.10100000352E+00 0.  1.
    10030    2    1    2    0    0  0.00000000000E+00  0.00000000000E+00  0.20971204415E+02  0.59024294329E+03  0.58987027445E+03 0.  0.
        4    1    3    3  502    0 -0.26869916483E+03 -0.72372263241E+02 -0.87290698995E+02  0.29164750076E+03  0.12699999809E+01 0.  1.
       -4    1    3    3    0  502  0.26869916483E+03  0.72372263241E+02  0.10826190341E+03  0.29859544253E+03  0.12699999809E+01 0. -1.
</event>
<event>
 5   0  0.3478183E-02  0.5988243E+03  0.7818609E-02  0.9907848E-01
       -1   -1    0    0    0  501  0.00000000000E+00  0.00000000000E+00  0.28740840826E+03  0.28740840830E+03  0.50400001928E-02 0. -1.
        1   -1    0    0  501    0  0.00000000000E+00  0.00000000000E+00 -0.31191720670E+03  0.31191720674E+03  0.50400001928E-02 0.  1.
    10030    2    1    2    0    0  0.00000000000E+00  0.00000000000E+00 -0.24508798439E+02  0.59932561504E+03  0.59882427443E+03 0.  0.
        4    1    3    3  502    0  0.67500888617E+02  0.12555821799E+03  0.25126202548E+03  0.28888657708E+03  0.12699999809E+01 0. -1.
       -4    1    3    3    0  502 -0.67500888617E+02 -0.12555821799E+03 -0.27577082392E+03  0.31043903797E+03  0.12699999809E+01 0.  1.
</event>
<event>
 5   0  0.5935451E-02  0.5902618E+03  0.7818609E-02  0.9925818E-01
        2   -1    0    0  501    0  0.00000000000E+00  0.00000000000E+00  0.98699788411E+03  0.98699788411E+03  0.25500000920E-02 0. -1.
       -2   -1    0    0    0  501  0.00000000000E+00  0.00000000000E+00 -0.88249679912E+02  0.88249679949E+02  0.25500000920E-02 0.  1.
    10030    2    1    2    0    0  0.00000000000E+00  0.00000000000E+00  0.89874820419E+03  0.10752475641E+04  0.59026179740E+03 0.  0.
        3    1    3    3  502    0 -0.18027057842E+03  0.21484014820E+03  0.28193660126E+03  0.39767075333E+03  0.10100000352E+00 0.  1.
       -3    1    3    3    0  502  0.18027057842E+03 -0.21484014820E+03  0.61681160293E+03  0.67757681073E+03  0.10100000352E+00 0. -1.
</event>
<event>
 5   0  0.5999117E-02  0.5966175E+03  0.7818609E-02  0.9912449E-01
       -2   -1    0    0    0  501  0.00000000000E+00  0.00000000000E+00  0.58346935715E+02  0.58346935771E+02  0.25500000920E-02 0. -1.
        2   -1    0    0  501    0  0.00000000000E+00  0.00000000000E+00 -0.15251549801E+04  0.15251549801E+04  0.25500000920E-02 0.  1.
    10030    2    1    2    0    0  0.00000000000E+00  0.00000000000E+00 -0.14668080444E+04  0.15835019159E+04  0.59661753117E+03 0.  0.
        5    1    3    3  502    0  0.36446502953E+02  0.64110442728E+02  0.33670238757E+02  0.81205119423E+02  0.46999998093E+01 0. -1.
       -5    1    3    3    0  502 -0.36446502953E+02 -0.64110442728E+02 -0.15004782832E+04  0.15022967965E+04  0.46999998093E+01 0.  1.
</event>
<event>
 5   0  0.5999117E-02  0.6321196E+03  0.7818609E-02  0.9840921E-01
        2   -1    0    0  501    0  0.00000000000E+00  0.00000000000E+00  0.15362355389E+04  0.15362355389E+04  0.25500000920E-02 0.  1.
       -2   -1    0    0    0  501  0.00000000000E+00  0.00000000000E+00 -0.65025059713E+02  0.65025059763E+02  0.25500000920E-02 0. -1.
    10030    2    1    2    0    0  0.00000000000E+00  0.00000000000E+00  0.14712104791E+04  0.16012605986E+04  0.63211963326E+03 0.  0.
        5    1    3    3  502    0  0.30647611236E+03 -0.76844987824E+02  0.75141632044E+03  0.81515724631E+03  0.46999998093E+01 0. -1.
       -5    1    3    3    0  502 -0.30647611236E+03  0.76844987824E+02  0.71979415871E+03  0.78610335231E+03  0.46999998093E+01 0.  1.
</event>
<event>
 5   0  0.3651984E-02  0.5822671E+03  0.7818609E-02  0.9942895E-01
       -1   -1    0    0    0  501  0.00000000000E+00  0.00000000000E+00  0.31813206885E+03  0.31813206889E+03  0.50400001928E-02 0. -1.
        1   -1    0    0  501    0  0.00000000000E+00  0.00000000000E+00 -0.26642623818E+03  0.26642623823E+03  0.50400001928E-02 0.  1.
    10030    2    1    2    0    0  0.00000000000E+00  0.00000000000E+00  0.51705830664E+02  0.58455830712E+03  0.58226705342E+03 0.  0.
        1    1    3    3  502    0  0.92807286865E+02  0.60247216237E+02  0.29620017588E+03  0.31619213111E+03  0.50400001928E-02 0. -1.
       -1    1    3    3    0  502 -0.92807286865E+02 -0.60247216237E+02 -0.24449434521E+03  0.26836617601E+03  0.50400001928E-02 0.  1.
</event>
<event>
 5   0  0.5872632E-02  0.6207208E+03  0.7818609E-02  0.9863326E-01
        2   -1    0    0  501    0  0.00000000000E+00  0.00000000000E+00  0.29070686242E+03  0.29070686243E+03  0.25500000920E-02 0.  1.
       -2   -1    0    0    0  501  0.00000000000E+00  0.00000000000E+00 -0.33134266210E+03  0.33134266211E+03  0.25500000920E-02 0. -1.
    10030    2    1    2    0    0  0.00000000000E+00  0.00000000000E+00 -0.40635799688E+02  0.62204952454E+03  0.62072082514E+03 0.  0.
        1    1    3    3  502    0 -0.17300346542E+03 -0.21951734863E+03  0.11489875684E+03  0.30219164407E+03  0.50400001928E-02 0.  1.
       -1    1    3    3    0  502  0.17300346542E+03  0.21951734863E+03 -0.15553455653E+03  0.31985788047E+03  0.50400001928E-02 0. -1.
</event>
<event>
 5   0  0.5872632E-02  0.5901926E+03  0.7818609E-02  0.9925965E-01
       -2   -1    0    0    0  501  0.00000000000E+00  0.00000000000E+00  0.97171125086E+02  0.97171125120E+02  0.25500000920E-02 0.  1.
        2   -1    0    0  501    0  0.00000000000E+00  0.00000000000E+00 -0.89616977107E+03  0.89616977107E+03  0.25500000920E-02 0. -1.
    10030    2    1    2    0    0  0.00000000000E+00  0.00000000000E+00 -0.79899864598E+03  0.99334089619E+03  0.59019259549E+03 0.  0.
        1    1    3    3  502    0 -0.34905995211E+02  0.28865717602E+03 -0.48433104322E+03  0.56490526039E+03  0.50400001928E-02 0.  1.
       -1    1    3    3    0  502  0.34905995211E+02 -0.28865717602E+03 -0.31466760277E+03  0.42843563580E+03  0.50400001928E-02 0. -1.
</event>
<event>
 5   0  0.3651984E-02  0.5992000E+03  0.7818609E-02  0.9907067E-01
       -1   -1    0    0    0  501  0.00000000000E+00  0.00000000000E+00  0.16419818566E+03  0.16419818574E+03  0.50400001928E-02 0.  1.
        1   -1    0    0  501    0  0.00000000000E+00  0.00000000000E+00 -0.54665751180E+03  0.54665751183E+03  0.50400001928E-02 0. -1.
    10030    2    1    2    0    0  0.00000000000E+00  0.00000000000E+00 -0.38245932614E+03  0.71085569757E+03  0.59920003889E+03 0.  0.
        1    1    3    3  502    0  0.78606296967E+02 -0.94015277171E+02  0.13310471778E+03  0.18092730083E+03  0.50400001928E-02 0.  1.
       -1    1    3    3    0  502 -0.78606296967E+02  0.94015277171E+02 -0.51556404392E+03  0.52992839674E+03  0.50400001928E-02 0. -1.
</event>
<event>
 5   0  0.6007360E-02  0.6037574E+03  0.7818609E-02  0.9897641E-01
       -2   -1    0    0    0  501  0.00000000000E+00  0.00000000000E+00  0.86441934813E+02  0.86441934851E+02  0.25500000920E-02 0. -1.
        2   -1    0    0  501    0  0.00000000000E+00  0.00000000000E+00 -0.10542424596E+04  0.10542424596E+04  0.25500000920E-02 0.  1.
    10030    2    1    2    0    0  0.00000000000E+00  0.00000000000E+00 -0.96780052477E+03  0.11406843944E+04  0.60375742808E+03 0.  0.
        4    1    3    3  502    0 -0.44162064602E+02  0.28311775448E+03 -0.66336666865E+03  0.72260840074E+03  0.12699999809E+01 0. -1.
       -4    1    3    3    0  502  0.44162064602E+02 -0.28311775448E+03 -0.30443385612E+03  0.41807599369E+03  0.12699999809E+01 0.  1.
</event>
<event>
 5   0  0.3767635E-02  0.6132583E+03  0.7818609E-02  0.9878275E-01
        1   -1    0    0  501    0  0.00000000000E+00  0.00000000000E+00  0.14591010084E+03  0.14591010092E+03  0.50400001928E-02 0. -1.
       -1   -1    0    0    0  501  0.00000000000E+00  0.00000000000E+00 -0.64437922728E+03  0.64437922730E+03  0.50400001928E-02 0.  1.
    10030    2    1    2    0    0  0.00000000000E+00  0.00000000000E+00 -0.49846912644E+03  0.79028932822E+03  0.61325830796E+03 0.  0.
        2    1    3    3  502    0 -0.14087279124E+03 -0.70983468899E+02  0.89609560470E+02  0.18142124877E+03  0.25500000920E-02 0. -1.
       -2    1    3    3    0  502  0.14087279124E+03  0.70983468899E+02 -0.58807868691E+03  0.60886807945E+03  0.25500000920E-02 0.  1.
</event>
<event>
 5   0  0.5755078E-02  0.5954263E+03  0.7818609E-02  0.9914941E-01
       -2   -1    0    0    0  501  0.00000000000E+00  0.00000000000E+00  0.43007438740E+03  0.43007438741E+03  0.25500000920E-02 0.  1.
        2   -1    0    0  501    0  0.00000000000E+00  0.00000000000E+00 -0.20608788077E+03  0.20608788079E+03  0.25500000920E-02 0. -1.
    10030    2    1    2    0    0  0.00000000000E+00  0.00000000000E+00  0.22398650663E+03  0.63616226819E+03  0.59542629797E+03 0.  0.
        2    1    3    3  502    0  0.20931736936E+03 -0.43214401191E+02 -0.10943393768E+03  0.24011878791E+03  0.25500000920E-02 0. -1.
       -2    1    3    3    0  502 -0.20931736936E+03  0.43214401191E+02  0.33342044431E+03  0.39604348028E+03  0.25500000920E-02 0.  1.
</event>
<event>
 5   0  0.3651984E-02  0.5947417E+03  0.7818609E-02  0.9916376E-01
       -1   -1    0    0    0  501  0.00000000000E+00  0.00000000000E+00  0.50246037862E+03  0.50246037865E+03  0.50400001928E-02 0. -1.
        1   -1    0    0  501    0  0.00000000000E+00  0.00000000000E+00 -0.17599283120E+03  0.17599283127E+03  0.50400001928E-02 0.  1.
    10030    2    1    2    0    0  0.00000000000E+00  0.00000000000E+00  0.32646754742E+03  0.67845320992E+03  0.59474170741E+03 0.  0.
        1    1    3    3  502    0 -0.26126330269E+03  0.11593546538E+02  0.32470771546E+03  0.41692688106E+03  0.50400001928E-02 0. -1.
       -1    1    3    3    0  502  0.26126330269E+03 -0.11593546538E+02  0.17598319635E+01  0.26152632886E+03  0.50400001928E-02 0.  1.
</event>
<event>
 5   0  0.5755078E-02  0.6007648E+03  0.7818609E-02  0.9903821E-01
       -2   -1    0    0    0  501  0.00000000000E+00  0.00000000000E+00  0.10354860175E+03  0.10354860178E+03  0.25500000920E-02 0. -1.
        2   -1    0    0  501    0  0.00000000000E+00  0.00000000000E+00 -0.87137435019E+03  0.87137435019E+03  0.25500000920E-02 0.  1.
    10030    2    1    2    0    0  0.00000000000E+00  0.00000000000E+00 -0.76782574843E+03  0.97492295197E+03  0.60076483113E+03 0.  0.
        2    1    3    3  502    0 -0.18562115151E+03 -0.20395802344E+03 -0.57712532751E+03  0.63963093334E+03  0.25500000920E-02 0.  1.
       -2    1    3    3    0  502  0.18562115151E+03  0.20395802344E+03 -0.19070042092E+03  0.33529201864E+03  0.25500000920E-02 0. -1.
</event>
<event>
 5   0  0.5999117E-02  0.6050088E+03  0.7818609E-02  0.9895069E-01
        2   -1    0    0  501    0  0.00000000000E+00  0.00000000000E+00  0.30074055352E+03  0.30074055353E+03  0.25500000920E-02 0. -1.
       -2   -1    0    0    0  501  0.00000000000E+00  0.00000000000E+00 -0.30427860939E+03  0.30427860941E+03  0.25500000920E-02 0.  1.
    10030    2    1    2    0    0  0.00000000000E+00  0.00000000000E+00 -0.35380558760E+01  0.60501916293E+03  0.60500881785E+03 0.  0.
        5    1    3    3  502    0 -0.13534122178E+03  0.26381491942E+03  0.57992092649E+02  0.30216010794E+03  0.46999998093E+01 0. -1.
       -5    1    3    3    0  502  0.13534122178E+03 -0.26381491942E+03 -0.61530148525E+02  0.30285905500E+03  0.46999998093E+01 0.  1.
</event>
<event>
 5   0  0.5999117E-02  0.5995922E+03  0.7818609E-02  0.9906252E-01
       -2   -1    0    0    0  501  0.00000000000E+00  0.00000000000E+00  0.14232424529E+03  0.14232424531E+03  0.25500000920E-02 0.  1.
        2   -1    0    0  501    0  0.00000000000E+00  0.00000000000E+00 -0.63149959952E+03  0.63149959953E+03  0.25500000920E-02 0. -1.
    10030    2    1    2    0    0  0.00000000000E+00  0.00000000000E+00 -0.48917535424E+03  0.77382384484E+03  0.59959220780E+03 0.  0.
        5    1    3    3  502    0 -0.28849497926E+03  0.74717709203E+02 -0.28627821640E+03  0.41326673748E+03  0.46999998093E+01 0.  1.
       -5    1    3    3    0  502  0.28849497926E+03 -0.74717709203E+02 -0.20289713784E+03  0.36055710736E+03  0.46999998093E+01 0. -1.
</event>
<event>
 5   0  0.5999117E-02  0.5958010E+03  0.7818609E-02  0.9914156E-01
       -2   -1    0    0    0  501  0.00000000000E+00  0.00000000000E+00  0.69277516413E+02  0.69277516460E+02  0.25500000920E-02 0.  1.
        2   -1    0    0  501    0  0.00000000000E+00  0.00000000000E+00 -0.12810029014E+04  0.12810029014E+04  0.25500000920E-02 0. -1.
    10030    2    1    2    0    0  0.00000000000E+00  0.00000000000E+00 -0.12117253850E+04  0.13502804179E+04  0.59580097201E+03 0.  0.
        5    1    3    3  502    0  0.23689170803E+03  0.30242917570E+02 -0.10093091416E+04  0.10371881934E+04  0.46999998093E+01 0. -1.
       -5    1    3    3    0  502 -0.23689170803E+03 -0.30242917570E+02 -0.20241624348E+03  0.31309222446E+03  0.46999998093E+01 0.  1.
</event>
<event>
 5   0  0.3651984E-02  0.6018722E+03  0.7818609E-02  0.9901529E-01
       -1   -1    0    0    0  501  0.00000000000E+00  0.00000000000E+00  0.72784762557E+02  0.72784762732E+02  0.50400001928E-02 0.  1.
        1   -1    0    0  501    0  0.00000000000E+00  0.00000000000E+00 -0.12442514688E+04  0.12442514689E+04  0.50400001928E-02 0. -1.
    10030    2    1    2    0    0  0.00000000000E+00  0.00000000000E+00 -0.11714667063E+04  0.13170362316E+04  0.60187223841E+03 0.  0.
        1    1    3    3  502    0  0.15744191086E+02 -0.20422060821E+03 -0.10328589972E+03  0.22939466750E+03  0.50400001928E-02 0.  1.
       -1    1    3    3    0  502 -0.15744191086E+02  0.20422060821E+03 -0.10681808066E+04  0.10876415641E+04  0.50400001928E-02 0. -1.
</event>
<event>
 5   0  0.2388000E-02  0.6487211E+03  0.7818609E-02  0.9809182E-01
        3   -1    0    0  501    0  0.00000000000E+00  0.00000000000E+00  0.42926751256E+03  0.42926752444E+03  0.10100000352E+00 0. -1.
       -3   -1    0    0    0  501  0.00000000000E+00  0.00000000000E+00 -0.24509135382E+03  0.24509137463E+03  0.10100000352E+00 0.  1.
    10030    2    1    2    0    0  0.00000000000E+00  0.00000000000E+00  0.18417615874E+03  0.67435889907E+03  0.64872110133E+03 0.  0.
        5    1    3    3  502    0  0.18514000035E+03  0.12793024879E+03 -0.15068994948E+03  0.27087362212E+03  0.46999998093E+01 0.  1.
       -5    1    3    3    0  502 -0.18514000035E+03 -0.12793024879E+03  0.33486610822E+03  0.40348527696E+03  0.46999998093E+01 0. -1.
</event>
<event>
 5   0  0.3651984E-02  0.6019246E+03  0.7818609E-02  0.9901421E-01
        1   -1    0    0  501    0  0.00000000000E+00  0.00000000000E+00  0.84623617542E+03  0.84623617543E+03  0.50400001928E-02 0. -1.
       -1   -1    0    0    0  501  0.00000000000E+00  0.00000000000E+00 -0.10703665897E+03  0.10703665909E+03  0.50400001928E-02 0.  1.
    10030    2    1    2    0    0  0.00000000000E+00  0.00000000000E+00  0.73919951644E+03  0.95327283452E+03  0.60192455668E+03 0.  0.
        1    1    3    3  502    0 -0.18858215295E+03  0.91925014323E+02  0.71134642626E+03  0.74163816976E+03  0.50400001928E-02 0. -1.
       -1    1    3    3    0  502  0.18858215295E+03 -0.91925014323E+02  0.27853090183E+02  0.21163466476E+03  0.50400001928E-02 0.  1.
</event>
<event>
 5   0  0.3640827E-02  0.5581446E+03  0.7818609E-02  0.9996262E-01
        1   -1    0    0  501    0  0.00000000000E+00  0.00000000000E+00  0.49499812135E+03  0.49499812138E+03  0.50400001928E-02 0.  1.
       -1   -1    0    0    0  501  0.00000000000E+00  0.00000000000E+00 -0.15733667773E+03  0.15733667781E+03  0.50400001928E-02 0. -1.
    10030    2    1    2    0    0  0.00000000000E+00  0.00000000000E+00  0.33766144362E+03  0.65233479919E+03  0.55814464051E+03 0.  0.
        3    1    3    3  502    0  0.65013457927E+02 -0.26577845261E+03  0.10464044145E+03  0.29294123603E+03  0.10100000352E+00 0. -1.
       -3    1    3    3    0  502 -0.65013457927E+02  0.26577845261E+03  0.23302100217E+03  0.35939356316E+03  0.10100000352E+00 0.  1.
</event>
<event>
 5   0  0.5872632E-02  0.5956060E+03  0.7818609E-02  0.9914564E-01
        2   -1    0    0  501    0  0.00000000000E+00  0.00000000000E+00  0.15100402667E+04  0.15100402667E+04  0.25500000920E-02 0.  1.
       -2   -1    0    0    0  501  0.00000000000E+00  0.00000000000E+00 -0.58731294632E+02  0.58731294687E+02  0.25500000920E-02 0. -1.
    10030    2    1    2    0    0  0.00000000000E+00  0.00000000000E+00  0.14513089721E+04  0.15687715614E+04  0.59560597665E+03 0.  0.
        1    1    3    3  502    0 -0.26344583392E+03 -0.68271151300E+02  0.10441501256E+04  0.10790338931E+04  0.50400001928E-02 0.  1.
       -1    1    3    3    0  502  0.26344583392E+03  0.68271151300E+02  0.40715884641E+03  0.48973766830E+03  0.50400001928E-02 0. -1.
</event>
<event>
 5   0  0.3640827E-02  0.5968524E+03  0.7818609E-02  0.9911958E-01
       -1   -1    0    0    0  501  0.00000000000E+00  0.00000000000E+00  0.94381208874E+02  0.94381209009E+02  0.50400001928E-02 0. -1.
        1   -1    0    0  501    0  0.00000000000E+00  0.00000000000E+00 -0.94360108650E+03  0.94360108651E+03  0.50400001928E-02 0.  1.
    10030    2    1    2    0    0  0.00000000000E+00  0.00000000000E+00 -0.84921987762E+03  0.10379822955E+04  0.59685244848E+03 0.  0.
        3    1    3    3  502    0 -0.10243789516E+03 -0.42969397253E+02 -0.90630531645E+03  0.91308774403E+03  0.10100000352E+00 0.  1.
       -3    1    3    3    0  502  0.10243789516E+03  0.42969397253E+02  0.57085438828E+02  0.12489455149E+03  0.10100000352E+00 0. -1.
</event>
<event>
 5   0  0.5872632E-02  0.6039431E+03  0.7818609E-02  0.9897259E-01
        2   -1    0    0  501    0  0.00000000000E+00  0.00000000000E+00  0.10713410172E+04  0.10713410172E+04  0.25500000920E-02 0. -1.
       -2   -1    0    0    0  501  0.00000000000E+00  0.00000000000E+00 -0.85114660210E+02  0.85114660249E+02  0.25500000920E-02 0.  1.
    10030    2    1    2    0    0  0.00000000000E+00  0.00000000000E+00  0.98622635698E+03  0.11564556774E+04  0.60394313200E+03 0.  0.
        1    1    3    3  502    0  0.96422551123E+02  0.28152906017E+03  0.59132995073E+03  0.66198718321E+03  0.50400001928E-02 0. -1.
       -1    1    3    3    0  502 -0.96422551123E+02 -0.28152906017E+03  0.39489640625E+03  0.49446849423E+03  0.50400001928E-02 0.  1.
</event>
<event>
 5   0  0.5935451E-02  0.6050236E+03  0.7818609E-02  0.9895038E-01
        2   -1    0    0  501    0  0.00000000000E+00  0.00000000000E+00  0.23653186729E+04  0.23653186729E+04  0.25500000920E-02 0. -1.
       -2   -1    0    0    0  501  0.00000000000E+00  0.00000000000E+00 -0.38689662622E+02  0.38689662706E+02  0.25500000920E-02 0.  1.
    10030    2    1    2    0    0  0.00000000000E+00  0.00000000000E+00  0.23266290103E+04  0.24040083356E+04  0.60502357491E+03 0.  0.
        3    1    3    3  502    0  0.86697536427E+02  0.23571623629E+03  0.18333356205E+04  0.18504588929E+04  0.10100000352E+00 0. -1.
       -3    1    3    3    0  502 -0.86697536427E+02 -0.23571623629E+03  0.49329338978E+03  0.55354944266E+03  0.10100000352E+00 0.  1.
</event>
<event>
 5   0  0.5755078E-02  0.6048186E+03  0.7818609E-02  0.9895459E-01
        2   -1    0    0  501    0  0.00000000000E+00  0.00000000000E+00  0.20670889623E+04  0.20670889623E+04  0.25500000920E-02 0.  1.
       -2   -1    0    0    0  501  0.00000000000E+00  0.00000000000E+00 -0.44241631199E+02  0.44241631273E+02  0.25500000920E-02 0. -1.
    10030    2    1    2    0    0  0.00000000000E+00  0.00000000000E+00  0.20228473311E+04  0.21113305936E+04  0.60481860952E+03 0.  0.
        2    1    3    3  502    0 -0.11152800930E+02  0.38966598670E+02  0.20575643088E+04  0.20579634752E+04  0.25500000920E-02 0.  1.
       -2    1    3    3    0  502  0.11152800930E+02 -0.38966598670E+02 -0.34716977621E+02  0.53367118361E+02  0.25500000920E-02 0. -1.
</event>
<event>
 5   0  0.3767635E-02  0.5929561E+03  0.7818609E-02  0.9920129E-01
       -1   -1    0    0    0  501  0.00000000000E+00  0.00000000000E+00  0.39120771687E+03  0.39120771690E+03  0.50400001928E-02 0. -1.
        1   -1    0    0  501    0  0.00000000000E+00  0.00000000000E+00 -0.22468687618E+03  0.22468687624E+03  0.50400001928E-02 0.  1.
    10030    2    1    2    0    0  0.00000000000E+00  0.00000000000E+00  0.16652084069E+03  0.61589459314E+03  0.59295611935E+03 0.  0.
        2    1    3    3  502    0 -0.19045020835E+03 -0.91569740509E+02  0.29925430027E+03  0.36634605972E+03  0.25500000920E-02 0. -1.
       -2    1    3    3    0  502  0.19045020835E+03  0.91569740509E+02 -0.13273345958E+03  0.24954853342E+03  0.25500000920E-02 0.  1.
</event>
<event>
 5   0  0.5999117E-02  0.5042887E+03  0.7818609E-02  0.1012666E+00
        2   -1    0    0  501    0  0.00000000000E+00  0.00000000000E+00  0.63752905876E+03  0.63752905877E+03  0.25500000920E-02 0.  1.
       -2   -1    0    0    0  501  0.00000000000E+00  0.00000000000E+00 -0.99723726548E+02  0.99723726580E+02  0.25500000920E-02 0. -1.
    10030    2    1    2    0    0  0.00000000000E+00  0.00000000000E+00  0.53780533222E+03  0.73725278535E+03  0.50428870119E+03 0.  0.
        5    1    3    3  502    0 -0.83012635540E+02 -0.73101720095E+02  0.60009428803E+03  0.61022143822E+03  0.46999998093E+01 0.  1.
       -5    1    3    3    0  502  0.83012635540E+02  0.73101720095E+02 -0.62288955810E+02  0.12703134713E+03  0.46999998093E+01 0. -1.
</event>
<event>
 5   0  0.3703280E-02  0.6035856E+03  0.7818609E-02  0.9897995E-01
        1   -1    0    0  501    0  0.00000000000E+00  0.00000000000E+00  0.47585349808E+03  0.47585349811E+03  0.50400001928E-02 0. -1.
       -1   -1    0    0    0  501  0.00000000000E+00  0.00000000000E+00 -0.19140109768E+03  0.19140109774E+03  0.50400001928E-02 0.  1.
    10030    2    1    2    0    0  0.00000000000E+00  0.00000000000E+00  0.28445240041E+03  0.66725459585E+03  0.60358555946E+03 0.  0.
        5    1    3    3  502    0  0.13729854663E+03 -0.19736678563E+03  0.34381354772E+03  0.41956451776E+03  0.46999998093E+01 0. -1.
       -5    1    3    3    0  502 -0.13729854663E+03  0.19736678563E+03 -0.59361147307E+02  0.24769007809E+03  0.46999998093E+01 0.  1.
</event>
<event>
 5   0  0.5999117E-02  0.5677180E+03  0.7818609E-02  0.9974741E-01
       -2   -1    0    0    0  501  0.00000000000E+00  0.00000000000E+00  0.10809165905E+03  0.10809165908E+03  0.25500000920E-02 0.  1.
        2   -1    0    0  501    0  0.00000000000E+00  0.00000000000E+00 -0.74544071050E+03  0.74544071050E+03  0.25500000920E-02 0. -1.
    10030    2    1    2    0    0  0.00000000000E+00  0.00000000000E+00 -0.63734905145E+03  0.85353236958E+03  0.56771796918E+03 0.  0.
        5    1    3    3  502    0 -0.23471228286E+03  0.24880012241E+02 -0.81697345566E+02  0.24981076239E+03  0.46999998093E+01 0.  1.
       -5    1    3    3    0  502  0.23471228286E+03 -0.24880012241E+02 -0.55565170589E+03  0.60372160719E+03  0.46999998093E+01 0. -1.
</event>
<event>
 5   0  0.5872632E-02  0.6372990E+03  0.7818609E-02  0.9830908E-01
        2   -1    0    0  501    0  0.00000000000E+00  0.00000000000E+00  0.16462116542E+04  0.16462116542E+04  0.25500000920E-02 0.  1.
       -2   -1    0    0    0  501  0.00000000000E+00  0.00000000000E+00 -0.61679496503E+02  0.61679496556E+02  0.25500000920E-02 0. -1.
    10030    2    1    2    0    0  0.00000000000E+00  0.00000000000E+00  0.15845321577E+04  0.17078911507E+04  0.63729900679E+03 0.  0.
        1    1    3    3  502    0 -0.17719877983E+03  0.11267174566E+03  0.14996867134E+03  0.25804056319E+03  0.50400001928E-02 0. -1.
       -1    1    3    3    0  502  0.17719877983E+03 -0.11267174566E+03  0.14345634863E+04  0.14498505875E+04  0.50400001928E-02 0.  1.
</event>
<event>
 5   0  0.6007360E-02  0.5957991E+03  0.7818609E-02  0.9914160E-01
       -2   -1    0    0    0  501  0.00000000000E+00  0.00000000000E+00  0.65191152348E+02  0.65191152398E+02  0.25500000920E-02 0. -1.
        2   -1    0    0  501    0  0.00000000000E+00  0.00000000000E+00 -0.13612911159E+04  0.13612911159E+04  0.25500000920E-02 0.  1.
    10030    2    1    2    0    0  0.00000000000E+00  0.00000000000E+00 -0.12960999635E+04  0.14264822683E+04  0.59579908211E+03 0.  0.
        4    1    3    3  502    0 -0.12809301300E+03  0.26254718306E+03 -0.50836782518E+03  0.58632610541E+03  0.12699999809E+01 0.  1.
       -4    1    3    3    0  502  0.12809301300E+03 -0.26254718306E+03 -0.78773213835E+03  0.84015616286E+03  0.12699999809E+01 0. -1.
</event>
<event>
 5   0  0.3767635E-02  0.6010839E+03  0.7818609E-02  0.9903160E-01
       -1   -1    0    0    0  501  0.00000000000E+00  0.00000000000E+00  0.25181580758E+03  0.25181580764E+03  0.50400001928E-02 0. -1.
        1   -1    0    0  501    0  0.00000000000E+00  0.00000000000E+00 -0.35869652090E+03  0.35869652093E+03  0.50400001928E-02 0.  1.
    10030    2    1    2    0    0  0.00000000000E+00  0.00000000000E+00 -0.10688071331E+03  0.61051232857E+03  0.60108386807E+03 0.  0.
        2    1    3    3  502    0  0.16406201740E+03  0.37170413866E+02 -0.30640009055E+03  0.34954112878E+03  0.25500000920E-02 0.  1.
       -2    1    3    3    0  502 -0.16406201740E+03 -0.37170413866E+02  0.19951937723E+03  0.26097119978E+03  0.25500000920E-02 0. -1.
</event>
<event>
 5   0  0.3767635E-02  0.5982776E+03  0.7818609E-02  0.9908986E-01
        1   -1    0    0  501    0  0.00000000000E+00  0.00000000000E+00  0.13514660932E+03  0.13514660941E+03  0.50400001928E-02 0.  1.
       -1   -1    0    0    0  501  0.00000000000E+00  0.00000000000E+00 -0.66212557770E+03  0.66212557772E+03  0.50400001928E-02 0. -1.
    10030    2    1    2    0    0  0.00000000000E+00  0.00000000000E+00 -0.52697896839E+03  0.79727218713E+03  0.59827761721E+03 0.  0.
        2    1    3    3  502    0 -0.84429230769E+01 -0.16342658475E+03 -0.59718717153E+03  0.61920275306E+03  0.25500000920E-02 0. -1.
       -2    1    3    3    0  502  0.84429230769E+01  0.16342658475E+03  0.70208203147E+02  0.17806943406E+03  0.25500000920E-02 0.  1.
</event>
<event>
 5   0  0.5999117E-02  0.5667802E+03  0.7818609E-02  0.9976829E-01
        2   -1    0    0  501    0  0.00000000000E+00  0.00000000000E+00  0.23271101948E+03  0.23271101949E+03  0.25500000920E-02 0.  1.
       -2   -1    0    0    0  501  0.00000000000E+00  0.00000000000E+00 -0.34510591322E+03  0.34510591323E+03  0.25500000920E-02 0. -1.
    10030    2    1    2    0    0  0.00000000000E+00  0.00000000000E+00 -0.11239489375E+03  0.57781693272E+03  0.56678020043E+03 0.  0.
        5    1    3    3  502    0  0.54984636592E+02  0.98974448219E+02  0.20860772722E+03  0.23739950614E+03  0.46999998093E+01 0.  1.
       -5    1    3    3    0  502 -0.54984636592E+02 -0.98974448219E+02 -0.32100262096E+03  0.34041742659E+03  0.46999998093E+01 0. -1.
</event>
<event>
 5   0  0.5935451E-02  0.5999314E+03  0.7818609E-02  0.9905548E-01
        2   -1    0    0  501    0  0.00000000000E+00  0.00000000000E+00  0.14989034081E+04  0.14989034081E+04  0.25500000920E-02 0. -1.
       -2   -1    0    0    0  501  0.00000000000E+00  0.00000000000E+00 -0.60030160023E+02  0.60030160077E+02  0.25500000920E-02 0.  1.
    10030    2    1    2    0    0  0.00000000000E+00  0.00000000000E+00  0.14388732480E+04  0.15589335681E+04  0.59993136771E+03 0.  0.
        3    1    3    3  502    0  0.17092336522E+03 -0.16046555623E+03  0.12056821803E+04  0.12282644348E+04  0.10100000352E+00 0.  1.
       -3    1    3    3    0  502 -0.17092336522E+03  0.16046555623E+03  0.23319106770E+03  0.33066913338E+03  0.10100000352E+00 0. -1.
</event>
<event>
 5   0  0.2388000E-02  0.6056572E+03  0.7818609E-02  0.9893738E-01
        4   -1    0    0  501    0  0.00000000000E+00  0.00000000000E+00  0.84612331044E+03  0.84612426355E+03  0.12699999809E+01 0.  1.
       -4   -1    0    0    0  501  0.00000000000E+00  0.00000000000E+00 -0.10837799213E+03  0.10838543296E+03  0.12699999809E+01 0. -1.
    10030    2    1    2    0    0  0.00000000000E+00  0.00000000000E+00  0.73774531831E+03  0.95450969651E+03  0.60565716874E+03 0.  0.
        5    1    3    3  502    0  0.51324672147E+02  0.24670482768E+03  0.10428665065E+03  0.27275499899E+03  0.46999998093E+01 0. -1.
       -5    1    3    3    0  502 -0.51324672147E+02 -0.24670482768E+03  0.63345866765E+03  0.68175469752E+03  0.46999998093E+01 0.  1.
</event>
<event>
 5   0  0.5755078E-02  0.5958598E+03  0.7818609E-02  0.9914033E-01
        2   -1    0    0  501    0  0.00000000000E+00  0.00000000000E+00  0.76422164270E+03  0.76422164270E+03  0.25500000920E-02 0. -1.
       -2   -1    0    0    0  501  0.00000000000E+00  0.00000000000E+00 -0.11614723356E+03  0.11614723359E+03  0.25500000920E-02 0.  1.
    10030    2    1    2    0    0  0.00000000000E+00  0.00000000000E+00  0.64807440914E+03  0.88036887629E+03  0.59585981451E+03 0.  0.
        2    1    3    3  502    0 -0.11374160584E+03  0.27221138123E+03  0.38541991971E+03  0.48537068668E+03  0.25500000920E-02 0.  1.
       -2    1    3    3    0  502  0.11374160584E+03 -0.27221138123E+03  0.26265448943E+03  0.39499818961E+03  0.25500000920E-02 0. -1.
</event>
<event>
 5   0  0.3767635E-02  0.5961908E+03  0.7818609E-02  0.9913341E-01
       -1   -1    0    0    0  501  0.00000000000E+00  0.00000000000E+00  0.65555750926E+03  0.65555750928E+03  0.50400001928E-02 0. -1.
        1   -1    0    0  501    0  0.00000000000E+00  0.00000000000E+00 -0.13555007018E+03  0.13555007028E+03  0.50400001928E-02 0.  1.
    10030    2    1    2    0    0  0.00000000000E+00  0.00000000000E+00  0.52000743908E+03  0.79110757956E+03  0.59619079642E+03 0.  0.
        2    1    3    3  502    0 -0.19809261808E+03  0.17890883424E+03  0.43610084848E+03  0.51130519884E+03  0.25500000920E-02 0.  1.
       -2    1    3    3    0  502  0.19809261808E+03 -0.17890883424E+03  0.83906590602E+02  0.27980238073E+03  0.25500000920E-02 0. -1.
</event>
<event>
 5   0  0.2388000E-02  0.6013156E+03  0.7818609E-02  0.9902680E-01
        3   -1    0    0  501    0  0.00000000000E+00  0.00000000000E+00  0.16087338821E+03  0.16087341992E+03  0.10100000352E+00 0. -1.
       -3   -1    0    0    0  501  0.00000000000E+00  0.00000000000E+00 -0.56190206751E+03  0.56190207659E+03  0.10100000352E+00 0.  1.
    10030    2    1    2    0    0  0.00000000000E+00  0.00000000000E+00 -0.40102867930E+03  0.72277549651E+03  0.60131557167E+03 0.  0.
        1    1    3    3  502    0 -0.14067343634E+02  0.12216027828E+03 -0.53029387332E+03  0.54436441457E+03  0.50400001928E-02 0.  1.
       -1    1    3    3    0  502  0.14067343634E+02 -0.12216027828E+03  0.12926519402E+03  0.17841108194E+03  0.50400001928E-02 0. -1.
</event>
<event>
 5   0  0.3640827E-02  0.5829258E+03  0.7818609E-02  0.9941477E-01
        1   -1    0    0  501    0  0.00000000000E+00  0.00000000000E+00  0.12773729386E+04  0.12773729386E+04  0.50400001928E-02 0. -1.
       -1   -1    0    0    0  501  0.00000000000E+00  0.00000000000E+00 -0.66504173936E+02  0.66504174127E+02  0.50400001928E-02 0.  1.
    10030    2    1    2    0    0  0.00000000000E+00  0.00000000000E+00  0.12108687646E+04  0.13438771127E+04  0.58292583481E+03 0.  0.
        3    1    3    3  502    0  0.16634096111E+03 -0.18832619768E+03  0.26493260507E+03  0.36513746385E+03  0.10100000352E+00 0.  1.
       -3    1    3    3    0  502 -0.16634096111E+03  0.18832619768E+03  0.94593615957E+03  0.97873964886E+03  0.10100000352E+00 0. -1.
</event>
<event>
 5   0  0.5872632E-02  0.5758988E+03  0.7818609E-02  0.9956710E-01
        2   -1    0    0  501    0  0.00000000000E+00  0.00000000000E+00  0.93730455310E+03  0.93730455310E+03  0.25500000920E-02 0. -1.
       -2   -1    0    0    0  501  0.00000000000E+00  0.00000000000E+00 -0.88460957430E+02  0.88460957467E+02  0.25500000920E-02 0.  1.
    10030    2    1    2    0    0  0.00000000000E+00  0.00000000000E+00  0.84884359567E+03  0.10257655106E+04  0.57589880427E+03 0.  0.
        1    1    3    3  502    0  0.19210550778E+03  0.20208980860E+03  0.29635135175E+03  0.40690163500E+03  0.50400001928E-02 0.  1.
       -1    1    3    3    0  502 -0.19210550778E+03 -0.20208980860E+03  0.55249224392E+03  0.61886387557E+03  0.50400001928E-02 0. -1.
</event>
<event>
 5   0  0.3767635E-02  0.5987590E+03  0.7818609E-02  0.9907984E-01
        1   -1    0    0  501    0  0.00000000000E+00  0.00000000000E+00  0.11902829295E+04  0.11902829296E+04  0.50400001928E-02 0. -1.
       -1   -1    0    0    0  501  0.00000000000E+00  0.00000000000E+00 -0.75299810742E+02  0.75299810910E+02  0.50400001928E-02 0.  1.
    10030    2    1    2    0    0  0.00000000000E+00  0.00000000000E+00  0.11149831188E+04  0.12655827405E+04  0.59875898135E+03 0.  0.
        2    1    3    3  502    0  0.11699875859E+03 -0.14624752823E+03  0.63817870145E+02  0.19786300710E+03  0.25500000920E-02 0.  1.
       -2    1    3    3    0  502 -0.11699875859E+03  0.14624752823E+03  0.10511652487E+04  0.10677197334E+04  0.25500000920E-02 0. -1.
</event>
<event>
 5   0  0.5872632E-02  0.5979611E+03  0.7818609E-02  0.9909645E-01
       -2   -1    0    0    0  501  0.00000000000E+00  0.00000000000E+00  0.21125257045E+03  0.21125257046E+03  0.25500000920E-02 0.  1.
        2   -1    0    0  501    0  0.00000000000E+00  0.00000000000E+00 -0.42313980533E+03  0.42313980534E+03  0.25500000920E-02 0. -1.
    10030    2    1    2    0    0  0.00000000000E+00  0.00000000000E+00 -0.21188723488E+03  0.63439237580E+03  0.59796110757E+03 0.  0.
        1    1    3    3  502    0 -0.15516615791E+03  0.14098925814E+03  0.12019755201E+03  0.24166497265E+03  0.50400001928E-02 0.  1.
       -1    1    3    3    0  502  0.15516615791E+03 -0.14098925814E+03 -0.33208478689E+03  0.39272740315E+03  0.50400001928E-02 0. -1.
</event>
<event>
 5   0  0.2388000E-02  0.6007771E+03  0.7818609E-02  0.9903795E-01
        3   -1    0    0  501    0  0.00000000000E+00  0.00000000000E+00  0.48024358711E+03  0.48024359773E+03  0.10100000352E+00 0.  1.
       -3   -1    0    0    0  501  0.00000000000E+00  0.00000000000E+00 -0.18789065083E+03  0.18789067798E+03  0.10100000352E+00 0. -1.
    10030    2    1    2    0    0  0.00000000000E+00  0.00000000000E+00  0.29235293627E+03  0.66813427571E+03  0.60077713923E+03 0.  0.
        3    1    3    3  502    0  0.40466089712E+02  0.21765088833E+03  0.37197687897E+03  0.43286975212E+03  0.10100000352E+00 0.  1.
       -3    1    3    3    0  502 -0.40466089712E+02 -0.21765088833E+03 -0.79623942698E+02  0.23526452359E+03  0.10100000352E+00 0. -1.
</event>
<event>
 5   0  0.5935451E-02  0.6000301E+03  0.7818609E-02  0.9905344E-01
       -2   -1    0    0    0  501  0.00000000000E+00  0.00000000000E+00  0.97812017956E+02  0.97812017989E+02  0.25500000920E-02 0. -1.
        2   -1    0    0  501    0  0.00000000000E+00  0.00000000000E+00 -0.92022479116E+03  0.92022479116E+03  0.25500000920E-02 0.  1.
    10030    2    1    2    0    0  0.00000000000E+00  0.00000000000E+00 -0.82241277320E+03  0.10180368091E+04  0.60003014529E+03 0.  0.
        3    1    3    3  502    0 -0.10110527014E+03  0.23142350366E+03 -0.13642399846E+03  0.28703768264E+03  0.10100000352E+00 0. -1.
       -3    1    3    3    0  502  0.10110527014E+03 -0.23142350366E+03 -0.68598877474E+03  0.73099912651E+03  0.10100000352E+00 0.  1.
</event>
<event>
 5   0  0.3651984E-02  0.5949416E+03  0.7818609E-02  0.9915957E-01
        1   -1    0    0  501    0  0.00000000000E+00  0.00000000000E+00  0.33738516084E+03  0.33738516088E+03  0.50400001928E-02 0.  1.
       -1   -1    0    0    0  501  0.00000000000E+00  0.00000000000E+00 -0.26227849366E+03  0.26227849370E+03  0.50400001928E-02 0. -1.
    10030    2    1    2    0    0  0.00000000000E+00  0.00000000000E+00  0.75106667184E+02  0.59966365458E+03  0.59494158299E+03 0.  0.
        1    1    3    3  502    0 -0.62159863246E+02  0.25777200572E+03  0.17345156763E+03  0.31685280790E+03  0.50400001928E-02 0.  1.
       -1    1    3    3    0  502  0.62159863246E+02 -0.25777200572E+03 -0.98344900443E+02  0.28281084668E+03  0.50400001928E-02 0. -1.
</event>
<event>
 5   0  0.3651984E-02  0.5874415E+03  0.7818609E-02  0.9931809E-01
       -1   -1    0    0    0  501  0.00000000000E+00  0.00000000000E+00  0.11738364194E+03  0.11738364205E+03  0.50400001928E-02 0.  1.
        1   -1    0    0  501    0  0.00000000000E+00  0.00000000000E+00 -0.73495663264E+03  0.73495663266E+03  0.50400001928E-02 0. -1.
    10030    2    1    2    0    0  0.00000000000E+00  0.00000000000E+00 -0.61757299070E+03  0.85234027470E+03  0.58744152479E+03 0.  0.
        1    1    3    3  502    0 -0.18950567610E+03 -0.18927369674E+03 -0.13386016766E+03  0.29942524620E+03  0.50400001928E-02 0.  1.
       -1    1    3    3    0  502  0.18950567610E+03  0.18927369674E+03 -0.48371282304E+03  0.55291502851E+03  0.50400001928E-02 0. -1.
</event>
<event>
 5   0  0.5872632E-02  0.5967543E+03  0.7818609E-02  0.9912163E-01
        2   -1    0    0  501    0  0.00000000000E+00  0.00000000000E+00  0.68084802144E+03  0.68084802145E+03  0.25500000920E-02 0. -1.
       -2   -1    0    0    0  501  0.00000000000E+00  0.00000000000E+00 -0.13076182815E+03  0.13076182817E+03  0.25500000920E-02 0.  1.
    10030    2    1    2    0    0  0.00000000000E+00  0.00000000000E+00  0.55008619329E+03  0.81160984962E+03  0.59675432797E+03 0.  0.
        1    1    3    3  502    0 -0.25335123481E+03  0.95599511500E+02  0.44547092841E+03  0.52131608729E+03  0.50400001928E-02 0. -1.
       -1    1    3    3    0  502  0.25335123481E+03 -0.95599511500E+02  0.10461526488E+03  0.29029376234E+03  0.50400001928E-02 0.  1.
</event>
<event>
 5   0  0.2388000E-02  0.6069379E+03  0.7818609E-02  0.9891116E-01
       -4   -1    0    0    0  501  0.00000000000E+00  0.00000000000E+00  0.28482712057E+03  0.28482995192E+03  0.12699999809E+01 0.  1.
        4   -1    0    0  501    0  0.00000000000E+00  0.00000000000E+00 -0.32332523249E+03  0.32332772672E+03  0.12699999809E+01 0. -1.
    10030    2    1    2    0    0  0.00000000000E+00  0.00000000000E+00 -0.38498111926E+02  0.60815767864E+03  0.60693793543E+03 0.  0.
        3    1    3    3  502    0  0.65140104819E+02  0.16477333473E+03  0.22761960849E+03  0.28845135025E+03  0.10100000352E+00 0.  1.
       -3    1    3    3    0  502 -0.65140104819E+02 -0.16477333473E+03 -0.26611772041E+03  0.31970632839E+03  0.10100000352E+00 0. -1.
</event>
<event>
 5   0  0.3651984E-02  0.5654181E+03  0.7818609E-02  0.9979869E-01
       -1   -1    0    0    0  501  0.00000000000E+00  0.00000000000E+00  0.69092680974E+02  0.69092681158E+02  0.50400001928E-02 0.  1.
        1   -1    0    0  501    0  0.00000000000E+00  0.00000000000E+00 -0.11567708031E+04  0.11567708031E+04  0.50400001928E-02 0. -1.
    10030    2    1    2    0    0  0.00000000000E+00  0.00000000000E+00 -0.10876781222E+04  0.12258634843E+04  0.56541806190E+03 0.  0.
        1    1    3    3  502    0 -0.47076294295E+02 -0.12097206483E+03  0.66051103371E+00  0.12981084027E+03  0.50400001928E-02 0.  1.
       -1    1    3    3    0  502  0.47076294295E+02  0.12097206483E+03 -0.10883386332E+04  0.10960526440E+04  0.50400001928E-02 0. -1.
</event>
<event>
 5   0  0.5935451E-02  0.5573782E+03  0.7818609E-02  0.9998005E-01
        2   -1    0    0  501    0  0.00000000000E+00  0.00000000000E+00  0.46887280330E+03  0.46887280331E+03  0.25500000920E-02 0. -1.
       -2   -1    0    0    0  501  0.00000000000E+00  0.00000000000E+00 -0.16564749574E+03  0.16564749575E+03  0.25500000920E-02 0.  1.
    10030    2    1    2    0    0  0.00000000000E+00  0.00000000000E+00  0.30322530757E+03  0.63452029907E+03  0.55737816855E+03 0.  0.
        3    1    3    3  502    0 -0.83133082967E+02  0.15854745070E+03  0.39475990260E+03  0.43345564306E+03  0.10100000352E+00 0. -1.
       -3    1    3    3    0  502  0.83133082967E+02 -0.15854745070E+03 -0.91534595027E+02  0.20106465600E+03  0.10100000352E+00 0.  1.
</event>
<event>
 5   0  0.3478183E-02  0.6029472E+03  0.7818609E-02  0.9899310E-01
       -1   -1    0    0    0  501  0.00000000000E+00  0.00000000000E+00  0.24439778387E+03  0.24439778392E+03  0.50400001928E-02 0. -1.
        1   -1    0    0  501    0  0.00000000000E+00  0.00000000000E+00 -0.37187873086E+03  0.37187873089E+03  0.50400001928E-02 0.  1.
    10030    2    1    2    0    0  0.00000000000E+00  0.00000000000E+00 -0.12748094699E+03  0.61627651481E+03  0.60294722063E+03 0.  0.
        4    1    3    3  502    0  0.21912781596E+03 -0.20699889200E+03 -0.68217231672E+02  0.30906430498E+03  0.12699999809E+01 0. -1.
       -4    1    3    3    0  502 -0.21912781596E+03  0.20699889200E+03 -0.59263715321E+02  0.30721220983E+03  0.12699999809E+01 0.  1.
</event>
<event>
 5   0  0.3478183E-02  0.5957459E+03  0.7818609E-02  0.9914271E-01
       -1   -1    0    0    0  501  0.00000000000E+00  0.00000000000E+00  0.75284606167E+02  0.75284606336E+02  0.50400001928E-02 0.  1.
        1   -1    0    0  501    0  0.00000000000E+00  0.00000000000E+00 -0.11785716267E+04  0.11785716267E+04  0.50400001928E-02 0. -1.
    10030    2    1    2    0    0  0.00000000000E+00  0.00000000000E+00 -0.11032870205E+04  0.12538562330E+04  0.59574592191E+03 0.  0.
        4    1    3    3  502    0  0.18081498180E+03  0.61659381150E+02 -0.10326487424E+04  0.10501718788E+04  0.12699999809E+01 0. -1.
       -4    1    3    3    0  502 -0.18081498180E+03 -0.61659381150E+02 -0.70638278130E+02  0.20368435425E+03  0.12699999809E+01 0.  1.
</event>
<event>
 5   0  0.3478183E-02  0.6021121E+03  0.7818609E-02  0.9901034E-01
        1   -1    0    0  501    0  0.00000000000E+00  0.00000000000E+00  0.43127182000E+03  0.43127182003E+03  0.50400001928E-02 0.  1.
       -1   -1    0    0    0  501  0.00000000000E+00  0.00000000000E+00 -0.21015687010E+03  0.21015687016E+03  0.50400001928E-02 0. -1.
    10030    2    1    2    0    0  0.00000000000E+00  0.00000000000E+00  0.22111494990E+03  0.64142869019E+03  0.60211206891E+03 0.  0.
        4    1    3    3  502    0  0.18371504103E+03  0.23142346475E+03  0.49128604116E+02  0.29953842655E+03  0.12699999809E+01 0.  1.
       -4    1    3    3    0  502 -0.18371504103E+03 -0.23142346475E+03  0.17198634579E+03  0.34189026364E+03  0.12699999809E+01 0. -1.
</event>
<event>
 5   0  0.5755078E-02  0.5960616E+03  0.7818609E-02  0.9913611E-01
        2   -1    0    0  501    0  0.00000000000E+00  0.00000000000E+00  0.37692880374E+03  0.37692880375E+03  0.25500000920E-02 0. -1.
       -2   -1    0    0    0  501  0.00000000000E+00  0.00000000000E+00 -0.23564756919E+03  0.23564756921E+03  0.25500000920E-02 0.  1.
    10030    2    1    2    0    0  0.00000000000E+00  0.00000000000E+00  0.14128123455E+03  0.61257637295E+03  0.59606159536E+03 0.  0.
        2    1    3    3  502    0  0.24534725292E+03  0.11653881525E+03 -0.55419163336E+02  0.27721445426E+03  0.25500000920E-02 0.  1.
       -2    1    3    3    0  502 -0.24534725292E+03 -0.11653881525E+03  0.19670039788E+03  0.33536191870E+03  0.25500000920E-02 0. -1.
</event>
<event>
 5   0  0.6007360E-02  0.6178522E+03  0.7818609E-02  0.9869045E-01
        2   -1    0    0  501    0  0.00000000000E+00  0.00000000000E+00  0.62859486861E+03  0.62859486861E+03  0.25500000920E-02 0.  1.
       -2   -1    0    0    0  501  0.00000000000E+00  0.00000000000E+00 -0.15182328694E+03  0.15182328696E+03  0.25500000920E-02 0. -1.
    10030    2    1    2    0    0  0.00000000000E+00  0.00000000000E+00  0.47677158167E+03  0.78041815557E+03  0.61785221248E+03 0.  0.
        4    1    3    3  502    0 -0.98030832988E+02 -0.11668442660E+02  0.60813015989E+03  0.61609260752E+03  0.12699999809E+01 0.  1.
       -4    1    3    3    0  502  0.98030832988E+02  0.11668442660E+02 -0.13135857822E+03  0.16432554805E+03  0.12699999809E+01 0. -1.
</event>
<event>
 5   0  0.5935451E-02  0.6035905E+03  0.7818609E-02  0.9897985E-01
       -2   -1    0    0    0  501  0.00000000000E+00  0.00000000000E+00  0.41947794401E+03  0.41947794402E+03  0.25500000920E-02 0.  1.
        2   -1    0    0  501    0  0.00000000000E+00  0.00000000000E+00 -0.21712789149E+03  0.21712789150E+03  0.25500000920E-02 0. -1.
    10030    2    1    2    0    0  0.00000000000E+00  0.00000000000E+00  0.20235005252E+03  0.63660583552E+03  0.60359046220E+03 0.  0.
        3    1    3    3  502    0  0.14591506970E+03  0.24713053601E+03  0.19963913094E+03  0.34960048941E+03  0.10100000352E+00 0.  1.
       -3    1    3    3    0  502 -0.14591506970E+03 -0.24713053601E+03  0.27109215868E+01  0.28700534610E+03  0.10100000352E+00 0. -1.
</event>
<event>
 5   0  0.3640827E-02  0.6073414E+03  0.7818609E-02  0.9890291E-01
       -1   -1    0    0    0  501  0.00000000000E+00  0.00000000000E+00  0.31737436974E+03  0.31737436978E+03  0.50400001928E-02 0.  1.
        1   -1    0    0  501    0  0.00000000000E+00  0.00000000000E+00 -0.29055874267E+03  0.29055874271E+03  0.50400001928E-02 0. -1.
    10030    2    1    2    0    0  0.00000000000E+00  0.00000000000E+00  0.26815627075E+02  0.60793311249E+03  0.60734141256E+03 0.  0.
        3    1    3    3  502    0  0.11249350442E+03  0.21817600330E+02 -0.26808688119E+03  0.29154996534E+03  0.10100000352E+00 0. -1.
       -3    1    3    3    0  502 -0.11249350442E+03 -0.21817600330E+02  0.29490250827E+03  0.31638314716E+03  0.10100000352E+00 0.  1.
</event>
<event>
 5   0  0.5935451E-02  0.6022499E+03  0.7818609E-02  0.9900749E-01
       -2   -1    0    0    0  501  0.00000000000E+00  0.00000000000E+00  0.57673329527E+02  0.57673329584E+02  0.25500000920E-02 0. -1.
        2   -1    0    0  501    0  0.00000000000E+00  0.00000000000E+00 -0.15722384500E+04  0.15722384500E+04  0.25500000920E-02 0.  1.
    10030    2    1    2    0    0  0.00000000000E+00  0.00000000000E+00 -0.15145651205E+04  0.16299117796E+04  0.60224986931E+03 0.  0.
        3    1    3    3  502    0  0.12480764000E+03  0.27192872622E+03 -0.66534409776E+03  0.72952378836E+03  0.10100000352E+00 0. -1.
       -3    1    3    3    0  502 -0.12480764000E+03 -0.27192872622E+03 -0.84922102275E+03  0.90038799127E+03  0.10100000352E+00 0.  1.
</event>
<event>
 5   0  0.2388000E-02  0.6040665E+03  0.7818609E-02  0.9897005E-01
        3   -1    0    0  501    0  0.00000000000E+00  0.00000000000E+00  0.63044235061E+03  0.63044235870E+03  0.10100000352E+00 0.  1.
       -3   -1    0    0    0  501  0.00000000000E+00  0.00000000000E+00 -0.14469851277E+03  0.14469854801E+03  0.10100000352E+00 0. -1.
    10030    2    1    2    0    0  0.00000000000E+00  0.00000000000E+00  0.48574383785E+03  0.77514090672E+03  0.60406651063E+03 0.  0.
        4    1    3    3  502    0 -0.96997691486E+02 -0.28539323257E+03  0.26737491316E+03  0.40292531124E+03  0.12699999809E+01 0. -1.
       -4    1    3    3    0  502  0.96997691486E+02  0.28539323257E+03  0.21836892468E+03  0.37221559548E+03  0.12699999809E+01 0.  1.
</event>
<event>
 5   0  0.5755078E-02  0.5992641E+03  0.7818609E-02  0.9906934E-01
       -2   -1    0    0    0  501  0.00000000000E+00  0.00000000000E+00  0.55300560362E+02  0.55300560420E+02  0.25500000920E-02 0.  1.
        2   -1    0    0  501    0  0.00000000000E+00  0.00000000000E+00 -0.16234800549E+04  0.16234800549E+04  0.25500000920E-02 0. -1.
    10030    2    1    2    0    0  0.00000000000E+00  0.00000000000E+00 -0.15681794945E+04  0.16787806153E+04  0.59926407141E+03 0.  0.
        2    1    3    3  502    0  0.25070722889E+03 -0.12049330756E+03 -0.10961239377E+04  0.11308671180E+04  0.25500000920E-02 0. -1.
       -2    1    3    3    0  502 -0.25070722889E+03  0.12049330756E+03 -0.47205555678E+03  0.54791349726E+03  0.25500000920E-02 0.  1.
</event>
<event>
 5   0  0.3640827E-02  0.6025323E+03  0.7818609E-02  0.9900166E-01
       -1   -1    0    0    0  501  0.00000000000E+00  0.00000000000E+00  0.12001758004E+03  0.12001758014E+03  0.50400001928E-02 0. -1.
        1   -1    0    0  501    0  0.00000000000E+00  0.00000000000E+00 -0.75623326587E+03  0.75623326588E+03  0.50400001928E-02 0.  1.
    10030    2    1    2    0    0  0.00000000000E+00  0.00000000000E+00 -0.63621568583E+03  0.87625084603E+03  0.60253227819E+03 0.  0.
        3    1    3    3  502    0 -0.16691315285E+02  0.89534074397E+02  0.99517125519E+02  0.13490225705E+03  0.10100000352E+00 0. -1.
       -3    1    3    3    0  502  0.16691315285E+02 -0.89534074397E+02 -0.73573281135E+03  0.74134858898E+03  0.10100000352E+00 0.  1.
</event>
<event>
 5   0  0.5999117E-02  0.6004513E+03  0.7818609E-02  0.9904470E-01
        2   -1    0    0  501    0  0.00000000000E+00  0.00000000000E+00  0.22520411757E+04  0.22520411757E+04  0.25500000920E-02 0.  1.
       -2   -1    0    0    0  501  0.00000000000E+00  0.00000000000E+00 -0.40023891739E+02  0.40023891820E+02  0.25500000920E-02 0. -1.
    10030    2    1    2    0    0  0.00000000000E+00  0.00000000000E+00  0.22120172840E+04  0.22920650675E+04  0.60045133792E+03 0.  0.
        5    1    3    3  502    0 -0.13810046331E+03 -0.15026733862E+02  0.21218228304E+04  0.21263705590E+04  0.46999998093E+01 0.  1.
       -5    1    3    3    0  502  0.13810046331E+03  0.15026733862E+02  0.90194453579E+02  0.16569450851E+03  0.46999998093E+01 0. -1.
</event>
<event>
 5   0  0.3703280E-02  0.6029220E+03  0.7818609E-02  0.9899362E-01
       -1   -1    0    0    0  501  0.00000000000E+00  0.00000000000E+00  0.11099764457E+04  0.11099764457E+04  0.50400001928E-02 0.  1.
        1   -1    0    0  501    0  0.00000000000E+00  0.00000000000E+00 -0.81874475409E+02  0.81874475564E+02  0.50400001928E-02 0. -1.
    10030    2    1    2    0    0  0.00000000000E+00  0.00000000000E+00  0.10281019703E+04  0.11918509213E+04  0.60292201588E+03 0.  0.
        5    1    3    3  502    0 -0.40837268668E+02  0.23897982067E+03  0.86809871148E+03  0.90133040560E+03  0.46999998093E+01 0.  1.
       -5    1    3    3    0  502  0.40837268668E+02 -0.23897982067E+03  0.16000325881E+03  0.29052051567E+03  0.46999998093E+01 0. -1.
</event>
<event>
 5   0  0.5999117E-02  0.6074279E+03  0.7818609E-02  0.9890114E-01
       -2   -1    0    0    0  501  0.00000000000E+00  0.00000000000E+00  0.46440956878E+03  0.46440956879E+03  0.25500000920E-02 0.  1.
        2   -1    0    0  501    0  0.00000000000E+00  0.00000000000E+00 -0.19862245511E+03  0.19862245512E+03  0.25500000920E-02 0. -1.
    10030    2    1    2    0    0  0.00000000000E+00  0.00000000000E+00  0.26578711367E+03  0.66303202391E+03  0.60742791749E+03 0.  0.
        5    1    3    3  502    0 -0.24948580906E+03 -0.11041995053E+03 -0.12672020082E+02  0.27316369541E+03  0.46999998093E+01 0. -1.
       -5    1    3    3    0  502  0.24948580906E+03  0.11041995053E+03  0.27845913376E+03  0.38986832850E+03  0.46999998093E+01 0.  1.
</event>
<event>
 5   0  0.5872632E-02  0.6010936E+03  0.7818609E-02  0.9903140E-01
       -2   -1    0    0    0  501  0.00000000000E+00  0.00000000000E+00  0.44275494733E+03  0.44275494734E+03  0.25500000920E-02 0.  1.
        2   -1    0    0  501    0  0.00000000000E+00  0.00000000000E+00 -0.20401435861E+03  0.20401435863E+03  0.25500000920E-02 0. -1.
    10030    2    1    2    0    0  0.00000000000E+00  0.00000000000E+00  0.23874058872E+03  0.64676930596E+03  0.60109355881E+03 0.  0.
        1    1    3    3  502    0  0.23140836399E+03 -0.11123050155E+03  0.28746668917E+03  0.38543372038E+03  0.50400001928E-02 0.  1.
       -1    1    3    3    0  502 -0.23140836399E+03  0.11123050155E+03 -0.48726100456E+02  0.26133558558E+03  0.50400001928E-02 0. -1.
</event>
<event>
 5   0  0.6007360E-02  0.5932196E+03  0.7818609E-02  0.9919574E-01
        2   -1    0    0  501    0  0.00000000000E+00  0.00000000000E+00  0.16669936518E+04  0.16669936518E+04  0.25500000920E-02 0.  1.
       -2   -1    0    0    0  501  0.00000000000E+00  0.00000000000E+00 -0.52776072864E+02  0.52776072926E+02  0.25500000920E-02 0. -1.
    10030    2    1    2    0    0  0.00000000000E+00  0.00000000000E+00  0.16142175789E+04  0.17197697247E+04  0.59321961695E+03 0.  0.
        4    1    3    3  502    0  0.60920990793E+02  0.16825836496E+03  0.14928630362E+04  0.15035504322E+04  0.12699999809E+01 0.  1.
       -4    1    3    3    0  502 -0.60920990793E+02 -0.16825836496E+03  0.12135454269E+03  0.21621929245E+03  0.12699999809E+01 0. -1.
</event>
<event>
 5   0  0.3640827E-02  0.5992027E+03  0.7818609E-02  0.9907062E-01
       -1   -1    0    0    0  501  0.00000000000E+00  0.00000000000E+00  0.29840590747E+03  0.29840590751E+03  0.50400001928E-02 0. -1.
        1   -1    0    0  501    0  0.00000000000E+00  0.00000000000E+00 -0.30080159968E+03  0.30080159972E+03  0.50400001928E-02 0.  1.
    10030    2    1    2    0    0  0.00000000000E+00  0.00000000000E+00 -0.23956922128E+01  0.59920750723E+03  0.59920271810E+03 0.  0.
        3    1    3    3  502    0 -0.15617046118E+03 -0.48416583839E+02 -0.25225280644E+03  0.30060749674E+03  0.10100000352E+00 0.  1.
       -3    1    3    3    0  502  0.15617046118E+03  0.48416583839E+02  0.24985711423E+03  0.29860001050E+03  0.10100000352E+00 0. -1.
</event>
<event>
 5   0  0.3478183E-02  0.5872089E+03  0.7818609E-02  0.9932305E-01
        1   -1    0    0  501    0  0.00000000000E+00  0.00000000000E+00  0.40761236761E+03  0.40761236764E+03  0.50400001928E-02 0. -1.
       -1   -1    0    0    0  501  0.00000000000E+00  0.00000000000E+00 -0.21148419329E+03  0.21148419335E+03  0.50400001928E-02 0.  1.
    10030    2    1    2    0    0  0.00000000000E+00  0.00000000000E+00  0.19612817433E+03  0.61909656099E+03  0.58720889900E+03 0.  0.
        4    1    3    3  502    0 -0.17329039630E+03 -0.81742988781E+01 -0.15166480366E+03  0.23043481981E+03  0.12699999809E+01 0.  1.
       -4    1    3    3    0  502  0.17329039630E+03  0.81742988781E+01  0.34779297799E+03  0.38866174118E+03  0.12699999809E+01 0. -1.
</event>
<event>
 5   0  0.5872632E-02  0.5990991E+03  0.7818609E-02  0.9907277E-01
        2   -1    0    0  501    0  0.00000000000E+00  0.00000000000E+00  0.59993600294E+03  0.59993600294E+03  0.25500000920E-02 0.  1.
       -2   -1    0    0    0  501  0.00000000000E+00  0.00000000000E+00 -0.14956585003E+03  0.14956585006E+03  0.25500000920E-02 0. -1.
    10030    2    1    2    0    0  0.00000000000E+00  0.00000000000E+00  0.45037015290E+03  0.74950185300E+03  0.59909911786E+03 0.  0.
        1    1    3    3  502    0  0.27769741036E+03  0.33037644092E+01  0.36563255812E+03  0.45914478562E+03  0.50400001928E-02 0. -1.
       -1    1    3    3    0  502 -0.27769741036E+03 -0.33037644092E+01  0.84737594779E+02  0.29035706737E+03  0.50400001928E-02 0.  1.
</event>
<event>
 5   0  0.3478183E-02  0.5951481E+03  0.7818609E-02  0.9915524E-01
        1   -1    0    0  501    0  0.00000000000E+00  0.00000000000E+00  0.86006953720E+03  0.86006953721E+03  0.50400001928E-02 0. -1.
       -1   -1    0    0    0  501  0.00000000000E+00  0.00000000000E+00 -0.10295715409E+03  0.10295715421E+03  0.50400001928E-02 0.  1.
    10030    2    1    2    0    0  0.00000000000E+00  0.00000000000E+00  0.75711238311E+03  0.96302669143E+03  0.59514808892E+03 0.  0.
        4    1    3    3  502    0  0.19362689809E+03  0.18241040924E+03  0.16276925567E+03  0.31186595927E+03  0.12699999809E+01 0.  1.
       -4    1    3    3    0  502 -0.19362689809E+03 -0.18241040924E+03  0.59434312744E+03  0.65116073215E+03  0.12699999809E+01 0. -1.
</event>
<event>
 5   0  0.6007360E-02  0.6020828E+03  0.7818609E-02  0.9901094E-01
       -2   -1    0    0    0  501  0.00000000000E+00  0.00000000000E+00  0.82531415111E+02  0.82531415150E+02  0.25500000920E-02 0. -1.
        2   -1    0    0  501    0  0.00000000000E+00  0.00000000000E+00 -0.10980777687E+04  0.10980777687E+04  0.25500000920E-02 0.  1.
    10030    2    1    2    0    0  0.00000000000E+00  0.00000000000E+00 -0.10155463535E+04  0.11806091838E+04  0.60208275901E+03 0.  0.
        4    1    3    3  502    0 -0.22097349462E+03 -0.12150849332E+03 -0.18538536655E+03  0.31299032941E+03  0.12699999809E+01 0. -1.
       -4    1    3    3    0  502  0.22097349462E+03  0.12150849332E+03 -0.83016098700E+03  0.86761885440E+03  0.12699999809E+01 0.  1.
</event>
<event>
 5   0  0.5999117E-02  0.6324308E+03  0.7818609E-02  0.9840317E-01
       -2   -1    0    0    0  501  0.00000000000E+00  0.00000000000E+00  0.24789037396E+03  0.24789037397E+03  0.25500000920E-02 0.  1.
        2   -1    0    0  501    0  0.00000000000E+00  0.00000000000E+00 -0.40337260516E+03  0.40337260517E+03  0.25500000920E-02 0. -1.
    10030    2    1    2    0    0  0.00000000000E+00  0.00000000000E+00 -0.15548223120E+03  0.65126297913E+03  0.63243082133E+03 0.  0.
        5    1    3    3  502    0 -0.81054217354E+02 -0.29047923354E+03 -0.17555438528E+03  0.34898338565E+03  0.46999998093E+01 0.  1.
       -5    1    3    3    0  502  0.81054217354E+02  0.29047923354E+03  0.20072154079E+02  0.30227959349E+03  0.46999998093E+01 0. -1.
</event>
<event>
 5   0  0.5999117E-02  0.5698277E+03  0.7818609E-02  0.9970060E-01
        2   -1    0    0  501    0  0.00000000000E+00  0.00000000000E+00  0.11100240083E+04  0.11100240083E+04  0.25500000920E-02 0.  1.
       -2   -1    0    0    0  501  0.00000000000E+00  0.00000000000E+00 -0.73129851953E+02  0.73129851998E+02  0.25500000920E-02 0. -1.
    10030    2    1    2    0    0  0.00000000000E+00  0.00000000000E+00  0.10368941564E+04  0.11831538603E+04  0.56982766314E+03 0.  0.
        5    1    3    3  502    0  0.57712264046E+02  0.21371767409E+03  0.14616367540E+03  0.26531464272E+03  0.46999998093E+01 0. -1.
       -5    1    3    3    0  502 -0.57712264046E+02 -0.21371767409E+03  0.89073048096E+03  0.91783921759E+03  0.46999998093E+01 0.  1.
</event>
<event>
 5   0  0.3767635E-02  0.5985219E+03  0.7818609E-02  0.9908477E-01
       -1   -1    0    0    0  501  0.00000000000E+00  0.00000000000E+00  0.85153918580E+02  0.85153918729E+02  0.50400001928E-02 0. -1.
        1   -1    0    0  501    0  0.00000000000E+00  0.00000000000E+00 -0.10517085560E+04  0.10517085560E+04  0.50400001928E-02 0.  1.
    10030    2    1    2    0    0  0.00000000000E+00  0.00000000000E+00 -0.96655463740E+03  0.11368624747E+04  0.59852186205E+03 0.  0.
        2    1    3    3  502    0 -0.23651960691E+03  0.13764902912E+03 -0.71332516806E+03  0.76401673743E+03  0.25500000920E-02 0.  1.
       -2    1    3    3    0  502  0.23651960691E+03 -0.13764902912E+03 -0.25322946934E+03  0.37284573730E+03  0.25500000920E-02 0. -1.
</event>
<event>
 5   0  0.3478183E-02  0.6115998E+03  0.7818609E-02  0.9881628E-01
       -1   -1    0    0    0  501  0.00000000000E+00  0.00000000000E+00  0.24923848342E+03  0.24923848347E+03  0.50400001928E-02 0. -1.
        1   -1    0    0  501    0  0.00000000000E+00  0.00000000000E+00 -0.37519714296E+03  0.37519714299E+03  0.50400001928E-02 0.  1.
    10030    2    1    2    0    0  0.00000000000E+00  0.00000000000E+00 -0.12595865954E+03  0.62443562646E+03  0.61159976102E+03 0.  0.
        4    1    3    3  502    0  0.24951349472E+03  0.17084796215E+03 -0.16572743954E+02  0.30285686216E+03  0.12699999809E+01 0.  1.
       -4    1    3    3    0  502 -0.24951349472E+03 -0.17084796215E+03 -0.10938591559E+03  0.32157876430E+03  0.12699999809E+01 0. -1.
</event>
<event>
 5   0  0.2388000E-02  0.5934965E+03  0.7818609E-02  0.9918991E-01
        3   -1    0    0  501    0  0.00000000000E+00  0.00000000000E+00  0.26054388242E+04  0.26054388261E+04  0.10100000352E+00 0.  1.
       -3   -1    0    0    0  501  0.00000000000E+00  0.00000000000E+00 -0.33798268974E+02  0.33798419883E+02  0.10100000352E+00 0. -1.
    10030    2    1    2    0    0  0.00000000000E+00  0.00000000000E+00  0.25716405552E+04  0.26392372460E+04  0.59349650007E+03 0.  0.
        4    1    3    3  502    0 -0.24502690535E+03 -0.12174212830E+03  0.77493441145E+03  0.82181767144E+03  0.12699999809E+01 0. -1.
       -4    1    3    3    0  502  0.24502690535E+03  0.12174212830E+03  0.17967061437E+04  0.18174195746E+04  0.12699999809E+01 0.  1.
</event>
<event>
 5   0  0.3651984E-02  0.5743374E+03  0.7818609E-02  0.9960126E-01
        1   -1    0    0  501    0  0.00000000000E+00  0.00000000000E+00  0.86940064235E+02  0.86940064381E+02  0.50400001928E-02 0. -1.
       -1   -1    0    0    0  501  0.00000000000E+00  0.00000000000E+00 -0.94853707008E+03  0.94853707010E+03  0.50400001928E-02 0.  1.
    10030    2    1    2    0    0  0.00000000000E+00  0.00000000000E+00 -0.86159700585E+03  0.10354771345E+04  0.57433744048E+03 0.  0.
        1    1    3    3  502    0  0.19168802819E+03 -0.21382319345E+03 -0.43278632565E+03  0.51939258938E+03  0.50400001928E-02 0. -1.
       -1    1    3    3    0  502 -0.19168802819E+03  0.21382319345E+03 -0.42881068020E+03  0.51608454510E+03  0.50400001928E-02 0.  1.
</event>
<event>
 5   0  0.5999117E-02  0.5981855E+03  0.7818609E-02  0.9909178E-01
        2   -1    0    0  501    0  0.00000000000E+00  0.00000000000E+00  0.26583710967E+03  0.26583710969E+03  0.25500000920E-02 0. -1.
       -2   -1    0    0    0  501  0.00000000000E+00  0.00000000000E+00 -0.33650864288E+03  0.33650864289E+03  0.25500000920E-02 0.  1.
    10030    2    1    2    0    0  0.00000000000E+00  0.00000000000E+00 -0.70671533208E+02  0.60234575258E+03  0.59818553981E+03 0.  0.
        5    1    3    3  502    0 -0.47446428382E+02 -0.11311399643E+02 -0.33243908968E+03  0.33603117366E+03  0.46999998093E+01 0.  1.
       -5    1    3    3    0  502  0.47446428382E+02  0.11311399643E+02  0.26176755647E+03  0.26631457892E+03  0.46999998093E+01 0. -1.
</event>
<event>
 5   0  0.6007360E-02  0.5997768E+03  0.7818609E-02  0.9905869E-01
       -2   -1    0    0    0  501  0.00000000000E+00  0.00000000000E+00  0.35369348886E+03  0.35369348887E+03  0.25500000920E-02 0. -1.
        2   -1    0    0  501    0  0.00000000000E+00  0.00000000000E+00 -0.25426829904E+03  0.25426829905E+03  0.25500000920E-02 0.  1.
    10030    2    1    2    0    0  0.00000000000E+00  0.00000000000E+00  0.99425189825E+02  0.60796178792E+03  0.59977676447E+03 0.  0.
        4    1    3    3  502    0 -0.12735485801E+03  0.42846264260E+01  0.32488327337E+03  0.34898190798E+03  0.12699999809E+01 0. -1.
       -4    1    3    3    0  502  0.12735485801E+03 -0.42846264260E+01 -0.22545808354E+03  0.25897987994E+03  0.12699999809E+01 0.  1.
</event>
<event>
 5   0  0.5872632E-02  0.6005075E+03  0.7818609E-02  0.9904354E-01
       -2   -1    0    0    0  501  0.00000000000E+00  0.00000000000E+00  0.14753172386E+03  0.14753172388E+03  0.25500000920E-02 0. -1.
        2   -1    0    0  501    0  0.00000000000E+00  0.00000000000E+00 -0.61107078128E+03  0.61107078129E+03  0.25500000920E-02 0.  1.
    10030    2    1    2    0    0  0.00000000000E+00  0.00000000000E+00 -0.46353905742E+03  0.75860250517E+03  0.60050753791E+03 0.  0.
        1    1    3    3  502    0 -0.28195709795E+03  0.26076253736E+01 -0.36211121889E+03  0.45894568270E+03  0.50400001928E-02 0.  1.
       -1    1    3    3    0  502  0.28195709795E+03 -0.26076253736E+01 -0.10142783853E+03  0.29965682247E+03  0.50400001928E-02 0. -1.
</event>
<event>
 5   0  0.5872632E-02  0.6040397E+03  0.7818609E-02  0.9897060E-01
       -2   -1    0    0    0  501  0.00000000000E+00  0.00000000000E+00  0.75774957359E+03  0.75774957359E+03  0.25500000920E-02 0. -1.
        2   -1    0    0  501    0  0.00000000000E+00  0.00000000000E+00 -0.12037750141E+03  0.12037750144E+03  0.25500000920E-02 0.  1.
    10030    2    1    2    0    0  0.00000000000E+00  0.00000000000E+00  0.63737207218E+03  0.87812707503E+03  0.60403973503E+03 0.  0.
        1    1    3    3  502    0  0.95914058938E+02  0.15650995039E+02  0.73439840633E+03  0.74080056668E+03  0.50400001928E-02 0. -1.
       -1    1    3    3    0  502 -0.95914058938E+02 -0.15650995039E+02 -0.97026334157E+02  0.13732650834E+03  0.50400001928E-02 0.  1.
</event>
<event>
 5   0  0.3767635E-02  0.6056850E+03  0.7818609E-02  0.9893681E-01
       -1   -1    0    0    0  501  0.00000000000E+00  0.00000000000E+00  0.21565888165E+03  0.21565888171E+03  0.50400001928E-02 0.  1.
        1   -1    0    0  501    0  0.00000000000E+00  0.00000000000E+00 -0.42527157557E+03  0.42527157560E+03  0.50400001928E-02 0. -1.
    10030    2    1    2    0    0  0.00000000000E+00  0.00000000000E+00 -0.20961269392E+03  0.64093045731E+03  0.60568504163E+03 0.  0.
        2    1    3    3  502    0 -0.36837665963E+02  0.24112878154E+03  0.85119008401E+02  0.25835121156E+03  0.25500000920E-02 0.  1.
       -2    1    3    3    0  502  0.36837665963E+02 -0.24112878154E+03 -0.29473170232E+03  0.38257924575E+03  0.25500000920E-02 0. -1.
</event>
<event>
 5   0  0.3703280E-02  0.6024082E+03  0.7818609E-02  0.9900422E-01
        1   -1    0    0  501    0  0.00000000000E+00  0.00000000000E+00  0.21560877985E+03  0.21560877991E+03  0.50400001928E-02 0. -1.
       -1   -1    0    0    0  501  0.00000000000E+00  0.00000000000E+00 -0.42078025619E+03  0.42078025622E+03  0.50400001928E-02 0.  1.
    10030    2    1    2    0    0  0.00000000000E+00  0.00000000000E+00 -0.20517147634E+03  0.63638903614E+03  0.60240822588E+03 0.  0.
        5    1    3    3  502    0  0.18417095085E+03  0.18514409693E+03  0.55891531467E+02  0.26710153323E+03  0.46999998093E+01 0. -1.
       -5    1    3    3    0  502 -0.18417095085E+03 -0.18514409693E+03 -0.26106300780E+03  0.36928750291E+03  0.46999998093E+01 0.  1.
</event>
<event>
 5   0  0.5999117E-02  0.6073966E+03  0.7818609E-02  0.9890178E-01
       -2   -1    0    0    0  501  0.00000000000E+00  0.00000000000E+00  0.12623909954E+03  0.12623909957E+03  0.25500000920E-02 0.  1.
        2   -1    0    0  501    0  0.00000000000E+00  0.00000000000E+00 -0.73061878367E+03  0.73061878367E+03  0.25500000920E-02 0. -1.
    10030    2    1    2    0    0  0.00000000000E+00  0.00000000000E+00 -0.60437968413E+03  0.85685788324E+03  0.60739659983E+03 0.  0.
        5    1    3    3  502    0 -0.12603769271E+03 -0.11949778286E+03 -0.65358117879E+03  0.67628076075E+03  0.46999998093E+01 0. -1.
       -5    1    3    3    0  502  0.12603769271E+03  0.11949778286E+03  0.49201494661E+02  0.18057712249E+03  0.46999998093E+01 0.  1.
</event>
<event>
 5   0  0.3478183E-02  0.6028751E+03  0.7818609E-02  0.9899459E-01
       -1   -1    0    0    0  501  0.00000000000E+00  0.00000000000E+00  0.92255071508E+02  0.92255071646E+02  0.50400001928E-02 0.  1.
        1   -1    0    0  501    0  0.00000000000E+00  0.00000000000E+00 -0.98492801440E+03  0.98492801442E+03  0.50400001928E-02 0. -1.
    10030    2    1    2    0    0  0.00000000000E+00  0.00000000000E+00 -0.89267294289E+03  0.10771830861E+04  0.60287512631E+03 0.  0.
        4    1    3    3  502    0  0.66804974052E+02  0.40753656688E+02 -0.96645749349E+03  0.96962129964E+03  0.12699999809E+01 0. -1.
       -4    1    3    3    0  502 -0.66804974052E+02 -0.40753656688E+02  0.73784550596E+02  0.10756178642E+03  0.12699999809E+01 0.  1.
</event>
<event>
 5   0  0.5755078E-02  0.5632887E+03  0.7818609E-02  0.9984641E-01
       -2   -1    0    0    0  501  0.00000000000E+00  0.00000000000E+00  0.58316106547E+03  0.58316106547E+03  0.25500000920E-02 0. -1.
        2   -1    0    0  501    0  0.00000000000E+00  0.00000000000E+00 -0.13602339689E+03  0.13602339691E+03  0.25500000920E-02 0.  1.
    10030    2    1    2    0    0  0.00000000000E+00  0.00000000000E+00  0.44713766858E+03  0.71918446238E+03  0.56328873259E+03 0.  0.
        2    1    3    3  502    0 -0.52088000732E+02 -0.16636598684E+03 -0.58859999912E+02  0.18399810052E+03  0.25500000920E-02 0.  1.
       -2    1    3    3    0  502  0.52088000732E+02  0.16636598684E+03  0.50599766849E+03  0.53518636187E+03  0.25500000920E-02 0. -1.
</event>
<event>
 5   0  0.3651984E-02  0.5992449E+03  0.7818609E-02  0.9906974E-01
        1   -1    0    0  501    0  0.00000000000E+00  0.00000000000E+00  0.18461423755E+03  0.18461423762E+03  0.50400001928E-02 0.  1.
       -1   -1    0    0    0  501  0.00000000000E+00  0.00000000000E+00 -0.48627678868E+03  0.48627678871E+03  0.50400001928E-02 0. -1.
    10030    2    1    2    0    0  0.00000000000E+00  0.00000000000E+00 -0.30166255113E+03  0.67089102633E+03  0.59924492025E+03 0.  0.
        1    1    3    3  502    0 -0.16860337734E+03 -0.12282589440E+03  0.89966203069E+02  0.22717221860E+03  0.50400001928E-02 0.  1.
       -1    1    3    3    0  502  0.16860337734E+03  0.12282589440E+03 -0.39162875420E+03  0.44371880772E+03  0.50400001928E-02 0. -1.
</event>
<event>
 5   0  0.5935451E-02  0.5969545E+03  0.7818609E-02  0.9911745E-01
       -2   -1    0    0    0  501  0.00000000000E+00  0.00000000000E+00  0.33420499482E+02  0.33420499580E+02  0.25500000920E-02 0. -1.
        2   -1    0    0  501    0  0.00000000000E+00  0.00000000000E+00 -0.26656895511E+04  0.26656895511E+04  0.25500000920E-02 0.  1.
    10030    2    1    2    0    0  0.00000000000E+00  0.00000000000E+00 -0.26322690516E+04  0.26991100506E+04  0.59695452555E+03 0.  0.
        3    1    3    3  502    0 -0.69238265720E+02  0.96509605697E+01 -0.41174609564E+01  0.70028866659E+02  0.10100000352E+00 0. -1.
       -3    1    3    3    0  502  0.69238265720E+02 -0.96509605697E+01 -0.26281515906E+04  0.26290811840E+04  0.10100000352E+00 0.  1.
</event>
<event>
 5   0  0.5999117E-02  0.6065227E+03  0.7818609E-02  0.9891965E-01
        2   -1    0    0  501    0  0.00000000000E+00  0.00000000000E+00  0.10269778130E+04  0.10269778130E+04  0.25500000920E-02 0.  1.
       -2   -1    0    0    0  501  0.00000000000E+00  0.00000000000E+00 -0.89551531136E+02  0.89551531172E+02  0.25500000920E-02 0. -1.
    10030    2    1    2    0    0  0.00000000000E+00  0.00000000000E+00  0.93742628186E+03  0.11165293442E+04  0.60652266444E+03 0.  0.
        5    1    3    3  502    0  0.22517880942E+03  0.19674996928E+03  0.37613185825E+03  0.48053440190E+03  0.46999998093E+01 0.  1.
       -5    1    3    3    0  502 -0.22517880942E+03 -0.19674996928E+03  0.56129442361E+03  0.63599494227E+03  0.46999998093E+01 0. -1.
</event>
<event>
 5   0  0.3651984E-02  0.5946586E+03  0.7818609E-02  0.9916550E-01
        1   -1    0    0  501    0  0.00000000000E+00  0.00000000000E+00  0.34098410393E+03  0.34098410397E+03  0.50400001928E-02 0.  1.
       -1   -1    0    0    0  501  0.00000000000E+00  0.00000000000E+00 -0.25926340006E+03  0.25926340011E+03  0.50400001928E-02 0. -1.
    10030    2    1    2    0    0  0.00000000000E+00  0.00000000000E+00  0.81720703868E+02  0.60024750408E+03  0.59465855137E+03 0.  0.
        1    1    3    3  502    0 -0.19421963271E+03  0.43906079781E+02 -0.18202182530E+03  0.26977945526E+03  0.50400001928E-02 0. -1.
       -1    1    3    3    0  502  0.19421963271E+03 -0.43906079781E+02  0.26374252917E+03  0.33046804882E+03  0.50400001928E-02 0.  1.
</event>
<event>
 5   0  0.3478183E-02  0.5977100E+03  0.7818609E-02  0.9910169E-01
       -1   -1    0    0    0  501  0.00000000000E+00  0.00000000000E+00  0.24707797543E+03  0.24707797548E+03  0.50400001928E-02 0. -1.
        1   -1    0    0  501    0  0.00000000000E+00  0.00000000000E+00 -0.36148226532E+03  0.36148226536E+03  0.50400001928E-02 0.  1.
    10030    2    1    2    0    0  0.00000000000E+00  0.00000000000E+00 -0.11440428989E+03  0.60856024083E+03  0.59770998417E+03 0.  0.
        4    1    3    3  502    0  0.94676446668E+02  0.27865414668E+02 -0.34440899333E+03  0.35827263149E+03  0.12699999809E+01 0.  1.
       -4    1    3    3    0  502 -0.94676446668E+02 -0.27865414668E+02  0.23000470344E+03  0.25028760934E+03  0.12699999809E+01 0. -1.
</event>
<event>
 5   0  0.3703280E-02  0.6062556E+03  0.7818609E-02  0.9892512E-01
       -1   -1    0    0    0  501  0.00000000000E+00  0.00000000000E+00  0.57986595196E+02  0.57986595415E+02  0.50400001928E-02 0.  1.
        1   -1    0    0  501    0  0.00000000000E+00  0.00000000000E+00 -0.15846156621E+04  0.15846156621E+04  0.50400001928E-02 0. -1.
    10030    2    1    2    0    0  0.00000000000E+00  0.00000000000E+00 -0.15266290669E+04  0.16426022575E+04  0.60625561317E+03 0.  0.
        5    1    3    3  502    0  0.12596539452E+03 -0.25198564638E+03 -0.46038794700E+03  0.53976216831E+03  0.46999998093E+01 0.  1.
       -5    1    3    3    0  502 -0.12596539452E+03  0.25198564638E+03 -0.10662411199E+04  0.11028400892E+04  0.46999998093E+01 0. -1.
</event>
<event>
 5   0  0.3703280E-02  0.6129534E+03  0.7818609E-02  0.9878890E-01
       -1   -1    0    0    0  501  0.00000000000E+00  0.00000000000E+00  0.99282693791E+03  0.99282693793E+03  0.50400001928E-02 0. -1.
        1   -1    0    0  501    0  0.00000000000E+00  0.00000000000E+00 -0.94606588983E+02  0.94606589117E+02  0.50400001928E-02 0.  1.
    10030    2    1    2    0    0  0.00000000000E+00  0.00000000000E+00  0.89822034893E+03  0.10874335270E+04  0.61295340810E+03 0.  0.
        5    1    3    3  502    0  0.13592896349E+03  0.18494866338E+03  0.88908234927E+02  0.24618987680E+03  0.46999998093E+01 0.  1.
       -5    1    3    3    0  502 -0.13592896349E+03 -0.18494866338E+03  0.80931211400E+03  0.84124365024E+03  0.46999998093E+01 0. -1.
</event>
<event>
 5   0  0.5999117E-02  0.5920626E+03  0.7818609E-02  0.9922012E-01
       -2   -1    0    0    0  501  0.00000000000E+00  0.00000000000E+00  0.20807216571E+03  0.20807216573E+03  0.25500000920E-02 0.  1.
        2   -1    0    0  501    0  0.00000000000E+00  0.00000000000E+00 -0.42117366492E+03  0.42117366493E+03  0.25500000920E-02 0. -1.
    10030    2    1    2    0    0  0.00000000000E+00  0.00000000000E+00 -0.21310149921E+03  0.62924583066E+03  0.59206255281E+03 0.  0.
        5    1    3    3  502    0  0.14707697766E+03 -0.24907026008E+03 -0.39798645194E+02  0.29201653030E+03  0.46999998093E+01 0. -1.
       -5    1    3    3    0  502 -0.14707697766E+03  0.24907026008E+03 -0.17330285402E+03  0.33722930036E+03  0.46999998093E+01 0.  1.
</event>
<event>
 5   0  0.5999117E-02  0.6014486E+03  0.7818609E-02  0.9902405E-01
       -2   -1    0    0    0  501  0.00000000000E+00  0.00000000000E+00  0.12908456279E+03  0.12908456281E+03  0.25500000920E-02 0. -1.
        2   -1    0    0  501    0  0.00000000000E+00  0.00000000000E+00 -0.70058797343E+03  0.70058797343E+03  0.25500000920E-02 0.  1.
    10030    2    1    2    0    0  0.00000000000E+00  0.00000000000E+00 -0.57150341064E+03  0.82967253625E+03  0.60144855892E+03 0.  0.
        5    1    3    3  502    0  0.69397897628E+02  0.29134617953E+03 -0.32262059185E+03  0.44023266668E+03  0.46999998093E+01 0. -1.
       -5    1    3    3    0  502 -0.69397897628E+02 -0.29134617953E+03 -0.24888281879E+03  0.38943986957E+03  0.46999998093E+01 0.  1.
</event>
<event>
 5   0  0.5935451E-02  0.5929937E+03  0.7818609E-02  0.9920050E-01
       -2   -1    0    0    0  501  0.00000000000E+00  0.00000000000E+00  0.63582798056E+02  0.63582798107E+02  0.25500000920E-02 0. -1.
        2   -1    0    0  501    0  0.00000000000E+00  0.00000000000E+00 -0.13826125303E+04  0.13826125303E+04  0.25500000920E-02 0.  1.
    10030    2    1    2    0    0  0.00000000000E+00  0.00000000000E+00 -0.13190297323E+04  0.14461953284E+04  0.59299367060E+03 0.  0.
        3    1    3    3  502    0  0.12955301940E+03 -0.17562328304E+03 -0.11489971088E+04  0.11695391779E+04  0.10100000352E+00 0.  1.
       -3    1    3    3    0  502 -0.12955301940E+03  0.17562328304E+03 -0.17003262342E+03  0.27665615050E+03  0.10100000352E+00 0. -1.
</event>
<event>
 5   0  0.5999117E-02  0.5983379E+03  0.7818609E-02  0.9908860E-01
        2   -1    0    0  501    0  0.00000000000E+00  0.00000000000E+00  0.45540500204E+03  0.45540500205E+03  0.25500000920E-02 0. -1.
       -2   -1    0    0    0  501  0.00000000000E+00  0.00000000000E+00 -0.19653292122E+03  0.19653292124E+03  0.25500000920E-02 0.  1.
    10030    2    1    2    0    0  0.00000000000E+00  0.00000000000E+00  0.25887208082E+03  0.65193792329E+03  0.59833794932E+03 0.  0.
        5    1    3    3  502    0 -0.20141053291E+03  0.20543310273E+03  0.21869545979E+03  0.36141216997E+03  0.46999998093E+01 0. -1.
       -5    1    3    3    0  502  0.20141053291E+03 -0.20543310273E+03  0.40176621023E+02  0.29052575332E+03  0.46999998093E+01 0.  1.
</event>
<event>
 5   0  0.3767635E-02  0.6027503E+03  0.7818609E-02  0.9899716E-01
        1   -1    0    0  501    0  0.00000000000E+00  0.00000000000E+00  0.61560699084E+03  0.61560699086E+03  0.50400001928E-02 0.  1.
       -1   -1    0    0    0  501  0.00000000000E+00  0.00000000000E+00 -0.14754051507E+03  0.14754051515E+03  0.50400001928E-02 0. -1.
    10030    2    1    2    0    0  0.00000000000E+00  0.00000000000E+00  0.46806647578E+03  0.76314750602E+03  0.60275027183E+03 0.  0.
        2    1    3    3  502    0  0.12801666271E+03  0.15496678706E+03  0.51834166190E+03  0.55595058188E+03  0.25500000920E-02 0.  1.
       -2    1    3    3    0  502 -0.12801666271E+03 -0.15496678706E+03 -0.50275186126E+02  0.20719692414E+03  0.25500000920E-02 0. -1.
</event>
<event>
 5   0  0.5935451E-02  0.6007562E+03  0.7818609E-02  0.9903838E-01
        2   -1    0    0  501    0  0.00000000000E+00  0.00000000000E+00  0.17332424536E+03  0.17332424538E+03  0.25500000920E-02 0. -1.
       -2   -1    0    0    0  501  0.00000000000E+00  0.00000000000E+00 -0.52056764049E+03  0.52056764049E+03  0.25500000920E-02 0.  1.
    10030    2    1    2    0    0  0.00000000000E+00  0.00000000000E+00 -0.34724339512E+03  0.69389188587E+03  0.60075616836E+03 0.  0.
        3    1    3    3  502    0  0.12843392469E+03  0.14682436706E+03 -0.43745034458E+03  0.47897336246E+03  0.10100000352E+00 0.  1.
       -3    1    3    3    0  502 -0.12843392469E+03 -0.14682436706E+03  0.90206949457E+02  0.21491852341E+03  0.10100000352E+00 0. -1.
</event>
<event>
 5   0  0.5755078E-02  0.6014950E+03  0.7818609E-02  0.9902309E-01
       -2   -1    0    0    0  501  0.00000000000E+00  0.00000000000E+00  0.98813137756E+02  0.98813137789E+02  0.25500000920E-02 0. -1.
        2   -1    0    0  501    0  0.00000000000E+00  0.00000000000E+00 -0.91535462952E+03  0.91535462953E+03  0.25500000920E-02 0.  1.
    10030    2    1    2    0    0  0.00000000000E+00  0.00000000000E+00 -0.81654149177E+03  0.10141677673E+04  0.60149501451E+03 0.  0.
        2    1    3    3  502    0 -0.12950919685E+03 -0.15636681642E+03 -0.78235926730E+03  0.80827547066E+03  0.25500000920E-02 0.  1.
       -2    1    3    3    0  502  0.12950919685E+03  0.15636681642E+03 -0.34182224471E+02  0.20589229665E+03  0.25500000920E-02 0. -1.
</event>
<event>
 5   0  0.5935451E-02  0.6033661E+03  0.7818609E-02  0.9898447E-01
       -2   -1    0    0    0  501  0.00000000000E+00  0.00000000000E+00  0.34390263333E+02  0.34390263428E+02  0.25500000920E-02 0. -1.
        2   -1    0    0  501    0  0.00000000000E+00  0.00000000000E+00 -0.26464659922E+04  0.26464659922E+04  0.25500000920E-02 0.  1.
    10030    2    1    2    0    0  0.00000000000E+00  0.00000000000E+00 -0.26120757289E+04  0.26808562557E+04  0.60336609949E+03 0.  0.
        3    1    3    3  502    0  0.26756859799E+03 -0.94976441272E+01 -0.68830195507E+03  0.73854096124E+03  0.10100000352E+00 0. -1.
       -3    1    3    3    0  502 -0.26756859799E+03  0.94976441272E+01 -0.19237737738E+04  0.19423152944E+04  0.10100000352E+00 0.  1.
</event>
<event>
 5   0  0.2388000E-02  0.6088656E+03  0.7818609E-02  0.9887182E-01
        4   -1    0    0  501    0  0.00000000000E+00  0.00000000000E+00  0.15419187513E+03  0.15419710521E+03  0.12699999809E+01 0. -1.
       -4   -1    0    0    0  501  0.00000000000E+00  0.00000000000E+00 -0.60104877055E+03  0.60105011229E+03  0.12699999809E+01 0.  1.
    10030    2    1    2    0    0  0.00000000000E+00  0.00000000000E+00 -0.44685689542E+03  0.75524721750E+03  0.60886556362E+03 0.  0.
        3    1    3    3  502    0  0.11112582513E+03  0.24648443003E+03 -0.49877369008E+02  0.27493869389E+03  0.10100000352E+00 0. -1.
       -3    1    3    3    0  502 -0.11112582513E+03 -0.24648443003E+03 -0.39697952642E+03  0.48030852361E+03  0.10100000352E+00 0.  1.
</event>
<event>
 5   0  0.5755078E-02  0.6014436E+03  0.7818609E-02  0.9902416E-01
       -2   -1    0    0    0  501  0.00000000000E+00  0.00000000000E+00  0.14413459365E+03  0.14413459367E+03  0.25500000920E-02 0. -1.
        2   -1    0    0  501    0  0.00000000000E+00  0.00000000000E+00 -0.62742471075E+03  0.62742471075E+03  0.25500000920E-02 0.  1.
    10030    2    1    2    0    0  0.00000000000E+00  0.00000000000E+00 -0.48329011710E+03  0.77155930442E+03  0.60144361578E+03 0.  0.
        2    1    3    3  502    0  0.16617738036E+03 -0.14665305159E+03  0.19096480726E+02  0.22245609649E+03  0.25500000920E-02 0. -1.
       -2    1    3    3    0  502 -0.16617738036E+03  0.14665305159E+03 -0.50238659782E+03  0.54910320793E+03  0.25500000920E-02 0.  1.
</event>
<event>
 5   0  0.3767635E-02  0.6023959E+03  0.7818609E-02  0.9900448E-01
        1   -1    0    0  501    0  0.00000000000E+00  0.00000000000E+00  0.11045381552E+03  0.11045381564E+03  0.50400001928E-02 0.  1.
       -1   -1    0    0    0  501  0.00000000000E+00  0.00000000000E+00 -0.82134067926E+03  0.82134067928E+03  0.50400001928E-02 0. -1.
    10030    2    1    2    0    0  0.00000000000E+00  0.00000000000E+00 -0.71088686374E+03  0.93179449492E+03  0.60239592273E+03 0.  0.
        2    1    3    3  502    0 -0.25067237334E+03  0.99927928783E+02 -0.14850547701E+03  0.30801965264E+03  0.25500000920E-02 0.  1.
       -2    1    3    3    0  502  0.25067237334E+03 -0.99927928783E+02 -0.56238138674E+03  0.62377484228E+03  0.25500000920E-02 0. -1.
</event>
<event>
 5   0  0.3767635E-02  0.6024792E+03  0.7818609E-02  0.9900276E-01
        1   -1    0    0  501    0  0.00000000000E+00  0.00000000000E+00  0.59448126374E+03  0.59448126376E+03  0.50400001928E-02 0.  1.
       -1   -1    0    0    0  501  0.00000000000E+00  0.00000000000E+00 -0.15264617878E+03  0.15264617886E+03  0.50400001928E-02 0. -1.
    10030    2    1    2    0    0  0.00000000000E+00  0.00000000000E+00  0.44183508496E+03  0.74712744262E+03  0.60247918903E+03 0.  0.
        2    1    3    3  502    0 -0.16265872832E+03 -0.86904036877E+02  0.51629586972E+03  0.54824410496E+03  0.25500000920E-02 0.  1.
       -2    1    3    3    0  502  0.16265872832E+03  0.86904036877E+02 -0.74460784759E+02  0.19888333766E+03  0.25500000920E-02 0. -1.
</event>
<event>
 5   0  0.6007360E-02  0.6020526E+03  0.7818609E-02  0.9901157E-01
        2   -1    0    0  501    0  0.00000000000E+00  0.00000000000E+00  0.45458236324E+03  0.45458236325E+03  0.25500000920E-02 0. -1.
       -2   -1    0    0    0  501  0.00000000000E+00  0.00000000000E+00 -0.19934085318E+03  0.19934085320E+03  0.25500000920E-02 0.  1.
    10030    2    1    2    0    0  0.00000000000E+00  0.00000000000E+00  0.25524151006E+03  0.65392321645E+03  0.60205260945E+03 0.  0.
        4    1    3    3  502    0  0.97717824518E+02 -0.28284299917E+03  0.16308817023E+03  0.34080536906E+03  0.12699999809E+01 0. -1.
       -4    1    3    3    0  502 -0.97717824518E+02  0.28284299917E+03  0.92153339826E+02  0.31311784739E+03  0.12699999809E+01 0.  1.
</event>
<event>
 5   0  0.2388000E-02  0.5996610E+03  0.7818609E-02  0.9906110E-01
        3   -1    0    0  501    0  0.00000000000E+00  0.00000000000E+00  0.12278308649E+04  0.12278308691E+04  0.10100000352E+00 0. -1.
       -3   -1    0    0    0  501  0.00000000000E+00  0.00000000000E+00 -0.73217142741E+02  0.73217212403E+02  0.10100000352E+00 0.  1.
    10030    2    1    2    0    0  0.00000000000E+00  0.00000000000E+00  0.11546137222E+04  0.13010480815E+04  0.59966095661E+03 0.  0.
        5    1    3    3  502    0 -0.13070425286E+03 -0.26746610659E+03  0.50046039235E+03  0.58232672462E+03  0.46999998093E+01 0.  1.
       -5    1    3    3    0  502  0.13070425286E+03  0.26746610659E+03  0.65415332985E+03  0.71872135689E+03  0.46999998093E+01 0. -1.
</event>
<event>
 5   0  0.3640827E-02  0.5962176E+03  0.7818609E-02  0.9913284E-01
        1   -1    0    0  501    0  0.00000000000E+00  0.00000000000E+00  0.16555487114E+04  0.16555487114E+04  0.50400001928E-02 0.  1.
       -1   -1    0    0    0  501  0.00000000000E+00  0.00000000000E+00 -0.53679402554E+02  0.53679402791E+02  0.50400001928E-02 0. -1.
    10030    2    1    2    0    0  0.00000000000E+00  0.00000000000E+00  0.16018693088E+04  0.17092281142E+04  0.59621763118E+03 0.  0.
        3    1    3    3  502    0  0.25488395271E+03  0.11678169114E+03  0.10913877587E+04  0.11268234302E+04  0.10100000352E+00 0.  1.
       -3    1    3    3    0  502 -0.25488395271E+03 -0.11678169114E+03  0.51048155009E+03  0.58240468397E+03  0.10100000352E+00 0. -1.
</event>
<event>
 5   0  0.2388000E-02  0.5931611E+03  0.7818609E-02  0.9919697E-01
       -4   -1    0    0    0  501  0.00000000000E+00  0.00000000000E+00  0.51121223248E+03  0.51121381000E+03  0.12699999809E+01 0.  1.
        4   -1    0    0  501    0  0.00000000000E+00  0.00000000000E+00 -0.17205746235E+03  0.17206214939E+03  0.12699999809E+01 0. -1.
    10030    2    1    2    0    0  0.00000000000E+00  0.00000000000E+00  0.33915477013E+03  0.68327595939E+03  0.59316108991E+03 0.  0.
        4    1    3    3  502    0  0.87508966206E+02  0.10953946102E+03  0.47062779564E+03  0.49106908640E+03  0.12699999809E+01 0.  1.
       -4    1    3    3    0  502 -0.87508966206E+02 -0.10953946102E+03 -0.13147302551E+03  0.19220687299E+03  0.12699999809E+01 0. -1.
</event>
<event>
 5   0  0.5872632E-02  0.6022605E+03  0.7818609E-02  0.9900727E-01
        2   -1    0    0  501    0  0.00000000000E+00  0.00000000000E+00  0.12524227113E+04  0.12524227113E+04  0.25500000920E-02 0. -1.
       -2   -1    0    0    0  501  0.00000000000E+00  0.00000000000E+00 -0.72403201854E+02  0.72403201899E+02  0.25500000920E-02 0.  1.
    10030    2    1    2    0    0  0.00000000000E+00  0.00000000000E+00  0.11800195094E+04  0.13248259132E+04  0.60226045663E+03 0.  0.
        1    1    3    3  502    0 -0.11615001805E+03  0.89419904538E+02  0.11375014107E+02  0.14702427348E+03  0.50400001928E-02 0.  1.
       -1    1    3    3    0  502  0.11615001805E+03 -0.89419904538E+02  0.11686444953E+04  0.11778016397E+04  0.50400001928E-02 0. -1.
</event>
<event>
 5   0  0.5935451E-02  0.5961978E+03  0.7818609E-02  0.9913326E-01
       -2   -1    0    0    0  501  0.00000000000E+00  0.00000000000E+00  0.20777691022E+03  0.20777691023E+03  0.25500000920E-02 0.  1.
        2   -1    0    0  501    0  0.00000000000E+00  0.00000000000E+00 -0.42768451227E+03  0.42768451228E+03  0.25500000920E-02 0. -1.
    10030    2    1    2    0    0  0.00000000000E+00  0.00000000000E+00 -0.21990760206E+03  0.63546142251E+03  0.59619784137E+03 0.  0.
        3    1    3    3  502    0 -0.27422870057E+03  0.11472378759E+03 -0.86119839277E+02  0.30948273712E+03  0.10100000352E+00 0.  1.
       -3    1    3    3    0  502  0.27422870057E+03 -0.11472378759E+03 -0.13378776278E+03  0.32597868539E+03  0.10100000352E+00 0. -1.
</event>
<event>
 5   0  0.5755078E-02  0.5995213E+03  0.7818609E-02  0.9906400E-01
        2   -1    0    0  501    0  0.00000000000E+00  0.00000000000E+00  0.88305588586E+03  0.88305588586E+03  0.25500000920E-02 0.  1.
       -2   -1    0    0    0  501  0.00000000000E+00  0.00000000000E+00 -0.10175623956E+03  0.10175623959E+03  0.25500000920E-02 0. -1.
    10030    2    1    2    0    0  0.00000000000E+00  0.00000000000E+00  0.78129964629E+03  0.98481212545E+03  0.59952129665E+03 0.  0.
        2    1    3    3  502    0 -0.29943758065E+03 -0.92835755790E+01  0.40767315001E+03  0.50591150089E+03  0.25500000920E-02 0.  1.
       -2    1    3    3    0  502  0.29943758065E+03  0.92835755790E+01  0.37362649628E+03  0.47890062457E+03  0.25500000920E-02 0. -1.
</event>
<event>
 5   0  0.3651984E-02  0.6004657E+03  0.7818609E-02  0.9904440E-01
        1   -1    0    0  501    0  0.00000000000E+00  0.00000000000E+00  0.68690092660E+03  0.68690092662E+03  0.50400001928E-02 0.  1.
       -1   -1    0    0    0  501  0.00000000000E+00  0.00000000000E+00 -0.13122672000E+03  0.13122672010E+03  0.50400001928E-02 0. -1.
    10030    2    1    2    0    0  0.00000000000E+00  0.00000000000E+00  0.55567420660E+03  0.81812764672E+03  0.60046567132E+03 0.  0.
        1    1    3    3  502    0  0.71431845631E+02  0.25398525530E+03  0.47305247033E+03  0.54165455615E+03  0.50400001928E-02 0.  1.
       -1    1    3    3    0  502 -0.71431845631E+02 -0.25398525530E+03  0.82621736271E+02  0.27647309057E+03  0.50400001928E-02 0. -1.
</event>
<event>
 5   0  0.6007360E-02  0.5951013E+03  0.7818609E-02  0.9915622E-01
        2   -1    0    0  501    0  0.00000000000E+00  0.00000000000E+00  0.59620320499E+03  0.59620320499E+03  0.25500000920E-02 0. -1.
       -2   -1    0    0    0  501  0.00000000000E+00  0.00000000000E+00 -0.14850036800E+03  0.14850036803E+03  0.25500000920E-02 0.  1.
    10030    2    1    2    0    0  0.00000000000E+00  0.00000000000E+00  0.44770283698E+03  0.74470357302E+03  0.59510132030E+03 0.  0.
        4    1    3    3  502    0 -0.45625494707E+02  0.29357586391E+03  0.24427280846E+03  0.38462877101E+03  0.12699999809E+01 0. -1.
       -4    1    3    3    0  502  0.45625494707E+02 -0.29357586391E+03  0.20343002852E+03  0.36007480201E+03  0.12699999809E+01 0.  1.
</event>
<event>
 5   0  0.3651984E-02  0.6018132E+03  0.7818609E-02  0.9901651E-01
       -1   -1    0    0    0  501  0.00000000000E+00  0.00000000000E+00  0.94329881456E+02  0.94329881591E+02  0.50400001928E-02 0. -1.
        1   -1    0    0  501    0  0.00000000000E+00  0.00000000000E+00 -0.95987385432E+03  0.95987385433E+03  0.50400001928E-02 0.  1.
    10030    2    1    2    0    0  0.00000000000E+00  0.00000000000E+00 -0.86554397286E+03  0.10542037359E+04  0.60181321677E+03 0.  0.
        1    1    3    3  502    0  0.10513523209E+03  0.68152895926E+02  0.46463236898E+02  0.13363033584E+03  0.50400001928E-02 0. -1.
       -1    1    3    3    0  502 -0.10513523209E+03 -0.68152895926E+02 -0.91200720976E+03  0.92057340008E+03  0.50400001928E-02 0.  1.
</event>
<event>
 5   0  0.5935451E-02  0.5965650E+03  0.7818609E-02  0.9912558E-01
        2   -1    0    0  501    0  0.00000000000E+00  0.00000000000E+00  0.14941743397E+04  0.14941743397E+04  0.25500000920E-02 0.  1.
       -2   -1    0    0    0  501  0.00000000000E+00  0.00000000000E+00 -0.59546221107E+02  0.59546221162E+02  0.25500000920E-02 0. -1.
    10030    2    1    2    0    0  0.00000000000E+00  0.00000000000E+00  0.14346281186E+04  0.15537205609E+04  0.59656495254E+03 0.  0.
        3    1    3    3  502    0 -0.10868350567E+03 -0.15713855403E+02  0.14396116572E+04  0.14437938784E+04  0.10100000352E+00 0.  1.
       -3    1    3    3    0  502  0.10868350567E+03  0.15713855403E+02 -0.49835385893E+01  0.10992668245E+03  0.10100000352E+00 0. -1.
</event>
<event>
 5   0  0.5935451E-02  0.5749547E+03  0.7818609E-02  0.9958774E-01
       -2   -1    0    0    0  501  0.00000000000E+00  0.00000000000E+00  0.11311038825E+03  0.11311038828E+03  0.25500000920E-02 0.  1.
        2   -1    0    0  501    0  0.00000000000E+00  0.00000000000E+00 -0.73064228722E+03  0.73064228722E+03  0.25500000920E-02 0. -1.
    10030    2    1    2    0    0  0.00000000000E+00  0.00000000000E+00 -0.61753189897E+03  0.84375267550E+03  0.57495472098E+03 0.  0.
        3    1    3    3  502    0  0.66488459425E+02  0.19297488725E+03 -0.11678399223E+02  0.20444172166E+03  0.10100000352E+00 0.  1.
       -3    1    3    3    0  502 -0.66488459425E+02 -0.19297488725E+03 -0.60585349975E+03  0.63931095384E+03  0.10100000352E+00 0. -1.
</event>
<event>
 5   0  0.3478183E-02  0.5981024E+03  0.7818609E-02  0.9909351E-01
        1   -1    0    0  501    0  0.00000000000E+00  0.00000000000E+00  0.67960971662E+03  0.67960971664E+03  0.50400001928E-02 0. -1.
       -1   -1    0    0    0  501  0.00000000000E+00  0.00000000000E+00 -0.13159262670E+03  0.13159262680E+03  0.50400001928E-02 0.  1.
    10030    2    1    2    0    0  0.00000000000E+00  0.00000000000E+00  0.54801708991E+03  0.81120234344E+03  0.59810242531E+03 0.  0.
        4    1    3    3  502    0  0.86405059807E+02 -0.17786814753E+03 -0.30258276285E+02  0.20005021482E+03  0.12699999809E+01 0.  1.
       -4    1    3    3    0  502 -0.86405059807E+02  0.17786814753E+03  0.57827536620E+03  0.61115212862E+03  0.12699999809E+01 0. -1.
</event>
<event>
 5   0  0.3651984E-02  0.5997902E+03  0.7818609E-02  0.9905841E-01
        1   -1    0    0  501    0  0.00000000000E+00  0.00000000000E+00  0.84988194741E+02  0.84988194891E+02  0.50400001928E-02 0.  1.
       -1   -1    0    0    0  501  0.00000000000E+00  0.00000000000E+00 -0.10582301830E+04  0.10582301831E+04  0.50400001928E-02 0. -1.
    10030    2    1    2    0    0  0.00000000000E+00  0.00000000000E+00 -0.97324198830E+03  0.11432183779E+04  0.59979020655E+03 0.  0.
        1    1    3    3  502    0  0.43775860075E+01 -0.15520464439E+03 -0.97565591028E+03  0.98793324683E+03  0.50400001928E-02 0. -1.
       -1    1    3    3    0  502 -0.43775860075E+01  0.15520464439E+03  0.24139219818E+01  0.15528513111E+03  0.50400001928E-02 0.  1.
</event>
<event>
 5   0  0.5872632E-02  0.5981165E+03  0.7818609E-02  0.9909321E-01
       -2   -1    0    0    0  501  0.00000000000E+00  0.00000000000E+00  0.13740925615E+03  0.13740925618E+03  0.25500000920E-02 0. -1.
        2   -1    0    0  501    0  0.00000000000E+00  0.00000000000E+00 -0.65087202162E+03  0.65087202163E+03  0.25500000920E-02 0.  1.
    10030    2    1    2    0    0  0.00000000000E+00  0.00000000000E+00 -0.51346276547E+03  0.78828127780E+03  0.59811651157E+03 0.  0.
        1    1    3    3  502    0  0.20092338902E+03  0.15451239132E+02  0.34491138517E+02  0.20444702909E+03  0.50400001928E-02 0. -1.
       -1    1    3    3    0  502 -0.20092338902E+03 -0.15451239132E+02 -0.54795390399E+03  0.58383424871E+03  0.50400001928E-02 0.  1.
</event>
<event>
 5   0  0.3767635E-02  0.5993487E+03  0.7818609E-02  0.9906758E-01
       -1   -1    0    0    0  501  0.00000000000E+00  0.00000000000E+00  0.14403080568E+03  0.14403080577E+03  0.50400001928E-02 0. -1.
        1   -1    0    0  501    0  0.00000000000E+00  0.00000000000E+00 -0.62351038481E+03  0.62351038483E+03  0.50400001928E-02 0.  1.
    10030    2    1    2    0    0  0.00000000000E+00  0.00000000000E+00 -0.47947957913E+03  0.76754119060E+03  0.59934865685E+03 0.  0.
        2    1    3    3  502    0  0.15236193704E+03 -0.25337278346E+03 -0.17709670075E+03  0.34463773543E+03  0.25500000920E-02 0. -1.
       -2    1    3    3    0  502 -0.15236193704E+03  0.25337278346E+03 -0.30238287838E+03  0.42290345518E+03  0.25500000920E-02 0.  1.
</event>
<event>
 5   0  0.5999117E-02  0.5968840E+03  0.7818609E-02  0.9911892E-01
        2   -1    0    0  501    0  0.00000000000E+00  0.00000000000E+00  0.11443675097E+04  0.11443675097E+04  0.25500000920E-02 0.  1.
       -2   -1    0    0    0  501  0.00000000000E+00  0.00000000000E+00 -0.77831319749E+02  0.77831319791E+02  0.25500000920E-02 0. -1.
    10030    2    1    2    0    0  0.00000000000E+00  0.00000000000E+00  0.10665361900E+04  0.12221988295E+04  0.59688402085E+03 0.  0.
        5    1    3    3  502    0 -0.68726813473E+02 -0.22179250491E+03  0.91705712105E+03  0.94600800388E+03  0.46999998093E+01 0.  1.
       -5    1    3    3    0  502  0.68726813473E+02  0.22179250491E+03  0.14947906893E+03  0.27619082565E+03  0.46999998093E+01 0. -1.
</event>
<event>
 5   0  0.3767635E-02  0.5894566E+03  0.7818609E-02  0.9927525E-01
       -1   -1    0    0    0  501  0.00000000000E+00  0.00000000000E+00  0.24275034490E+03  0.24275034495E+03  0.50400001928E-02 0.  1.
        1   -1    0    0  501    0  0.00000000000E+00  0.00000000000E+00 -0.35783585489E+03  0.35783585493E+03  0.50400001928E-02 0. -1.
    10030    2    1    2    0    0  0.00000000000E+00  0.00000000000E+00 -0.11508550999E+03  0.60058619988E+03  0.58945662170E+03 0.  0.
        2    1    3    3  502    0 -0.16272298241E+03 -0.22235076669E+03  0.49056480924E+02  0.27986634449E+03  0.25500000920E-02 0.  1.
       -2    1    3    3    0  502  0.16272298241E+03  0.22235076669E+03 -0.16414199092E+03  0.32071985539E+03  0.25500000920E-02 0. -1.
</event>
<event>
 5   0  0.3703280E-02  0.5983504E+03  0.7818609E-02  0.9908834E-01
        1   -1    0    0  501    0  0.00000000000E+00  0.00000000000E+00  0.72609387125E+03  0.72609387126E+03  0.50400001928E-02 0.  1.
       -1   -1    0    0    0  501  0.00000000000E+00  0.00000000000E+00 -0.12327030495E+03  0.12327030505E+03  0.50400001928E-02 0. -1.
    10030    2    1    2    0    0  0.00000000000E+00  0.00000000000E+00  0.60282356629E+03  0.84936417632E+03  0.59835044241E+03 0.  0.
        5    1    3    3  502    0  0.13684410884E+03  0.10111619480E+03 -0.47836406856E+02  0.17680839006E+03  0.46999998093E+01 0. -1.
       -5    1    3    3    0  502 -0.13684410884E+03 -0.10111619480E+03  0.65065997315E+03  0.67255578626E+03  0.46999998093E+01 0.  1.
</event>
<event>
 5   0  0.3651984E-02  0.6053699E+03  0.7818609E-02  0.9894327E-01
       -1   -1    0    0    0  501  0.00000000000E+00  0.00000000000E+00  0.17253798850E+03  0.17253798858E+03  0.50400001928E-02 0.  1.
        1   -1    0    0  501    0  0.00000000000E+00  0.00000000000E+00 -0.53100297951E+03  0.53100297954E+03  0.50400001928E-02 0. -1.
    10030    2    1    2    0    0  0.00000000000E+00  0.00000000000E+00 -0.35846499101E+03  0.70354096811E+03  0.60536992330E+03 0.  0.
        1    1    3    3  502    0 -0.85114956591E+02 -0.24353197675E+03  0.47639329135E+01  0.25802146154E+03  0.50400001928E-02 0.  1.
       -1    1    3    3    0  502  0.85114956591E+02  0.24353197675E+03 -0.36322892392E+03  0.44551950657E+03  0.50400001928E-02 0. -1.
</event>
<event>
 5   0  0.5999117E-02  0.6097102E+03  0.7818609E-02  0.9885463E-01
        2   -1    0    0  501    0  0.00000000000E+00  0.00000000000E+00  0.38412509069E+03  0.38412509069E+03  0.25500000920E-02 0. -1.
       -2   -1    0    0    0  501  0.00000000000E+00  0.00000000000E+00 -0.24194363019E+03  0.24194363020E+03  0.25500000920E-02 0.  1.
    10030    2    1    2    0    0  0.00000000000E+00  0.00000000000E+00  0.14218146049E+03  0.62606872090E+03  0.60971015703E+03 0.  0.
        5    1    3    3  502    0  0.15640542706E+03 -0.20464223929E+03  0.23847796882E+03  0.35104833760E+03  0.46999998093E+01 0. -1.
       -5    1    3    3    0  502 -0.15640542706E+03  0.20464223929E+03 -0.96296508327E+02  0.27502038330E+03  0.46999998093E+01 0.  1.
</event>
<event>
 5   0  0.3767635E-02  0.5903395E+03  0.7818609E-02  0.9925654E-01
       -1   -1    0    0    0  501  0.00000000000E+00  0.00000000000E+00  0.99751867455E+02  0.99751867583E+02  0.50400001928E-02 0. -1.
        1   -1    0    0  501    0  0.00000000000E+00  0.00000000000E+00 -0.87341915572E+03  0.87341915574E+03  0.50400001928E-02 0.  1.
    10030    2    1    2    0    0  0.00000000000E+00  0.00000000000E+00 -0.77366728827E+03  0.97317102332E+03  0.59033953594E+03 0.  0.
        2    1    3    3  502    0  0.24959529088E+03 -0.77898068448E+02 -0.16104852857E+03  0.30708719749E+03  0.25500000920E-02 0. -1.
       -2    1    3    3    0  502 -0.24959529088E+03  0.77898068448E+02 -0.61261875970E+03  0.66608382583E+03  0.25500000920E-02 0.  1.
</event>
<event>
 5   0  0.3640827E-02  0.6105664E+03  0.7818609E-02  0.9883723E-01
       -1   -1    0    0    0  501  0.00000000000E+00  0.00000000000E+00  0.27989453805E+03  0.27989453810E+03  0.50400001928E-02 0. -1.
        1   -1    0    0  501    0  0.00000000000E+00  0.00000000000E+00 -0.33297479732E+03  0.33297479735E+03  0.50400001928E-02 0.  1.
    10030    2    1    2    0    0  0.00000000000E+00  0.00000000000E+00 -0.53080259265E+02  0.61286933545E+03  0.61056638330E+03 0.  0.
        3    1    3    3  502    0  0.67351675895E+00 -0.15392270302E+03 -0.29117285027E+03  0.32935435486E+03  0.10100000352E+00 0.  1.
       -3    1    3    3    0  502 -0.67351675895E+00  0.15392270302E+03  0.23809259100E+03  0.28351498059E+03  0.10100000352E+00 0. -1.
</event>
<event>
 5   0  0.5935451E-02  0.5833450E+03  0.7818609E-02  0.9940575E-01
       -2   -1    0    0    0  501  0.00000000000E+00  0.00000000000E+00  0.74735258581E+02  0.74735258624E+02  0.25500000920E-02 0.  1.
        2   -1    0    0  501    0  0.00000000000E+00  0.00000000000E+00 -0.11383229317E+04  0.11383229317E+04  0.25500000920E-02 0. -1.
    10030    2    1    2    0    0  0.00000000000E+00  0.00000000000E+00 -0.10635876731E+04  0.12130581903E+04  0.58334503916E+03 0.  0.
        3    1    3    3  502    0  0.51479655942E+02 -0.53891159973E+02 -0.11181885433E+04  0.11206694609E+04  0.10100000352E+00 0. -1.
       -3    1    3    3    0  502 -0.51479655942E+02  0.53891159973E+02  0.54600870162E+02  0.92388729413E+02  0.10100000352E+00 0.  1.
</event>
<event>
 5   0  0.5999117E-02  0.6080986E+03  0.7818609E-02  0.9888745E-01
       -2   -1    0    0    0  501  0.00000000000E+00  0.00000000000E+00  0.17006300478E+03  0.17006300479E+03  0.25500000920E-02 0.  1.
        2   -1    0    0  501    0  0.00000000000E+00  0.00000000000E+00 -0.54359832034E+03  0.54359832034E+03  0.25500000920E-02 0. -1.
    10030    2    1    2    0    0  0.00000000000E+00  0.00000000000E+00 -0.37353531556E+03  0.71366132514E+03  0.60809855700E+03 0.  0.
        5    1    3    3  502    0 -0.25864281724E+02 -0.18889885254E+03 -0.46466970117E+03  0.50228653052E+03  0.46999998093E+01 0. -1.
       -5    1    3    3    0  502  0.25864281724E+02  0.18889885254E+03  0.91134385606E+02  0.21137479462E+03  0.46999998093E+01 0.  1.
</event>
<event>
 5   0  0.5872632E-02  0.6091058E+03  0.7818609E-02  0.9886693E-01
        2   -1    0    0  501    0  0.00000000000E+00  0.00000000000E+00  0.24511980999E+04  0.24511980999E+04  0.25500000920E-02 0. -1.
       -2   -1    0    0    0  501  0.00000000000E+00  0.00000000000E+00 -0.37839643327E+02  0.37839643413E+02  0.25500000920E-02 0.  1.
    10030    2    1    2    0    0  0.00000000000E+00  0.00000000000E+00  0.24133584566E+04  0.24890377433E+04  0.60910577712E+03 0.  0.
        1    1    3    3  502    0  0.30199221091E+03 -0.33685634880E+02  0.12902698731E+04  0.13255679397E+04  0.50400001928E-02 0. -1.
       -1    1    3    3    0  502 -0.30199221091E+03  0.33685634880E+02  0.11230885835E+04  0.11634698036E+04  0.50400001928E-02 0.  1.
</event>
<event>
 5   0  0.3478183E-02  0.5987747E+03  0.7818609E-02  0.9907951E-01
        1   -1    0    0  501    0  0.00000000000E+00  0.00000000000E+00  0.49433089908E+03  0.49433089910E+03  0.50400001928E-02 0.  1.
       -1   -1    0    0    0  501  0.00000000000E+00  0.00000000000E+00 -0.18132145551E+03  0.18132145558E+03  0.50400001928E-02 0. -1.
    10030    2    1    2    0    0  0.00000000000E+00  0.00000000000E+00  0.31300944357E+03  0.67565235468E+03  0.59877474281E+03 0.  0.
        4    1    3    3  502    0 -0.27845555108E+03  0.19652952475E+02  0.27859779605E+03  0.39438823174E+03  0.12699999809E+01 0.  1.
       -4    1    3    3    0  502  0.27845555108E+03 -0.19652952475E+02  0.34411647519E+02  0.28126412294E+03  0.12699999809E+01 0. -1.
</event>
<event>
 5   0  0.3640827E-02  0.6056001E+03  0.7818609E-02  0.9893855E-01
        1   -1    0    0  501    0  0.00000000000E+00  0.00000000000E+00  0.58965943697E+03  0.58965943699E+03  0.50400001928E-02 0.  1.
       -1   -1    0    0    0  501  0.00000000000E+00  0.00000000000E+00 -0.15549294453E+03  0.15549294461E+03  0.50400001928E-02 0. -1.
    10030    2    1    2    0    0  0.00000000000E+00  0.00000000000E+00  0.43416649244E+03  0.74515238160E+03  0.60560013924E+03 0.  0.
        3    1    3    3  502    0  0.73412408607E+02 -0.21431215703E+03 -0.30135836856E+02  0.22853284502E+03  0.10100000352E+00 0. -1.
       -3    1    3    3    0  502 -0.73412408607E+02  0.21431215703E+03  0.46430232929E+03  0.51661953658E+03  0.10100000352E+00 0.  1.
</event>
<event>
 5   0  0.3651984E-02  0.6706499E+03  0.7818609E-02  0.9768784E-01
        1   -1    0    0  501    0  0.00000000000E+00  0.00000000000E+00  0.15061430629E+03  0.15061430637E+03  0.50400001928E-02 0. -1.
       -1   -1    0    0    0  501  0.00000000000E+00  0.00000000000E+00 -0.74656141069E+03  0.74656141071E+03  0.50400001928E-02 0.  1.
    10030    2    1    2    0    0  0.00000000000E+00  0.00000000000E+00 -0.59594710440E+03  0.89717571708E+03  0.67064992065E+03 0.  0.
        1    1    3    3  502    0 -0.18420708833E+03  0.11179637462E+03 -0.64168465877E+03  0.67689724633E+03  0.50400001928E-02 0.  1.
       -1    1    3    3    0  502  0.18420708833E+03 -0.11179637462E+03  0.45737554366E+02  0.22027847075E+03  0.50400001928E-02 0. -1.
</event>
<event>
 5   0  0.5755078E-02  0.6221773E+03  0.7818609E-02  0.9860434E-01
        2   -1    0    0  501    0  0.00000000000E+00  0.00000000000E+00  0.29721106317E+03  0.29721106319E+03  0.25500000920E-02 0. -1.
       -2   -1    0    0    0  501  0.00000000000E+00  0.00000000000E+00 -0.32561416674E+03  0.32561416675E+03  0.25500000920E-02 0.  1.
    10030    2    1    2    0    0  0.00000000000E+00  0.00000000000E+00 -0.28403103566E+02  0.62282522994E+03  0.62217725027E+03 0.  0.
        2    1    3    3  502    0 -0.27074227345E+03 -0.38688894953E+02 -0.16260548045E+03  0.31818037573E+03  0.25500000920E-02 0.  1.
       -2    1    3    3    0  502  0.27074227345E+03  0.38688894953E+02  0.13420237688E+03  0.30464485420E+03  0.25500000920E-02 0. -1.
</event>
<event>
 5   0  0.3651984E-02  0.5857399E+03  0.7818609E-02  0.9935441E-01
       -1   -1    0    0    0  501  0.00000000000E+00  0.00000000000E+00  0.12205980848E+03  0.12205980858E+03  0.50400001928E-02 0.  1.
        1   -1    0    0  501    0  0.00000000000E+00  0.00000000000E+00 -0.70271125018E+03  0.70271125020E+03  0.50400001928E-02 0. -1.
    10030    2    1    2    0    0  0.00000000000E+00  0.00000000000E+00 -0.58065144170E+03  0.82477105879E+03  0.58573987627E+03 0.  0.
        1    1    3    3  502    0  0.17250315938E+02 -0.19741009689E+03  0.13326192797E+02  0.19860993730E+03  0.50400001928E-02 0.  1.
       -1    1    3    3    0  502 -0.17250315938E+02  0.19741009689E+03 -0.59397763450E+03  0.62616112149E+03  0.50400001928E-02 0. -1.
</event>
<event>
 5   0  0.2388000E-02  0.6007416E+03  0.7818609E-02  0.9903869E-01
        4   -1    0    0  501    0  0.00000000000E+00  0.00000000000E+00  0.37668307742E+03  0.37668521833E+03  0.12699999809E+01 0.  1.
       -4   -1    0    0    0  501  0.00000000000E+00  0.00000000000E+00 -0.23951414677E+03  0.23951751377E+03  0.12699999809E+01 0. -1.
    10030    2    1    2    0    0  0.00000000000E+00  0.00000000000E+00  0.13716893065E+03  0.61620273210E+03  0.60074161793E+03 0.  0.
        2    1    3    3  502    0  0.86137715383E+02 -0.23850270328E+03 -0.96553976424E+02  0.27134095867E+03  0.25500000920E-02 0. -1.
       -2    1    3    3    0  502 -0.86137715383E+02  0.23850270328E+03  0.23372290707E+03  0.34486177344E+03  0.25500000920E-02 0.  1.
</event>
<event>
 5   0  0.3478183E-02  0.6065884E+03  0.7818609E-02  0.9891831E-01
       -1   -1    0    0    0  501  0.00000000000E+00  0.00000000000E+00  0.78656031137E+03  0.78656031139E+03  0.50400001928E-02 0. -1.
        1   -1    0    0  501    0  0.00000000000E+00  0.00000000000E+00 -0.11694892456E+03  0.11694892467E+03  0.50400001928E-02 0.  1.
    10030    2    1    2    0    0  0.00000000000E+00  0.00000000000E+00  0.66961138681E+03  0.90350923606E+03  0.60658843568E+03 0.  0.
        4    1    3    3  502    0  0.11224102747E+03 -0.23069627386E+03  0.93862297133E+02  0.27318594902E+03  0.12699999809E+01 0.  1.
       -4    1    3    3    0  502 -0.11224102747E+03  0.23069627386E+03  0.57574908968E+03  0.63032328704E+03  0.12699999809E+01 0. -1.
</event>
<event>
 5   0  0.5872632E-02  0.5993413E+03  0.7818609E-02  0.9906774E-01
        2   -1    0    0  501    0  0.00000000000E+00  0.00000000000E+00  0.84898761941E+03  0.84898761941E+03  0.25500000920E-02 0. -1.
       -2   -1    0    0    0  501  0.00000000000E+00  0.00000000000E+00 -0.10577599032E+03  0.10577599035E+03  0.25500000920E-02 0.  1.
    10030    2    1    2    0    0  0.00000000000E+00  0.00000000000E+00  0.74321162909E+03  0.95476360976E+03  0.59934132588E+03 0.  0.
        1    1    3    3  502    0  0.20990743908E+03  0.19152906590E+03  0.52321920345E+03  0.59540142000E+03  0.50400001928E-02 0. -1.
       -1    1    3    3    0  502 -0.20990743908E+03 -0.19152906590E+03  0.21999242564E+03  0.35936218976E+03  0.50400001928E-02 0.  1.
</event>
<event>
 5   0  0.5935451E-02  0.6059862E+03  0.7818609E-02  0.9893064E-01
       -2   -1    0    0    0  501  0.00000000000E+00  0.00000000000E+00  0.17608048099E+03  0.17608048101E+03  0.25500000920E-02 0. -1.
        2   -1    0    0  501    0  0.00000000000E+00  0.00000000000E+00 -0.52137988213E+03  0.52137988213E+03  0.25500000920E-02 0.  1.
    10030    2    1    2    0    0  0.00000000000E+00  0.00000000000E+00 -0.34529940114E+03  0.69746036314E+03  0.60598620589E+03 0.  0.
        3    1    3    3  502    0 -0.73378517199E+02 -0.69170336462E+02  0.15619988628E+03  0.18592298649E+03  0.10100000352E+00 0. -1.
       -3    1    3    3    0  502  0.73378517199E+02  0.69170336462E+02 -0.50149928741E+03  0.51153737665E+03  0.10100000352E+00 0.  1.
</event>
<event>
 5   0  0.2388000E-02  0.5998715E+03  0.7818609E-02  0.9905673E-01
        4   -1    0    0  501    0  0.00000000000E+00  0.00000000000E+00  0.66142519828E+02  0.66154711315E+02  0.12699999809E+01 0. -1.
       -4   -1    0    0    0  501  0.00000000000E+00  0.00000000000E+00 -0.13599773468E+04  0.13599779398E+04  0.12699999809E+01 0.  1.
    10030    2    1    2    0    0  0.00000000000E+00  0.00000000000E+00 -0.12938348269E+04  0.14261326511E+04  0.59987146877E+03 0.  0.
        5    1    3    3  502    0 -0.16442350384E+03 -0.22854882362E+03 -0.89248884892E+03  0.93585687412E+03  0.46999998093E+01 0.  1.
       -5    1    3    3    0  502  0.16442350384E+03  0.22854882362E+03 -0.40134597802E+03  0.49027577695E+03  0.46999998093E+01 0. -1.
</event>
<event>
 5   0  0.2388000E-02  0.5995029E+03  0.7818609E-02  0.9906438E-01
        3   -1    0    0  501    0  0.00000000000E+00  0.00000000000E+00  0.10418372882E+03  0.10418377778E+03  0.10100000352E+00 0.  1.
       -3   -1    0    0    0  501  0.00000000000E+00  0.00000000000E+00 -0.86242739835E+03  0.86242740427E+03  0.10100000352E+00 0. -1.
    10030    2    1    2    0    0  0.00000000000E+00  0.00000000000E+00 -0.75824366953E+03  0.96661118205E+03  0.59950288980E+03 0.  0.
        2    1    3    3  502    0  0.99660284757E+02 -0.13862762028E+03 -0.77636730624E+03  0.79491885351E+03  0.25500000920E-02 0. -1.
       -2    1    3    3    0  502 -0.99660284757E+02  0.13862762028E+03  0.18123636711E+02  0.17169232853E+03  0.25500000920E-02 0.  1.
</event>
<event>
 5   0  0.3703280E-02  0.5985646E+03  0.7818609E-02  0.9908388E-01
       -1   -1    0    0    0  501  0.00000000000E+00  0.00000000000E+00  0.23518180678E+03  0.23518180683E+03  0.50400001928E-02 0. -1.
        1   -1    0    0  501    0  0.00000000000E+00  0.00000000000E+00 -0.38085388908E+03  0.38085388911E+03  0.50400001928E-02 0.  1.
    10030    2    1    2    0    0  0.00000000000E+00  0.00000000000E+00 -0.14567208230E+03  0.61603569594E+03  0.59856463570E+03 0.  0.
        5    1    3    3  502    0 -0.12241626196E+03 -0.21589101191E+03 -0.24490802531E+03  0.34870718530E+03  0.46999998093E+01 0.  1.
       -5    1    3    3    0  502  0.12241626196E+03  0.21589101191E+03  0.99235943012E+02  0.26732851064E+03  0.46999998093E+01 0. -1.
</event>
<event>
 5   0  0.5999117E-02  0.5986285E+03  0.7818609E-02  0.9908256E-01
        2   -1    0    0  501    0  0.00000000000E+00  0.00000000000E+00  0.15967981307E+04  0.15967981307E+04  0.25500000920E-02 0.  1.
       -2   -1    0    0    0  501  0.00000000000E+00  0.00000000000E+00 -0.56105416426E+02  0.56105416484E+02  0.25500000920E-02 0. -1.
    10030    2    1    2    0    0  0.00000000000E+00  0.00000000000E+00  0.15406927143E+04  0.16529035472E+04  0.59862851292E+03 0.  0.
        5    1    3    3  502    0  0.25249194288E+03 -0.16037531218E+03  0.74350317940E+03  0.80143090142E+03  0.46999998093E+01 0. -1.
       -5    1    3    3    0  502 -0.25249194288E+03  0.16037531218E+03  0.79718953486E+03  0.85147264576E+03  0.46999998093E+01 0.  1.
</event>
<event>
 5   0  0.5872632E-02  0.6048300E+03  0.7818609E-02  0.9895436E-01
        2   -1    0    0  501    0  0.00000000000E+00  0.00000000000E+00  0.42006101040E+03  0.42006101041E+03  0.25500000920E-02 0.  1.
       -2   -1    0    0    0  501  0.00000000000E+00  0.00000000000E+00 -0.21771795023E+03  0.21771795024E+03  0.25500000920E-02 0. -1.
    10030    2    1    2    0    0  0.00000000000E+00  0.00000000000E+00  0.20234306017E+03  0.63777896065E+03  0.60482996672E+03 0.  0.
        1    1    3    3  502    0  0.13082215386E+03  0.11555841726E+03  0.36157947834E+03  0.40150703969E+03  0.50400001928E-02 0.  1.
       -1    1    3    3    0  502 -0.13082215386E+03 -0.11555841726E+03 -0.15923641817E+03  0.23627192096E+03  0.50400001928E-02 0. -1.
</event>
<event>
 5   0  0.3703280E-02  0.6048427E+03  0.7818609E-02  0.9895410E-01
        1   -1    0    0  501    0  0.00000000000E+00  0.00000000000E+00  0.20431342086E+03  0.20431342093E+03  0.50400001928E-02 0. -1.
       -1   -1    0    0    0  501  0.00000000000E+00  0.00000000000E+00 -0.44763903303E+03  0.44763903306E+03  0.50400001928E-02 0.  1.
    10030    2    1    2    0    0  0.00000000000E+00  0.00000000000E+00 -0.24332561217E+03  0.65195245399E+03  0.60484266444E+03 0.  0.
        5    1    3    3  502    0  0.23728680912E+03  0.17758133744E+03 -0.18630382073E+03  0.35010193488E+03  0.46999998093E+01 0.  1.
       -5    1    3    3    0  502 -0.23728680912E+03 -0.17758133744E+03 -0.57021791438E+02  0.30185051911E+03  0.46999998093E+01 0. -1.
</event>
<event>
 5   0  0.3767635E-02  0.5998801E+03  0.7818609E-02  0.9905655E-01
       -1   -1    0    0    0  501  0.00000000000E+00  0.00000000000E+00  0.12729685936E+03  0.12729685946E+03  0.50400001928E-02 0. -1.
        1   -1    0    0  501    0  0.00000000000E+00  0.00000000000E+00 -0.70672619120E+03  0.70672619122E+03  0.50400001928E-02 0.  1.
    10030    2    1    2    0    0  0.00000000000E+00  0.00000000000E+00 -0.57942933185E+03  0.83402305068E+03  0.59988007006E+03 0.  0.
        2    1    3    3  502    0 -0.14474207552E+03 -0.25997175129E+03 -0.34226135277E+03  0.45351782049E+03  0.25500000920E-02 0. -1.
       -2    1    3    3    0  502  0.14474207552E+03  0.25997175129E+03 -0.23716797908E+03  0.38050523019E+03  0.25500000920E-02 0.  1.
</event>
<event>
 5   0  0.6007360E-02  0.6140578E+03  0.7818609E-02  0.9876662E-01
        2   -1    0    0  501    0  0.00000000000E+00  0.00000000000E+00  0.13749088579E+03  0.13749088581E+03  0.25500000920E-02 0. -1.
       -2   -1    0    0    0  501  0.00000000000E+00  0.00000000000E+00 -0.68562176354E+03  0.68562176354E+03  0.25500000920E-02 0.  1.
    10030    2    1    2    0    0  0.00000000000E+00  0.00000000000E+00 -0.54813087775E+03  0.82311264935E+03  0.61405779400E+03 0.  0.
        4    1    3    3  502    0  0.16085525726E+03 -0.24204365106E+03 -0.14133001346E+03  0.32316455315E+03  0.12699999809E+01 0. -1.
       -4    1    3    3    0  502 -0.16085525726E+03  0.24204365106E+03 -0.40680086429E+03  0.49994809620E+03  0.12699999809E+01 0.  1.
</event>
<event>
 5   0  0.5872632E-02  0.6006366E+03  0.7818609E-02  0.9904086E-01
        2   -1    0    0  501    0  0.00000000000E+00  0.00000000000E+00  0.10303998748E+04  0.10303998748E+04  0.25500000920E-02 0.  1.
       -2   -1    0    0    0  501  0.00000000000E+00  0.00000000000E+00 -0.87530163675E+02  0.87530163713E+02  0.25500000920E-02 0. -1.
    10030    2    1    2    0    0  0.00000000000E+00  0.00000000000E+00  0.94286971112E+03  0.11179300385E+04  0.60063656137E+03 0.  0.
        1    1    3    3  502    0 -0.34470277464E+02 -0.28650618472E+03  0.62623242158E+03  0.68952232725E+03  0.50400001928E-02 0. -1.
       -1    1    3    3    0  502  0.34470277464E+02  0.28650618472E+03  0.31663728954E+03  0.42840771126E+03  0.50400001928E-02 0.  1.
</event>
<event>
 5   0  0.5999117E-02  0.5967215E+03  0.7818609E-02  0.9912231E-01
        2   -1    0    0  501    0  0.00000000000E+00  0.00000000000E+00  0.18378490897E+04  0.18378490897E+04  0.25500000920E-02 0.  1.
       -2   -1    0    0    0  501  0.00000000000E+00  0.00000000000E+00 -0.48436585549E+02  0.48436585616E+02  0.25500000920E-02 0. -1.
    10030    2    1    2    0    0  0.00000000000E+00  0.00000000000E+00  0.17894125042E+04  0.18862856754E+04  0.59672149191E+03 0.  0.
        5    1    3    3  502    0  0.11258816801E+03 -0.18235861348E+03  0.23870526482E+03  0.32083181410E+03  0.46999998093E+01 0. -1.
       -5    1    3    3    0  502 -0.11258816801E+03  0.18235861348E+03  0.15507072394E+04  0.15654538613E+04  0.46999998093E+01 0.  1.
</event>
<event>
 5   0  0.5999117E-02  0.5911337E+03  0.7818609E-02  0.9923974E-01
        2   -1    0    0  501    0  0.00000000000E+00  0.00000000000E+00  0.45557065246E+03  0.45557065246E+03  0.25500000920E-02 0. -1.
       -2   -1    0    0    0  501  0.00000000000E+00  0.00000000000E+00 -0.19175896026E+03  0.19175896028E+03  0.25500000920E-02 0.  1.
    10030    2    1    2    0    0  0.00000000000E+00  0.00000000000E+00  0.26381169220E+03  0.64732961274E+03  0.59113367235E+03 0.  0.
        5    1    3    3  502    0 -0.11398432505E+03  0.27220260151E+03  0.14925431225E+03  0.33073497298E+03  0.46999998093E+01 0.  1.
       -5    1    3    3    0  502  0.11398432505E+03 -0.27220260151E+03  0.11455737995E+03  0.31659463976E+03  0.46999998093E+01 0. -1.
</event>
<event>
 5   0  0.5999117E-02  0.5977032E+03  0.7818609E-02  0.9910183E-01
       -2   -1    0    0    0  501  0.00000000000E+00  0.00000000000E+00  0.20319947550E+03  0.20319947552E+03  0.25500000920E-02 0. -1.
        2   -1    0    0  501    0  0.00000000000E+00  0.00000000000E+00 -0.43953000314E+03  0.43953000315E+03  0.25500000920E-02 0.  1.
    10030    2    1    2    0    0  0.00000000000E+00  0.00000000000E+00 -0.23633052764E+03  0.64272947867E+03  0.59770315747E+03 0.  0.
        5    1    3    3  502    0 -0.12411643255E+03  0.77634531051E+02  0.16195448666E+03  0.21836518722E+03  0.46999998093E+01 0. -1.
       -5    1    3    3    0  502  0.12411643255E+03 -0.77634531051E+02 -0.39828501431E+03  0.42436429145E+03  0.46999998093E+01 0.  1.
</event>
<event>
 5   0  0.3703280E-02  0.5299575E+03  0.7818609E-02  0.1006242E+00
       -1   -1    0    0    0  501  0.00000000000E+00  0.00000000000E+00  0.19867407528E+03  0.19867407534E+03  0.50400001928E-02 0. -1.
        1   -1    0    0  501    0  0.00000000000E+00  0.00000000000E+00 -0.35341171819E+03  0.35341171822E+03  0.50400001928E-02 0.  1.
    10030    2    1    2    0    0  0.00000000000E+00  0.00000000000E+00 -0.15473764291E+03  0.55208579356E+03  0.52995753162E+03 0.  0.
        5    1    3    3  502    0 -0.42014826549E+02  0.18652159910E+03 -0.26842819304E+03  0.32959268408E+03  0.46999998093E+01 0.  1.
       -5    1    3    3    0  502  0.42014826549E+02 -0.18652159910E+03  0.11369055013E+03  0.22249310948E+03  0.46999998093E+01 0. -1.
</event>
<event>
 5   0  0.5872632E-02  0.5965644E+03  0.7818609E-02  0.9912560E-01
       -2   -1    0    0    0  501  0.00000000000E+00  0.00000000000E+00  0.47541755058E+02  0.47541755126E+02  0.25500000920E-02 0. -1.
        2   -1    0    0  501    0  0.00000000000E+00  0.00000000000E+00 -0.18714551242E+04  0.18714551242E+04  0.25500000920E-02 0.  1.
    10030    2    1    2    0    0  0.00000000000E+00  0.00000000000E+00 -0.18239133691E+04  0.19189968793E+04  0.59656436763E+03 0.  0.
        1    1    3    3  502    0  0.88295175338E+02  0.11084144340E+03 -0.67657627174E+02  0.15703317517E+03  0.50400001928E-02 0. -1.
       -1    1    3    3    0  502 -0.88295175338E+02 -0.11084144340E+03 -0.17562557419E+04  0.17619637041E+04  0.50400001928E-02 0.  1.
</event>
<event>
 5   0  0.2388000E-02  0.5989419E+03  0.7818609E-02  0.9907604E-01
        4   -1    0    0  501    0  0.00000000000E+00  0.00000000000E+00  0.51044404368E+03  0.51044562358E+03  0.12699999809E+01 0. -1.
       -4   -1    0    0    0  501  0.00000000000E+00  0.00000000000E+00 -0.17569158487E+03  0.17569617495E+03  0.12699999809E+01 0.  1.
    10030    2    1    2    0    0  0.00000000000E+00  0.00000000000E+00  0.33475245881E+03  0.68614179853E+03  0.59894186613E+03 0.  0.
        5    1    3    3  502    0 -0.31651031317E+02  0.72879792081E+02  0.49810767453E+03  0.50442699898E+03  0.46999998093E+01 0. -1.
       -5    1    3    3    0  502  0.31651031317E+02 -0.72879792081E+02 -0.16335521571E+03  0.18171479955E+03  0.46999998093E+01 0.  1.
</event>
<event>
 5   0  0.3767635E-02  0.6108423E+03  0.7818609E-02  0.9883164E-01
       -1   -1    0    0    0  501  0.00000000000E+00  0.00000000000E+00  0.51291480764E+03  0.51291480766E+03  0.50400001928E-02 0. -1.
        1   -1    0    0  501    0  0.00000000000E+00  0.00000000000E+00 -0.18186659463E+03  0.18186659470E+03  0.50400001928E-02 0.  1.
    10030    2    1    2    0    0  0.00000000000E+00  0.00000000000E+00  0.33104821301E+03  0.69478140236E+03  0.61084226910E+03 0.  0.
        2    1    3    3  502    0 -0.54157704394E+02  0.24078549487E+03  0.37016836383E+03  0.44489923474E+03  0.25500000920E-02 0. -1.
       -2    1    3    3    0  502  0.54157704394E+02 -0.24078549487E+03 -0.39120150819E+02  0.24988216762E+03  0.25500000920E-02 0.  1.
</event>
<event>
 5   0  0.3640827E-02  0.5959155E+03  0.7818609E-02  0.9913917E-01
       -1   -1    0    0    0  501  0.00000000000E+00  0.00000000000E+00  0.86731115916E+02  0.86731116062E+02  0.50400001928E-02 0. -1.
        1   -1    0    0  501    0  0.00000000000E+00  0.00000000000E+00 -0.10236097916E+04  0.10236097916E+04  0.50400001928E-02 0.  1.
    10030    2    1    2    0    0  0.00000000000E+00  0.00000000000E+00 -0.93687867566E+03  0.11103409077E+04  0.59591549594E+03 0.  0.
        3    1    3    3  502    0  0.68407254309E+02  0.70090837376E+02  0.55881746186E+02  0.11276106457E+03  0.10100000352E+00 0. -1.
       -3    1    3    3    0  502 -0.68407254309E+02 -0.70090837376E+02 -0.99276042185E+03  0.99757984308E+03  0.10100000352E+00 0.  1.
</event>
<event>
 5   0  0.5872632E-02  0.6011229E+03  0.7818609E-02  0.9903079E-01
       -2   -1    0    0    0  501  0.00000000000E+00  0.00000000000E+00  0.47826609255E+02  0.47826609323E+02  0.25500000920E-02 0. -1.
        2   -1    0    0  501    0  0.00000000000E+00  0.00000000000E+00 -0.18888480084E+04  0.18888480084E+04  0.25500000920E-02 0.  1.
    10030    2    1    2    0    0  0.00000000000E+00  0.00000000000E+00 -0.18410213991E+04  0.19366746177E+04  0.60112293487E+03 0.  0.
        1    1    3    3  502    0  0.12508436455E+03 -0.25150018108E+03 -0.12650849081E+04  0.12958928443E+04  0.50400001928E-02 0.  1.
       -1    1    3    3    0  502 -0.12508436455E+03  0.25150018108E+03 -0.57593649107E+03  0.64078177339E+03  0.50400001928E-02 0. -1.
</event>
<event>
 5   0  0.3478183E-02  0.6210198E+03  0.7818609E-02  0.9862731E-01
        1   -1    0    0  501    0  0.00000000000E+00  0.00000000000E+00  0.50151767203E+03  0.50151767206E+03  0.50400001928E-02 0.  1.
       -1   -1    0    0    0  501  0.00000000000E+00  0.00000000000E+00 -0.19224926726E+03  0.19224926733E+03  0.50400001928E-02 0. -1.
    10030    2    1    2    0    0  0.00000000000E+00  0.00000000000E+00  0.30926840477E+03  0.69376693939E+03  0.62101982255E+03 0.  0.
        4    1    3    3  502    0 -0.23476833558E+03 -0.18273528778E+03  0.55300071026E+02  0.30260216051E+03  0.12699999809E+01 0. -1.
       -4    1    3    3    0  502  0.23476833558E+03  0.18273528778E+03  0.25396833374E+03  0.39116477888E+03  0.12699999809E+01 0.  1.
</event>
<event>
 5   0  0.3478183E-02  0.6010721E+03  0.7818609E-02  0.9903184E-01
        1   -1    0    0  501    0  0.00000000000E+00  0.00000000000E+00  0.53029052719E+03  0.53029052721E+03  0.50400001928E-02 0. -1.
       -1   -1    0    0    0  501  0.00000000000E+00  0.00000000000E+00 -0.17032537139E+03  0.17032537146E+03  0.50400001928E-02 0.  1.
    10030    2    1    2    0    0  0.00000000000E+00  0.00000000000E+00  0.35996515580E+03  0.70061589867E+03  0.60107214549E+03 0.  0.
        4    1    3    3  502    0  0.11198728951E+03  0.27122350418E+03  0.10428988703E+03  0.31141826483E+03  0.12699999809E+01 0.  1.
       -4    1    3    3    0  502 -0.11198728951E+03 -0.27122350418E+03  0.25567526877E+03  0.38919763384E+03  0.12699999809E+01 0. -1.
</event>
<event>
 5   0  0.3640827E-02  0.5963277E+03  0.7818609E-02  0.9913054E-01
       -1   -1    0    0    0  501  0.00000000000E+00  0.00000000000E+00  0.23399221920E+03  0.23399221925E+03  0.50400001928E-02 0.  1.
        1   -1    0    0  501    0  0.00000000000E+00  0.00000000000E+00 -0.37993437257E+03  0.37993437261E+03  0.50400001928E-02 0. -1.
    10030    2    1    2    0    0  0.00000000000E+00  0.00000000000E+00 -0.14594215337E+03  0.61392659186E+03  0.59632771868E+03 0.  0.
        3    1    3    3  502    0  0.34212175021E+01  0.23589087535E+03 -0.26068551022E+03  0.35158662552E+03  0.10100000352E+00 0. -1.
       -3    1    3    3    0  502 -0.34212175021E+01 -0.23589087535E+03  0.11474335685E+03  0.26233996635E+03  0.10100000352E+00 0.  1.
</event>
<event>
 5   0  0.5755078E-02  0.6154454E+03  0.7818609E-02  0.9873870E-01
       -2   -1    0    0    0  501  0.00000000000E+00  0.00000000000E+00  0.49348178140E+02  0.49348178206E+02  0.25500000920E-02 0.  1.
        2   -1    0    0  501    0  0.00000000000E+00  0.00000000000E+00 -0.19188806052E+04  0.19188806052E+04  0.25500000920E-02 0. -1.
    10030    2    1    2    0    0  0.00000000000E+00  0.00000000000E+00 -0.18695324271E+04  0.19682287835E+04  0.61544540620E+03 0.  0.
        2    1    3    3  502    0  0.28403705506E+03  0.11694876204E+03 -0.99366606860E+03  0.10400607278E+04  0.25500000920E-02 0.  1.
       -2    1    3    3    0  502 -0.28403705506E+03 -0.11694876204E+03 -0.87586635851E+03  0.92816805567E+03  0.25500000920E-02 0. -1.
</event>
<event>
 5   0  0.6007360E-02  0.5984993E+03  0.7818609E-02  0.9908524E-01
        2   -1    0    0  501    0  0.00000000000E+00  0.00000000000E+00  0.42833521493E+03  0.42833521494E+03  0.25500000920E-02 0.  1.
       -2   -1    0    0    0  501  0.00000000000E+00  0.00000000000E+00 -0.20906604741E+03  0.20906604743E+03  0.25500000920E-02 0. -1.
    10030    2    1    2    0    0  0.00000000000E+00  0.00000000000E+00  0.21926916752E+03  0.63740126237E+03  0.59849929110E+03 0.  0.
        4    1    3    3  502    0  0.14341187038E+03  0.10260262103E+03  0.36712327586E+03  0.40727800700E+03  0.12699999809E+01 0.  1.
       -4    1    3    3    0  502 -0.14341187038E+03 -0.10260262103E+03 -0.14785410834E+03  0.23012325537E+03  0.12699999809E+01 0. -1.
</event>
<event>
 5   0  0.5999117E-02  0.5792571E+03  0.7818609E-02  0.9949401E-01
        2   -1    0    0  501    0  0.00000000000E+00  0.00000000000E+00  0.14564019547E+03  0.14564019549E+03  0.25500000920E-02 0.  1.
       -2   -1    0    0    0  501  0.00000000000E+00  0.00000000000E+00 -0.57597211777E+03  0.57597211778E+03  0.25500000920E-02 0. -1.
    10030    2    1    2    0    0  0.00000000000E+00  0.00000000000E+00 -0.43033192230E+03  0.72161231327E+03  0.57925708223E+03 0.  0.
        5    1    3    3  502    0  0.19653512442E+03  0.20377086184E+03 -0.29108531678E+03  0.40608049806E+03  0.46999998093E+01 0. -1.
       -5    1    3    3    0  502 -0.19653512442E+03 -0.20377086184E+03 -0.13924660552E+03  0.31553181521E+03  0.46999998093E+01 0.  1.
</event>
<event>
 5   0  0.5935451E-02  0.6053778E+03  0.7818609E-02  0.9894311E-01
       -2   -1    0    0    0  501  0.00000000000E+00  0.00000000000E+00  0.10939203582E+03  0.10939203585E+03  0.25500000920E-02 0.  1.
        2   -1    0    0  501    0  0.00000000000E+00  0.00000000000E+00 -0.83754322247E+03  0.83754322247E+03  0.25500000920E-02 0. -1.
    10030    2    1    2    0    0  0.00000000000E+00  0.00000000000E+00 -0.72815118665E+03  0.94693525832E+03  0.60537776045E+03 0.  0.
        3    1    3    3  502    0 -0.27113670856E+03  0.12205052314E+03 -0.45268618959E+03  0.54160524497E+03  0.10100000352E+00 0.  1.
       -3    1    3    3    0  502  0.27113670856E+03 -0.12205052314E+03 -0.27546499705E+03  0.40533001336E+03  0.10100000352E+00 0. -1.
</event>
<event>
 5   0  0.5999117E-02  0.5747867E+03  0.7818609E-02  0.9959142E-01
        2   -1    0    0  501    0  0.00000000000E+00  0.00000000000E+00  0.10045144511E+04  0.10045144511E+04  0.25500000920E-02 0.  1.
       -2   -1    0    0    0  501  0.00000000000E+00  0.00000000000E+00 -0.82223733364E+02  0.82223733404E+02  0.25500000920E-02 0. -1.
    10030    2    1    2    0    0  0.00000000000E+00  0.00000000000E+00  0.92229071777E+03  0.10867381845E+04  0.57478666795E+03 0.  0.
        5    1    3    3  502    0 -0.25373531152E+03  0.37892043988E+01  0.71605004277E+03  0.75970107288E+03  0.46999998093E+01 0.  1.
       -5    1    3    3    0  502  0.25373531152E+03 -0.37892043988E+01  0.20624067500E+03  0.32703711167E+03  0.46999998093E+01 0. -1.
</event>
<event>
 5   0  0.5755078E-02  0.6027441E+03  0.7818609E-02  0.9899729E-01
        2   -1    0    0  501    0  0.00000000000E+00  0.00000000000E+00  0.75764902421E+03  0.75764902421E+03  0.25500000920E-02 0.  1.
       -2   -1    0    0    0  501  0.00000000000E+00  0.00000000000E+00 -0.11987754494E+03  0.11987754497E+03  0.25500000920E-02 0. -1.
    10030    2    1    2    0    0  0.00000000000E+00  0.00000000000E+00  0.63777147927E+03  0.87752656918E+03  0.60274407492E+03 0.  0.
        2    1    3    3  502    0  0.29273189547E+03 -0.38111785671E+02  0.23055972221E+03  0.37456942794E+03  0.25500000920E-02 0. -1.
       -2    1    3    3    0  502 -0.29273189547E+03  0.38111785671E+02  0.40721175706E+03  0.50295714124E+03  0.25500000920E-02 0.  1.
</event>
<event>
 5   0  0.3651984E-02  0.6065096E+03  0.7818609E-02  0.9891992E-01
        1   -1    0    0  501    0  0.00000000000E+00  0.00000000000E+00  0.16372270924E+03  0.16372270932E+03  0.50400001928E-02 0. -1.
       -1   -1    0    0    0  501  0.00000000000E+00  0.00000000000E+00 -0.56170258273E+03  0.56170258275E+03  0.50400001928E-02 0.  1.
    10030    2    1    2    0    0  0.00000000000E+00  0.00000000000E+00 -0.39797987348E+03  0.72542529207E+03  0.60650958334E+03 0.  0.
        1    1    3    3  502    0 -0.21648382867E+03  0.92291007794E+02  0.29770217863E+02  0.23721118037E+03  0.50400001928E-02 0. -1.
       -1    1    3    3    0  502  0.21648382867E+03 -0.92291007794E+02 -0.42775009135E+03  0.48821411171E+03  0.50400001928E-02 0.  1.
</event>
<event>
 5   0  0.3478183E-02  0.6008183E+03  0.7818609E-02  0.9903710E-01
        1   -1    0    0  501    0  0.00000000000E+00  0.00000000000E+00  0.23370135234E+04  0.23370135234E+04  0.50400001928E-02 0. -1.
       -1   -1    0    0    0  501  0.00000000000E+00  0.00000000000E+00 -0.38615808276E+02  0.38615808605E+02  0.50400001928E-02 0.  1.
    10030    2    1    2    0    0  0.00000000000E+00  0.00000000000E+00  0.22983977151E+04  0.23756293320E+04  0.60081833047E+03 0.  0.
        4    1    3    3  502    0  0.30933172287E+02 -0.26884996350E+03  0.63355725268E+03  0.68893654958E+03  0.12699999809E+01 0.  1.
       -4    1    3    3    0  502 -0.30933172287E+02  0.26884996350E+03  0.16648404625E+04  0.16866927824E+04  0.12699999809E+01 0. -1.
</event>
<event>
 5   0  0.6007360E-02  0.5990182E+03  0.7818609E-02  0.9907445E-01
        2   -1    0    0  501    0  0.00000000000E+00  0.00000000000E+00  0.41055304672E+03  0.41055304673E+03  0.25500000920E-02 0. -1.
       -2   -1    0    0    0  501  0.00000000000E+00  0.00000000000E+00 -0.21849968614E+03  0.21849968616E+03  0.25500000920E-02 0.  1.
    10030    2    1    2    0    0  0.00000000000E+00  0.00000000000E+00  0.19205336058E+03  0.62905273289E+03  0.59901823632E+03 0.  0.
        4    1    3    3  502    0 -0.12242996109E+03 -0.24498430308E+03 -0.31285988535E+02  0.27565708790E+03  0.12699999809E+01 0.  1.
       -4    1    3    3    0  502  0.12242996109E+03  0.24498430308E+03  0.22333934912E+03  0.35339564499E+03  0.12699999809E+01 0. -1.
</event>
<event>
 5   0  0.6007360E-02  0.6670687E+03  0.7818609E-02  0.9775268E-01
       -2   -1    0    0    0  501  0.00000000000E+00  0.00000000000E+00  0.15951585990E+03  0.15951585992E+03  0.25500000920E-02 0. -1.
        2   -1    0    0  501    0  0.00000000000E+00  0.00000000000E+00 -0.69739255064E+03  0.69739255064E+03  0.25500000920E-02 0.  1.
    10030    2    1    2    0    0  0.00000000000E+00  0.00000000000E+00 -0.53787669074E+03  0.85690841057E+03  0.66706872934E+03 0.  0.
        4    1    3    3  502    0  0.17067186442E+03  0.13229879659E+03  0.57588893455E+02  0.22349485550E+03  0.12699999809E+01 0. -1.
       -4    1    3    3    0  502 -0.17067186442E+03 -0.13229879659E+03 -0.59546558419E+03  0.63341355507E+03  0.12699999809E+01 0.  1.
</event>
<event>
 5   0  0.3767635E-02  0.5994437E+03  0.7818609E-02  0.9906561E-01
       -1   -1    0    0    0  501  0.00000000000E+00  0.00000000000E+00  0.11747230603E+03  0.11747230614E+03  0.50400001928E-02 0.  1.
        1   -1    0    0  501    0  0.00000000000E+00  0.00000000000E+00 -0.76471806923E+03  0.76471806924E+03  0.50400001928E-02 0. -1.
    10030    2    1    2    0    0  0.00000000000E+00  0.00000000000E+00 -0.64724576319E+03  0.88219037538E+03  0.59944372584E+03 0.  0.
        2    1    3    3  502    0  0.16818150259E+03 -0.20148536571E+03 -0.11060070285E+03  0.28480499625E+03  0.25500000920E-02 0.  1.
       -2    1    3    3    0  502 -0.16818150259E+03  0.20148536571E+03 -0.53664506034E+03  0.59738537914E+03  0.25500000920E-02 0. -1.
</event>
<event>
 5   0  0.2388000E-02  0.5954954E+03  0.7818609E-02  0.9914796E-01
        4   -1    0    0  501    0  0.00000000000E+00  0.00000000000E+00  0.23396025440E+03  0.23396370132E+03  0.12699999809E+01 0.  1.
       -4   -1    0    0    0  501  0.00000000000E+00  0.00000000000E+00 -0.37891901639E+03  0.37892114467E+03  0.12699999809E+01 0. -1.
    10030    2    1    2    0    0  0.00000000000E+00  0.00000000000E+00 -0.14495876199E+03  0.61288484600E+03  0.59549541709E+03 0.  0.
        1    1    3    3  502    0  0.16397217357E+03 -0.91460503485E+02 -0.31031582876E+03  0.36269520401E+03  0.50400001928E-02 0. -1.
       -1    1    3    3    0  502 -0.16397217357E+03  0.91460503485E+02  0.16535706677E+03  0.25018964199E+03  0.50400001928E-02 0.  1.
</event>
<event>
 5   0  0.5755078E-02  0.5950730E+03  0.7818609E-02  0.9915681E-01
        2   -1    0    0  501    0  0.00000000000E+00  0.00000000000E+00  0.64014206354E+03  0.64014206354E+03  0.25500000920E-02 0. -1.
       -2   -1    0    0    0  501  0.00000000000E+00  0.00000000000E+00 -0.13829425237E+03  0.13829425239E+03  0.25500000920E-02 0.  1.
    10030    2    1    2    0    0  0.00000000000E+00  0.00000000000E+00  0.50184781117E+03  0.77843631594E+03  0.59507299753E+03 0.  0.
        2    1    3    3  502    0  0.65327657633E+02 -0.25719954010E+03  0.74890121895E+02  0.27573145748E+03  0.25500000920E-02 0.  1.
       -2    1    3    3    0  502 -0.65327657633E+02  0.25719954010E+03  0.42695768928E+03  0.50270485846E+03  0.25500000920E-02 0. -1.
</event>
<event>
 5   0  0.5935451E-02  0.6045705E+03  0.7818609E-02  0.9895969E-01
       -2   -1    0    0    0  501  0.00000000000E+00  0.00000000000E+00  0.22157351635E+03  0.22157351636E+03  0.25500000920E-02 0.  1.
        2   -1    0    0  501    0  0.00000000000E+00  0.00000000000E+00 -0.41239754702E+03  0.41239754703E+03  0.25500000920E-02 0. -1.
    10030    2    1    2    0    0  0.00000000000E+00  0.00000000000E+00 -0.19082403067E+03  0.63397106339E+03  0.60457050750E+03 0.  0.
        3    1    3    3  502    0  0.23072004181E+03  0.18240087611E+03 -0.16862525343E+03  0.33902257092E+03  0.10100000352E+00 0. -1.
       -3    1    3    3    0  502 -0.23072004181E+03 -0.18240087611E+03 -0.22198777244E+02  0.29494849247E+03  0.10100000352E+00 0.  1.
</event>
<event>
 5   0  0.2388000E-02  0.6079572E+03  0.7818609E-02  0.9889034E-01
       -3   -1    0    0    0  501  0.00000000000E+00  0.00000000000E+00  0.16972548999E+03  0.16972552004E+03  0.10100000352E+00 0.  1.
        3   -1    0    0  501    0  0.00000000000E+00  0.00000000000E+00 -0.54442603737E+03  0.54442604674E+03  0.10100000352E+00 0. -1.
    10030    2    1    2    0    0  0.00000000000E+00  0.00000000000E+00 -0.37470054739E+03  0.71415156678E+03  0.60795720254E+03 0.  0.
        5    1    3    3  502    0  0.14548187504E+03  0.26455150899E+03 -0.22852127064E+03  0.37867735343E+03  0.46999998093E+01 0. -1.
       -5    1    3    3    0  502 -0.14548187504E+03 -0.26455150899E+03 -0.14617927675E+03  0.33547421335E+03  0.46999998093E+01 0.  1.
</event>
<event>
 5   0  0.2388000E-02  0.5868076E+03  0.7818609E-02  0.9933160E-01
        3   -1    0    0  501    0  0.00000000000E+00  0.00000000000E+00  0.12278376277E+03  0.12278380431E+03  0.10100000352E+00 0.  1.
       -3   -1    0    0    0  501  0.00000000000E+00  0.00000000000E+00 -0.70111700388E+03  0.70111701115E+03  0.10100000352E+00 0. -1.
    10030    2    1    2    0    0  0.00000000000E+00  0.00000000000E+00 -0.57833324110E+03  0.82390081546E+03  0.58680764818E+03 0.  0.
        4    1    3    3  502    0  0.28604136412E+02 -0.79560485721E+02  0.10530618118E+03  0.13505210921E+03  0.12699999809E+01 0.  1.
       -4    1    3    3    0  502 -0.28604136412E+02  0.79560485721E+02 -0.68363942228E+03  0.68884870625E+03  0.12699999809E+01 0. -1.
</event>
<event>
 5   0  0.5755078E-02  0.6042036E+03  0.7818609E-02  0.9896723E-01
        2   -1    0    0  501    0  0.00000000000E+00  0.00000000000E+00  0.76883522877E+03  0.76883522877E+03  0.25500000920E-02 0.  1.
       -2   -1    0    0    0  501  0.00000000000E+00  0.00000000000E+00 -0.11870617217E+03  0.11870617220E+03  0.25500000920E-02 0. -1.
    10030    2    1    2    0    0  0.00000000000E+00  0.00000000000E+00  0.65012905660E+03  0.88754140097E+03  0.60420356520E+03 0.  0.
        2    1    3    3  502    0  0.58013448550E+02  0.35621658706E+02  0.75742109718E+03  0.76047431333E+03  0.25500000920E-02 0.  1.
       -2    1    3    3    0  502 -0.58013448550E+02 -0.35621658706E+02 -0.10729204058E+03  0.12706708763E+03  0.25500000920E-02 0. -1.
</event>
<event>
 5   0  0.5872632E-02  0.5989216E+03  0.7818609E-02  0.9907646E-01
        2   -1    0    0  501    0  0.00000000000E+00  0.00000000000E+00  0.14572548294E+04  0.14572548294E+04  0.25500000920E-02 0. -1.
       -2   -1    0    0    0  501  0.00000000000E+00  0.00000000000E+00 -0.61538155284E+02  0.61538155336E+02  0.25500000920E-02 0.  1.
    10030    2    1    2    0    0  0.00000000000E+00  0.00000000000E+00  0.13957166742E+04  0.15187929848E+04  0.59892161098E+03 0.  0.
        1    1    3    3  502    0 -0.25262542854E+03 -0.15972178554E+03  0.65068020544E+03  0.71604146926E+03  0.50400001928E-02 0. -1.
       -1    1    3    3    0  502  0.25262542854E+03  0.15972178554E+03  0.74503646872E+03  0.80275151553E+03  0.50400001928E-02 0.  1.
</event>
<event>
 5   0  0.3640827E-02  0.5905125E+03  0.7818609E-02  0.9925287E-01
       -1   -1    0    0    0  501  0.00000000000E+00  0.00000000000E+00  0.13188433734E+03  0.13188433744E+03  0.50400001928E-02 0. -1.
        1   -1    0    0  501    0  0.00000000000E+00  0.00000000000E+00 -0.66100536242E+03  0.66100536244E+03  0.50400001928E-02 0.  1.
    10030    2    1    2    0    0  0.00000000000E+00  0.00000000000E+00 -0.52912102507E+03  0.79288969988E+03  0.59051250367E+03 0.  0.
        3    1    3    3  502    0  0.10354621548E+03 -0.27616138131E+03 -0.24608577689E+03  0.38411605935E+03  0.10100000352E+00 0.  1.
       -3    1    3    3    0  502 -0.10354621548E+03  0.27616138131E+03 -0.28303524819E+03  0.40877364052E+03  0.10100000352E+00 0. -1.
</event>
<event>
 5   0  0.5999117E-02  0.5984077E+03  0.7818609E-02  0.9908715E-01
       -2   -1    0    0    0  501  0.00000000000E+00  0.00000000000E+00  0.73475278281E+02  0.73475278325E+02  0.25500000920E-02 0.  1.
        2   -1    0    0  501    0  0.00000000000E+00  0.00000000000E+00 -0.12184091823E+04  0.12184091823E+04  0.25500000920E-02 0. -1.
    10030    2    1    2    0    0  0.00000000000E+00  0.00000000000E+00 -0.11449339040E+04  0.12918844607E+04  0.59840773311E+03 0.  0.
        5    1    3    3  502    0  0.93076376185E+02  0.21570744874E+03 -0.17259232129E+03  0.29155293621E+03  0.46999998093E+01 0.  1.
       -5    1    3    3    0  502 -0.93076376185E+02 -0.21570744874E+03 -0.97234158276E+03  0.10003315244E+04  0.46999998093E+01 0. -1.
</event>
<event>
 5   0  0.6007360E-02  0.6005250E+03  0.7818609E-02  0.9904318E-01
        2   -1    0    0  501    0  0.00000000000E+00  0.00000000000E+00  0.22280591632E+03  0.22280591633E+03  0.25500000920E-02 0.  1.
       -2   -1    0    0    0  501  0.00000000000E+00  0.00000000000E+00 -0.40464616590E+03  0.40464616590E+03  0.25500000920E-02 0. -1.
    10030    2    1    2    0    0  0.00000000000E+00  0.00000000000E+00 -0.18184024958E+03  0.62745208224E+03  0.60052496962E+03 0.  0.
        4    1    3    3  502    0 -0.19938451386E+02  0.27914976633E+03  0.22740972920E+02  0.28078621518E+03  0.12699999809E+01 0.  1.
       -4    1    3    3    0  502  0.19938451386E+02 -0.27914976633E+03 -0.20458122250E+03  0.34666586706E+03  0.12699999809E+01 0. -1.
</event>
<event>
 5   0  0.5755078E-02  0.5995300E+03  0.7818609E-02  0.9906382E-01
        2   -1    0    0  501    0  0.00000000000E+00  0.00000000000E+00  0.30521797664E+04  0.30521797664E+04  0.25500000920E-02 0.  1.
       -2   -1    0    0    0  501  0.00000000000E+00  0.00000000000E+00 -0.29440944680E+02  0.29440944790E+02  0.25500000920E-02 0. -1.
    10030    2    1    2    0    0  0.00000000000E+00  0.00000000000E+00  0.30227388217E+04  0.30816207112E+04  0.59953000201E+03 0.  0.
        2    1    3    3  502    0 -0.11517193675E+03 -0.23676029596E+03  0.77472420655E+03  0.81824055691E+03  0.25500000920E-02 0. -1.
       -2    1    3    3    0  502  0.11517193675E+03  0.23676029596E+03  0.22480146152E+04  0.22633801543E+04  0.25500000920E-02 0.  1.
</event>
<event>
 5   0  0.3640827E-02  0.5873804E+03  0.7818609E-02  0.9931939E-01
       -1   -1    0    0    0  501  0.00000000000E+00  0.00000000000E+00  0.87322310533E+02  0.87322310678E+02  0.50400001928E-02 0.  1.
        1   -1    0    0  501    0  0.00000000000E+00  0.00000000000E+00 -0.98776498849E+03  0.98776498850E+03  0.50400001928E-02 0. -1.
    10030    2    1    2    0    0  0.00000000000E+00  0.00000000000E+00 -0.90044267795E+03  0.10750872992E+04  0.58738035767E+03 0.  0.
        3    1    3    3  502    0 -0.22285759960E+03 -0.18559717688E+03 -0.53493297810E+03  0.60849414379E+03  0.10100000352E+00 0. -1.
       -3    1    3    3    0  502  0.22285759960E+03  0.18559717688E+03 -0.36550969986E+03  0.46659315539E+03  0.10100000352E+00 0.  1.
</event>
<event>
 5   0  0.3703280E-02  0.5912814E+03  0.7818609E-02  0.9923661E-01
       -1   -1    0    0    0  501  0.00000000000E+00  0.00000000000E+00  0.15391925229E+03  0.15391925237E+03  0.50400001928E-02 0.  1.
        1   -1    0    0  501    0  0.00000000000E+00  0.00000000000E+00 -0.56785236809E+03  0.56785236811E+03  0.50400001928E-02 0. -1.
    10030    2    1    2    0    0  0.00000000000E+00  0.00000000000E+00 -0.41393311580E+03  0.72177162049E+03  0.59128136093E+03 0.  0.
        5    1    3    3  502    0  0.88046679624E+02  0.74832079478E+02 -0.53909596407E+03  0.55136068629E+03  0.46999998093E+01 0. -1.
       -5    1    3    3    0  502 -0.88046679624E+02 -0.74832079478E+02  0.12516284826E+03  0.17041093420E+03  0.46999998093E+01 0.  1.
</event>
<event>
 5   0  0.5872632E-02  0.5914105E+03  0.7818609E-02  0.9923388E-01
        2   -1    0    0  501    0  0.00000000000E+00  0.00000000000E+00  0.21288320206E+03  0.21288320208E+03  0.25500000920E-02 0. -1.
       -2   -1    0    0    0  501  0.00000000000E+00  0.00000000000E+00 -0.41074916715E+03  0.41074916716E+03  0.25500000920E-02 0.  1.
    10030    2    1    2    0    0  0.00000000000E+00  0.00000000000E+00 -0.19786596509E+03  0.62363236924E+03  0.59141051041E+03 0.  0.
        1    1    3    3  502    0  0.14757241782E+03 -0.25314224604E+03 -0.14088739997E+03  0.32512747458E+03  0.50400001928E-02 0.  1.
       -1    1    3    3    0  502 -0.14757241782E+03  0.25314224604E+03 -0.56978565121E+02  0.29850489466E+03  0.50400001928E-02 0. -1.
</event>
<event>
 5   0  0.5999117E-02  0.5975972E+03  0.7818609E-02  0.9910404E-01
       -2   -1    0    0    0  501  0.00000000000E+00  0.00000000000E+00  0.15557328538E+03  0.15557328540E+03  0.25500000920E-02 0.  1.
        2   -1    0    0  501    0  0.00000000000E+00  0.00000000000E+00 -0.57388130443E+03  0.57388130443E+03  0.25500000920E-02 0. -1.
    10030    2    1    2    0    0  0.00000000000E+00  0.00000000000E+00 -0.41830801905E+03  0.72945458983E+03  0.59759718861E+03 0.  0.
        5    1    3    3  502    0 -0.31596786032E+02  0.83446519106E+02  0.13888387917E+03  0.16514387766E+03  0.46999998093E+01 0.  1.
       -5    1    3    3    0  502  0.31596786032E+02 -0.83446519106E+02 -0.55719189822E+03  0.56431071217E+03  0.46999998093E+01 0. -1.
</event>
<event>
 5   0  0.5999117E-02  0.6014003E+03  0.7818609E-02  0.9902505E-01
       -2   -1    0    0    0  501  0.00000000000E+00  0.00000000000E+00  0.11790239184E+03  0.11790239186E+03  0.25500000920E-02 0. -1.
        2   -1    0    0  501    0  0.00000000000E+00  0.00000000000E+00 -0.76691040827E+03  0.76691040828E+03  0.25500000920E-02 0.  1.
    10030    2    1    2    0    0  0.00000000000E+00  0.00000000000E+00 -0.64900801643E+03  0.88481280014E+03  0.60140027095E+03 0.  0.
        5    1    3    3  502    0 -0.14972625524E+03 -0.59361898255E+02  0.49022814798E+02  0.16842539250E+03  0.46999998093E+01 0. -1.
       -5    1    3    3    0  502  0.14972625524E+03  0.59361898255E+02 -0.69803083123E+03  0.71638740764E+03  0.46999998093E+01 0.  1.
</event>
<event>
 5   0  0.3478183E-02  0.5696120E+03  0.7818609E-02  0.9970537E-01
       -1   -1    0    0    0  501  0.00000000000E+00  0.00000000000E+00  0.88308431681E+02  0.88308431825E+02  0.50400001928E-02 0. -1.
        1   -1    0    0  501    0  0.00000000000E+00  0.00000000000E+00 -0.91853595902E+03  0.91853595903E+03  0.50400001928E-02 0.  1.
    10030    2    1    2    0    0  0.00000000000E+00  0.00000000000E+00 -0.83022752733E+03  0.10068443909E+04  0.56961204363E+03 0.  0.
        4    1    3    3  502    0  0.18229209821E+03 -0.61575934692E+02 -0.43956948891E+02  0.19737231584E+03  0.12699999809E+01 0. -1.
       -4    1    3    3    0  502 -0.18229209821E+03  0.61575934692E+02 -0.78627057844E+03  0.80947207502E+03  0.12699999809E+01 0.  1.
</event>
<event>
 5   0  0.3478183E-02  0.6023096E+03  0.7818609E-02  0.9900626E-01
       -1   -1    0    0    0  501  0.00000000000E+00  0.00000000000E+00  0.24481613042E+03  0.24481613047E+03  0.50400001928E-02 0.  1.
        1   -1    0    0  501    0  0.00000000000E+00  0.00000000000E+00 -0.37045851920E+03  0.37045851924E+03  0.50400001928E-02 0. -1.
    10030    2    1    2    0    0  0.00000000000E+00  0.00000000000E+00 -0.12564238879E+03  0.61527464970E+03  0.60230962528E+03 0.  0.
        4    1    3    3  502    0  0.23833285101E+03  0.28787255066E+02 -0.24856294674E+03  0.34556678850E+03  0.12699999809E+01 0.  1.
       -4    1    3    3    0  502 -0.23833285101E+03 -0.28787255066E+02  0.12292055796E+03  0.26970786120E+03  0.12699999809E+01 0. -1.
</event>
<event>
 5   0  0.3767635E-02  0.5318210E+03  0.7818609E-02  0.1005791E+00
        1   -1    0    0  501    0  0.00000000000E+00  0.00000000000E+00  0.15665155955E+04  0.15665155955E+04  0.50400001928E-02 0.  1.
       -1   -1    0    0    0  501  0.00000000000E+00  0.00000000000E+00 -0.45137361575E+02  0.45137361856E+02  0.50400001928E-02 0. -1.
    10030    2    1    2    0    0  0.00000000000E+00  0.00000000000E+00  0.15213782339E+04  0.16116529573E+04  0.53182095137E+03 0.  0.
        2    1    3    3  502    0 -0.12352670738E+03 -0.10055348619E+03  0.14059566362E+04  0.14149501453E+04  0.25500000920E-02 0.  1.
       -2    1    3    3    0  502  0.12352670738E+03  0.10055348619E+03  0.11542159775E+03  0.19670281201E+03  0.25500000920E-02 0. -1.
</event>
<event>
 5   0  0.5872632E-02  0.5982578E+03  0.7818609E-02  0.9909027E-01
        2   -1    0    0  501    0  0.00000000000E+00  0.00000000000E+00  0.15791909547E+04  0.15791909547E+04  0.25500000920E-02 0. -1.
       -2   -1    0    0    0  501  0.00000000000E+00  0.00000000000E+00 -0.56660714521E+02  0.56660714579E+02  0.25500000920E-02 0.  1.
    10030    2    1    2    0    0  0.00000000000E+00  0.00000000000E+00  0.15225302402E+04  0.16358516693E+04  0.59825776353E+03 0.  0.
        1    1    3    3  502    0  0.28107643012E+03  0.17530475876E+02  0.10369722185E+04  0.10745336938E+04  0.50400001928E-02 0.  1.
       -1    1    3    3    0  502 -0.28107643012E+03 -0.17530475876E+02  0.48555802168E+03  0.56131797548E+03  0.50400001928E-02 0. -1.
</event>
<event>
 5   0  0.5999117E-02  0.5956151E+03  0.7818609E-02  0.9914545E-01
        2   -1    0    0  501    0  0.00000000000E+00  0.00000000000E+00  0.35612001582E+03  0.35612001583E+03  0.25500000920E-02 0.  1.
       -2   -1    0    0    0  501  0.00000000000E+00  0.00000000000E+00 -0.24904340438E+03  0.24904340439E+03  0.25500000920E-02 0. -1.
    10030    2    1    2    0    0  0.00000000000E+00  0.00000000000E+00  0.10707661145E+03  0.60516342023E+03  0.59561511436E+03 0.  0.
        5    1    3    3  502    0  0.40006857227E+02  0.10634889809E+03  0.33318986006E+03  0.35206279212E+03  0.46999998093E+01 0.  1.
       -5    1    3    3    0  502 -0.40006857227E+02 -0.10634889809E+03 -0.22611324862E+03  0.25310062811E+03  0.46999998093E+01 0. -1.
</event>
<event>
 5   0  0.5935451E-02  0.6100435E+03  0.7818609E-02  0.9884785E-01
        2   -1    0    0  501    0  0.00000000000E+00  0.00000000000E+00  0.37390915508E+03  0.37390915509E+03  0.25500000920E-02 0.  1.
       -2   -1    0    0    0  501  0.00000000000E+00  0.00000000000E+00 -0.24882586133E+03  0.24882586134E+03  0.25500000920E-02 0. -1.
    10030    2    1    2    0    0  0.00000000000E+00  0.00000000000E+00  0.12508329375E+03  0.62273501643E+03  0.61004349871E+03 0.  0.
        3    1    3    3  502    0  0.48646847781E+02 -0.28850329672E+03  0.15057729825E+03  0.32905045353E+03  0.10100000352E+00 0.  1.
       -3    1    3    3    0  502 -0.48646847781E+02  0.28850329672E+03 -0.25494004500E+02  0.29368456290E+03  0.10100000352E+00 0. -1.
</event>
<event>
 5   0  0.3478183E-02  0.5980696E+03  0.7818609E-02  0.9909419E-01
       -1   -1    0    0    0  501  0.00000000000E+00  0.00000000000E+00  0.16954889609E+03  0.16954889616E+03  0.50400001928E-02 0.  1.
        1   -1    0    0  501    0  0.00000000000E+00  0.00000000000E+00 -0.52741013420E+03  0.52741013422E+03  0.50400001928E-02 0. -1.
    10030    2    1    2    0    0  0.00000000000E+00  0.00000000000E+00 -0.35786123811E+03  0.69695903038E+03  0.59806958148E+03 0.  0.
        4    1    3    3  502    0 -0.84464011259E+02  0.16818356940E+03  0.91872502178E+02  0.20943269031E+03  0.12699999809E+01 0.  1.
       -4    1    3    3    0  502  0.84464011259E+02 -0.16818356940E+03 -0.44973374029E+03  0.48752634007E+03  0.12699999809E+01 0. -1.
</event>
<event>
 5   0  0.5872632E-02  0.6098538E+03  0.7818609E-02  0.9885171E-01
       -2   -1    0    0    0  501  0.00000000000E+00  0.00000000000E+00  0.10035350084E+03  0.10035350088E+03  0.25500000920E-02 0.  1.
        2   -1    0    0  501    0  0.00000000000E+00  0.00000000000E+00 -0.92652883612E+03  0.92652883613E+03  0.25500000920E-02 0. -1.
    10030    2    1    2    0    0  0.00000000000E+00  0.00000000000E+00 -0.82617533528E+03  0.10268823370E+04  0.60985379348E+03 0.  0.
        1    1    3    3  502    0 -0.20840355776E+03 -0.20174446857E+03 -0.25470553257E+03  0.38601526114E+03  0.50400001928E-02 0.  1.
       -1    1    3    3    0  502  0.20840355776E+03  0.20174446857E+03 -0.57146980271E+03  0.64086707586E+03  0.50400001928E-02 0. -1.
</event>
<event>
 5   0  0.3478183E-02  0.6163489E+03  0.7818609E-02  0.9872056E-01
       -1   -1    0    0    0  501  0.00000000000E+00  0.00000000000E+00  0.17816457299E+03  0.17816457306E+03  0.50400001928E-02 0.  1.
        1   -1    0    0  501    0  0.00000000000E+00  0.00000000000E+00 -0.53305487954E+03  0.53305487957E+03  0.50400001928E-02 0. -1.
    10030    2    1    2    0    0  0.00000000000E+00  0.00000000000E+00 -0.35489030655E+03  0.71121945263E+03  0.61634891102E+03 0.  0.
        4    1    3    3  502    0  0.29159752615E+02  0.28693969964E+03 -0.30271468877E+03  0.41811778018E+03  0.12699999809E+01 0. -1.
       -4    1    3    3    0  502 -0.29159752615E+02 -0.28693969964E+03 -0.52175617784E+02  0.29310167245E+03  0.12699999809E+01 0.  1.
</event>
<event>
 5   0  0.5935451E-02  0.5951010E+03  0.7818609E-02  0.9915622E-01
       -2   -1    0    0    0  501  0.00000000000E+00  0.00000000000E+00  0.10824643513E+03  0.10824643516E+03  0.25500000920E-02 0. -1.
        2   -1    0    0  501    0  0.00000000000E+00  0.00000000000E+00 -0.81791418759E+03  0.81791418759E+03  0.25500000920E-02 0.  1.
    10030    2    1    2    0    0  0.00000000000E+00  0.00000000000E+00 -0.70966775246E+03  0.92616062275E+03  0.59510098324E+03 0.  0.
        3    1    3    3  502    0 -0.51680087588E+02 -0.32295506271E+02  0.98429949538E+02  0.11576828731E+03  0.10100000352E+00 0. -1.
       -3    1    3    3    0  502  0.51680087588E+02  0.32295506271E+02 -0.80809770199E+03  0.81039233545E+03  0.10100000352E+00 0.  1.
</event>
<event>
 5   0  0.6007360E-02  0.6084361E+03  0.7818609E-02  0.9888057E-01
       -2   -1    0    0    0  501  0.00000000000E+00  0.00000000000E+00  0.10875322128E+03  0.10875322131E+03  0.25500000920E-02 0. -1.
        2   -1    0    0  501    0  0.00000000000E+00  0.00000000000E+00 -0.85099671320E+03  0.85099671321E+03  0.25500000920E-02 0.  1.
    10030    2    1    2    0    0  0.00000000000E+00  0.00000000000E+00 -0.74224349192E+03  0.95974993452E+03  0.60843613921E+03 0.  0.
        4    1    3    3  502    0 -0.13746566647E+03 -0.22390576125E+03 -0.61301775772E+03  0.66695051058E+03  0.12699999809E+01 0.  1.
       -4    1    3    3    0  502  0.13746566647E+03  0.22390576125E+03 -0.12922573421E+03  0.29279942394E+03  0.12699999809E+01 0. -1.
</event>
<event>
 5   0  0.3651984E-02  0.6006613E+03  0.7818609E-02  0.9904035E-01
        1   -1    0    0  501    0  0.00000000000E+00  0.00000000000E+00  0.73196953547E+03  0.73196953549E+03  0.50400001928E-02 0.  1.
       -1   -1    0    0    0  501  0.00000000000E+00  0.00000000000E+00 -0.12322710672E+03  0.12322710682E+03  0.50400001928E-02 0. -1.
    10030    2    1    2    0    0  0.00000000000E+00  0.00000000000E+00  0.60874242875E+03  0.85519664231E+03  0.60066126265E+03 0.  0.
        1    1    3    3  502    0  0.12735200768E+03  0.20249668415E+03  0.56291200637E+03  0.61163172571E+03  0.50400001928E-02 0.  1.
       -1    1    3    3    0  502 -0.12735200768E+03 -0.20249668415E+03  0.45830422377E+02  0.24356491659E+03  0.50400001928E-02 0. -1.
</event>
<event>
 5   0  0.5872632E-02  0.6081429E+03  0.7818609E-02  0.9888655E-01
        2   -1    0    0  501    0  0.00000000000E+00  0.00000000000E+00  0.37922017274E+03  0.37922017275E+03  0.25500000920E-02 0.  1.
       -2   -1    0    0    0  501  0.00000000000E+00  0.00000000000E+00 -0.24381465229E+03  0.24381465230E+03  0.25500000920E-02 0. -1.
    10030    2    1    2    0    0  0.00000000000E+00  0.00000000000E+00  0.13540552045E+03  0.62303482505E+03  0.60814286007E+03 0.  0.
        1    1    3    3  502    0  0.15959433309E+03 -0.70438700387E+00 -0.19745669598E+03  0.25388972828E+03  0.50400001928E-02 0. -1.
       -1    1    3    3    0  502 -0.15959433309E+03  0.70438700387E+00  0.33286221643E+03  0.36914509677E+03  0.50400001928E-02 0.  1.
</event>
<event>
 5   0  0.3640827E-02  0.6006769E+03  0.7818609E-02  0.9904003E-01
       -1   -1    0    0    0  501  0.00000000000E+00  0.00000000000E+00  0.11446792597E+03  0.11446792608E+03  0.50400001928E-02 0. -1.
        1   -1    0    0  501    0  0.00000000000E+00  0.00000000000E+00 -0.78802159148E+03  0.78802159150E+03  0.50400001928E-02 0.  1.
    10030    2    1    2    0    0  0.00000000000E+00  0.00000000000E+00 -0.67355366552E+03  0.90248951758E+03  0.60067694230E+03 0.  0.
        3    1    3    3  502    0 -0.57186783491E+02  0.78763896742E+02  0.90113460952E+02  0.13264435790E+03  0.10100000352E+00 0. -1.
       -3    1    3    3    0  502  0.57186783491E+02 -0.78763896742E+02 -0.76366712647E+03  0.76984515968E+03  0.10100000352E+00 0.  1.
</event>
<event>
 5   0  0.3703280E-02  0.6007469E+03  0.7818609E-02  0.9903858E-01
       -1   -1    0    0    0  501  0.00000000000E+00  0.00000000000E+00  0.22406579743E+03  0.22406579748E+03  0.50400001928E-02 0. -1.
        1   -1    0    0  501    0  0.00000000000E+00  0.00000000000E+00 -0.40266831952E+03  0.40266831955E+03  0.50400001928E-02 0.  1.
    10030    2    1    2    0    0  0.00000000000E+00  0.00000000000E+00 -0.17860252209E+03  0.62673411703E+03  0.60074686229E+03 0.  0.
        5    1    3    3  502    0  0.52097289211E+02 -0.26555340590E+02 -0.39663386870E+03  0.40094866187E+03  0.46999998093E+01 0.  1.
       -5    1    3    3    0  502 -0.52097289211E+02  0.26555340590E+02  0.21803134661E+03  0.22578545516E+03  0.46999998093E+01 0. -1.
</event>
<event>
 5   0  0.3478183E-02  0.5747075E+03  0.7818609E-02  0.9959315E-01
        1   -1    0    0  501    0  0.00000000000E+00  0.00000000000E+00  0.11557939451E+04  0.11557939451E+04  0.50400001928E-02 0. -1.
       -1   -1    0    0    0  501  0.00000000000E+00  0.00000000000E+00 -0.71441959442E+02  0.71441959620E+02  0.50400001928E-02 0.  1.
    10030    2    1    2    0    0  0.00000000000E+00  0.00000000000E+00  0.10843519856E+04  0.12272359047E+04  0.57470752305E+03 0.  0.
        4    1    3    3  502    0  0.53533058088E+02 -0.23720752404E+03  0.86909159046E+03  0.90247160802E+03  0.12699999809E+01 0. -1.
       -4    1    3    3    0  502 -0.53533058088E+02  0.23720752404E+03  0.21526039515E+03  0.32476429667E+03  0.12699999809E+01 0.  1.
</event>
<event>
 5   0  0.3640827E-02  0.5542656E+03  0.7818609E-02  0.1000511E+00
        1   -1    0    0  501    0  0.00000000000E+00  0.00000000000E+00  0.53864784171E+03  0.53864784173E+03  0.50400001928E-02 0.  1.
       -1   -1    0    0    0  501  0.00000000000E+00  0.00000000000E+00 -0.14258406504E+03  0.14258406513E+03  0.50400001928E-02 0. -1.
    10030    2    1    2    0    0  0.00000000000E+00  0.00000000000E+00  0.39606377666E+03  0.68123190686E+03  0.55426563644E+03 0.  0.
        3    1    3    3  502    0  0.20056197490E+03  0.15568523615E+03  0.33456166993E+03  0.41999347580E+03  0.10100000352E+00 0.  1.
       -3    1    3    3    0  502 -0.20056197490E+03 -0.15568523615E+03  0.61502106733E+02  0.26123843106E+03  0.10100000352E+00 0. -1.
</event>
<event>
 5   0  0.3640827E-02  0.5996789E+03  0.7818609E-02  0.9906072E-01
       -1   -1    0    0    0  501  0.00000000000E+00  0.00000000000E+00  0.90160594340E+02  0.90160594481E+02  0.50400001928E-02 0.  1.
        1   -1    0    0  501    0  0.00000000000E+00  0.00000000000E+00 -0.99715062976E+03  0.99715062977E+03  0.50400001928E-02 0. -1.
    10030    2    1    2    0    0  0.00000000000E+00  0.00000000000E+00 -0.90699003542E+03  0.10873112242E+04  0.59967889244E+03 0.  0.
        3    1    3    3  502    0 -0.28074412623E+03  0.39693565489E+02 -0.27666966186E+03  0.39615521648E+03  0.10100000352E+00 0.  1.
       -3    1    3    3    0  502  0.28074412623E+03 -0.39693565489E+02 -0.63032037355E+03  0.69115600777E+03  0.10100000352E+00 0. -1.
</event>
<event>
 5   0  0.3478183E-02  0.5895007E+03  0.7818609E-02  0.9927431E-01
       -1   -1    0    0    0  501  0.00000000000E+00  0.00000000000E+00  0.41139173065E+03  0.41139173068E+03  0.50400001928E-02 0.  1.
        1   -1    0    0  501    0  0.00000000000E+00  0.00000000000E+00 -0.21118017846E+03  0.21118017852E+03  0.50400001928E-02 0. -1.
    10030    2    1    2    0    0  0.00000000000E+00  0.00000000000E+00  0.20021155219E+03  0.62257190920E+03  0.58950073494E+03 0.  0.
        4    1    3    3  502    0  0.29396054060E+03  0.15843343340E+02  0.84715844615E+02  0.30633673986E+03  0.12699999809E+01 0.  1.
       -4    1    3    3    0  502 -0.29396054060E+03 -0.15843343340E+02  0.11549570758E+03  0.31623516934E+03  0.12699999809E+01 0. -1.
</event>
<event>
 5   0  0.3640827E-02  0.6101172E+03  0.7818609E-02  0.9884636E-01
        1   -1    0    0  501    0  0.00000000000E+00  0.00000000000E+00  0.21429049312E+03  0.21429049318E+03  0.50400001928E-02 0. -1.
       -1   -1    0    0    0  501  0.00000000000E+00  0.00000000000E+00 -0.43427381208E+03  0.43427381211E+03  0.50400001928E-02 0.  1.
    10030    2    1    2    0    0  0.00000000000E+00  0.00000000000E+00 -0.21998331895E+03  0.64856430529E+03  0.61011719978E+03 0.  0.
        3    1    3    3  502    0  0.11106939842E+03 -0.27922111950E+03 -0.54146440045E+02  0.30534028887E+03  0.10100000352E+00 0.  1.
       -3    1    3    3    0  502 -0.11106939842E+03  0.27922111950E+03 -0.16583687891E+03  0.34322401642E+03  0.10100000352E+00 0. -1.
</event>
<event>
 5   0  0.3651984E-02  0.5941093E+03  0.7818609E-02  0.9917703E-01
       -1   -1    0    0    0  501  0.00000000000E+00  0.00000000000E+00  0.13562955494E+04  0.13562955494E+04  0.50400001928E-02 0. -1.
        1   -1    0    0  501    0  0.00000000000E+00  0.00000000000E+00 -0.65060654651E+02  0.65060654846E+02  0.50400001928E-02 0.  1.
    10030    2    1    2    0    0  0.00000000000E+00  0.00000000000E+00  0.12912348947E+04  0.14213562042E+04  0.59410933838E+03 0.  0.
        1    1    3    3  502    0 -0.50167410319E+02 -0.11348632215E+03  0.12913283213E+04  0.12972758950E+04  0.50400001928E-02 0. -1.
       -1    1    3    3    0  502  0.50167410319E+02  0.11348632215E+03 -0.93426602870E-01  0.12408030919E+03  0.50400001928E-02 0.  1.
</event>
<event>
 5   0  0.3640827E-02  0.5917744E+03  0.7818609E-02  0.9922620E-01
        1   -1    0    0  501    0  0.00000000000E+00  0.00000000000E+00  0.28119465633E+03  0.28119465638E+03  0.50400001928E-02 0.  1.
       -1   -1    0    0    0  501  0.00000000000E+00  0.00000000000E+00 -0.31134739644E+03  0.31134739648E+03  0.50400001928E-02 0. -1.
    10030    2    1    2    0    0  0.00000000000E+00  0.00000000000E+00 -0.30152740105E+02  0.59254205286E+03  0.59177436297E+03 0.  0.
        3    1    3    3  502    0 -0.23660367215E+03 -0.13240577878E+03  0.10355359323E+03  0.29023429294E+03  0.10100000352E+00 0.  1.
       -3    1    3    3    0  502  0.23660367215E+03  0.13240577878E+03 -0.13370633333E+03  0.30230775991E+03  0.10100000352E+00 0. -1.
</event>
<event>
 5   0  0.5935451E-02  0.6278223E+03  0.7818609E-02  0.9849308E-01
        2   -1    0    0  501    0  0.00000000000E+00  0.00000000000E+00  0.53220490672E+03  0.53220490673E+03  0.25500000920E-02 0. -1.
       -2   -1    0    0    0  501  0.00000000000E+00  0.00000000000E+00 -0.18515462992E+03  0.18515462993E+03  0.25500000920E-02 0.  1.
    10030    2    1    2    0    0  0.00000000000E+00  0.00000000000E+00  0.34705027680E+03  0.71735953666E+03  0.62782227597E+03 0.  0.
        3    1    3    3  502    0 -0.19154336818E+03 -0.15261933146E+03 -0.50842996926E+02  0.25013305013E+03  0.10100000352E+00 0.  1.
       -3    1    3    3    0  502  0.19154336818E+03  0.15261933146E+03  0.39789327373E+03  0.46722648653E+03  0.10100000352E+00 0. -1.
</event>
<event>
 5   0  0.5755078E-02  0.5729393E+03  0.7818609E-02  0.9963195E-01
        2   -1    0    0  501    0  0.00000000000E+00  0.00000000000E+00  0.19658741716E+03  0.19658741718E+03  0.25500000920E-02 0. -1.
       -2   -1    0    0    0  501  0.00000000000E+00  0.00000000000E+00 -0.41744710673E+03  0.41744710674E+03  0.25500000920E-02 0.  1.
    10030    2    1    2    0    0  0.00000000000E+00  0.00000000000E+00 -0.22085968957E+03  0.61403452392E+03  0.57293925863E+03 0.  0.
        2    1    3    3  502    0 -0.27379185627E+03 -0.43832175482E+02 -0.18757639316E+03  0.33476580388E+03  0.25500000920E-02 0.  1.
       -2    1    3    3    0  502  0.27379185627E+03  0.43832175482E+02 -0.33283296407E+02  0.27926872004E+03  0.25500000920E-02 0. -1.
</event>
<event>
 5   0  0.3703280E-02  0.6071390E+03  0.7818609E-02  0.9890705E-01
       -1   -1    0    0    0  501  0.00000000000E+00  0.00000000000E+00  0.56813920047E+02  0.56813920270E+02  0.50400001928E-02 0. -1.
        1   -1    0    0  501    0  0.00000000000E+00  0.00000000000E+00 -0.16220399881E+04  0.16220399881E+04  0.50400001928E-02 0.  1.
    10030    2    1    2    0    0  0.00000000000E+00  0.00000000000E+00 -0.15652260680E+04  0.16788539084E+04  0.60713902984E+03 0.  0.
        5    1    3    3  502    0 -0.75606336682E+02 -0.57726721672E+02 -0.15796575613E+04  0.15825260799E+04  0.46999998093E+01 0.  1.
       -5    1    3    3    0  502  0.75606336682E+02  0.57726721672E+02  0.14431493271E+02  0.96327828470E+02  0.46999998093E+01 0. -1.
</event>
<event>
 5   0  0.5935451E-02  0.5955825E+03  0.7818609E-02  0.9914613E-01
       -2   -1    0    0    0  501  0.00000000000E+00  0.00000000000E+00  0.29790140833E+02  0.29790140942E+02  0.25500000920E-02 0. -1.
        2   -1    0    0  501    0  0.00000000000E+00  0.00000000000E+00 -0.29768117216E+04  0.29768117216E+04  0.25500000920E-02 0.  1.
    10030    2    1    2    0    0  0.00000000000E+00  0.00000000000E+00 -0.29470215808E+04  0.30066018626E+04  0.59558254033E+03 0.  0.
        3    1    3    3  502    0 -0.20676108804E+03  0.71199452074E+02 -0.24939421292E+04  0.25035109074E+04  0.10100000352E+00 0. -1.
       -3    1    3    3    0  502  0.20676108804E+03 -0.71199452074E+02 -0.45307945154E+03  0.50309095511E+03  0.10100000352E+00 0.  1.
</event>
<event>
 5   0  0.5872632E-02  0.6000385E+03  0.7818609E-02  0.9905326E-01
        2   -1    0    0  501    0  0.00000000000E+00  0.00000000000E+00  0.13906973886E+03  0.13906973888E+03  0.25500000920E-02 0.  1.
       -2   -1    0    0    0  501  0.00000000000E+00  0.00000000000E+00 -0.64724046533E+03  0.64724046534E+03  0.25500000920E-02 0. -1.
    10030    2    1    2    0    0  0.00000000000E+00  0.00000000000E+00 -0.50817072647E+03  0.78631020422E+03  0.60003854045E+03 0.  0.
        1    1    3    3  502    0  0.28979311429E+03  0.27087929149E+02 -0.15870459796E+03  0.33151312860E+03  0.50400001928E-02 0.  1.
       -1    1    3    3    0  502 -0.28979311429E+03 -0.27087929149E+02 -0.34946612852E+03  0.45479707563E+03  0.50400001928E-02 0. -1.
</event>
<event>
 5   0  0.6007360E-02  0.5928759E+03  0.7818609E-02  0.9920297E-01
        2   -1    0    0  501    0  0.00000000000E+00  0.00000000000E+00  0.45803249610E+03  0.45803249610E+03  0.25500000920E-02 0. -1.
       -2   -1    0    0    0  501  0.00000000000E+00  0.00000000000E+00 -0.19185422350E+03  0.19185422352E+03  0.25500000920E-02 0.  1.
    10030    2    1    2    0    0  0.00000000000E+00  0.00000000000E+00  0.26617827260E+03  0.64988671962E+03  0.59287593604E+03 0.  0.
        4    1    3    3  502    0  0.25028594343E+03 -0.99942426600E+02  0.26842075897E+03  0.38037200062E+03  0.12699999809E+01 0. -1.
       -4    1    3    3    0  502 -0.25028594343E+03  0.99942426600E+02 -0.22424863707E+01  0.26951471900E+03  0.12699999809E+01 0.  1.
</event>
<event>
 5   0  0.5755078E-02  0.5872246E+03  0.7818609E-02  0.9932271E-01
        2   -1    0    0  501    0  0.00000000000E+00  0.00000000000E+00  0.48489518343E+03  0.48489518343E+03  0.25500000920E-02 0. -1.
       -2   -1    0    0    0  501  0.00000000000E+00  0.00000000000E+00 -0.17778726456E+03  0.17778726458E+03  0.25500000920E-02 0.  1.
    10030    2    1    2    0    0  0.00000000000E+00  0.00000000000E+00  0.30710791887E+03  0.66268244801E+03  0.58722461892E+03 0.  0.
        2    1    3    3  502    0 -0.17010397916E+03 -0.12152507280E+03  0.38621227156E+03  0.43916241386E+03  0.25500000920E-02 0. -1.
       -2    1    3    3    0  502  0.17010397916E+03  0.12152507280E+03 -0.79104352688E+02  0.22352003415E+03  0.25500000920E-02 0.  1.
</event>
<event>
 5   0  0.3703280E-02  0.5947187E+03  0.7818609E-02  0.9916424E-01
        1   -1    0    0  501    0  0.00000000000E+00  0.00000000000E+00  0.66623085112E+03  0.66623085114E+03  0.50400001928E-02 0. -1.
       -1   -1    0    0    0  501  0.00000000000E+00  0.00000000000E+00 -0.13272061915E+03  0.13272061924E+03  0.50400001928E-02 0.  1.
    10030    2    1    2    0    0  0.00000000000E+00  0.00000000000E+00  0.53351023197E+03  0.79895147038E+03  0.59471865987E+03 0.  0.
        5    1    3    3  502    0  0.12505266486E+03 -0.19974809782E+03  0.51029074196E+03  0.56209981578E+03  0.46999998093E+01 0. -1.
       -5    1    3    3    0  502 -0.12505266486E+03  0.19974809782E+03  0.23219490015E+02  0.23685165460E+03  0.46999998093E+01 0.  1.
</event>
<event>
 5   0  0.5755078E-02  0.6021069E+03  0.7818609E-02  0.9901044E-01
       -2   -1    0    0    0  501  0.00000000000E+00  0.00000000000E+00  0.72105419731E+02  0.72105419776E+02  0.25500000920E-02 0. -1.
        2   -1    0    0  501    0  0.00000000000E+00  0.00000000000E+00 -0.12569538371E+04  0.12569538371E+04  0.25500000920E-02 0.  1.
    10030    2    1    2    0    0  0.00000000000E+00  0.00000000000E+00 -0.11848484173E+04  0.13290592568E+04  0.60210691421E+03 0.  0.
        2    1    3    3  502    0 -0.15454603512E+03 -0.20374821985E+03 -0.94307560151E+03  0.97713325818E+03  0.25500000920E-02 0.  1.
       -2    1    3    3    0  502  0.15454603512E+03  0.20374821985E+03 -0.24177281582E+03  0.35192599867E+03  0.25500000920E-02 0. -1.
</event>
<event>
 5   0  0.3703280E-02  0.6019875E+03  0.7818609E-02  0.9901291E-01
        1   -1    0    0  501    0  0.00000000000E+00  0.00000000000E+00  0.15382676943E+03  0.15382676952E+03  0.50400001928E-02 0. -1.
       -1   -1    0    0    0  501  0.00000000000E+00  0.00000000000E+00 -0.58895631113E+03  0.58895631115E+03  0.50400001928E-02 0.  1.
    10030    2    1    2    0    0  0.00000000000E+00  0.00000000000E+00 -0.43512954169E+03  0.74278308066E+03  0.60198753049E+03 0.  0.
        5    1    3    3  502    0 -0.25314414758E+03  0.10255438334E+03 -0.61607453343E+02  0.28003022926E+03  0.46999998093E+01 0. -1.
       -5    1    3    3    0  502  0.25314414758E+03 -0.10255438334E+03 -0.37352208835E+03  0.46275285140E+03  0.46999998093E+01 0.  1.
</event>
<event>
 5   0  0.3767635E-02  0.6078972E+03  0.7818609E-02  0.9889156E-01
        1   -1    0    0  501    0  0.00000000000E+00  0.00000000000E+00  0.47872201543E+03  0.47872201545E+03  0.50400001928E-02 0. -1.
       -1   -1    0    0    0  501  0.00000000000E+00  0.00000000000E+00 -0.19298202528E+03  0.19298202534E+03  0.50400001928E-02 0.  1.
    10030    2    1    2    0    0  0.00000000000E+00  0.00000000000E+00  0.28573999015E+03  0.67170404080E+03  0.60789717589E+03 0.  0.
        2    1    3    3  502    0  0.11887248310E+03  0.48710878764E+02 -0.16150943124E+03  0.20637033056E+03  0.25500000920E-02 0.  1.
       -2    1    3    3    0  502 -0.11887248310E+03 -0.48710878764E+02  0.44724942139E+03  0.46533371024E+03  0.25500000920E-02 0. -1.
</event>
<event>
 5   0  0.3767635E-02  0.6013688E+03  0.7818609E-02  0.9902570E-01
        1   -1    0    0  501    0  0.00000000000E+00  0.00000000000E+00  0.43623735893E+03  0.43623735896E+03  0.50400001928E-02 0. -1.
       -1   -1    0    0    0  501  0.00000000000E+00  0.00000000000E+00 -0.20725207089E+03  0.20725207095E+03  0.50400001928E-02 0.  1.
    10030    2    1    2    0    0  0.00000000000E+00  0.00000000000E+00  0.22898528804E+03  0.64348942992E+03  0.60136875898E+03 0.  0.
        2    1    3    3  502    0  0.46991657523E+02 -0.25390886138E+03 -0.50353363205E+02  0.26308437232E+03  0.25500000920E-02 0.  1.
       -2    1    3    3    0  502 -0.46991657523E+02  0.25390886138E+03  0.27933865125E+03  0.38040505760E+03  0.25500000920E-02 0. -1.
</event>
<event>
 5   0  0.3767635E-02  0.5839783E+03  0.7818609E-02  0.9939215E-01
       -1   -1    0    0    0  501  0.00000000000E+00  0.00000000000E+00  0.51520886940E+03  0.51520886943E+03  0.50400001928E-02 0.  1.
        1   -1    0    0  501    0  0.00000000000E+00  0.00000000000E+00 -0.16548172662E+03  0.16548172670E+03  0.50400001928E-02 0. -1.
    10030    2    1    2    0    0  0.00000000000E+00  0.00000000000E+00  0.34972714278E+03  0.68069059612E+03  0.58397826437E+03 0.  0.
        2    1    3    3  502    0 -0.22189034509E+02  0.80804520981E+02 -0.15116539787E+03  0.17283721064E+03  0.25500000920E-02 0. -1.
       -2    1    3    3    0  502  0.22189034509E+02 -0.80804520981E+02  0.50089254065E+03  0.50785338548E+03  0.25500000920E-02 0.  1.
</event>
<event>
 5   0  0.5872632E-02  0.6214588E+03  0.7818609E-02  0.9861860E-01
       -2   -1    0    0    0  501  0.00000000000E+00  0.00000000000E+00  0.87027907063E+02  0.87027907100E+02  0.25500000920E-02 0. -1.
        2   -1    0    0  501    0  0.00000000000E+00  0.00000000000E+00 -0.11094459365E+04  0.11094459365E+04  0.25500000920E-02 0.  1.
    10030    2    1    2    0    0  0.00000000000E+00  0.00000000000E+00 -0.10224180295E+04  0.11964738436E+04  0.62145879310E+03 0.  0.
        1    1    3    3  502    0 -0.77735631689E+01 -0.56128377030E+02 -0.10994147721E+04  0.11008740456E+04  0.50400001928E-02 0.  1.
       -1    1    3    3    0  502  0.77735631689E+01  0.56128377030E+02  0.76996742641E+02  0.95599798091E+02  0.50400001928E-02 0. -1.
</event>
<event>
 5   0  0.6007360E-02  0.5993671E+03  0.7818609E-02  0.9906720E-01
        2   -1    0    0  501    0  0.00000000000E+00  0.00000000000E+00  0.71531945098E+03  0.71531945098E+03  0.25500000920E-02 0.  1.
       -2   -1    0    0    0  501  0.00000000000E+00  0.00000000000E+00 -0.12555261272E+03  0.12555261274E+03  0.25500000920E-02 0. -1.
    10030    2    1    2    0    0  0.00000000000E+00  0.00000000000E+00  0.58976683826E+03  0.84087206372E+03  0.59936708622E+03 0.  0.
        4    1    3    3  502    0  0.34610977483E+02  0.25698356160E+03  0.50565118088E+03  0.56826331952E+03  0.12699999809E+01 0.  1.
       -4    1    3    3    0  502 -0.34610977483E+02 -0.25698356160E+03  0.84115657386E+02  0.27260874420E+03  0.12699999809E+01 0. -1.
</event>
<event>
 5   0  0.2388000E-02  0.5978917E+03  0.7818609E-02  0.9909790E-01
       -3   -1    0    0    0  501  0.00000000000E+00  0.00000000000E+00  0.26101417411E+03  0.26101419365E+03  0.10100000352E+00 0.  1.
        3   -1    0    0  501    0  0.00000000000E+00  0.00000000000E+00 -0.34238985178E+03  0.34238986668E+03  0.10100000352E+00 0. -1.
    10030    2    1    2    0    0  0.00000000000E+00  0.00000000000E+00 -0.81375677667E+02  0.60340406033E+03  0.59789167841E+03 0.  0.
        5    1    3    3  502    0  0.50422756946E+01 -0.57409455122E+02  0.25531692663E+03  0.26178253017E+03  0.46999998093E+01 0.  1.
       -5    1    3    3    0  502 -0.50422756946E+01  0.57409455122E+02 -0.33669260430E+03  0.34162153016E+03  0.46999998093E+01 0. -1.
</event>
<event>
 5   0  0.3640827E-02  0.6043297E+03  0.7818609E-02  0.9896464E-01
       -1   -1    0    0    0  501  0.00000000000E+00  0.00000000000E+00  0.17352520492E+03  0.17352520500E+03  0.50400001928E-02 0.  1.
        1   -1    0    0  501    0  0.00000000000E+00  0.00000000000E+00 -0.52616915763E+03  0.52616915766E+03  0.50400001928E-02 0. -1.
    10030    2    1    2    0    0  0.00000000000E+00  0.00000000000E+00 -0.35264395271E+03  0.69969436266E+03  0.60432974753E+03 0.  0.
        3    1    3    3  502    0 -0.23776744832E+03 -0.61766190279E+02 -0.38002668233E+03  0.45251376911E+03  0.10100000352E+00 0.  1.
       -3    1    3    3    0  502  0.23776744832E+03  0.61766190279E+02  0.27382729627E+02  0.24718059355E+03  0.10100000352E+00 0. -1.
</event>
<event>
 5   0  0.5935451E-02  0.6221489E+03  0.7818609E-02  0.9860490E-01
        2   -1    0    0  501    0  0.00000000000E+00  0.00000000000E+00  0.52264474851E+03  0.52264474852E+03  0.25500000920E-02 0. -1.
       -2   -1    0    0    0  501  0.00000000000E+00  0.00000000000E+00 -0.18514932356E+03  0.18514932358E+03  0.25500000920E-02 0.  1.
    10030    2    1    2    0    0  0.00000000000E+00  0.00000000000E+00  0.33749542495E+03  0.70779407210E+03  0.62214892641E+03 0.  0.
        3    1    3    3  502    0  0.12177916906E+03 -0.21252819524E+03 -0.49401149959E+02  0.24987773731E+03  0.10100000352E+00 0.  1.
       -3    1    3    3    0  502 -0.12177916906E+03  0.21252819524E+03  0.38689657491E+03  0.45791633479E+03  0.10100000352E+00 0. -1.
</event>
<event>
 5   0  0.3640827E-02  0.6018076E+03  0.7818609E-02  0.9901663E-01
        1   -1    0    0  501    0  0.00000000000E+00  0.00000000000E+00  0.29434361255E+03  0.29434361260E+03  0.50400001928E-02 0. -1.
       -1   -1    0    0    0  501  0.00000000000E+00  0.00000000000E+00 -0.30761024077E+03  0.30761024081E+03  0.50400001928E-02 0.  1.
    10030    2    1    2    0    0  0.00000000000E+00  0.00000000000E+00 -0.13266628220E+02  0.60195385341E+03  0.60180764220E+03 0.  0.
        3    1    3    3  502    0 -0.15919901516E+03 -0.18367197368E+03 -0.18405560452E+03  0.30488718586E+03  0.10100000352E+00 0.  1.
       -3    1    3    3    0  502  0.15919901516E+03  0.18367197368E+03  0.17078897630E+03  0.29706666755E+03  0.10100000352E+00 0. -1.
</event>
<event>
 5   0  0.3767635E-02  0.5856114E+03  0.7818609E-02  0.9935716E-01
       -1   -1    0    0    0  501  0.00000000000E+00  0.00000000000E+00  0.63110072230E+02  0.63110072432E+02  0.50400001928E-02 0. -1.
        1   -1    0    0  501    0  0.00000000000E+00  0.00000000000E+00 -0.13585021077E+04  0.13585021077E+04  0.50400001928E-02 0.  1.
    10030    2    1    2    0    0  0.00000000000E+00  0.00000000000E+00 -0.12953920355E+04  0.14216121802E+04  0.58561136018E+03 0.  0.
        2    1    3    3  502    0 -0.26205603826E+03 -0.77019113688E+02 -0.39159199487E+03  0.47744067853E+03  0.25500000920E-02 0. -1.
       -2    1    3    3    0  502  0.26205603826E+03  0.77019113688E+02 -0.90380004062E+03  0.94417150164E+03  0.25500000920E-02 0.  1.
</event>
<event>
 5   0  0.5755078E-02  0.5973792E+03  0.7818609E-02  0.9910858E-01
       -2   -1    0    0    0  501  0.00000000000E+00  0.00000000000E+00  0.16408647664E+03  0.16408647666E+03  0.25500000920E-02 0.  1.
        2   -1    0    0  501    0  0.00000000000E+00  0.00000000000E+00 -0.54371016783E+03  0.54371016783E+03  0.25500000920E-02 0. -1.
    10030    2    1    2    0    0  0.00000000000E+00  0.00000000000E+00 -0.37962369119E+03  0.70779664449E+03  0.59737922883E+03 0.  0.
        2    1    3    3  502    0  0.32624670785E+02  0.63325381057E+01 -0.54151274990E+03  0.54253159217E+03  0.25500000920E-02 0. -1.
       -2    1    3    3    0  502 -0.32624670785E+02 -0.63325381057E+01  0.16188905871E+03  0.16526505232E+03  0.25500000920E-02 0.  1.
</event>
<event>
 5   0  0.3703280E-02  0.6242865E+03  0.7818609E-02  0.9856262E-01
        1   -1    0    0  501    0  0.00000000000E+00  0.00000000000E+00  0.56003943544E+03  0.56003943546E+03  0.50400001928E-02 0.  1.
       -1   -1    0    0    0  501  0.00000000000E+00  0.00000000000E+00 -0.17397595033E+03  0.17397595040E+03  0.50400001928E-02 0. -1.
    10030    2    1    2    0    0  0.00000000000E+00  0.00000000000E+00  0.38606348511E+03  0.73401538586E+03  0.62428645040E+03 0.  0.
        5    1    3    3  502    0  0.26904000607E+03  0.97229416929E+02  0.33976830151E+03  0.44418540397E+03  0.46999998093E+01 0.  1.
       -5    1    3    3    0  502 -0.26904000607E+03 -0.97229416929E+02  0.46295183592E+02  0.28982998190E+03  0.46999998093E+01 0. -1.
</event>
<event>
 5   0  0.3478183E-02  0.6079392E+03  0.7818609E-02  0.9889070E-01
        1   -1    0    0  501    0  0.00000000000E+00  0.00000000000E+00  0.16067901039E+04  0.16067901039E+04  0.50400001928E-02 0. -1.
       -1   -1    0    0    0  501  0.00000000000E+00  0.00000000000E+00 -0.57504405918E+02  0.57504406139E+02  0.50400001928E-02 0.  1.
    10030    2    1    2    0    0  0.00000000000E+00  0.00000000000E+00  0.15492856980E+04  0.16642945100E+04  0.60793917640E+03 0.  0.
        4    1    3    3  502    0  0.24433590273E+03 -0.14706703350E+03  0.10626398637E+04  0.11002426272E+04  0.12699999809E+01 0. -1.
       -4    1    3    3    0  502 -0.24433590273E+03  0.14706703350E+03  0.48664583423E+03  0.56405188288E+03  0.12699999809E+01 0.  1.
</event>
<event>
 5   0  0.6007360E-02  0.6006928E+03  0.7818609E-02  0.9903970E-01
       -2   -1    0    0    0  501  0.00000000000E+00  0.00000000000E+00  0.73755530937E+03  0.73755530937E+03  0.25500000920E-02 0.  1.
        2   -1    0    0  501    0  0.00000000000E+00  0.00000000000E+00 -0.12230670028E+03  0.12230670031E+03  0.25500000920E-02 0. -1.
    10030    2    1    2    0    0  0.00000000000E+00  0.00000000000E+00  0.61524860909E+03  0.85986200968E+03  0.60069278729E+03 0.  0.
        4    1    3    3  502    0 -0.54522110331E+02 -0.17481917172E+03 -0.33144934026E+02  0.18610374222E+03  0.12699999809E+01 0. -1.
       -4    1    3    3    0  502  0.54522110331E+02  0.17481917172E+03  0.64839354312E+03  0.67375826746E+03  0.12699999809E+01 0.  1.
</event>
<event>
 5   0  0.3651984E-02  0.6036737E+03  0.7818609E-02  0.9897814E-01
       -1   -1    0    0    0  501  0.00000000000E+00  0.00000000000E+00  0.11720809752E+03  0.11720809763E+03  0.50400001928E-02 0. -1.
        1   -1    0    0  501    0  0.00000000000E+00  0.00000000000E+00 -0.77729677485E+03  0.77729677486E+03  0.50400001928E-02 0.  1.
    10030    2    1    2    0    0  0.00000000000E+00  0.00000000000E+00 -0.66008867733E+03  0.89450487249E+03  0.60367367424E+03 0.  0.
        1    1    3    3  502    0  0.25770411085E+03  0.62105585522E+02 -0.11615078730E+03  0.28941236656E+03  0.50400001928E-02 0. -1.
       -1    1    3    3    0  502 -0.25770411085E+03 -0.62105585522E+02 -0.54393789002E+03  0.60509250593E+03  0.50400001928E-02 0.  1.
</event>
<event>
 5   0  0.6007360E-02  0.5946215E+03  0.7818609E-02  0.9916628E-01
        2   -1    0    0  501    0  0.00000000000E+00  0.00000000000E+00  0.33963029081E+03  0.33963029082E+03  0.25500000920E-02 0. -1.
       -2   -1    0    0    0  501  0.00000000000E+00  0.00000000000E+00 -0.26026440572E+03  0.26026440573E+03  0.25500000920E-02 0.  1.
    10030    2    1    2    0    0  0.00000000000E+00  0.00000000000E+00  0.79365885091E+02  0.59989469654E+03  0.59462147895E+03 0.  0.
        4    1    3    3  502    0  0.97166255241E+02 -0.23908650288E+03  0.18860099832E+03  0.31964916156E+03  0.12699999809E+01 0. -1.
       -4    1    3    3    0  502 -0.97166255241E+02  0.23908650288E+03 -0.10923511323E+03  0.28024553499E+03  0.12699999809E+01 0.  1.
</event>
<event>
 5   0  0.5999117E-02  0.6015280E+03  0.7818609E-02  0.9902241E-01
       -2   -1    0    0    0  501  0.00000000000E+00  0.00000000000E+00  0.25838464898E+03  0.25838464899E+03  0.25500000920E-02 0. -1.
        2   -1    0    0  501    0  0.00000000000E+00  0.00000000000E+00 -0.35009430820E+03  0.35009430821E+03  0.25500000920E-02 0.  1.
    10030    2    1    2    0    0  0.00000000000E+00  0.00000000000E+00 -0.91709659215E+02  0.60847895720E+03  0.60152803739E+03 0.  0.
        5    1    3    3  502    0  0.86821542603E+02 -0.18910512554E+03 -0.26547694820E+03  0.33734081993E+03  0.46999998093E+01 0.  1.
       -5    1    3    3    0  502 -0.86821542603E+02  0.18910512554E+03  0.17376728899E+03  0.27113813727E+03  0.46999998093E+01 0. -1.
</event>
<event>
 5   0  0.3478183E-02  0.6004701E+03  0.7818609E-02  0.9904431E-01
       -1   -1    0    0    0  501  0.00000000000E+00  0.00000000000E+00  0.12642566588E+03  0.12642566598E+03  0.50400001928E-02 0. -1.
        1   -1    0    0  501    0  0.00000000000E+00  0.00000000000E+00 -0.71299678572E+03  0.71299678574E+03  0.50400001928E-02 0.  1.
    10030    2    1    2    0    0  0.00000000000E+00  0.00000000000E+00 -0.58657111984E+03  0.83942245172E+03  0.60047012734E+03 0.  0.
        4    1    3    3  502    0  0.47093284615E+02  0.13231563493E+03 -0.66423911107E+03  0.67892592695E+03  0.12699999809E+01 0.  1.
       -4    1    3    3    0  502 -0.47093284615E+02 -0.13231563493E+03  0.77667991236E+02  0.16049652478E+03  0.12699999809E+01 0. -1.
</event>
<event>
 5   0  0.5999117E-02  0.5598144E+03  0.7818609E-02  0.9992475E-01
        2   -1    0    0  501    0  0.00000000000E+00  0.00000000000E+00  0.26633469831E+03  0.26633469832E+03  0.25500000920E-02 0. -1.
       -2   -1    0    0    0  501  0.00000000000E+00  0.00000000000E+00 -0.29417133218E+03  0.29417133219E+03  0.25500000920E-02 0.  1.
    10030    2    1    2    0    0  0.00000000000E+00  0.00000000000E+00 -0.27836633875E+02  0.56050603051E+03  0.55981437285E+03 0.  0.
        5    1    3    3  502    0  0.10958129871E+03 -0.52561770078E+01  0.24386872824E+03  0.26745043472E+03  0.46999998093E+01 0. -1.
       -5    1    3    3    0  502 -0.10958129871E+03  0.52561770078E+01 -0.27170536211E+03  0.29305559579E+03  0.46999998093E+01 0.  1.
</event>
<event>
 5   0  0.2388000E-02  0.5759147E+03  0.7818609E-02  0.9956675E-01
        4   -1    0    0  501    0  0.00000000000E+00  0.00000000000E+00  0.19863002136E+03  0.19863408138E+03  0.12699999809E+01 0.  1.
       -4   -1    0    0    0  501  0.00000000000E+00  0.00000000000E+00 -0.41744747707E+03  0.41744940892E+03  0.12699999809E+01 0. -1.
    10030    2    1    2    0    0  0.00000000000E+00  0.00000000000E+00 -0.21881745570E+03  0.61608349030E+03  0.57591474031E+03 0.  0.
        4    1    3    3  502    0 -0.75852283970E+02  0.25007188266E+03 -0.23879213467E+03  0.35399549710E+03  0.12699999809E+01 0. -1.
       -4    1    3    3    0  502  0.75852283970E+02 -0.25007188266E+03  0.19974678973E+02  0.26208799321E+03  0.12699999809E+01 0.  1.
</event>
<event>
 5   0  0.2388000E-02  0.6047405E+03  0.7818609E-02  0.9895620E-01
       -3   -1    0    0    0  501  0.00000000000E+00  0.00000000000E+00  0.10207372635E+03  0.10207377632E+03  0.10100000352E+00 0. -1.
        3   -1    0    0  501    0  0.00000000000E+00  0.00000000000E+00 -0.89570297463E+03  0.89570298032E+03  0.10100000352E+00 0.  1.
    10030    2    1    2    0    0  0.00000000000E+00  0.00000000000E+00 -0.79362924827E+03  0.99777675664E+03  0.60474050004E+03 0.  0.
        3    1    3    3  502    0 -0.27276430756E+03 -0.22907297612E+02 -0.18486086587E+03  0.33030086541E+03  0.10100000352E+00 0. -1.
       -3    1    3    3    0  502  0.27276430756E+03  0.22907297612E+02 -0.60876838241E+03  0.66747589123E+03  0.10100000352E+00 0.  1.
</event>
<event>
 5   0  0.5755078E-02  0.6068585E+03  0.7818609E-02  0.9891278E-01
        2   -1    0    0  501    0  0.00000000000E+00  0.00000000000E+00  0.40689972799E+03  0.40689972800E+03  0.25500000920E-02 0. -1.
       -2   -1    0    0    0  501  0.00000000000E+00  0.00000000000E+00 -0.22627024173E+03  0.22627024174E+03  0.25500000920E-02 0.  1.
    10030    2    1    2    0    0  0.00000000000E+00  0.00000000000E+00  0.18062948626E+03  0.63316996975E+03  0.60685846726E+03 0.  0.
        2    1    3    3  502    0 -0.20214296118E+03  0.77244682437E+02  0.31223551026E+03  0.37989410576E+03  0.25500000920E-02 0. -1.
       -2    1    3    3    0  502  0.20214296118E+03 -0.77244682437E+02 -0.13160602400E+03  0.25327586398E+03  0.25500000920E-02 0.  1.
</event>
<event>
 5   0  0.3640827E-02  0.5920076E+03  0.7818609E-02  0.9922128E-01
        1   -1    0    0  501    0  0.00000000000E+00  0.00000000000E+00  0.36236031704E+03  0.36236031708E+03  0.50400001928E-02 0. -1.
       -1   -1    0    0    0  501  0.00000000000E+00  0.00000000000E+00 -0.24179865227E+03  0.24179865232E+03  0.50400001928E-02 0.  1.
    10030    2    1    2    0    0  0.00000000000E+00  0.00000000000E+00  0.12056166477E+03  0.60415896940E+03  0.59200755510E+03 0.  0.
        3    1    3    3  502    0 -0.23119445384E+02 -0.14083925604E+03  0.32492585695E+03  0.35489016260E+03  0.10100000352E+00 0. -1.
       -3    1    3    3    0  502  0.23119445384E+02  0.14083925604E+03 -0.20436419218E+03  0.24926880680E+03  0.10100000352E+00 0.  1.
</event>
</LesHouchesEvents>
