<LesHouchesEvents version="3.0">
<header>
<!--
#*********************************************************************
#                                                                    *
#                        MadGraph5_aMC@NLO                           *
#                                                                    *
#                           Going Beyond                             *
#                                                                    *
#                   http://madgraph.hep.uiuc.edu                     *
#                   http://madgraph.phys.ucl.ac.be                   *
#                   http://amcatnlo.cern.ch                          *
#                                                                    *
#                     The MadGraph5_aMC@NLO team                     *
#                                                                    *
#....................................................................*
#                                                                    *
# This file contains all the information necessary to reproduce      *
# the events generated:                                              *
#                                                                    *
# 1. software version                                                *
# 2. proc_card          : code generation info including model       *
# 3. param_card         : model primary parameters in the LH format  *
# 4. run_card           : running parameters (collider and cuts)     *
# 5. pythia_card        : present only if pythia has been run        *
# 6. pgs_card           : present only if pgs has been run           *
# 7. delphes_cards      : present only if delphes has been run       *
#                                                                    *
#                                                                    *
#*********************************************************************
-->
<MGVersion>
#5.2.2.3
</MGVersion>
<MG5ProcCard>
#************************************************************
#*                     MadGraph5_aMC@NLO                    *
#*                                                          *
#*                *                       *                 *
#*                  *        * *        *                   *
#*                    * * * * 5 * * * *                     *
#*                  *        * *        *                   *
#*                *                       *                 *
#*                                                          *
#*                                                          *
#*         VERSION 2.2.3                 2015-02-10         *
#*                                                          *
#*    The MadGraph5_aMC@NLO Development Team - Find us at   *
#*    https://server06.fynu.ucl.ac.be/projects/madgraph     *
#*                                                          *
#************************************************************
#*                                                          *
#*               Command File for MadGraph5_aMC@NLO         *
#*                                                          *
#*     run as ./bin/mg5_aMC  filename                       *
#*                                                          *
#************************************************************
set group_subprocesses Auto
set ignore_six_quark_processes False
set loop_optimized_output True
set gauge unitary
set complex_mass_scheme False
import model sm
define p = g u c d s u~ c~ d~ s~
define j = g u c d s u~ c~ d~ s~
define l+ = e+ mu+
define l- = e- mu-
define vl = ve vm vt
define vl~ = ve~ vm~ vt~
import model Zprime_UFO
generate p p > zph, zph > j j
add process p p > zph, zph > b b~
output Dijet_signal
</MG5ProcCard>
<MGProcCard>
#*********************************************************************
#                        MadGraph/MadEvent                           *
#                   http://madgraph.hep.uiuc.edu                     *
#                                                                    *
#                          proc_card.dat                             *
#*********************************************************************
#                                                                    *
#            This Files is generated by MADGRAPH 5                   *
#                                                                    *
# WARNING: This Files is generated for MADEVENT (compatibility issue)*
#          This files is NOT a valid MG4 proc_card.dat               *
#          Running this in MG4 will NEVER reproduce the result of MG5*
#                                                                    *
#*********************************************************************
#*********************************************************************
# Process(es) requested : mg2 input                                  *
#*********************************************************************
# Begin PROCESS # This is TAG. Do not modify this line
p p > zph , zph > j j           #Process
# Be carefull the coupling are here in MG5 convention
          
end_coup           # End the couplings input

done               # this tells MG there are no more procs
# End PROCESS  # This is TAG. Do not modify this line
#*********************************************************************
# Model information                                                  *
#*********************************************************************
# Begin MODEL  # This is TAG. Do not modify this line
Zprime_UFO
# End   MODEL  # This is TAG. Do not modify this line
#*********************************************************************
# Start multiparticle definitions                                    *
#*********************************************************************
# Begin MULTIPARTICLES # This is TAG. Do not modify this line

# End  MULTIPARTICLES # This is TAG. Do not modify this line
</MGProcCard>
<MGRunCard>
#*********************************************************************
#                       MadGraph5_aMC@NLO                            *
#                                                                    *
#                     run_card.dat MadEvent                          *
#                                                                    *
#  This file is used to set the parameters of the run.               *
#                                                                    *
#  Some notation/conventions:                                        *
#                                                                    *
#   Lines starting with a '# ' are info or comments                  *
#                                                                    *
#   mind the format:   value    = variable     ! comment             *
#*********************************************************************
#
#*******************                                                 
# Running parameters
#*******************                                                 
#                                                                    
#*********************************************************************
# Tag name for the run (one word)                                    *
#*********************************************************************
  tag_1     = run_tag ! name of the run 
#*********************************************************************
# Run to generate the grid pack                                      *
#*********************************************************************
  .false.     = gridpack  !True = setting up the grid pack
#*********************************************************************
# Number of events and rnd seed                                      *
# Warning: Do not generate more than 1M events in a single run       *
# If you want to run Pythia, avoid more than 50k events in a run.    *
#*********************************************************************
  2000 = nevents ! Number of unweighted events requested 
 759 = iseed   ! rnd seed (0=assigned automatically=default))
#*********************************************************************
# Collider type and energy                                           *
# lpp: 0=No PDF, 1=proton, -1=antiproton, 2=photon from proton,      *
#                                         3=photon from electron     *
#*********************************************************************
        1     = lpp1    ! beam 1 type 
        1     = lpp2    ! beam 2 type
     4000     = ebeam1  ! beam 1 total energy in GeV
     4000     = ebeam2  ! beam 2 total energy in GeV
#*********************************************************************
# Beam polarization from -100 (left-handed) to 100 (right-handed)    *
#*********************************************************************
        0     = polbeam1 ! beam polarization for beam 1
        0     = polbeam2 ! beam polarization for beam 2
#*********************************************************************
# PDF CHOICE: this automatically fixes also alpha_s and its evol.    *
#*********************************************************************
 'nn23lo1'    = pdlabel     ! PDF set                                     
 230000    = lhaid     ! if pdlabel=lhapdf, this is the lhapdf number
#*********************************************************************
# Renormalization and factorization scales                           *
#*********************************************************************
 F        = fixed_ren_scale  ! if .true. use fixed ren scale
 F        = fixed_fac_scale  ! if .true. use fixed fac scale
 91.1880  = scale            ! fixed ren scale
 91.1880  = dsqrt_q2fact1    ! fixed fact scale for pdf1
 91.1880  = dsqrt_q2fact2    ! fixed fact scale for pdf2
 1        = scalefact        ! scale factor for event-by-event scales
#*********************************************************************
# Matching - Warning! ickkw > 1 is still beta
#*********************************************************************
 0        = ickkw            ! 0 no matching, 1 MLM, 2 CKKW matching
 1        = highestmult      ! for ickkw=2, highest mult group
 1        = ktscheme         ! for ickkw=1, 1 Durham kT, 2 Pythia pTE
 1        = alpsfact         ! scale factor for QCD emission vx
 F        = chcluster        ! cluster only according to channel diag
 T        = pdfwgt           ! for ickkw=1, perform pdf reweighting
 5        = asrwgtflavor     ! highest quark flavor for a_s reweight
 T        = clusinfo         ! include clustering tag in output
 3.0      = lhe_version       ! Change the way clustering information pass to shower.        
#*********************************************************************
#**********************************************************
#
#**********************************************************
# Automatic ptj and mjj cuts if xqcut > 0
# (turn off for VBF and single top processes)
#**********************************************************
   T  = auto_ptj_mjj  ! Automatic setting of ptj and mjj
#**********************************************************
#                                                                    
#**********************************
# BW cutoff (M+/-bwcutoff*Gamma)
#**********************************
  15  = bwcutoff      ! (M+/-bwcutoff*Gamma)
#**********************************************************
# Apply pt/E/eta/dr/mij cuts on decay products or not
# (note that etmiss/ptll/ptheavy/ht/sorted cuts always apply)
#**********************************************************
   T  = cut_decays    ! Cut decay products 
#*************************************************************
# Number of helicities to sum per event (0 = all helicities)
# 0 gives more stable result, but longer run time (needed for
# long decay chains e.g.).
# Use >=2 if most helicities contribute, e.g. pure QCD.
#*************************************************************
   0  = nhel          ! Number of helicities used per event
#*******************                                                 
# Standard Cuts
#*******************                                                 
#                                                                    
#*********************************************************************
# Minimum and maximum pt's (for max, -1 means no cut)                *
#*********************************************************************
 20  = ptj       ! minimum pt for the jets 
  0  = ptb       ! minimum pt for the b 
 10  = pta       ! minimum pt for the photons 
 10  = ptl       ! minimum pt for the charged leptons 
  0  = misset    ! minimum missing Et (sum of neutrino's momenta)
  0  = ptheavy   ! minimum pt for one heavy final state
 1.0 = ptonium   ! minimum pt for the quarkonium states
 -1  = ptjmax    ! maximum pt for the jets
 -1  = ptbmax    ! maximum pt for the b
 -1  = ptamax    ! maximum pt for the photons
 -1  = ptlmax    ! maximum pt for the charged leptons
 -1  = missetmax ! maximum missing Et (sum of neutrino's momenta)
#*********************************************************************
# Minimum and maximum E's (in the center of mass frame)              *
#*********************************************************************
  0  = ej     ! minimum E for the jets 
  0  = eb     ! minimum E for the b 
  0  = ea     ! minimum E for the photons 
  0  = el     ! minimum E for the charged leptons 
 -1   = ejmax ! maximum E for the jets
 -1   = ebmax ! maximum E for the b
 -1   = eamax ! maximum E for the photons
 -1   = elmax ! maximum E for the charged leptons
#*********************************************************************
# Maximum and minimum absolute rapidity (for max, -1 means no cut)   *
#*********************************************************************
   5  = etaj    ! max rap for the jets 
  -1  = etab    ! max rap for the b
 2.5  = etaa    ! max rap for the photons 
 2.5  = etal    ! max rap for the charged leptons 
 0.6  = etaonium ! max rap for the quarkonium states
   0  = etajmin ! min rap for the jets
   0  = etabmin ! min rap for the b
   0  = etaamin ! min rap for the photons
   0  = etalmin ! main rap for the charged leptons
#*********************************************************************
# Minimum and maximum DeltaR distance                                *
#*********************************************************************
 0.4 = drjj    ! min distance between jets 
 0   = drbb    ! min distance between b's 
 0.4 = drll    ! min distance between leptons 
 0.4 = draa    ! min distance between gammas 
 0   = drbj    ! min distance between b and jet 
 0.4 = draj    ! min distance between gamma and jet 
 0.4 = drjl    ! min distance between jet and lepton 
 0   = drab    ! min distance between gamma and b 
 0   = drbl    ! min distance between b and lepton 
 0.4 = dral    ! min distance between gamma and lepton 
 -1  = drjjmax ! max distance between jets
 -1  = drbbmax ! max distance between b's
 -1  = drllmax ! max distance between leptons
 -1  = draamax ! max distance between gammas
 -1  = drbjmax ! max distance between b and jet
 -1  = drajmax ! max distance between gamma and jet
 -1  = drjlmax ! max distance between jet and lepton
 -1  = drabmax ! max distance between gamma and b
 -1  = drblmax ! max distance between b and lepton
 -1  = dralmax ! maxdistance between gamma and lepton
#*********************************************************************
# Minimum and maximum invariant mass for pairs                       *
# WARNING: for four lepton final state mmll cut require to have      *
#          different lepton masses for each flavor!                  *           
#*********************************************************************
 0   = mmjj    ! min invariant mass of a jet pair 
 0   = mmbb    ! min invariant mass of a b pair 
 0   = mmaa    ! min invariant mass of gamma gamma pair
 0   = mmll    ! min invariant mass of l+l- (same flavour) lepton pair
 -1  = mmjjmax ! max invariant mass of a jet pair
 -1  = mmbbmax ! max invariant mass of a b pair
 -1  = mmaamax ! max invariant mass of gamma gamma pair
 -1  = mmllmax ! max invariant mass of l+l- (same flavour) lepton pair
#*********************************************************************
# Minimum and maximum invariant mass for all letpons                 *
#*********************************************************************
 0   = mmnl    ! min invariant mass for all letpons (l+- and vl) 
 -1  = mmnlmax ! max invariant mass for all letpons (l+- and vl) 
#*********************************************************************
# Minimum and maximum pt for 4-momenta sum of leptons                *
#*********************************************************************
 0   = ptllmin  ! Minimum pt for 4-momenta sum of leptons(l and vl)
 -1  = ptllmax  ! Maximum pt for 4-momenta sum of leptons(l and vl)
#*********************************************************************
# Inclusive cuts                                                     *
#*********************************************************************
 0  = xptj ! minimum pt for at least one jet  
 0  = xptb ! minimum pt for at least one b 
 0  = xpta ! minimum pt for at least one photon 
 0  = xptl ! minimum pt for at least one charged lepton 
#*********************************************************************
# Control the pt's of the jets sorted by pt                          *
#*********************************************************************
 0   = ptj1min ! minimum pt for the leading jet in pt
 0   = ptj2min ! minimum pt for the second jet in pt
 0   = ptj3min ! minimum pt for the third jet in pt
 0   = ptj4min ! minimum pt for the fourth jet in pt
 -1  = ptj1max ! maximum pt for the leading jet in pt 
 -1  = ptj2max ! maximum pt for the second jet in pt
 -1  = ptj3max ! maximum pt for the third jet in pt
 -1  = ptj4max ! maximum pt for the fourth jet in pt
 0   = cutuse  ! reject event if fails any (0) / all (1) jet pt cuts
#*********************************************************************
# Control the pt's of leptons sorted by pt                           *
#*********************************************************************
 0   = ptl1min ! minimum pt for the leading lepton in pt
 0   = ptl2min ! minimum pt for the second lepton in pt
 0   = ptl3min ! minimum pt for the third lepton in pt
 0   = ptl4min ! minimum pt for the fourth lepton in pt
 -1  = ptl1max ! maximum pt for the leading lepton in pt 
 -1  = ptl2max ! maximum pt for the second lepton in pt
 -1  = ptl3max ! maximum pt for the third lepton in pt
 -1  = ptl4max ! maximum pt for the fourth lepton in pt
#*********************************************************************
# Control the Ht(k)=Sum of k leading jets                            *
#*********************************************************************
 0   = htjmin ! minimum jet HT=Sum(jet pt)
 -1  = htjmax ! maximum jet HT=Sum(jet pt)
 0   = ihtmin  !inclusive Ht for all partons (including b)
 -1  = ihtmax  !inclusive Ht for all partons (including b)
 0   = ht2min ! minimum Ht for the two leading jets
 0   = ht3min ! minimum Ht for the three leading jets
 0   = ht4min ! minimum Ht for the four leading jets
 -1  = ht2max ! maximum Ht for the two leading jets
 -1  = ht3max ! maximum Ht for the three leading jets
 -1  = ht4max ! maximum Ht for the four leading jets
#***********************************************************************
# Photon-isolation cuts, according to hep-ph/9801442                   *
# When ptgmin=0, all the other parameters are ignored                  *
# When ptgmin>0, pta and draj are not going to be used                 *
#***********************************************************************
   0 = ptgmin ! Min photon transverse momentum
 0.4 = R0gamma ! Radius of isolation code
 1.0 = xn ! n parameter of eq.(3.4) in hep-ph/9801442
 1.0 = epsgamma ! epsilon_gamma parameter of eq.(3.4) in hep-ph/9801442
 .true. = isoEM ! isolate photons from EM energy (photons and leptons)
#*********************************************************************
# WBF cuts                                                           *
#*********************************************************************
 0   = xetamin ! minimum rapidity for two jets in the WBF case  
 0   = deltaeta ! minimum rapidity for two jets in the WBF case 
#*********************************************************************
# KT DURHAM CUT                                                      *
#*********************************************************************
 -1    =  ktdurham        
 0.4  =  dparameter 
#*********************************************************************
# maximal pdg code for quark to be considered as a light jet         *
# (otherwise b cuts are applied)                                     *
#*********************************************************************
 4 = maxjetflavor    ! Maximum jet pdg code
#*********************************************************************
# Jet measure cuts                                                   *
#*********************************************************************
 0   = xqcut   ! minimum kt jet measure between partons
#*********************************************************************
#
#*********************************************************************
# Store info for systematics studies                                 *
# WARNING: If use_syst is T, matched Pythia output is                *
#          meaningful ONLY if plotted taking matchscale              *
#          reweighting into account!                                 *
#*********************************************************************
   F  = use_syst      ! Enable systematics studies
#
#**************************************
# Parameter of the systematics study
#  will be used by SysCalc (if installed)
#**************************************                                  
#
0.5 1 2 = sys_scalefact  # factorization/renormalization scale factor
0.5 1 2 = sys_alpsfact  # \alpha_s emission scale factors
30 50 = sys_matchscale # variation of merging scale
# PDF sets and number of members (0 or none for all members).
CT10nlo.LHgrid = sys_pdf # matching scales
# MSTW2008nlo68cl.LHgrid 1  = sys_pdf
</MGRunCard>
<slha>
######################################################################
## PARAM_CARD AUTOMATICALY GENERATED BY MG5 FOLLOWING UFO MODEL   ####
######################################################################
##                                                                  ##
##  Width set on Auto will be computed following the information    ##
##        present in the decay.py files of the model.               ##
##        See  arXiv:1402.1178 for more details.                    ##
##                                                                  ##
######################################################################

###################################
## INFORMATION FOR CKMBLOCK
###################################
Block ckmblock 
    1 2.277360e-01 # cabi 

###################################
## INFORMATION FOR FRBLOCK
###################################
Block frblock 
    1 2.000000e-01 # gz 

###################################
## INFORMATION FOR MASS
###################################
Block mass 
    1 5.040000e-03 # MD 
    2 2.550000e-03 # MU 
    3 1.010000e-01 # MS 
    4 1.270000e+00 # MC 
    5 4.700000e+00 # MB 
    6 1.720000e+02 # MT 
   11 5.110000e-04 # Me 
   13 1.056600e-01 # MM 
   15 1.777000e+00 # MTA 
   23 9.118760e+01 # MZ 
   25 1.200000e+02 # MH 
  10030 3.400000e+03 # MZph 
  10031 3.000000e+02 # MZpl 
## Dependent parameters, given by model restrictions.
## Those values should be edited following the 
## analytical expression. MG5 ignores those values 
## but they are important for interfacing the output of MG5
## to external program such as Pythia.
  12 0.000000 # ve : 0.0 
  14 0.000000 # vm : 0.0 
  16 0.000000 # vt : 0.0 
  21 0.000000 # g : 0.0 
  22 0.000000 # a : 0.0 
  24 79.824360 # w+ : cmath.sqrt(MZ__exp__2/2. + cmath.sqrt(MZ__exp__4/4. - (aEW*cmath.pi*MZ__exp__2)/(Gf*sqrt__2))) 

###################################
## INFORMATION FOR SMINPUTS
###################################
Block sminputs 
    1 1.279000e+02 # aEWM1 
    2 1.166370e-05 # Gf 
    3 1.184000e-01 # aS 

###################################
## INFORMATION FOR YUKAWA
###################################
Block yukawa 
    1 5.040000e-03 # ymdo 
    2 2.550000e-03 # ymup 
    3 1.010000e-01 # yms 
    4 1.270000e+00 # ymc 
    5 4.700000e+00 # ymb 
    6 1.720000e+02 # ymt 
   11 5.110000e-04 # yme 
   13 1.056600e-01 # ymm 
   15 1.777000e+00 # ymtau 

###################################
## INFORMATION FOR DECAY
###################################
DECAY   6 1.508336e+00 # WT 
DECAY  23 2.495200e+00 # WZ 
DECAY  24 2.085000e+00 # WW 
DECAY  25 5.753088e-03 # WH 
## Dependent parameters, given by model restrictions.
## Those values should be edited following the 
## analytical expression. MG5 ignores those values 
## but they are important for interfacing the output of MG5
## to external program such as Pythia.
DECAY  1 0.000000 # d : 0.0 
DECAY  2 0.000000 # u : 0.0 
DECAY  3 0.000000 # s : 0.0 
DECAY  4 0.000000 # c : 0.0 
DECAY  5 0.000000 # b : 0.0 
DECAY  11 0.000000 # e- : 0.0 
DECAY  12 0.000000 # ve : 0.0 
DECAY  13 0.000000 # mu- : 0.0 
DECAY  14 0.000000 # vm : 0.0 
DECAY  15 0.000000 # ta- : 0.0 
DECAY  16 0.000000 # vt : 0.0 
DECAY  21 0.000000 # g : 0.0 
DECAY  22 0.000000 # a : 0.0 
DECAY  10030 0.308725 # zph : (gz__exp__2*MZph*(5 + cmath.sqrt(1 - (4*MT__exp__2)/MZph__exp__2)))/(144.*cmath.pi) 
DECAY  10031 0.132629 # zpl : (5*gz__exp__2*MZpl)/(144.*cmath.pi) 
#===========================================================
# QUANTUM NUMBERS OF NEW STATE(S) (NON SM PDG CODE)
#===========================================================

Block QNUMBERS 10030  # zph 
        1 0  # 3 times electric charge
        2 3  # number of spin states (2S+1)
        3 1  # colour rep (1: singlet, 3: triplet, 8: octet)
        4 0  # Particle/Antiparticle distinction (0=own anti)
Block QNUMBERS 10031  # zpl 
        1 0  # 3 times electric charge
        2 3  # number of spin states (2S+1)
        3 1  # colour rep (1: singlet, 3: triplet, 8: octet)
        4 0  # Particle/Antiparticle distinction (0=own anti)
</slha>
## END BANNER##
<MGGenerationInfo>
#  Number of Events        :         3920
#  Integrated weight (pb)  :  0.12589E-04
#  Max wgt                 :  0.50012E-08
#  Average wgt             :  0.32115E-08
</MGGenerationInfo>
</header>
<init>
     2212     2212  0.40000000000E+04  0.40000000000E+04 0 0  247000  247000 2   1
  0.12598816892E-04  0.26086326246E-07  0.50011970000E-08   0
</init>
<event>
 5   0  0.4973409E-08  0.3400514E+04  0.7818609E-02  0.8137780E-01
        2   -1    0    0  501    0  0.00000000000E+00  0.00000000000E+00  0.16670301739E+04  0.16670301739E+04  0.25500000920E-02 0.  1.
       -2   -1    0    0    0  501  0.00000000000E+00  0.00000000000E+00 -0.17341459478E+04  0.17341459478E+04  0.25500000920E-02 0. -1.
    10030    2    1    2    0    0  0.00000000000E+00  0.00000000000E+00 -0.67115773861E+02  0.34011761217E+04  0.34005138559E+04 0.  0.
        1    1    3    3  502    0  0.12365069531E+04  0.11630775845E+04 -0.12936123888E+03  0.17024785587E+04  0.50400001928E-02 0. -1.
       -1    1    3    3    0  502 -0.12365069531E+04 -0.11630775845E+04  0.62245465016E+02  0.16986975630E+04  0.50400001928E-02 0.  1.
</event>
<event>
 5   0  0.4973409E-08  0.3400018E+04  0.7818609E-02  0.8137902E-01
        2   -1    0    0  501    0  0.00000000000E+00  0.00000000000E+00  0.10230122761E+04  0.10230122761E+04  0.25500000920E-02 0.  1.
       -2   -1    0    0    0  501  0.00000000000E+00  0.00000000000E+00 -0.28250204826E+04  0.28250204826E+04  0.25500000920E-02 0. -1.
    10030    2    1    2    0    0  0.00000000000E+00  0.00000000000E+00 -0.18020082065E+04  0.38480327588E+04  0.34000180200E+04 0.  0.
        1    1    3    3  502    0 -0.50362669463E+03  0.12791662770E+04  0.23083464567E+03  0.13939838038E+04  0.50400001928E-02 0.  1.
       -1    1    3    3    0  502  0.50362669463E+03 -0.12791662770E+04 -0.20328428522E+04  0.24540489549E+04  0.50400001928E-02 0. -1.
</event>
<event>
 5   0  0.4946315E-08  0.3399914E+04  0.7818609E-02  0.8137927E-01
       -2   -1    0    0    0  501  0.00000000000E+00  0.00000000000E+00  0.19467127648E+04  0.19467127648E+04  0.25500000920E-02 0. -1.
        2   -1    0    0  501    0  0.00000000000E+00  0.00000000000E+00 -0.14844787792E+04  0.14844787792E+04  0.25500000920E-02 0.  1.
    10030    2    1    2    0    0  0.00000000000E+00  0.00000000000E+00  0.46223398558E+03  0.34311915441E+04  0.33999139923E+04 0.  0.
        3    1    3    3  502    0 -0.36786427565E+03 -0.10091692719E+04  0.15608525453E+04  0.18947314910E+04  0.10100000352E+00 0. -1.
       -3    1    3    3    0  502  0.36786427565E+03  0.10091692719E+04 -0.10986185597E+04  0.15364600531E+04  0.10100000352E+00 0.  1.
</event>
<event>
 5   0  0.4973409E-08  0.3395147E+04  0.7818609E-02  0.8139098E-01
        2   -1    0    0  501    0  0.00000000000E+00  0.00000000000E+00  0.23489544491E+04  0.23489544491E+04  0.25500000920E-02 0. -1.
       -2   -1    0    0    0  501  0.00000000000E+00  0.00000000000E+00 -0.12268248781E+04  0.12268248781E+04  0.25500000920E-02 0.  1.
    10030    2    1    2    0    0  0.00000000000E+00  0.00000000000E+00  0.11221295710E+04  0.35757793272E+04  0.33951469811E+04 0.  0.
        1    1    3    3  502    0  0.98628604201E+03 -0.73638254393E+03  0.17923381969E+04  0.21742804832E+04  0.50400001928E-02 0. -1.
       -1    1    3    3    0  502 -0.98628604201E+03  0.73638254393E+03 -0.67020862585E+03  0.14014988440E+04  0.50400001928E-02 0.  1.
</event>
<event>
 5   0  0.4946315E-08  0.3401855E+04  0.7818609E-02  0.8137451E-01
        2   -1    0    0  501    0  0.00000000000E+00  0.00000000000E+00  0.19183985565E+04  0.19183985565E+04  0.25500000920E-02 0. -1.
       -2   -1    0    0    0  501  0.00000000000E+00  0.00000000000E+00 -0.15081087585E+04  0.15081087585E+04  0.25500000920E-02 0.  1.
    10030    2    1    2    0    0  0.00000000000E+00  0.00000000000E+00  0.41028979795E+03  0.34265073150E+04  0.34018545915E+04 0.  0.
        3    1    3    3  502    0 -0.20007338692E+03 -0.11292539829E+04 -0.10601069923E+04  0.15617524654E+04  0.10100000352E+00 0.  1.
       -3    1    3    3    0  502  0.20007338692E+03  0.11292539829E+04  0.14703967902E+04  0.18647548496E+04  0.10100000352E+00 0. -1.
</event>
<event>
 5   0  0.1625282E-08  0.3399870E+04  0.7818609E-02  0.8137938E-01
       -1   -1    0    0    0  501  0.00000000000E+00  0.00000000000E+00  0.21416416968E+04  0.21416416968E+04  0.50400001928E-02 0. -1.
        1   -1    0    0  501    0  0.00000000000E+00  0.00000000000E+00 -0.13493287012E+04  0.13493287012E+04  0.50400001928E-02 0.  1.
    10030    2    1    2    0    0  0.00000000000E+00  0.00000000000E+00  0.79231299559E+03  0.34909703980E+04  0.33998697676E+04 0.  0.
        1    1    3    3  502    0  0.41926995209E+03  0.14763072079E+04  0.11468473597E+04  0.19158625032E+04  0.50400001928E-02 0. -1.
       -1    1    3    3    0  502 -0.41926995209E+03 -0.14763072079E+04 -0.35453436415E+03  0.15751078948E+04  0.50400001928E-02 0.  1.
</event>
<event>
 5   0  0.1630571E-08  0.3399844E+04  0.7818609E-02  0.8137945E-01
        1   -1    0    0  501    0  0.00000000000E+00  0.00000000000E+00  0.15600738946E+04  0.15600738946E+04  0.50400001928E-02 0. -1.
       -1   -1    0    0    0  501  0.00000000000E+00  0.00000000000E+00 -0.18523060038E+04  0.18523060038E+04  0.50400001928E-02 0.  1.
    10030    2    1    2    0    0  0.00000000000E+00  0.00000000000E+00 -0.29223210920E+03  0.34123798983E+04  0.33998436677E+04 0.  0.
        3    1    3    3  502    0  0.17645816944E+03  0.12040224212E+04  0.10452429053E+04  0.16041634011E+04  0.10100000352E+00 0. -1.
       -3    1    3    3    0  502 -0.17645816944E+03 -0.12040224212E+04 -0.13374750145E+04  0.18082164972E+04  0.10100000352E+00 0.  1.
</event>
<event>
 5   0  0.4973409E-08  0.3409843E+04  0.7818609E-02  0.8135495E-01
       -2   -1    0    0    0  501  0.00000000000E+00  0.00000000000E+00  0.11238001361E+04  0.11238001361E+04  0.25500000920E-02 0.  1.
        2   -1    0    0  501    0  0.00000000000E+00  0.00000000000E+00 -0.25865430427E+04  0.25865430427E+04  0.25500000920E-02 0. -1.
    10030    2    1    2    0    0  0.00000000000E+00  0.00000000000E+00 -0.14627429066E+04  0.37103431789E+04  0.34098430601E+04 0.  0.
        1    1    3    3  502    0  0.89437904276E+03  0.70707364097E+03 -0.21107161839E+04  0.23989559844E+04  0.50400001928E-02 0. -1.
       -1    1    3    3    0  502 -0.89437904276E+03 -0.70707364097E+03  0.64797327728E+03  0.13113871945E+04  0.50400001928E-02 0.  1.
</event>
<event>
 5   0  0.1595851E-08  0.3398024E+04  0.7818609E-02  0.8138392E-01
       -1   -1    0    0    0  501  0.00000000000E+00  0.00000000000E+00  0.15614939302E+04  0.15614939302E+04  0.50400001928E-02 0. -1.
        1   -1    0    0  501    0  0.00000000000E+00  0.00000000000E+00 -0.18486405753E+04  0.18486405753E+04  0.50400001928E-02 0.  1.
    10030    2    1    2    0    0  0.00000000000E+00  0.00000000000E+00 -0.28714664503E+03  0.34101345055E+04  0.33980235652E+04 0.  0.
        2    1    3    3  502    0  0.19726713560E+03  0.16807910595E+04  0.75226753638E+01  0.16923443796E+04  0.25500000920E-02 0. -1.
       -2    1    3    3    0  502 -0.19726713560E+03 -0.16807910595E+04 -0.29466932039E+03  0.17177901259E+04  0.25500000920E-02 0.  1.
</event>
<event>
 5   0  0.4973409E-08  0.3395406E+04  0.7818609E-02  0.8139035E-01
       -2   -1    0    0    0  501  0.00000000000E+00  0.00000000000E+00  0.10282077508E+04  0.10282077508E+04  0.25500000920E-02 0.  1.
        2   -1    0    0  501    0  0.00000000000E+00  0.00000000000E+00 -0.28031250019E+04  0.28031250019E+04  0.25500000920E-02 0. -1.
    10030    2    1    2    0    0  0.00000000000E+00  0.00000000000E+00 -0.17749172511E+04  0.38313327527E+04  0.33954056332E+04 0.  0.
        1    1    3    3  502    0 -0.99063556208E+03 -0.13779550191E+04 -0.93887152233E+03  0.19394841033E+04  0.50400001928E-02 0. -1.
       -1    1    3    3    0  502  0.99063556208E+03  0.13779550191E+04 -0.83604572877E+03  0.18918486494E+04  0.50400001928E-02 0.  1.
</event>
<event>
 5   0  0.1573625E-08  0.3400116E+04  0.7818609E-02  0.8137878E-01
       -4   -1    0    0    0  501  0.00000000000E+00  0.00000000000E+00  0.19729561721E+04  0.19729565808E+04  0.12699999809E+01 0.  1.
        4   -1    0    0  501    0  0.00000000000E+00  0.00000000000E+00 -0.14649057730E+04  0.14649063235E+04  0.12699999809E+01 0. -1.
    10030    2    1    2    0    0  0.00000000000E+00  0.00000000000E+00  0.50805039909E+03  0.34378629043E+04  0.34001156070E+04 0.  0.
        5    1    3    3  502    0 -0.24609858867E+03  0.28482968388E+03 -0.14222345513E+04  0.14712123141E+04  0.46999998093E+01 0. -1.
       -5    1    3    3    0  502  0.24609858867E+03 -0.28482968388E+03  0.19302849504E+04  0.19666505902E+04  0.46999998093E+01 0.  1.
</event>
<event>
 5   0  0.5001197E-08  0.3403808E+04  0.7818609E-02  0.8136972E-01
       -2   -1    0    0    0  501  0.00000000000E+00  0.00000000000E+00  0.14118046516E+04  0.14118046516E+04  0.25500000920E-02 0.  1.
        2   -1    0    0  501    0  0.00000000000E+00  0.00000000000E+00 -0.20516136408E+04  0.20516136408E+04  0.25500000920E-02 0. -1.
    10030    2    1    2    0    0  0.00000000000E+00  0.00000000000E+00 -0.63980898927E+03  0.34634182924E+04  0.34038082680E+04 0.  0.
        5    1    3    3  502    0 -0.48957486011E+02 -0.16878094972E+04 -0.53660809213E+03  0.17717415356E+04  0.46999998093E+01 0. -1.
       -5    1    3    3    0  502  0.48957486011E+02  0.16878094972E+04 -0.10320089714E+03  0.16916767568E+04  0.46999998093E+01 0.  1.
</event>
<event>
 5   0  0.1579536E-08  0.3400618E+04  0.7818609E-02  0.8137755E-01
       -1   -1    0    0    0  501  0.00000000000E+00  0.00000000000E+00  0.17582494783E+04  0.17582494783E+04  0.50400001928E-02 0. -1.
        1   -1    0    0  501    0  0.00000000000E+00  0.00000000000E+00 -0.16442777827E+04  0.16442777827E+04  0.50400001928E-02 0.  1.
    10030    2    1    2    0    0  0.00000000000E+00  0.00000000000E+00  0.11397169561E+03  0.34025272610E+04  0.34006179165E+04 0.  0.
        5    1    3    3  502    0  0.12636671522E+04  0.81343939286E+03 -0.73875317588E+03  0.16746094059E+04  0.46999998093E+01 0.  1.
       -5    1    3    3    0  502 -0.12636671522E+04 -0.81343939286E+03  0.85272487149E+03  0.17279178551E+04  0.46999998093E+01 0. -1.
</event>
<event>
 5   0  0.1625282E-08  0.3399865E+04  0.7818609E-02  0.8137939E-01
        1   -1    0    0  501    0  0.00000000000E+00  0.00000000000E+00  0.17945890683E+04  0.17945890683E+04  0.50400001928E-02 0.  1.
       -1   -1    0    0    0  501  0.00000000000E+00  0.00000000000E+00 -0.16102686012E+04  0.16102686012E+04  0.50400001928E-02 0. -1.
    10030    2    1    2    0    0  0.00000000000E+00  0.00000000000E+00  0.18432046710E+03  0.34048576695E+04  0.33998649554E+04 0.  0.
        1    1    3    3  502    0 -0.13726367554E+04 -0.84641094962E+03 -0.44642806656E+03  0.16732725948E+04  0.50400001928E-02 0.  1.
       -1    1    3    3    0  502  0.13726367554E+04  0.84641094962E+03  0.63074853366E+03  0.17315850747E+04  0.50400001928E-02 0. -1.
</event>
<event>
 5   0  0.1630571E-08  0.3400594E+04  0.7818609E-02  0.8137760E-01
        1   -1    0    0  501    0  0.00000000000E+00  0.00000000000E+00  0.28118016595E+04  0.28118016595E+04  0.50400001928E-02 0.  1.
       -1   -1    0    0    0  501  0.00000000000E+00  0.00000000000E+00 -0.10281701733E+04  0.10281701733E+04  0.50400001928E-02 0. -1.
    10030    2    1    2    0    0  0.00000000000E+00  0.00000000000E+00  0.17836314862E+04  0.38399718327E+04  0.34005944183E+04 0.  0.
        3    1    3    3  502    0 -0.32547914493E+01 -0.90667531614E+03 -0.73241278853E+03  0.11655467496E+04  0.10100000352E+00 0. -1.
       -3    1    3    3    0  502  0.32547914493E+01  0.90667531614E+03  0.25160442747E+04  0.26744250831E+04  0.10100000352E+00 0.  1.
</event>
<event>
 5   0  0.1630571E-08  0.3399650E+04  0.7818609E-02  0.8137992E-01
       -1   -1    0    0    0  501  0.00000000000E+00  0.00000000000E+00  0.12984485398E+04  0.12984485398E+04  0.50400001928E-02 0.  1.
        1   -1    0    0  501    0  0.00000000000E+00  0.00000000000E+00 -0.22252743607E+04  0.22252743608E+04  0.50400001928E-02 0. -1.
    10030    2    1    2    0    0  0.00000000000E+00  0.00000000000E+00 -0.92682582097E+03  0.35237229005E+04  0.33996495374E+04 0.  0.
        3    1    3    3  502    0  0.12464476971E+04 -0.33778625814E+03 -0.16090446977E+04  0.20631907976E+04  0.10100000352E+00 0. -1.
       -3    1    3    3    0  502 -0.12464476971E+04  0.33778625814E+03  0.68221887676E+03  0.14605321030E+04  0.10100000352E+00 0.  1.
</event>
<event>
 5   0  0.4973409E-08  0.3399442E+04  0.7818609E-02  0.8138043E-01
       -2   -1    0    0    0  501  0.00000000000E+00  0.00000000000E+00  0.13075949665E+04  0.13075949665E+04  0.25500000920E-02 0. -1.
        2   -1    0    0  501    0  0.00000000000E+00  0.00000000000E+00 -0.22094394928E+04  0.22094394928E+04  0.25500000920E-02 0.  1.
    10030    2    1    2    0    0  0.00000000000E+00  0.00000000000E+00 -0.90184452635E+03  0.35170344593E+04  0.33994422834E+04 0.  0.
        1    1    3    3  502    0  0.16469339029E+04 -0.15831789961E+03 -0.85374409216E+03  0.18618095533E+04  0.50400001928E-02 0.  1.
       -1    1    3    3    0  502 -0.16469339029E+04  0.15831789961E+03 -0.48100434186E+02  0.16552249060E+04  0.50400001928E-02 0. -1.
</event>
<event>
 5   0  0.1645631E-08  0.3400043E+04  0.7818609E-02  0.8137896E-01
       -1   -1    0    0    0  501  0.00000000000E+00  0.00000000000E+00  0.17499577917E+04  0.17499577917E+04  0.50400001928E-02 0.  1.
        1   -1    0    0  501    0  0.00000000000E+00  0.00000000000E+00 -0.16515101358E+04  0.16515101358E+04  0.50400001928E-02 0. -1.
    10030    2    1    2    0    0  0.00000000000E+00  0.00000000000E+00  0.98447655918E+02  0.34014679276E+04  0.34000429588E+04 0.  0.
        4    1    3    3  502    0  0.83330117471E+03 -0.12603776426E+04 -0.73028741226E+03  0.16781728061E+04  0.12699999809E+01 0. -1.
       -4    1    3    3    0  502 -0.83330117471E+03  0.12603776426E+04  0.82873506818E+03  0.17232951215E+04  0.12699999809E+01 0.  1.
</event>
<event>
 5   0  0.1625282E-08  0.3400191E+04  0.7818609E-02  0.8137859E-01
       -1   -1    0    0    0  501  0.00000000000E+00  0.00000000000E+00  0.12165761097E+04  0.12165761097E+04  0.50400001928E-02 0. -1.
        1   -1    0    0  501    0  0.00000000000E+00  0.00000000000E+00 -0.23757861213E+04  0.23757861214E+04  0.50400001928E-02 0.  1.
    10030    2    1    2    0    0  0.00000000000E+00  0.00000000000E+00 -0.11592100116E+04  0.35923622311E+04  0.34001909576E+04 0.  0.
        1    1    3    3  502    0  0.31057322574E+03  0.14678382963E+04  0.26515985069E+03  0.15235861443E+04  0.50400001928E-02 0. -1.
       -1    1    3    3    0  502 -0.31057322574E+03 -0.14678382963E+04 -0.14243698623E+04  0.20687760868E+04  0.50400001928E-02 0.  1.
</event>
<event>
 5   0  0.4764953E-08  0.3394646E+04  0.7818609E-02  0.8139222E-01
       -2   -1    0    0    0  501  0.00000000000E+00  0.00000000000E+00  0.14834765828E+04  0.14834765828E+04  0.25500000920E-02 0. -1.
        2   -1    0    0  501    0  0.00000000000E+00  0.00000000000E+00 -0.19419958339E+04  0.19419958339E+04  0.25500000920E-02 0.  1.
    10030    2    1    2    0    0  0.00000000000E+00  0.00000000000E+00 -0.45851925110E+03  0.34254724167E+04  0.33946459865E+04 0.  0.
        2    1    3    3  502    0 -0.88384833961E+03  0.14240766701E+04 -0.49950327178E+03  0.17489098800E+04  0.25500000920E-02 0.  1.
       -2    1    3    3    0  502  0.88384833961E+03 -0.14240766701E+04  0.40984020688E+02  0.16765625367E+04  0.25500000920E-02 0. -1.
</event>
<event>
 5   0  0.1630571E-08  0.3399366E+04  0.7818609E-02  0.8138062E-01
        1   -1    0    0  501    0  0.00000000000E+00  0.00000000000E+00  0.12076531501E+04  0.12076531501E+04  0.50400001928E-02 0. -1.
       -1   -1    0    0    0  501  0.00000000000E+00  0.00000000000E+00 -0.23921794500E+04  0.23921794500E+04  0.50400001928E-02 0.  1.
    10030    2    1    2    0    0  0.00000000000E+00  0.00000000000E+00 -0.11845262999E+04  0.35998326002E+04  0.33993664401E+04 0.  0.
        3    1    3    3  502    0 -0.15901028220E+04  0.56834839093E+03 -0.38725937116E+03  0.17324597279E+04  0.10100000352E+00 0. -1.
       -3    1    3    3    0  502  0.15901028220E+04 -0.56834839093E+03 -0.79726692875E+03  0.18673728722E+04  0.10100000352E+00 0.  1.
</event>
<event>
 5   0  0.4946315E-08  0.3399225E+04  0.7818609E-02  0.8138097E-01
        2   -1    0    0  501    0  0.00000000000E+00  0.00000000000E+00  0.27092587932E+04  0.27092587932E+04  0.25500000920E-02 0.  1.
       -2   -1    0    0    0  501  0.00000000000E+00  0.00000000000E+00 -0.10662260222E+04  0.10662260222E+04  0.25500000920E-02 0. -1.
    10030    2    1    2    0    0  0.00000000000E+00  0.00000000000E+00  0.16430327710E+04  0.37754848154E+04  0.33992247505E+04 0.  0.
        3    1    3    3  502    0 -0.25463092061E+01  0.73046520450E+03 -0.88298431596E+03  0.11459699870E+04  0.10100000352E+00 0. -1.
       -3    1    3    3    0  502  0.25463092061E+01 -0.73046520450E+03  0.25260170870E+04  0.26295148284E+04  0.10100000352E+00 0.  1.
</event>
<event>
 5   0  0.1625282E-08  0.3399698E+04  0.7818609E-02  0.8137980E-01
       -1   -1    0    0    0  501  0.00000000000E+00  0.00000000000E+00  0.14548883754E+04  0.14548883754E+04  0.50400001928E-02 0. -1.
        1   -1    0    0  501    0  0.00000000000E+00  0.00000000000E+00 -0.19860540656E+04  0.19860540656E+04  0.50400001928E-02 0.  1.
    10030    2    1    2    0    0  0.00000000000E+00  0.00000000000E+00 -0.53116569024E+03  0.34409424410E+04  0.33996982060E+04 0.  0.
        1    1    3    3  502    0 -0.10113635423E+04  0.89075320098E+03  0.78293360371E+03  0.15586155740E+04  0.50400001928E-02 0. -1.
       -1    1    3    3    0  502  0.10113635423E+04 -0.89075320098E+03 -0.13140992940E+04  0.18823268670E+04  0.50400001928E-02 0.  1.
</event>
<event>
 5   0  0.4764953E-08  0.3402978E+04  0.7818609E-02  0.8137176E-01
       -2   -1    0    0    0  501  0.00000000000E+00  0.00000000000E+00  0.17852608365E+04  0.17852608365E+04  0.25500000920E-02 0.  1.
        2   -1    0    0  501    0  0.00000000000E+00  0.00000000000E+00 -0.16216481765E+04  0.16216481765E+04  0.25500000920E-02 0. -1.
    10030    2    1    2    0    0  0.00000000000E+00  0.00000000000E+00  0.16361266003E+03  0.34069090130E+04  0.34029780957E+04 0.  0.
        2    1    3    3  502    0 -0.23477916079E+03 -0.24016033077E+03  0.17517459309E+04  0.17836513239E+04  0.25500000920E-02 0.  1.
       -2    1    3    3    0  502  0.23477916079E+03  0.24016033077E+03 -0.15881332709E+04  0.16232576890E+04  0.25500000920E-02 0. -1.
</event>
<event>
 5   0  0.1595851E-08  0.3399323E+04  0.7818609E-02  0.8138073E-01
       -1   -1    0    0    0  501  0.00000000000E+00  0.00000000000E+00  0.14152732806E+04  0.14152732806E+04  0.50400001928E-02 0.  1.
        1   -1    0    0  501    0  0.00000000000E+00  0.00000000000E+00 -0.20411948444E+04  0.20411948444E+04  0.50400001928E-02 0. -1.
    10030    2    1    2    0    0  0.00000000000E+00  0.00000000000E+00 -0.62592156376E+03  0.34564681250E+04  0.33993225936E+04 0.  0.
        2    1    3    3  502    0  0.12417415985E+04 -0.86159761673E+03 -0.11035767496E+04  0.18714043638E+04  0.25500000920E-02 0. -1.
       -2    1    3    3    0  502 -0.12417415985E+04  0.86159761673E+03  0.47765518582E+03  0.15850637612E+04  0.25500000920E-02 0.  1.
</event>
<event>
 5   0  0.4946315E-08  0.3401442E+04  0.7818609E-02  0.8137552E-01
        2   -1    0    0  501    0  0.00000000000E+00  0.00000000000E+00  0.15091140018E+04  0.15091140018E+04  0.25500000920E-02 0. -1.
       -2   -1    0    0    0  501  0.00000000000E+00  0.00000000000E+00 -0.19166558258E+04  0.19166558258E+04  0.25500000920E-02 0.  1.
    10030    2    1    2    0    0  0.00000000000E+00  0.00000000000E+00 -0.40754182396E+03  0.34257698276E+04  0.34014421314E+04 0.  0.
        3    1    3    3  502    0 -0.11495360219E+04 -0.11723084536E+04 -0.65046527605E+03  0.17660252720E+04  0.10100000352E+00 0.  1.
       -3    1    3    3    0  502  0.11495360219E+04  0.11723084536E+04  0.24292345210E+03  0.16597445556E+04  0.10100000352E+00 0. -1.
</event>
<event>
 5   0  0.5001197E-08  0.3401314E+04  0.7818609E-02  0.8137584E-01
        2   -1    0    0  501    0  0.00000000000E+00  0.00000000000E+00  0.95769156305E+03  0.95769156306E+03  0.25500000920E-02 0. -1.
       -2   -1    0    0    0  501  0.00000000000E+00  0.00000000000E+00 -0.30200054301E+04  0.30200054301E+04  0.25500000920E-02 0.  1.
    10030    2    1    2    0    0  0.00000000000E+00  0.00000000000E+00 -0.20623138671E+04  0.39776969932E+04  0.34013136996E+04 0.  0.
        5    1    3    3  502    0 -0.16602445439E+04 -0.34927960464E+03 -0.89375946735E+03  0.19176121253E+04  0.46999998093E+01 0.  1.
       -5    1    3    3    0  502  0.16602445439E+04  0.34927960464E+03 -0.11685543997E+04  0.20600848679E+04  0.46999998093E+01 0. -1.
</event>
<event>
 5   0  0.1595851E-08  0.3400403E+04  0.7818609E-02  0.8137807E-01
       -1   -1    0    0    0  501  0.00000000000E+00  0.00000000000E+00  0.12529335792E+04  0.12529335792E+04  0.50400001928E-02 0.  1.
        1   -1    0    0  501    0  0.00000000000E+00  0.00000000000E+00 -0.23071334020E+04  0.23071334020E+04  0.50400001928E-02 0. -1.
    10030    2    1    2    0    0  0.00000000000E+00  0.00000000000E+00 -0.10541998228E+04  0.35600669812E+04  0.34004028650E+04 0.  0.
        2    1    3    3  502    0  0.16634129307E+04  0.29981549459E+03 -0.33446881731E+03  0.17229919612E+04  0.25500000920E-02 0.  1.
       -2    1    3    3    0  502 -0.16634129307E+04 -0.29981549459E+03 -0.71973100554E+03  0.18370750200E+04  0.25500000920E-02 0. -1.
</event>
<event>
 5   0  0.4946315E-08  0.3400924E+04  0.7818609E-02  0.8137680E-01
       -2   -1    0    0    0  501  0.00000000000E+00  0.00000000000E+00  0.11334984564E+04  0.11334984564E+04  0.25500000920E-02 0.  1.
        2   -1    0    0  501    0  0.00000000000E+00  0.00000000000E+00 -0.25510138935E+04  0.25510138935E+04  0.25500000920E-02 0. -1.
    10030    2    1    2    0    0  0.00000000000E+00  0.00000000000E+00 -0.14175154371E+04  0.36845123500E+04  0.34009235867E+04 0.  0.
        3    1    3    3  502    0 -0.54157466807E+03  0.78755211176E+03  0.81494223136E+03  0.12560542586E+04  0.10100000352E+00 0.  1.
       -3    1    3    3    0  502  0.54157466807E+03 -0.78755211176E+03 -0.22324576685E+04  0.24284580914E+04  0.10100000352E+00 0. -1.
</event>
<event>
 5   0  0.4973409E-08  0.3400760E+04  0.7818609E-02  0.8137720E-01
       -2   -1    0    0    0  501  0.00000000000E+00  0.00000000000E+00  0.18571651158E+04  0.18571651158E+04  0.25500000920E-02 0.  1.
        2   -1    0    0  501    0  0.00000000000E+00  0.00000000000E+00 -0.15568310454E+04  0.15568310454E+04  0.25500000920E-02 0. -1.
    10030    2    1    2    0    0  0.00000000000E+00  0.00000000000E+00  0.30033407041E+03  0.34139961612E+04  0.34007600966E+04 0.  0.
        1    1    3    3  502    0  0.23156258459E+03 -0.15078638242E+04 -0.60376713013E+03  0.16406734259E+04  0.50400001928E-02 0.  1.
       -1    1    3    3    0  502 -0.23156258459E+03  0.15078638242E+04  0.90410120054E+03  0.17733227354E+04  0.50400001928E-02 0. -1.
</event>
<event>
 5   0  0.1579536E-08  0.3399852E+04  0.7818609E-02  0.8137943E-01
        1   -1    0    0  501    0  0.00000000000E+00  0.00000000000E+00  0.20419628211E+04  0.20419628211E+04  0.50400001928E-02 0.  1.
       -1   -1    0    0    0  501  0.00000000000E+00  0.00000000000E+00 -0.14151819417E+04  0.14151819417E+04  0.50400001928E-02 0. -1.
    10030    2    1    2    0    0  0.00000000000E+00  0.00000000000E+00  0.62678087933E+03  0.34571447628E+04  0.33998522968E+04 0.  0.
        5    1    3    3  502    0  0.16006690819E+04 -0.51892872780E+03  0.55890960967E+03  0.17730850448E+04  0.46999998093E+01 0. -1.
       -5    1    3    3    0  502 -0.16006690819E+04  0.51892872780E+03  0.67871269667E+02  0.16840597180E+04  0.46999998093E+01 0.  1.
</event>
<event>
 5   0  0.4946315E-08  0.3398135E+04  0.7818609E-02  0.8138364E-01
        2   -1    0    0  501    0  0.00000000000E+00  0.00000000000E+00  0.22179484267E+04  0.22179484267E+04  0.25500000920E-02 0.  1.
       -2   -1    0    0    0  501  0.00000000000E+00  0.00000000000E+00 -0.13015771673E+04  0.13015771673E+04  0.25500000920E-02 0. -1.
    10030    2    1    2    0    0  0.00000000000E+00  0.00000000000E+00  0.91637125940E+03  0.35195255940E+04  0.33981353889E+04 0.  0.
        3    1    3    3  502    0 -0.43111522516E+03  0.13330876742E+04  0.14536912036E+04  0.20189604281E+04  0.10100000352E+00 0.  1.
       -3    1    3    3    0  502  0.43111522516E+03 -0.13330876742E+04 -0.53731994416E+03  0.15005651659E+04  0.10100000352E+00 0. -1.
</event>
<event>
 5   0  0.1645631E-08  0.3399304E+04  0.7818609E-02  0.8138077E-01
        1   -1    0    0  501    0  0.00000000000E+00  0.00000000000E+00  0.14043445836E+04  0.14043445836E+04  0.50400001928E-02 0. -1.
       -1   -1    0    0    0  501  0.00000000000E+00  0.00000000000E+00 -0.20570570885E+04  0.20570570885E+04  0.50400001928E-02 0.  1.
    10030    2    1    2    0    0  0.00000000000E+00  0.00000000000E+00 -0.65271250495E+03  0.34614016721E+04  0.33993040349E+04 0.  0.
        4    1    3    3  502    0  0.53416488761E+03  0.10695753193E+04 -0.15565197339E+04  0.19626713392E+04  0.12699999809E+01 0.  1.
       -4    1    3    3    0  502 -0.53416488761E+03 -0.10695753193E+04  0.90380722892E+03  0.14987303329E+04  0.12699999809E+01 0. -1.
</event>
<event>
 5   0  0.1625282E-08  0.3399725E+04  0.7818609E-02  0.8137974E-01
        1   -1    0    0  501    0  0.00000000000E+00  0.00000000000E+00  0.17826171630E+04  0.17826171631E+04  0.50400001928E-02 0.  1.
       -1   -1    0    0    0  501  0.00000000000E+00  0.00000000000E+00 -0.16209492443E+04  0.16209492443E+04  0.50400001928E-02 0. -1.
    10030    2    1    2    0    0  0.00000000000E+00  0.00000000000E+00  0.16166791876E+03  0.34035664074E+04  0.33997246614E+04 0.  0.
        1    1    3    3  502    0 -0.73868989291E+03  0.67674352281E+03  0.14556619365E+04  0.17670869325E+04  0.50400001928E-02 0.  1.
       -1    1    3    3    0  502  0.73868989291E+03 -0.67674352281E+03 -0.12939940178E+04  0.16364794748E+04  0.50400001928E-02 0. -1.
</event>
<event>
 5   0  0.1630571E-08  0.3400118E+04  0.7818609E-02  0.8137877E-01
       -1   -1    0    0    0  501  0.00000000000E+00  0.00000000000E+00  0.24727657143E+04  0.24727657143E+04  0.50400001928E-02 0.  1.
        1   -1    0    0  501    0  0.00000000000E+00  0.00000000000E+00 -0.11688132026E+04  0.11688132026E+04  0.50400001928E-02 0. -1.
    10030    2    1    2    0    0  0.00000000000E+00  0.00000000000E+00  0.13039525117E+04  0.36415789168E+04  0.34001183589E+04 0.  0.
        3    1    3    3  502    0  0.75843964054E+03 -0.13858829901E+04  0.13245012782E+04  0.20616027738E+04  0.10100000352E+00 0.  1.
       -3    1    3    3    0  502 -0.75843964054E+03  0.13858829901E+04 -0.20548766463E+02  0.15799761431E+04  0.10100000352E+00 0. -1.
</event>
<event>
 5   0  0.4775023E-08  0.3408277E+04  0.7818609E-02  0.8135878E-01
       -2   -1    0    0    0  501  0.00000000000E+00  0.00000000000E+00  0.21137344242E+04  0.21137344242E+04  0.25500000920E-02 0.  1.
        2   -1    0    0  501    0  0.00000000000E+00  0.00000000000E+00 -0.13739131999E+04  0.13739131999E+04  0.25500000920E-02 0. -1.
    10030    2    1    2    0    0  0.00000000000E+00  0.00000000000E+00  0.73982122432E+03  0.34876476241E+04  0.34082767649E+04 0.  0.
        4    1    3    3  502    0  0.36062254913E+03  0.10944240567E+04  0.16546454928E+04  0.20163496618E+04  0.12699999809E+01 0.  1.
       -4    1    3    3    0  502 -0.36062254913E+03 -0.10944240567E+04 -0.91482426844E+03  0.14712979623E+04  0.12699999809E+01 0. -1.
</event>
<event>
 5   0  0.4775023E-08  0.3395500E+04  0.7818609E-02  0.8139012E-01
       -2   -1    0    0    0  501  0.00000000000E+00  0.00000000000E+00  0.12807851430E+04  0.12807851430E+04  0.25500000920E-02 0.  1.
        2   -1    0    0  501    0  0.00000000000E+00  0.00000000000E+00 -0.22504590987E+04  0.22504590987E+04  0.25500000920E-02 0. -1.
    10030    2    1    2    0    0  0.00000000000E+00  0.00000000000E+00 -0.96967395566E+03  0.35312442417E+04  0.33954997150E+04 0.  0.
        4    1    3    3  502    0  0.10824107021E+04 -0.12129412612E+04  0.24129393452E+02  0.16258607787E+04  0.12699999809E+01 0.  1.
       -4    1    3    3    0  502 -0.10824107021E+04  0.12129412612E+04 -0.99380334911E+03  0.19053834630E+04  0.12699999809E+01 0. -1.
</event>
<event>
 5   0  0.1595851E-08  0.3399334E+04  0.7818609E-02  0.8138070E-01
       -1   -1    0    0    0  501  0.00000000000E+00  0.00000000000E+00  0.23512047276E+04  0.23512047276E+04  0.50400001928E-02 0. -1.
        1   -1    0    0  501    0  0.00000000000E+00  0.00000000000E+00 -0.12286753727E+04  0.12286753728E+04  0.50400001928E-02 0.  1.
    10030    2    1    2    0    0  0.00000000000E+00  0.00000000000E+00  0.11225293549E+04  0.35798801004E+04  0.33993336671E+04 0.  0.
        2    1    3    3  502    0  0.47648223092E+03  0.17129336209E+03 -0.11474049563E+04  0.12541590274E+04  0.25500000920E-02 0.  1.
       -2    1    3    3    0  502 -0.47648223092E+03 -0.17129336209E+03  0.22699343112E+04  0.23257210730E+04  0.25500000920E-02 0. -1.
</event>
<event>
 5   0  0.1579536E-08  0.3400888E+04  0.7818609E-02  0.8137688E-01
       -1   -1    0    0    0  501  0.00000000000E+00  0.00000000000E+00  0.14632808787E+04  0.14632808787E+04  0.50400001928E-02 0. -1.
        1   -1    0    0  501    0  0.00000000000E+00  0.00000000000E+00 -0.19760452269E+04  0.19760452269E+04  0.50400001928E-02 0.  1.
    10030    2    1    2    0    0  0.00000000000E+00  0.00000000000E+00 -0.51276434817E+03  0.34393261057E+04  0.34008876465E+04 0.  0.
        5    1    3    3  502    0 -0.10691900966E+04 -0.68638350465E+03  0.88652266672E+03  0.15492689588E+04  0.46999998093E+01 0. -1.
       -5    1    3    3    0  502  0.10691900966E+04  0.68638350465E+03 -0.13992870149E+04  0.18900571468E+04  0.46999998093E+01 0.  1.
</event>
<event>
 5   0  0.1579536E-08  0.3398335E+04  0.7818609E-02  0.8138315E-01
       -1   -1    0    0    0  501  0.00000000000E+00  0.00000000000E+00  0.22040856189E+04  0.22040856189E+04  0.50400001928E-02 0. -1.
        1   -1    0    0  501    0  0.00000000000E+00  0.00000000000E+00 -0.13099178136E+04  0.13099178136E+04  0.50400001928E-02 0.  1.
    10030    2    1    2    0    0  0.00000000000E+00  0.00000000000E+00  0.89416780528E+03  0.35140034325E+04  0.33983354836E+04 0.  0.
        5    1    3    3  502    0  0.13760563450E+04 -0.40776412406E+03  0.13876289270E+04  0.19963313289E+04  0.46999998093E+01 0. -1.
       -5    1    3    3    0  502 -0.13760563450E+04  0.40776412406E+03 -0.49346112177E+03  0.15176721036E+04  0.46999998093E+01 0.  1.
</event>
<event>
 5   0  0.4764953E-08  0.3402115E+04  0.7818609E-02  0.8137387E-01
       -2   -1    0    0    0  501  0.00000000000E+00  0.00000000000E+00  0.14370321935E+04  0.14370321935E+04  0.25500000920E-02 0.  1.
        2   -1    0    0  501    0  0.00000000000E+00  0.00000000000E+00 -0.20135919784E+04  0.20135919784E+04  0.25500000920E-02 0. -1.
    10030    2    1    2    0    0  0.00000000000E+00  0.00000000000E+00 -0.57655978496E+03  0.34506241719E+04  0.34021149290E+04 0.  0.
        2    1    3    3  502    0 -0.81111713698E+03 -0.77928490241E+03  0.10060032565E+04  0.15090521930E+04  0.25500000920E-02 0.  1.
       -2    1    3    3    0  502  0.81111713698E+03  0.77928490241E+03 -0.15825630415E+04  0.19415719789E+04  0.25500000920E-02 0. -1.
</event>
<event>
 5   0  0.4946315E-08  0.3401114E+04  0.7818609E-02  0.8137633E-01
       -2   -1    0    0    0  501  0.00000000000E+00  0.00000000000E+00  0.14589093724E+04  0.14589093724E+04  0.25500000920E-02 0.  1.
        2   -1    0    0  501    0  0.00000000000E+00  0.00000000000E+00 -0.19822301906E+04  0.19822301906E+04  0.25500000920E-02 0. -1.
    10030    2    1    2    0    0  0.00000000000E+00  0.00000000000E+00 -0.52332081822E+03  0.34411395631E+04  0.34011140548E+04 0.  0.
        3    1    3    3  502    0 -0.14244380628E+04 -0.52612109991E+03  0.51289897466E+03  0.16027765206E+04  0.10100000352E+00 0.  1.
       -3    1    3    3    0  502  0.14244380628E+04  0.52612109991E+03 -0.10362197929E+04  0.18383630425E+04  0.10100000352E+00 0. -1.
</event>
<event>
 5   0  0.4973409E-08  0.3399496E+04  0.7818609E-02  0.8138030E-01
        2   -1    0    0  501    0  0.00000000000E+00  0.00000000000E+00  0.28511871419E+04  0.28511871419E+04  0.25500000920E-02 0. -1.
       -2   -1    0    0    0  501  0.00000000000E+00  0.00000000000E+00 -0.10133122481E+04  0.10133122481E+04  0.25500000920E-02 0.  1.
    10030    2    1    2    0    0  0.00000000000E+00  0.00000000000E+00  0.18378748937E+04  0.38644993900E+04  0.33994957582E+04 0.  0.
        1    1    3    3  502    0 -0.10874972125E+04 -0.12495489132E+04  0.48588286117E+03  0.17262980127E+04  0.50400001928E-02 0.  1.
       -1    1    3    3    0  502  0.10874972125E+04  0.12495489132E+04  0.13519920326E+04  0.21382013773E+04  0.50400001928E-02 0. -1.
</event>
<event>
 5   0  0.4764953E-08  0.3396489E+04  0.7818609E-02  0.8138769E-01
        2   -1    0    0  501    0  0.00000000000E+00  0.00000000000E+00  0.19534014814E+04  0.19534014814E+04  0.25500000920E-02 0.  1.
       -2   -1    0    0    0  501  0.00000000000E+00  0.00000000000E+00 -0.14764166855E+04  0.14764166855E+04  0.25500000920E-02 0. -1.
    10030    2    1    2    0    0  0.00000000000E+00  0.00000000000E+00  0.47698479595E+03  0.34298181669E+04  0.33964890935E+04 0.  0.
        2    1    3    3  502    0 -0.14973249580E+04  0.53606959643E+03  0.83988818895E+03  0.17985451932E+04  0.25500000920E-02 0.  1.
       -2    1    3    3    0  502  0.14973249580E+04 -0.53606959643E+03 -0.36290339300E+03  0.16312729737E+04  0.25500000920E-02 0. -1.
</event>
<event>
 5   0  0.4946315E-08  0.3400423E+04  0.7818609E-02  0.8137803E-01
        2   -1    0    0  501    0  0.00000000000E+00  0.00000000000E+00  0.20697241993E+04  0.20697241993E+04  0.25500000920E-02 0.  1.
       -2   -1    0    0    0  501  0.00000000000E+00  0.00000000000E+00 -0.13966684229E+04  0.13966684229E+04  0.25500000920E-02 0. -1.
    10030    2    1    2    0    0  0.00000000000E+00  0.00000000000E+00  0.67305577640E+03  0.34663926222E+04  0.34004225815E+04 0.  0.
        3    1    3    3  502    0  0.14272515362E+04 -0.56787855570E+03  0.10794921670E+04  0.18774547532E+04  0.10100000352E+00 0.  1.
       -3    1    3    3    0  502 -0.14272515362E+04  0.56787855570E+03 -0.40643639060E+03  0.15889378690E+04  0.10100000352E+00 0. -1.
</event>
<event>
 5   0  0.1630571E-08  0.3397434E+04  0.7818609E-02  0.8138536E-01
        1   -1    0    0  501    0  0.00000000000E+00  0.00000000000E+00  0.20309626946E+04  0.20309626946E+04  0.50400001928E-02 0.  1.
       -1   -1    0    0    0  501  0.00000000000E+00  0.00000000000E+00 -0.14208233863E+04  0.14208233864E+04  0.50400001928E-02 0. -1.
    10030    2    1    2    0    0  0.00000000000E+00  0.00000000000E+00  0.61013930821E+03  0.34517860809E+04  0.33974339100E+04 0.  0.
        3    1    3    3  502    0  0.96511871719E+03  0.60119385512E+03  0.15873022468E+04  0.19525410681E+04  0.10100000352E+00 0.  1.
       -3    1    3    3    0  502 -0.96511871719E+03 -0.60119385512E+03 -0.97716293859E+03  0.14992450128E+04  0.10100000352E+00 0. -1.
</event>
<event>
 5   0  0.5001197E-08  0.3400953E+04  0.7818609E-02  0.8137672E-01
       -2   -1    0    0    0  501  0.00000000000E+00  0.00000000000E+00  0.16156825423E+04  0.16156825424E+04  0.25500000920E-02 0. -1.
        2   -1    0    0  501    0  0.00000000000E+00  0.00000000000E+00 -0.17897208636E+04  0.17897208636E+04  0.25500000920E-02 0.  1.
    10030    2    1    2    0    0  0.00000000000E+00  0.00000000000E+00 -0.17403832125E+03  0.34054034060E+04  0.34009532517E+04 0.  0.
        5    1    3    3  502    0  0.38157313809E+03 -0.73909073005E+03  0.13980754516E+04  0.16268036837E+04  0.46999998093E+01 0. -1.
       -5    1    3    3    0  502 -0.38157313809E+03  0.73909073005E+03 -0.15721137729E+04  0.17785997222E+04  0.46999998093E+01 0.  1.
</event>
<event>
 5   0  0.1579536E-08  0.3398867E+04  0.7818609E-02  0.8138184E-01
       -1   -1    0    0    0  501  0.00000000000E+00  0.00000000000E+00  0.17380246957E+04  0.17380246957E+04  0.50400001928E-02 0.  1.
        1   -1    0    0  501    0  0.00000000000E+00  0.00000000000E+00 -0.16616990076E+04  0.16616990076E+04  0.50400001928E-02 0. -1.
    10030    2    1    2    0    0  0.00000000000E+00  0.00000000000E+00  0.76325688103E+02  0.33997237033E+04  0.33988668182E+04 0.  0.
        5    1    3    3  502    0 -0.12101374567E+04  0.65105925036E+03 -0.96195972914E+03  0.16774085436E+04  0.46999998093E+01 0. -1.
       -5    1    3    3    0  502  0.12101374567E+04 -0.65105925036E+03  0.10382854172E+04  0.17223151597E+04  0.46999998093E+01 0.  1.
</event>
<event>
 5   0  0.1630571E-08  0.3399568E+04  0.7818609E-02  0.8138012E-01
       -1   -1    0    0    0  501  0.00000000000E+00  0.00000000000E+00  0.17766988604E+04  0.17766988604E+04  0.50400001928E-02 0.  1.
        1   -1    0    0  501    0  0.00000000000E+00  0.00000000000E+00 -0.16261986516E+04  0.16261986516E+04  0.50400001928E-02 0. -1.
    10030    2    1    2    0    0  0.00000000000E+00  0.00000000000E+00  0.15050020883E+03  0.34028975120E+04  0.33995677908E+04 0.  0.
        3    1    3    3  502    0  0.82207900347E+03  0.37875089410E+03  0.15154084561E+04  0.17651427497E+04  0.10100000352E+00 0.  1.
       -3    1    3    3    0  502 -0.82207900347E+03 -0.37875089410E+03 -0.13649082473E+04  0.16377547623E+04  0.10100000352E+00 0. -1.
</event>
<event>
 5   0  0.4946315E-08  0.3400546E+04  0.7818609E-02  0.8137772E-01
       -2   -1    0    0    0  501  0.00000000000E+00  0.00000000000E+00  0.16094520233E+04  0.16094520233E+04  0.25500000920E-02 0.  1.
        2   -1    0    0  501    0  0.00000000000E+00  0.00000000000E+00 -0.17962194572E+04  0.17962194572E+04  0.25500000920E-02 0. -1.
    10030    2    1    2    0    0  0.00000000000E+00  0.00000000000E+00 -0.18676743389E+03  0.34056714804E+04  0.34005464499E+04 0.  0.
        3    1    3    3  502    0  0.98311528610E+03 -0.13637679581E+04  0.16106674346E+03  0.16888816463E+04  0.10100000352E+00 0. -1.
       -3    1    3    3    0  502 -0.98311528610E+03  0.13637679581E+04 -0.34783417735E+03  0.17167898341E+04  0.10100000352E+00 0.  1.
</event>
<event>
 5   0  0.1625282E-08  0.3398652E+04  0.7818609E-02  0.8138237E-01
        1   -1    0    0  501    0  0.00000000000E+00  0.00000000000E+00  0.21050050134E+04  0.21050050134E+04  0.50400001928E-02 0.  1.
       -1   -1    0    0    0  501  0.00000000000E+00  0.00000000000E+00 -0.13718300666E+04  0.13718300666E+04  0.50400001928E-02 0. -1.
    10030    2    1    2    0    0  0.00000000000E+00  0.00000000000E+00  0.73317494683E+03  0.34768350800E+04  0.33986521844E+04 0.  0.
        1    1    3    3  502    0  0.16501867739E+04  0.40565688381E+03  0.37266308627E+03  0.17396987302E+04  0.50400001928E-02 0. -1.
       -1    1    3    3    0  502 -0.16501867739E+04 -0.40565688381E+03  0.36051186056E+03  0.17371363498E+04  0.50400001928E-02 0.  1.
</event>
<event>
 5   0  0.1630571E-08  0.3400840E+04  0.7818609E-02  0.8137700E-01
       -1   -1    0    0    0  501  0.00000000000E+00  0.00000000000E+00  0.19426398597E+04  0.19426398597E+04  0.50400001928E-02 0. -1.
        1   -1    0    0  501    0  0.00000000000E+00  0.00000000000E+00 -0.14884014714E+04  0.14884014714E+04  0.50400001928E-02 0.  1.
    10030    2    1    2    0    0  0.00000000000E+00  0.00000000000E+00  0.45423838831E+03  0.34310413311E+04  0.34008399113E+04 0.  0.
        3    1    3    3  502    0 -0.14559631741E+03 -0.64218007715E+03 -0.13545515326E+04  0.15061219751E+04  0.10100000352E+00 0.  1.
       -3    1    3    3    0  502  0.14559631741E+03  0.64218007715E+03  0.18087899209E+04  0.19249193560E+04  0.10100000352E+00 0. -1.
</event>
<event>
 5   0  0.1595851E-08  0.3400497E+04  0.7818609E-02  0.8137784E-01
        1   -1    0    0  501    0  0.00000000000E+00  0.00000000000E+00  0.17660820159E+04  0.17660820159E+04  0.50400001928E-02 0. -1.
       -1   -1    0    0    0  501  0.00000000000E+00  0.00000000000E+00 -0.16368690586E+04  0.16368690586E+04  0.50400001928E-02 0.  1.
    10030    2    1    2    0    0  0.00000000000E+00  0.00000000000E+00  0.12921295732E+03  0.34029510745E+04  0.34004970265E+04 0.  0.
        2    1    3    3  502    0  0.66054477847E+03 -0.60965826790E+03  0.15088535999E+04  0.17563148334E+04  0.25500000920E-02 0. -1.
       -2    1    3    3    0  502 -0.66054477847E+03  0.60965826790E+03 -0.13796406426E+04  0.16466362411E+04  0.25500000920E-02 0.  1.
</event>
<event>
 5   0  0.1579536E-08  0.3400607E+04  0.7818609E-02  0.8137757E-01
       -1   -1    0    0    0  501  0.00000000000E+00  0.00000000000E+00  0.16290001347E+04  0.16290001347E+04  0.50400001928E-02 0.  1.
        1   -1    0    0  501    0  0.00000000000E+00  0.00000000000E+00 -0.17747281050E+04  0.17747281050E+04  0.50400001928E-02 0. -1.
    10030    2    1    2    0    0  0.00000000000E+00  0.00000000000E+00 -0.14572797026E+03  0.34037282397E+04  0.34006071940E+04 0.  0.
        5    1    3    3  502    0 -0.24692513178E+03 -0.13447152062E+04  0.93889470413E+03  0.16585464605E+04  0.46999998093E+01 0.  1.
       -5    1    3    3    0  502  0.24692513178E+03  0.13447152062E+04 -0.10846226744E+04  0.17451817791E+04  0.46999998093E+01 0. -1.
</event>
<event>
 5   0  0.4775023E-08  0.3395522E+04  0.7818609E-02  0.8139006E-01
       -2   -1    0    0    0  501  0.00000000000E+00  0.00000000000E+00  0.12995585002E+04  0.12995585002E+04  0.25500000920E-02 0.  1.
        2   -1    0    0  501    0  0.00000000000E+00  0.00000000000E+00 -0.22179781808E+04  0.22179781808E+04  0.25500000920E-02 0. -1.
    10030    2    1    2    0    0  0.00000000000E+00  0.00000000000E+00 -0.91841968062E+03  0.35175366809E+04  0.33955219911E+04 0.  0.
        4    1    3    3  502    0 -0.78129813132E+03  0.97697279216E+03 -0.16482744435E+04  0.20692300164E+04  0.12699999809E+01 0. -1.
       -4    1    3    3    0  502  0.78129813132E+03 -0.97697279216E+03  0.72985476293E+03  0.14483066645E+04  0.12699999809E+01 0.  1.
</event>
<event>
 5   0  0.4973409E-08  0.3399091E+04  0.7818609E-02  0.8138130E-01
        2   -1    0    0  501    0  0.00000000000E+00  0.00000000000E+00  0.19029300196E+04  0.19029300196E+04  0.25500000920E-02 0. -1.
       -2   -1    0    0    0  501  0.00000000000E+00  0.00000000000E+00 -0.15178983008E+04  0.15178983008E+04  0.25500000920E-02 0.  1.
    10030    2    1    2    0    0  0.00000000000E+00  0.00000000000E+00  0.38503171874E+03  0.34208283204E+04  0.33990906097E+04 0.  0.
        1    1    3    3  502    0  0.88492107003E+03 -0.12389346995E+04 -0.56756887241E+03  0.16248627372E+04  0.50400001928E-02 0. -1.
       -1    1    3    3    0  502 -0.88492107003E+03  0.12389346995E+04  0.95260059115E+03  0.17959655832E+04  0.50400001928E-02 0.  1.
</event>
<event>
 5   0  0.1645631E-08  0.3400717E+04  0.7818609E-02  0.8137730E-01
        1   -1    0    0  501    0  0.00000000000E+00  0.00000000000E+00  0.25879284269E+04  0.25879284269E+04  0.50400001928E-02 0. -1.
       -1   -1    0    0    0  501  0.00000000000E+00  0.00000000000E+00 -0.11171944864E+04  0.11171944864E+04  0.50400001928E-02 0.  1.
    10030    2    1    2    0    0  0.00000000000E+00  0.00000000000E+00  0.14707339405E+04  0.37051229133E+04  0.34007172007E+04 0.  0.
        4    1    3    3  502    0  0.13926455185E+04 -0.87924999908E+03  0.11959042529E+04  0.20353699163E+04  0.12699999809E+01 0. -1.
       -4    1    3    3    0  502 -0.13926455185E+04  0.87924999908E+03  0.27482968759E+03  0.16697529971E+04  0.12699999809E+01 0.  1.
</event>
<event>
 5   0  0.4764953E-08  0.3400255E+04  0.7818609E-02  0.8137844E-01
       -2   -1    0    0    0  501  0.00000000000E+00  0.00000000000E+00  0.10899012804E+04  0.10899012804E+04  0.25500000920E-02 0.  1.
        2   -1    0    0  501    0  0.00000000000E+00  0.00000000000E+00 -0.26520139547E+04  0.26520139547E+04  0.25500000920E-02 0. -1.
    10030    2    1    2    0    0  0.00000000000E+00  0.00000000000E+00 -0.15621126743E+04  0.37419152351E+04  0.34002549344E+04 0.  0.
        2    1    3    3  502    0  0.10572529987E+04 -0.11549230606E+04 -0.15100384575E+04  0.21752809755E+04  0.25500000920E-02 0. -1.
       -2    1    3    3    0  502 -0.10572529987E+04  0.11549230606E+04 -0.52074216762E+02  0.15666342596E+04  0.25500000920E-02 0.  1.
</event>
<event>
 5   0  0.1579536E-08  0.3399013E+04  0.7818609E-02  0.8138149E-01
       -1   -1    0    0    0  501  0.00000000000E+00  0.00000000000E+00  0.15186960188E+04  0.15186960188E+04  0.50400001928E-02 0. -1.
        1   -1    0    0  501    0  0.00000000000E+00  0.00000000000E+00 -0.19018440431E+04  0.19018440431E+04  0.50400001928E-02 0.  1.
    10030    2    1    2    0    0  0.00000000000E+00  0.00000000000E+00 -0.38314802430E+03  0.34205400620E+04  0.33990133726E+04 0.  0.
        5    1    3    3  502    0 -0.26083184724E+03 -0.73414929441E+02 -0.18799594099E+04  0.18993926601E+04  0.46999998093E+01 0.  1.
       -5    1    3    3    0  502  0.26083184724E+03  0.73414929441E+02  0.14968113855E+04  0.15211474019E+04  0.46999998093E+01 0. -1.
</event>
<event>
 5   0  0.4764953E-08  0.3400379E+04  0.7818609E-02  0.8137813E-01
        2   -1    0    0  501    0  0.00000000000E+00  0.00000000000E+00  0.20388287402E+04  0.20388287402E+04  0.25500000920E-02 0. -1.
       -2   -1    0    0    0  501  0.00000000000E+00  0.00000000000E+00 -0.14177966448E+04  0.14177966448E+04  0.25500000920E-02 0.  1.
    10030    2    1    2    0    0  0.00000000000E+00  0.00000000000E+00  0.62103209541E+03  0.34566253850E+04  0.34003791243E+04 0.  0.
        2    1    3    3  502    0 -0.72284161273E+03 -0.62938193892E+03  0.17380319451E+04  0.19847863020E+04  0.25500000920E-02 0. -1.
       -2    1    3    3    0  502  0.72284161273E+03  0.62938193892E+03 -0.11169998497E+04  0.14718390831E+04  0.25500000920E-02 0.  1.
</event>
<event>
 5   0  0.1645631E-08  0.3400538E+04  0.7818609E-02  0.8137774E-01
        1   -1    0    0  501    0  0.00000000000E+00  0.00000000000E+00  0.14405513933E+04  0.14405513933E+04  0.50400001928E-02 0.  1.
       -1   -1    0    0    0  501  0.00000000000E+00  0.00000000000E+00 -0.20068112708E+04  0.20068112708E+04  0.50400001928E-02 0. -1.
    10030    2    1    2    0    0  0.00000000000E+00  0.00000000000E+00 -0.56625987756E+03  0.34473626641E+04  0.34005380588E+04 0.  0.
        4    1    3    3  502    0 -0.14509868238E+04  0.30178439901E+03  0.56169773991E+03  0.15849108967E+04  0.12699999809E+01 0.  1.
       -4    1    3    3    0  502  0.14509868238E+04 -0.30178439901E+03 -0.11279576175E+04  0.18624517675E+04  0.12699999809E+01 0. -1.
</event>
<event>
 5   0  0.1645631E-08  0.3399844E+04  0.7818609E-02  0.8137945E-01
        1   -1    0    0  501    0  0.00000000000E+00  0.00000000000E+00  0.14572827135E+04  0.14572827135E+04  0.50400001928E-02 0. -1.
       -1   -1    0    0    0  501  0.00000000000E+00  0.00000000000E+00 -0.19829606229E+04  0.19829606229E+04  0.50400001928E-02 0.  1.
    10030    2    1    2    0    0  0.00000000000E+00  0.00000000000E+00 -0.52567790940E+03  0.34402433363E+04  0.33998436653E+04 0.  0.
        4    1    3    3  502    0  0.11219522220E+04 -0.60824081749E+02  0.10279587704E+04  0.15228845011E+04  0.12699999809E+01 0. -1.
       -4    1    3    3    0  502 -0.11219522220E+04  0.60824081749E+02 -0.15536366798E+04  0.19173588352E+04  0.12699999809E+01 0.  1.
</event>
<event>
 5   0  0.1595851E-08  0.3398572E+04  0.7818609E-02  0.8138257E-01
        1   -1    0    0  501    0  0.00000000000E+00  0.00000000000E+00  0.25350855119E+04  0.25350855120E+04  0.50400001928E-02 0.  1.
       -1   -1    0    0    0  501  0.00000000000E+00  0.00000000000E+00 -0.11390437186E+04  0.11390437186E+04  0.50400001928E-02 0. -1.
    10030    2    1    2    0    0  0.00000000000E+00  0.00000000000E+00  0.13960417933E+04  0.36741292306E+04  0.33985721876E+04 0.  0.
        2    1    3    3  502    0  0.58991699329E+03  0.73815357712E+03  0.22248723025E+04  0.24172152417E+04  0.25500000920E-02 0.  1.
       -2    1    3    3    0  502 -0.58991699329E+03 -0.73815357712E+03 -0.82883050917E+03  0.12569139888E+04  0.25500000920E-02 0. -1.
</event>
<event>
 5   0  0.4764953E-08  0.3400302E+04  0.7818609E-02  0.8137832E-01
       -2   -1    0    0    0  501  0.00000000000E+00  0.00000000000E+00  0.11346500248E+04  0.11346500248E+04  0.25500000920E-02 0. -1.
        2   -1    0    0  501    0  0.00000000000E+00  0.00000000000E+00 -0.25474936347E+04  0.25474936347E+04  0.25500000920E-02 0.  1.
    10030    2    1    2    0    0  0.00000000000E+00  0.00000000000E+00 -0.14128436099E+04  0.36821436596E+04  0.34003021724E+04 0.  0.
        2    1    3    3  502    0  0.15448572167E+04 -0.25828858832E+03  0.96089664483E+01  0.15663298334E+04  0.25500000920E-02 0. -1.
       -2    1    3    3    0  502 -0.15448572167E+04  0.25828858832E+03 -0.14224525763E+04  0.21158138261E+04  0.25500000920E-02 0.  1.
</event>
<event>
 5   0  0.1573625E-08  0.3399811E+04  0.7818609E-02  0.8137953E-01
        3   -1    0    0  501    0  0.00000000000E+00  0.00000000000E+00  0.22998187927E+04  0.22998187949E+04  0.10100000352E+00 0.  1.
       -3   -1    0    0    0  501  0.00000000000E+00  0.00000000000E+00 -0.12564810109E+04  0.12564810149E+04  0.10100000352E+00 0. -1.
    10030    2    1    2    0    0  0.00000000000E+00  0.00000000000E+00  0.10433377818E+04  0.35562998099E+04  0.33998109669E+04 0.  0.
        4    1    3    3  502    0  0.16357449481E+04 -0.61261752931E+02  0.42018823263E+02  0.16374314435E+04  0.12699999809E+01 0. -1.
       -4    1    3    3    0  502 -0.16357449481E+04  0.61261752931E+02  0.10013189586E+04  0.19188683664E+04  0.12699999809E+01 0.  1.
</event>
<event>
 5   0  0.5001197E-08  0.3399267E+04  0.7818609E-02  0.8138086E-01
       -2   -1    0    0    0  501  0.00000000000E+00  0.00000000000E+00  0.21890710344E+04  0.21890710344E+04  0.25500000920E-02 0. -1.
        2   -1    0    0  501    0  0.00000000000E+00  0.00000000000E+00 -0.13196252653E+04  0.13196252653E+04  0.25500000920E-02 0.  1.
    10030    2    1    2    0    0  0.00000000000E+00  0.00000000000E+00  0.86944576917E+03  0.35086962997E+04  0.33992666530E+04 0.  0.
        5    1    3    3  502    0  0.12583373272E+04  0.78701890359E+02 -0.74176087895E+03  0.14628185493E+04  0.46999998093E+01 0.  1.
       -5    1    3    3    0  502 -0.12583373272E+04 -0.78701890359E+02  0.16112066481E+04  0.20458777504E+04  0.46999998093E+01 0. -1.
</event>
<event>
 5   0  0.5001197E-08  0.3400155E+04  0.7818609E-02  0.8137868E-01
        2   -1    0    0  501    0  0.00000000000E+00  0.00000000000E+00  0.29946738160E+04  0.29946738160E+04  0.25500000920E-02 0. -1.
       -2   -1    0    0    0  501  0.00000000000E+00  0.00000000000E+00 -0.96513494636E+03  0.96513494637E+03  0.25500000920E-02 0.  1.
    10030    2    1    2    0    0  0.00000000000E+00  0.00000000000E+00  0.20295388696E+04  0.39598087623E+04  0.34001554981E+04 0.  0.
        5    1    3    3  502    0  0.56633778478E+03  0.12932561164E+04  0.21177549611E+04  0.25452225904E+04  0.46999998093E+01 0. -1.
       -5    1    3    3    0  502 -0.56633778478E+03 -0.12932561164E+04 -0.88216091541E+02  0.14145861720E+04  0.46999998093E+01 0.  1.
</event>
<event>
 5   0  0.4775023E-08  0.3401451E+04  0.7818609E-02  0.8137550E-01
       -2   -1    0    0    0  501  0.00000000000E+00  0.00000000000E+00  0.14804680313E+04  0.14804680313E+04  0.25500000920E-02 0. -1.
        2   -1    0    0  501    0  0.00000000000E+00  0.00000000000E+00 -0.19537518975E+04  0.19537518975E+04  0.25500000920E-02 0.  1.
    10030    2    1    2    0    0  0.00000000000E+00  0.00000000000E+00 -0.47328386620E+03  0.34342199288E+04  0.34014509994E+04 0.  0.
        4    1    3    3  502    0 -0.71356571295E+03  0.13637882020E+04  0.49377166141E+03  0.16164486856E+04  0.12699999809E+01 0. -1.
       -4    1    3    3    0  502  0.71356571295E+03 -0.13637882020E+04 -0.96705552761E+03  0.18177712433E+04  0.12699999809E+01 0.  1.
</event>
<event>
 5   0  0.1645631E-08  0.3397538E+04  0.7818609E-02  0.8138511E-01
       -1   -1    0    0    0  501  0.00000000000E+00  0.00000000000E+00  0.21325304511E+04  0.21325304511E+04  0.50400001928E-02 0.  1.
        1   -1    0    0  501    0  0.00000000000E+00  0.00000000000E+00 -0.13532353230E+04  0.13532353230E+04  0.50400001928E-02 0. -1.
    10030    2    1    2    0    0  0.00000000000E+00  0.00000000000E+00  0.77929512809E+03  0.34857657741E+04  0.33975376576E+04 0.  0.
        4    1    3    3  502    0 -0.26323876147E+03  0.53228827059E+03  0.20225779622E+04  0.21079489260E+04  0.12699999809E+01 0.  1.
       -4    1    3    3    0  502  0.26323876147E+03 -0.53228827059E+03 -0.12432828341E+04  0.13778168481E+04  0.12699999809E+01 0. -1.
</event>
<event>
 5   0  0.1595851E-08  0.3400817E+04  0.7818609E-02  0.8137706E-01
        1   -1    0    0  501    0  0.00000000000E+00  0.00000000000E+00  0.24207552536E+04  0.24207552536E+04  0.50400001928E-02 0.  1.
       -1   -1    0    0    0  501  0.00000000000E+00  0.00000000000E+00 -0.11944164104E+04  0.11944164104E+04  0.50400001928E-02 0. -1.
    10030    2    1    2    0    0  0.00000000000E+00  0.00000000000E+00  0.12263388432E+04  0.36151716640E+04  0.34008174314E+04 0.  0.
        2    1    3    3  502    0  0.11737374067E+04  0.12230550111E+04  0.75526097759E+03  0.18557861418E+04  0.25500000920E-02 0.  1.
       -2    1    3    3    0  502 -0.11737374067E+04 -0.12230550111E+04  0.47107786558E+03  0.17593855221E+04  0.25500000920E-02 0. -1.
</event>
<event>
 5   0  0.4764953E-08  0.3402516E+04  0.7818609E-02  0.8137289E-01
       -2   -1    0    0    0  501  0.00000000000E+00  0.00000000000E+00  0.10164815953E+04  0.10164815953E+04  0.25500000920E-02 0. -1.
        2   -1    0    0  501    0  0.00000000000E+00  0.00000000000E+00 -0.28473499885E+04  0.28473499885E+04  0.25500000920E-02 0.  1.
    10030    2    1    2    0    0  0.00000000000E+00  0.00000000000E+00 -0.18308683932E+04  0.38638315837E+04  0.34025160447E+04 0.  0.
        2    1    3    3  502    0 -0.89550622023E+02 -0.16066018351E+04 -0.28819663821E+03  0.16347006064E+04  0.25500000920E-02 0. -1.
       -2    1    3    3    0  502  0.89550622023E+02  0.16066018351E+04 -0.15426717550E+04  0.22291309773E+04  0.25500000920E-02 0.  1.
</event>
<event>
 5   0  0.1595851E-08  0.3402185E+04  0.7818609E-02  0.8137370E-01
       -1   -1    0    0    0  501  0.00000000000E+00  0.00000000000E+00  0.17418054050E+04  0.17418054050E+04  0.50400001928E-02 0. -1.
        1   -1    0    0  501    0  0.00000000000E+00  0.00000000000E+00 -0.16613313441E+04  0.16613313441E+04  0.50400001928E-02 0.  1.
    10030    2    1    2    0    0  0.00000000000E+00  0.00000000000E+00  0.80474060835E+02  0.34031367491E+04  0.34021851300E+04 0.  0.
        2    1    3    3  502    0  0.97126922523E+03 -0.84413638332E+03  0.11531064332E+04  0.17278844255E+04  0.25500000920E-02 0. -1.
       -2    1    3    3    0  502 -0.97126922523E+03  0.84413638332E+03 -0.10726323724E+04  0.16752523236E+04  0.25500000920E-02 0.  1.
</event>
<event>
 5   0  0.4946315E-08  0.3400515E+04  0.7818609E-02  0.8137780E-01
        2   -1    0    0  501    0  0.00000000000E+00  0.00000000000E+00  0.16412387574E+04  0.16412387574E+04  0.25500000920E-02 0.  1.
       -2   -1    0    0    0  501  0.00000000000E+00  0.00000000000E+00 -0.17613988111E+04  0.17613988111E+04  0.25500000920E-02 0. -1.
    10030    2    1    2    0    0  0.00000000000E+00  0.00000000000E+00 -0.12016005373E+03  0.34026375684E+04  0.34005152527E+04 0.  0.
        3    1    3    3  502    0 -0.44617917331E+03  0.28221950795E+03 -0.16773041516E+04  0.17584291093E+04  0.10100000352E+00 0. -1.
       -3    1    3    3    0  502  0.44617917331E+03 -0.28221950795E+03  0.15571440979E+04  0.16442084591E+04  0.10100000352E+00 0.  1.
</event>
<event>
 5   0  0.5001197E-08  0.3400553E+04  0.7818609E-02  0.8137771E-01
       -2   -1    0    0    0  501  0.00000000000E+00  0.00000000000E+00  0.12375316707E+04  0.12375316707E+04  0.25500000920E-02 0.  1.
        2   -1    0    0  501    0  0.00000000000E+00  0.00000000000E+00 -0.23360537503E+04  0.23360537503E+04  0.25500000920E-02 0. -1.
    10030    2    1    2    0    0  0.00000000000E+00  0.00000000000E+00 -0.10985220796E+04  0.35735854210E+04  0.34005531905E+04 0.  0.
        5    1    3    3  502    0  0.90149987543E+03 -0.10597238485E+04 -0.15763360205E+04  0.21025161117E+04  0.46999998093E+01 0. -1.
       -5    1    3    3    0  502 -0.90149987543E+03  0.10597238485E+04  0.47781394093E+03  0.14710693092E+04  0.46999998093E+01 0.  1.
</event>
<event>
 5   0  0.1579536E-08  0.3400982E+04  0.7818609E-02  0.8137665E-01
       -1   -1    0    0    0  501  0.00000000000E+00  0.00000000000E+00  0.29963337283E+04  0.29963337283E+04  0.50400001928E-02 0.  1.
        1   -1    0    0  501    0  0.00000000000E+00  0.00000000000E+00 -0.96506948045E+03  0.96506948047E+03  0.50400001928E-02 0. -1.
    10030    2    1    2    0    0  0.00000000000E+00  0.00000000000E+00  0.20312642478E+04  0.39614032087E+04  0.34009823489E+04 0.  0.
        5    1    3    3  502    0  0.10154679606E+04  0.61574887591E+03  0.24332854330E+04  0.27076229327E+04  0.46999998093E+01 0.  1.
       -5    1    3    3    0  502 -0.10154679606E+04 -0.61574887591E+03 -0.40202118521E+03  0.12537802760E+04  0.46999998093E+01 0. -1.
</event>
<event>
 5   0  0.1630571E-08  0.3400818E+04  0.7818609E-02  0.8137705E-01
        1   -1    0    0  501    0  0.00000000000E+00  0.00000000000E+00  0.15602956101E+04  0.15602956101E+04  0.50400001928E-02 0.  1.
       -1   -1    0    0    0  501  0.00000000000E+00  0.00000000000E+00 -0.18531048752E+04  0.18531048752E+04  0.50400001928E-02 0. -1.
    10030    2    1    2    0    0  0.00000000000E+00  0.00000000000E+00 -0.29280926513E+03  0.34134004853E+04  0.34008183732E+04 0.  0.
        3    1    3    3  502    0  0.98681901292E+02 -0.54633246447E+03 -0.17595765291E+04  0.18450818007E+04  0.10100000352E+00 0. -1.
       -3    1    3    3    0  502 -0.98681901292E+02  0.54633246447E+03  0.14667672640E+04  0.15683186846E+04  0.10100000352E+00 0.  1.
</event>
<event>
 5   0  0.4946315E-08  0.3400527E+04  0.7818609E-02  0.8137777E-01
        2   -1    0    0  501    0  0.00000000000E+00  0.00000000000E+00  0.13171304768E+04  0.13171304768E+04  0.25500000920E-02 0.  1.
       -2   -1    0    0    0  501  0.00000000000E+00  0.00000000000E+00 -0.21948442788E+04  0.21948442788E+04  0.25500000920E-02 0. -1.
    10030    2    1    2    0    0  0.00000000000E+00  0.00000000000E+00 -0.87771380203E+03  0.35119747557E+04  0.34005271894E+04 0.  0.
        3    1    3    3  502    0  0.92241084984E+03 -0.14279917292E+04 -0.40797495581E+03  0.17482693527E+04  0.10100000352E+00 0. -1.
       -3    1    3    3    0  502 -0.92241084984E+03  0.14279917292E+04 -0.46973884623E+03  0.17637054030E+04  0.10100000352E+00 0.  1.
</event>
<event>
 5   0  0.4775023E-08  0.3400461E+04  0.7818609E-02  0.8137793E-01
       -2   -1    0    0    0  501  0.00000000000E+00  0.00000000000E+00  0.17459024376E+04  0.17459024376E+04  0.25500000920E-02 0. -1.
        2   -1    0    0  501    0  0.00000000000E+00  0.00000000000E+00 -0.16557536512E+04  0.16557536512E+04  0.25500000920E-02 0.  1.
    10030    2    1    2    0    0  0.00000000000E+00  0.00000000000E+00  0.90148786420E+02  0.34016560887E+04  0.34004613426E+04 0.  0.
        4    1    3    3  502    0  0.11072660033E+04 -0.63747277081E+03 -0.10770920815E+04  0.16710890163E+04  0.12699999809E+01 0.  1.
       -4    1    3    3    0  502 -0.11072660033E+04  0.63747277081E+03  0.11672408679E+04  0.17305670724E+04  0.12699999809E+01 0. -1.
</event>
<event>
 5   0  0.4973409E-08  0.3407969E+04  0.7818609E-02  0.8135953E-01
        2   -1    0    0  501    0  0.00000000000E+00  0.00000000000E+00  0.15271410111E+04  0.15271410111E+04  0.25500000920E-02 0. -1.
       -2   -1    0    0    0  501  0.00000000000E+00  0.00000000000E+00 -0.19013069537E+04  0.19013069537E+04  0.25500000920E-02 0.  1.
    10030    2    1    2    0    0  0.00000000000E+00  0.00000000000E+00 -0.37416594264E+03  0.34284479648E+04  0.34079693799E+04 0.  0.
        1    1    3    3  502    0 -0.48323589319E+02 -0.97313756081E+03  0.12192557421E+04  0.15607422741E+04  0.50400001928E-02 0. -1.
       -1    1    3    3    0  502  0.48323589319E+02  0.97313756081E+03 -0.15934216847E+04  0.18677056907E+04  0.50400001928E-02 0.  1.
</event>
<event>
 5   0  0.4764953E-08  0.3393636E+04  0.7818609E-02  0.8139470E-01
        2   -1    0    0  501    0  0.00000000000E+00  0.00000000000E+00  0.11009606524E+04  0.11009606524E+04  0.25500000920E-02 0. -1.
       -2   -1    0    0    0  501  0.00000000000E+00  0.00000000000E+00 -0.26151627871E+04  0.26151627871E+04  0.25500000920E-02 0.  1.
    10030    2    1    2    0    0  0.00000000000E+00  0.00000000000E+00 -0.15142021347E+04  0.37161234395E+04  0.33936360018E+04 0.  0.
        2    1    3    3  502    0  0.12058986415E+04 -0.97536499750E+03 -0.15107334747E+04  0.21651429614E+04  0.25500000920E-02 0.  1.
       -2    1    3    3    0  502 -0.12058986415E+04  0.97536499750E+03 -0.34686600739E+01  0.15509804781E+04  0.25500000920E-02 0. -1.
</event>
<event>
 5   0  0.1625282E-08  0.3400754E+04  0.7818609E-02  0.8137721E-01
       -1   -1    0    0    0  501  0.00000000000E+00  0.00000000000E+00  0.16799443876E+04  0.16799443876E+04  0.50400001928E-02 0. -1.
        1   -1    0    0  501    0  0.00000000000E+00  0.00000000000E+00 -0.17210578938E+04  0.17210578938E+04  0.50400001928E-02 0.  1.
    10030    2    1    2    0    0  0.00000000000E+00  0.00000000000E+00 -0.41113506224E+02  0.34010022814E+04  0.34007537691E+04 0.  0.
        1    1    3    3  502    0 -0.80512351750E+03  0.12916850641E+04  0.73752724548E+03  0.16913369330E+04  0.50400001928E-02 0. -1.
       -1    1    3    3    0  502  0.80512351750E+03 -0.12916850641E+04 -0.77864075171E+03  0.17096653484E+04  0.50400001928E-02 0.  1.
</event>
<event>
 5   0  0.4775023E-08  0.3398344E+04  0.7818609E-02  0.8138313E-01
       -2   -1    0    0    0  501  0.00000000000E+00  0.00000000000E+00  0.12001011078E+04  0.12001011078E+04  0.25500000920E-02 0. -1.
        2   -1    0    0  501    0  0.00000000000E+00  0.00000000000E+00 -0.24057857176E+04  0.24057857176E+04  0.25500000920E-02 0.  1.
    10030    2    1    2    0    0  0.00000000000E+00  0.00000000000E+00 -0.12056846098E+04  0.36058868254E+04  0.33983443645E+04 0.  0.
        4    1    3    3  502    0 -0.48432065892E+03 -0.77825433206E+03 -0.21209307360E+04  0.23105400030E+04  0.12699999809E+01 0.  1.
       -4    1    3    3    0  502  0.48432065892E+03  0.77825433206E+03  0.91524612612E+03  0.12953468224E+04  0.12699999809E+01 0. -1.
</event>
<event>
 5   0  0.4775023E-08  0.3391460E+04  0.7818609E-02  0.8140005E-01
        2   -1    0    0  501    0  0.00000000000E+00  0.00000000000E+00  0.20321833204E+04  0.20321833204E+04  0.25500000920E-02 0.  1.
       -2   -1    0    0    0  501  0.00000000000E+00  0.00000000000E+00 -0.14149808154E+04  0.14149808154E+04  0.25500000920E-02 0. -1.
    10030    2    1    2    0    0  0.00000000000E+00  0.00000000000E+00  0.61720250503E+03  0.34471641358E+04  0.33914601055E+04 0.  0.
        4    1    3    3  502    0  0.92295842827E+02 -0.16878470673E+04  0.17165690376E+03  0.16990626682E+04  0.12699999809E+01 0. -1.
       -4    1    3    3    0  502 -0.92295842827E+02  0.16878470673E+04  0.44554560127E+03  0.17481014675E+04  0.12699999809E+01 0.  1.
</event>
<event>
 5   0  0.4946315E-08  0.3400277E+04  0.7818609E-02  0.8137838E-01
       -2   -1    0    0    0  501  0.00000000000E+00  0.00000000000E+00  0.17010819805E+04  0.17010819805E+04  0.25500000920E-02 0.  1.
        2   -1    0    0  501    0  0.00000000000E+00  0.00000000000E+00 -0.16991958772E+04  0.16991958772E+04  0.25500000920E-02 0. -1.
    10030    2    1    2    0    0  0.00000000000E+00  0.00000000000E+00  0.18861033619E+01  0.34002778577E+04  0.34002773346E+04 0.  0.
        3    1    3    3  502    0  0.10386793478E+04 -0.30944936037E+03 -0.13089646976E+04  0.16994123349E+04  0.10100000352E+00 0. -1.
       -3    1    3    3    0  502 -0.10386793478E+04  0.30944936037E+03  0.13108508009E+04  0.17008655228E+04  0.10100000352E+00 0.  1.
</event>
<event>
 5   0  0.1579536E-08  0.3399320E+04  0.7818609E-02  0.8138073E-01
       -1   -1    0    0    0  501  0.00000000000E+00  0.00000000000E+00  0.14643344460E+04  0.14643344460E+04  0.50400001928E-02 0.  1.
        1   -1    0    0  501    0  0.00000000000E+00  0.00000000000E+00 -0.19728040051E+04  0.19728040051E+04  0.50400001928E-02 0. -1.
    10030    2    1    2    0    0  0.00000000000E+00  0.00000000000E+00 -0.50846955905E+03  0.34371384511E+04  0.33993204379E+04 0.  0.
        5    1    3    3  502    0  0.53884585180E+03 -0.13404782251E+04 -0.11595086705E+04  0.18524899921E+04  0.46999998093E+01 0. -1.
       -5    1    3    3    0  502 -0.53884585180E+03  0.13404782251E+04  0.65103911147E+03  0.15846484590E+04  0.46999998093E+01 0.  1.
</event>
<event>
 5   0  0.1595851E-08  0.3403846E+04  0.7818609E-02  0.8136963E-01
       -1   -1    0    0    0  501  0.00000000000E+00  0.00000000000E+00  0.10828684842E+04  0.10828684842E+04  0.50400001928E-02 0. -1.
        1   -1    0    0  501    0  0.00000000000E+00  0.00000000000E+00 -0.26748786650E+04  0.26748786650E+04  0.50400001928E-02 0.  1.
    10030    2    1    2    0    0  0.00000000000E+00  0.00000000000E+00 -0.15920101809E+04  0.37577471492E+04  0.34038459456E+04 0.  0.
        2    1    3    3  502    0 -0.88826907372E+03  0.56847046657E+03  0.67867915922E+03  0.12541076588E+04  0.25500000920E-02 0. -1.
       -2    1    3    3    0  502  0.88826907372E+03 -0.56847046657E+03 -0.22706893401E+04  0.25036394904E+04  0.25500000920E-02 0.  1.
</event>
<event>
 5   0  0.4973409E-08  0.3400396E+04  0.7818609E-02  0.8137809E-01
        2   -1    0    0  501    0  0.00000000000E+00  0.00000000000E+00  0.27151292140E+04  0.27151292140E+04  0.25500000920E-02 0. -1.
       -2   -1    0    0    0  501  0.00000000000E+00  0.00000000000E+00 -0.10646543186E+04  0.10646543186E+04  0.25500000920E-02 0.  1.
    10030    2    1    2    0    0  0.00000000000E+00  0.00000000000E+00  0.16504748955E+04  0.37797835326E+04  0.34003964728E+04 0.  0.
        1    1    3    3  502    0 -0.47720848281E+03 -0.10080731111E+03 -0.98521997479E+03  0.10993400060E+04  0.50400001928E-02 0.  1.
       -1    1    3    3    0  502  0.47720848281E+03  0.10080731111E+03  0.26356948702E+04  0.26804435266E+04  0.50400001928E-02 0. -1.
</event>
<event>
 5   0  0.4775023E-08  0.3402306E+04  0.7818609E-02  0.8137341E-01
        2   -1    0    0  501    0  0.00000000000E+00  0.00000000000E+00  0.15988419026E+04  0.15988419026E+04  0.25500000920E-02 0. -1.
       -2   -1    0    0    0  501  0.00000000000E+00  0.00000000000E+00 -0.18100108265E+04  0.18100108265E+04  0.25500000920E-02 0.  1.
    10030    2    1    2    0    0  0.00000000000E+00  0.00000000000E+00 -0.21116892384E+03  0.34088527291E+04  0.34023057790E+04 0.  0.
        4    1    3    3  502    0  0.16737390035E+04 -0.17077778189E+03  0.14659857862E+03  0.16888043282E+04  0.12699999809E+01 0. -1.
       -4    1    3    3    0  502 -0.16737390035E+04  0.17077778189E+03 -0.35776750247E+03  0.17200484009E+04  0.12699999809E+01 0.  1.
</event>
<event>
 5   0  0.4946315E-08  0.3400889E+04  0.7818609E-02  0.8137688E-01
        2   -1    0    0  501    0  0.00000000000E+00  0.00000000000E+00  0.16313831110E+04  0.16313831110E+04  0.25500000920E-02 0.  1.
       -2   -1    0    0    0  501  0.00000000000E+00  0.00000000000E+00 -0.17724293078E+04  0.17724293078E+04  0.25500000920E-02 0. -1.
    10030    2    1    2    0    0  0.00000000000E+00  0.00000000000E+00 -0.14104619685E+03  0.34038124188E+04  0.34008888475E+04 0.  0.
        3    1    3    3  502    0 -0.25967383680E+03  0.15586814814E+04  0.55818309719E+03  0.16758540635E+04  0.10100000352E+00 0.  1.
       -3    1    3    3    0  502  0.25967383680E+03 -0.15586814814E+04 -0.69922929404E+03  0.17279583553E+04  0.10100000352E+00 0. -1.
</event>
<event>
 5   0  0.1625282E-08  0.3400015E+04  0.7818609E-02  0.8137903E-01
       -1   -1    0    0    0  501  0.00000000000E+00  0.00000000000E+00  0.12852448185E+04  0.12852448185E+04  0.50400001928E-02 0. -1.
        1   -1    0    0  501    0  0.00000000000E+00  0.00000000000E+00 -0.22486189271E+04  0.22486189271E+04  0.50400001928E-02 0.  1.
    10030    2    1    2    0    0  0.00000000000E+00  0.00000000000E+00 -0.96337410858E+03  0.35338637457E+04  0.34000151911E+04 0.  0.
        1    1    3    3  502    0  0.50858350170E+02  0.12530335086E+04 -0.16746279241E+04  0.20921420195E+04  0.50400001928E-02 0.  1.
       -1    1    3    3    0  502 -0.50858350170E+02 -0.12530335086E+04  0.71125381555E+03  0.14417217262E+04  0.50400001928E-02 0. -1.
</event>
<event>
 5   0  0.4764953E-08  0.3399958E+04  0.7818609E-02  0.8137917E-01
       -2   -1    0    0    0  501  0.00000000000E+00  0.00000000000E+00  0.15842772676E+04  0.15842772676E+04  0.25500000920E-02 0.  1.
        2   -1    0    0  501    0  0.00000000000E+00  0.00000000000E+00 -0.18241308764E+04  0.18241308764E+04  0.25500000920E-02 0. -1.
    10030    2    1    2    0    0  0.00000000000E+00  0.00000000000E+00 -0.23985360875E+03  0.34084081440E+04  0.33999582824E+04 0.  0.
        2    1    3    3  502    0 -0.95656190770E+03  0.10559851210E+04 -0.10494927758E+04  0.17696187006E+04  0.25500000920E-02 0. -1.
       -2    1    3    3    0  502  0.95656190770E+03 -0.10559851210E+04  0.80963916707E+03  0.16387894434E+04  0.25500000920E-02 0.  1.
</event>
<event>
 5   0  0.1625282E-08  0.3399931E+04  0.7818609E-02  0.8137923E-01
        1   -1    0    0  501    0  0.00000000000E+00  0.00000000000E+00  0.15948779640E+04  0.15948779640E+04  0.50400001928E-02 0. -1.
       -1   -1    0    0    0  501  0.00000000000E+00  0.00000000000E+00 -0.18119772590E+04  0.18119772591E+04  0.50400001928E-02 0.  1.
    10030    2    1    2    0    0  0.00000000000E+00  0.00000000000E+00 -0.21709929504E+03  0.34068552231E+04  0.33999309415E+04 0.  0.
        1    1    3    3  502    0  0.14503603101E+04 -0.52879459135E+03 -0.82183773516E+03  0.17488813602E+04  0.50400001928E-02 0.  1.
       -1    1    3    3    0  502 -0.14503603101E+04  0.52879459135E+03  0.60473844012E+03  0.16579738629E+04  0.50400001928E-02 0. -1.
</event>
<event>
 5   0  0.1595851E-08  0.3401863E+04  0.7818609E-02  0.8137449E-01
       -1   -1    0    0    0  501  0.00000000000E+00  0.00000000000E+00  0.14857834534E+04  0.14857834534E+04  0.50400001928E-02 0.  1.
        1   -1    0    0  501    0  0.00000000000E+00  0.00000000000E+00 -0.19472339878E+04  0.19472339878E+04  0.50400001928E-02 0. -1.
    10030    2    1    2    0    0  0.00000000000E+00  0.00000000000E+00 -0.46145053441E+03  0.34330174413E+04  0.34018630420E+04 0.  0.
        2    1    3    3  502    0 -0.10774079115E+03 -0.85116283893E+03 -0.17128764001E+04  0.19157327106E+04  0.25500000920E-02 0. -1.
       -2    1    3    3    0  502  0.10774079115E+03  0.85116283893E+03  0.12514258657E+04  0.15172847306E+04  0.25500000920E-02 0.  1.
</event>
<event>
 5   0  0.5001197E-08  0.3398877E+04  0.7818609E-02  0.8138182E-01
        2   -1    0    0  501    0  0.00000000000E+00  0.00000000000E+00  0.21776778994E+04  0.21776778994E+04  0.25500000920E-02 0.  1.
       -2   -1    0    0    0  501  0.00000000000E+00  0.00000000000E+00 -0.13262253472E+04  0.13262253472E+04  0.25500000920E-02 0. -1.
    10030    2    1    2    0    0  0.00000000000E+00  0.00000000000E+00  0.85145255224E+03  0.35039032466E+04  0.33988772429E+04 0.  0.
        5    1    3    3  502    0  0.12315723739E+04 -0.51157317247E+03  0.15116473663E+04  0.20158317075E+04  0.46999998093E+01 0.  1.
       -5    1    3    3    0  502 -0.12315723739E+04  0.51157317247E+03 -0.66019481402E+03  0.14880715391E+04  0.46999998093E+01 0. -1.
</event>
<event>
 5   0  0.1625282E-08  0.3400127E+04  0.7818609E-02  0.8137875E-01
        1   -1    0    0  501    0  0.00000000000E+00  0.00000000000E+00  0.28323500589E+04  0.28323500589E+04  0.50400001928E-02 0.  1.
       -1   -1    0    0    0  501  0.00000000000E+00  0.00000000000E+00 -0.10204302141E+04  0.10204302141E+04  0.50400001928E-02 0. -1.
    10030    2    1    2    0    0  0.00000000000E+00  0.00000000000E+00  0.18119198449E+04  0.38527802730E+04  0.34001268076E+04 0.  0.
        1    1    3    3  502    0 -0.13817827635E+04 -0.73540335404E+03  0.15426447065E+03  0.15728760999E+04  0.50400001928E-02 0. -1.
       -1    1    3    3    0  502  0.13817827635E+04  0.73540335404E+03  0.16576553742E+04  0.22799041731E+04  0.50400001928E-02 0.  1.
</event>
<event>
 5   0  0.4775023E-08  0.3400767E+04  0.7818609E-02  0.8137718E-01
        2   -1    0    0  501    0  0.00000000000E+00  0.00000000000E+00  0.16823877632E+04  0.16823877632E+04  0.25500000920E-02 0. -1.
       -2   -1    0    0    0  501  0.00000000000E+00  0.00000000000E+00 -0.17185712835E+04  0.17185712835E+04  0.25500000920E-02 0.  1.
    10030    2    1    2    0    0  0.00000000000E+00  0.00000000000E+00 -0.36183520339E+02  0.34009590467E+04  0.34007665592E+04 0.  0.
        4    1    3    3  502    0  0.83220246581E+03  0.37039252709E+03  0.14177994249E+04  0.16852027743E+04  0.12699999809E+01 0. -1.
       -4    1    3    3    0  502 -0.83220246581E+03 -0.37039252709E+03 -0.14539829453E+04  0.17157562724E+04  0.12699999809E+01 0.  1.
</event>
<event>
 5   0  0.1573625E-08  0.3400620E+04  0.7818609E-02  0.8137754E-01
        3   -1    0    0  501    0  0.00000000000E+00  0.00000000000E+00  0.18188363153E+04  0.18188363181E+04  0.10100000352E+00 0. -1.
       -3   -1    0    0    0  501  0.00000000000E+00  0.00000000000E+00 -0.15895072108E+04  0.15895072140E+04  0.10100000352E+00 0.  1.
    10030    2    1    2    0    0  0.00000000000E+00  0.00000000000E+00  0.22932910448E+03  0.34083435321E+04  0.34006196193E+04 0.  0.
        4    1    3    3  502    0 -0.73075388380E+02  0.16358379904E+04  0.57368500599E+03  0.17350567836E+04  0.12699999809E+01 0. -1.
       -4    1    3    3    0  502  0.73075388380E+02 -0.16358379904E+04 -0.34435590151E+03  0.16732867486E+04  0.12699999809E+01 0.  1.
</event>
<event>
 5   0  0.4946315E-08  0.3399325E+04  0.7818609E-02  0.8138072E-01
        2   -1    0    0  501    0  0.00000000000E+00  0.00000000000E+00  0.15955157709E+04  0.15955157709E+04  0.25500000920E-02 0. -1.
       -2   -1    0    0    0  501  0.00000000000E+00  0.00000000000E+00 -0.18106076337E+04  0.18106076337E+04  0.25500000920E-02 0.  1.
    10030    2    1    2    0    0  0.00000000000E+00  0.00000000000E+00 -0.21509186286E+03  0.34061234046E+04  0.33993252475E+04 0.  0.
        3    1    3    3  502    0 -0.16198038873E+04  0.41555290678E+03 -0.41213439471E+03  0.17222960318E+04  0.10100000352E+00 0. -1.
       -3    1    3    3    0  502  0.16198038873E+04 -0.41555290678E+03  0.19704253185E+03  0.16838273728E+04  0.10100000352E+00 0.  1.
</event>
<event>
 5   0  0.4946315E-08  0.3402475E+04  0.7818609E-02  0.8137299E-01
        2   -1    0    0  501    0  0.00000000000E+00  0.00000000000E+00  0.12039893174E+04  0.12039893174E+04  0.25500000920E-02 0.  1.
       -2   -1    0    0    0  501  0.00000000000E+00  0.00000000000E+00 -0.24038498298E+04  0.24038498298E+04  0.25500000920E-02 0. -1.
    10030    2    1    2    0    0  0.00000000000E+00  0.00000000000E+00 -0.11998605124E+04  0.36078391472E+04  0.34024752847E+04 0.  0.
        3    1    3    3  502    0 -0.13643362136E+04 -0.35459211801E+03 -0.16098115935E+04  0.21397762150E+04  0.10100000352E+00 0. -1.
       -3    1    3    3    0  502  0.13643362136E+04  0.35459211801E+03  0.40995108107E+03  0.14680629322E+04  0.10100000352E+00 0.  1.
</event>
<event>
 5   0  0.1630571E-08  0.3399476E+04  0.7818609E-02  0.8138035E-01
       -1   -1    0    0    0  501  0.00000000000E+00  0.00000000000E+00  0.15238042240E+04  0.15238042240E+04  0.50400001928E-02 0.  1.
        1   -1    0    0  501    0  0.00000000000E+00  0.00000000000E+00 -0.18959847390E+04  0.18959847390E+04  0.50400001928E-02 0. -1.
    10030    2    1    2    0    0  0.00000000000E+00  0.00000000000E+00 -0.37218051498E+03  0.34197889630E+04  0.33994761679E+04 0.  0.
        3    1    3    3  502    0 -0.11638357850E+04  0.14784766331E+03 -0.14233731343E+04  0.18445497434E+04  0.10100000352E+00 0. -1.
       -3    1    3    3    0  502  0.11638357850E+04 -0.14784766331E+03  0.10511926193E+04  0.15752392197E+04  0.10100000352E+00 0.  1.
</event>
<event>
 5   0  0.4764953E-08  0.3398720E+04  0.7818609E-02  0.8138221E-01
        2   -1    0    0  501    0  0.00000000000E+00  0.00000000000E+00  0.21654861040E+04  0.21654861040E+04  0.25500000920E-02 0.  1.
       -2   -1    0    0    0  501  0.00000000000E+00  0.00000000000E+00 -0.13335687737E+04  0.13335687737E+04  0.25500000920E-02 0. -1.
    10030    2    1    2    0    0  0.00000000000E+00  0.00000000000E+00  0.83191733026E+03  0.34990548777E+04  0.33987201404E+04 0.  0.
        2    1    3    3  502    0  0.19028410460E+03 -0.88985319184E+03 -0.10616027664E+04  0.13982300158E+04  0.25500000920E-02 0. -1.
       -2    1    3    3    0  502 -0.19028410460E+03  0.88985319184E+03  0.18935200967E+04  0.21008248618E+04  0.25500000920E-02 0.  1.
</event>
<event>
 5   0  0.4775023E-08  0.3399945E+04  0.7818609E-02  0.8137920E-01
        2   -1    0    0  501    0  0.00000000000E+00  0.00000000000E+00  0.22964453339E+04  0.22964453339E+04  0.25500000920E-02 0. -1.
       -2   -1    0    0    0  501  0.00000000000E+00  0.00000000000E+00 -0.12584261448E+04  0.12584261448E+04  0.25500000920E-02 0.  1.
    10030    2    1    2    0    0  0.00000000000E+00  0.00000000000E+00  0.10380191891E+04  0.35548714787E+04  0.33999452045E+04 0.  0.
        4    1    3    3  502    0  0.74466762948E+00  0.81766890603E+03 -0.10393144394E+04  0.13224065605E+04  0.12699999809E+01 0.  1.
       -4    1    3    3    0  502 -0.74466762948E+00 -0.81766890603E+03  0.20773336285E+04  0.22324649183E+04  0.12699999809E+01 0. -1.
</event>
<event>
 5   0  0.4775023E-08  0.3399757E+04  0.7818609E-02  0.8137966E-01
       -2   -1    0    0    0  501  0.00000000000E+00  0.00000000000E+00  0.17781896324E+04  0.17781896324E+04  0.25500000920E-02 0.  1.
        2   -1    0    0  501    0  0.00000000000E+00  0.00000000000E+00 -0.16250163285E+04  0.16250163285E+04  0.25500000920E-02 0. -1.
    10030    2    1    2    0    0  0.00000000000E+00  0.00000000000E+00  0.15317330391E+03  0.34032059610E+04  0.33997571607E+04 0.  0.
        4    1    3    3  502    0 -0.71837034659E+03  0.11301180037E+04  0.11247223316E+04  0.17487780286E+04  0.12699999809E+01 0.  1.
       -4    1    3    3    0  502  0.71837034659E+03 -0.11301180037E+04 -0.97154902770E+03  0.16544279324E+04  0.12699999809E+01 0. -1.
</event>
<event>
 5   0  0.1645631E-08  0.3400574E+04  0.7818609E-02  0.8137765E-01
        1   -1    0    0  501    0  0.00000000000E+00  0.00000000000E+00  0.16985179773E+04  0.16985179773E+04  0.50400001928E-02 0.  1.
       -1   -1    0    0    0  501  0.00000000000E+00  0.00000000000E+00 -0.17020578941E+04  0.17020578941E+04  0.50400001928E-02 0. -1.
    10030    2    1    2    0    0  0.00000000000E+00  0.00000000000E+00 -0.35399168512E+01  0.34005758714E+04  0.34005740289E+04 0.  0.
        4    1    3    3  502    0  0.76402667333E+03 -0.14234079996E+04  0.52846351132E+03  0.16997359756E+04  0.12699999809E+01 0. -1.
       -4    1    3    3    0  502 -0.76402667333E+03  0.14234079996E+04 -0.53200342817E+03  0.17008398959E+04  0.12699999809E+01 0.  1.
</event>
<event>
 5   0  0.1630571E-08  0.3399249E+04  0.7818609E-02  0.8138091E-01
       -1   -1    0    0    0  501  0.00000000000E+00  0.00000000000E+00  0.20603211974E+04  0.20603211974E+04  0.50400001928E-02 0.  1.
        1   -1    0    0  501    0  0.00000000000E+00  0.00000000000E+00 -0.14020740146E+04  0.14020740146E+04  0.50400001928E-02 0. -1.
    10030    2    1    2    0    0  0.00000000000E+00  0.00000000000E+00  0.65824718279E+03  0.34623952120E+04  0.33992486303E+04 0.  0.
        3    1    3    3  502    0  0.26031662526E+03 -0.11256308904E+04 -0.94059383175E+03  0.14898075088E+04  0.10100000352E+00 0. -1.
       -3    1    3    3    0  502 -0.26031662526E+03  0.11256308904E+04  0.15988410145E+04  0.19725877032E+04  0.10100000352E+00 0.  1.
</event>
<event>
 5   0  0.1625282E-08  0.3399484E+04  0.7818609E-02  0.8138033E-01
        1   -1    0    0  501    0  0.00000000000E+00  0.00000000000E+00  0.18955821844E+04  0.18955821844E+04  0.50400001928E-02 0. -1.
       -1   -1    0    0    0  501  0.00000000000E+00  0.00000000000E+00 -0.15241351914E+04  0.15241351914E+04  0.50400001928E-02 0.  1.
    10030    2    1    2    0    0  0.00000000000E+00  0.00000000000E+00  0.37144699305E+03  0.34197173758E+04  0.33994843818E+04 0.  0.
        1    1    3    3  502    0 -0.33639847724E+03 -0.43505688662E+03 -0.14321663307E+04  0.15341247762E+04  0.50400001928E-02 0.  1.
       -1    1    3    3    0  502  0.33639847724E+03  0.43505688662E+03  0.18036133238E+04  0.18855925996E+04  0.50400001928E-02 0. -1.
</event>
<event>
 5   0  0.1645631E-08  0.3401521E+04  0.7818609E-02  0.8137533E-01
        1   -1    0    0  501    0  0.00000000000E+00  0.00000000000E+00  0.17255249791E+04  0.17255249792E+04  0.50400001928E-02 0. -1.
       -1   -1    0    0    0  501  0.00000000000E+00  0.00000000000E+00 -0.16763513044E+04  0.16763513044E+04  0.50400001928E-02 0.  1.
    10030    2    1    2    0    0  0.00000000000E+00  0.00000000000E+00  0.49173674765E+02  0.34018762835E+04  0.34015208655E+04 0.  0.
        4    1    3    3  502    0 -0.15635396614E+04 -0.60373115356E+03 -0.26429773368E+03  0.16967623532E+04  0.12699999809E+01 0.  1.
       -4    1    3    3    0  502  0.15635396614E+04  0.60373115356E+03  0.31347140845E+03  0.17051139303E+04  0.12699999809E+01 0. -1.
</event>
<event>
 5   0  0.1625282E-08  0.3400312E+04  0.7818609E-02  0.8137830E-01
        1   -1    0    0  501    0  0.00000000000E+00  0.00000000000E+00  0.24237608289E+04  0.24237608289E+04  0.50400001928E-02 0.  1.
       -1   -1    0    0    0  501  0.00000000000E+00  0.00000000000E+00 -0.11925807907E+04  0.11925807907E+04  0.50400001928E-02 0. -1.
    10030    2    1    2    0    0  0.00000000000E+00  0.00000000000E+00  0.12311800383E+04  0.36163416196E+04  0.34003121067E+04 0.  0.
        1    1    3    3  502    0  0.84200916472E+01  0.15250993482E+04 -0.18349838659E+03  0.15361219280E+04  0.50400001928E-02 0.  1.
       -1    1    3    3    0  502 -0.84200916472E+01 -0.15250993482E+04  0.14146784249E+04  0.20802196916E+04  0.50400001928E-02 0. -1.
</event>
<event>
 5   0  0.4764953E-08  0.3400733E+04  0.7818609E-02  0.8137726E-01
        2   -1    0    0  501    0  0.00000000000E+00  0.00000000000E+00  0.16058971525E+04  0.16058971525E+04  0.25500000920E-02 0. -1.
       -2   -1    0    0    0  501  0.00000000000E+00  0.00000000000E+00 -0.18003934095E+04  0.18003934095E+04  0.25500000920E-02 0.  1.
    10030    2    1    2    0    0  0.00000000000E+00  0.00000000000E+00 -0.19449625700E+03  0.34062905619E+04  0.34007332442E+04 0.  0.
        2    1    3    3  502    0  0.73907913533E+03  0.11976888266E+04 -0.10530349999E+04  0.17577198880E+04  0.25500000920E-02 0.  1.
       -2    1    3    3    0  502 -0.73907913533E+03 -0.11976888266E+04  0.85853874291E+03  0.16485706739E+04  0.25500000920E-02 0. -1.
</event>
<event>
 5   0  0.1645631E-08  0.3399374E+04  0.7818609E-02  0.8138060E-01
        1   -1    0    0  501    0  0.00000000000E+00  0.00000000000E+00  0.21487935247E+04  0.21487935247E+04  0.50400001928E-02 0. -1.
       -1   -1    0    0    0  501  0.00000000000E+00  0.00000000000E+00 -0.13444455105E+04  0.13444455106E+04  0.50400001928E-02 0.  1.
    10030    2    1    2    0    0  0.00000000000E+00  0.00000000000E+00  0.80434801418E+03  0.34932390353E+04  0.33993739467E+04 0.  0.
        4    1    3    3  502    0 -0.52607623352E+03 -0.38173957747E+03  0.20160337000E+04  0.21182244453E+04  0.12699999809E+01 0. -1.
       -4    1    3    3    0  502  0.52607623352E+03  0.38173957747E+03 -0.12116856858E+04  0.13750145899E+04  0.12699999809E+01 0.  1.
</event>
<event>
 5   0  0.4764953E-08  0.3399761E+04  0.7818609E-02  0.8137965E-01
       -2   -1    0    0    0  501  0.00000000000E+00  0.00000000000E+00  0.17104721988E+04  0.17104721988E+04  0.25500000920E-02 0. -1.
        2   -1    0    0  501    0  0.00000000000E+00  0.00000000000E+00 -0.16893545187E+04  0.16893545187E+04  0.25500000920E-02 0.  1.
    10030    2    1    2    0    0  0.00000000000E+00  0.00000000000E+00  0.21117680087E+02  0.33998267175E+04  0.33997611317E+04 0.  0.
        2    1    3    3  502    0 -0.57678275429E+03  0.63281489924E+03 -0.14579588134E+04  0.16907918097E+04  0.25500000920E-02 0.  1.
       -2    1    3    3    0  502  0.57678275429E+03 -0.63281489924E+03  0.14790764935E+04  0.17090349077E+04  0.25500000920E-02 0. -1.
</event>
<event>
 5   0  0.1625282E-08  0.3410088E+04  0.7818609E-02  0.8135435E-01
        1   -1    0    0  501    0  0.00000000000E+00  0.00000000000E+00  0.16691822610E+04  0.16691822610E+04  0.50400001928E-02 0.  1.
       -1   -1    0    0    0  501  0.00000000000E+00  0.00000000000E+00 -0.17416758136E+04  0.17416758136E+04  0.50400001928E-02 0. -1.
    10030    2    1    2    0    0  0.00000000000E+00  0.00000000000E+00 -0.72493552657E+02  0.34108580746E+04  0.34100876074E+04 0.  0.
        1    1    3    3  502    0 -0.10073729964E+04  0.12244606923E+04 -0.66334140248E+03  0.17187571548E+04  0.50400001928E-02 0. -1.
       -1    1    3    3    0  502  0.10073729964E+04 -0.12244606923E+04  0.59084784982E+03  0.16921009198E+04  0.50400001928E-02 0.  1.
</event>
<event>
 5   0  0.1630571E-08  0.3405135E+04  0.7818609E-02  0.8136647E-01
       -1   -1    0    0    0  501  0.00000000000E+00  0.00000000000E+00  0.15548090889E+04  0.15548090889E+04  0.50400001928E-02 0.  1.
        1   -1    0    0  501    0  0.00000000000E+00  0.00000000000E+00 -0.18643675629E+04  0.18643675629E+04  0.50400001928E-02 0. -1.
    10030    2    1    2    0    0  0.00000000000E+00  0.00000000000E+00 -0.30955847401E+03  0.34191766518E+04  0.34051347297E+04 0.  0.
        3    1    3    3  502    0  0.78860430763E+03  0.16799965888E+03  0.13509427392E+04  0.15732663266E+04  0.10100000352E+00 0.  1.
       -3    1    3    3    0  502 -0.78860430763E+03 -0.16799965888E+03 -0.16605012133E+04  0.18459103252E+04  0.10100000352E+00 0. -1.
</event>
<event>
 5   0  0.4764953E-08  0.3400085E+04  0.7818609E-02  0.8137885E-01
        2   -1    0    0  501    0  0.00000000000E+00  0.00000000000E+00  0.21803859461E+04  0.21803859461E+04  0.25500000920E-02 0. -1.
       -2   -1    0    0    0  501  0.00000000000E+00  0.00000000000E+00 -0.13255196704E+04  0.13255196704E+04  0.25500000920E-02 0.  1.
    10030    2    1    2    0    0  0.00000000000E+00  0.00000000000E+00  0.85486627576E+03  0.35059056165E+04  0.34000849758E+04 0.  0.
        2    1    3    3  502    0 -0.14242542122E+04  0.68231808081E+03  0.10763744674E+04  0.19111881170E+04  0.25500000920E-02 0. -1.
       -2    1    3    3    0  502  0.14242542122E+04 -0.68231808081E+03 -0.22150819161E+03  0.15947174995E+04  0.25500000920E-02 0.  1.
</event>
<event>
 5   0  0.4973409E-08  0.3400874E+04  0.7818609E-02  0.8137692E-01
       -2   -1    0    0    0  501  0.00000000000E+00  0.00000000000E+00  0.13485175820E+04  0.13485175820E+04  0.25500000920E-02 0.  1.
        2   -1    0    0  501    0  0.00000000000E+00  0.00000000000E+00 -0.21441957942E+04  0.21441957942E+04  0.25500000920E-02 0. -1.
    10030    2    1    2    0    0  0.00000000000E+00  0.00000000000E+00 -0.79567821215E+03  0.34927133762E+04  0.34008738452E+04 0.  0.
        1    1    3    3  502    0 -0.88275223216E+03  0.68404495909E+02  0.10931068070E+04  0.14067029431E+04  0.50400001928E-02 0.  1.
       -1    1    3    3    0  502  0.88275223216E+03 -0.68404495909E+02 -0.18887850192E+04  0.20860104331E+04  0.50400001928E-02 0. -1.
</event>
<event>
 5   0  0.5001197E-08  0.3399978E+04  0.7818609E-02  0.8137912E-01
       -2   -1    0    0    0  501  0.00000000000E+00  0.00000000000E+00  0.15111571278E+04  0.15111571278E+04  0.25500000920E-02 0.  1.
        2   -1    0    0  501    0  0.00000000000E+00  0.00000000000E+00 -0.19124175664E+04  0.19124175664E+04  0.25500000920E-02 0. -1.
    10030    2    1    2    0    0  0.00000000000E+00  0.00000000000E+00 -0.40126043866E+03  0.34235746942E+04  0.33999784921E+04 0.  0.
        5    1    3    3  502    0 -0.13062570652E+04  0.15870491587E+03  0.88315105499E+03  0.15847626468E+04  0.46999998093E+01 0.  1.
       -5    1    3    3    0  502  0.13062570652E+04 -0.15870491587E+03 -0.12844114936E+04  0.18388120474E+04  0.46999998093E+01 0. -1.
</event>
<event>
 5   0  0.1645631E-08  0.3397861E+04  0.7818609E-02  0.8138432E-01
        1   -1    0    0  501    0  0.00000000000E+00  0.00000000000E+00  0.16255348702E+04  0.16255348702E+04  0.50400001928E-02 0. -1.
       -1   -1    0    0    0  501  0.00000000000E+00  0.00000000000E+00 -0.17756396519E+04  0.17756396519E+04  0.50400001928E-02 0.  1.
    10030    2    1    2    0    0  0.00000000000E+00  0.00000000000E+00 -0.15010478164E+03  0.34011745221E+04  0.33978606040E+04 0.  0.
        4    1    3    3  502    0 -0.12239258185E+04 -0.14341490997E+03  0.10956182002E+04  0.16489217989E+04  0.12699999809E+01 0. -1.
       -4    1    3    3    0  502  0.12239258185E+04  0.14341490997E+03 -0.12457229818E+04  0.17522527232E+04  0.12699999809E+01 0.  1.
</event>
<event>
 5   0  0.1625282E-08  0.3400013E+04  0.7818609E-02  0.8137903E-01
       -1   -1    0    0    0  501  0.00000000000E+00  0.00000000000E+00  0.12311552428E+04  0.12311552428E+04  0.50400001928E-02 0. -1.
        1   -1    0    0  501    0  0.00000000000E+00  0.00000000000E+00 -0.23474062646E+04  0.23474062646E+04  0.50400001928E-02 0.  1.
    10030    2    1    2    0    0  0.00000000000E+00  0.00000000000E+00 -0.11162510219E+04  0.35785615074E+04  0.34000126644E+04 0.  0.
        1    1    3    3  502    0  0.48745983505E+03  0.14974919048E+04 -0.12319996573E+04  0.19994804954E+04  0.50400001928E-02 0.  1.
       -1    1    3    3    0  502 -0.48745983505E+03 -0.14974919048E+04  0.11574863547E+03  0.15790810120E+04  0.50400001928E-02 0. -1.
</event>
<event>
 5   0  0.1630571E-08  0.3399734E+04  0.7818609E-02  0.8137972E-01
        1   -1    0    0  501    0  0.00000000000E+00  0.00000000000E+00  0.29780609771E+04  0.29780609771E+04  0.50400001928E-02 0.  1.
       -1   -1    0    0    0  501  0.00000000000E+00  0.00000000000E+00 -0.97027837703E+03  0.97027837704E+03  0.50400001928E-02 0. -1.
    10030    2    1    2    0    0  0.00000000000E+00  0.00000000000E+00  0.20077826000E+04  0.39483393541E+04  0.33997342082E+04 0.  0.
        3    1    3    3  502    0  0.23168765855E+03 -0.12165828735E+04 -0.34838842853E+03  0.12865176123E+04  0.10100000352E+00 0. -1.
       -3    1    3    3    0  502 -0.23168765855E+03  0.12165828735E+04  0.23561710286E+04  0.26618217418E+04  0.10100000352E+00 0.  1.
</event>
<event>
 5   0  0.4946315E-08  0.3399435E+04  0.7818609E-02  0.8138045E-01
        2   -1    0    0  501    0  0.00000000000E+00  0.00000000000E+00  0.21839527551E+04  0.21839527551E+04  0.25500000920E-02 0. -1.
       -2   -1    0    0    0  501  0.00000000000E+00  0.00000000000E+00 -0.13228488264E+04  0.13228488264E+04  0.25500000920E-02 0.  1.
    10030    2    1    2    0    0  0.00000000000E+00  0.00000000000E+00  0.86110392873E+03  0.35068015815E+04  0.33994348583E+04 0.  0.
        3    1    3    3  502    0  0.21791069665E+03 -0.11921940478E+04  0.16599243279E+04  0.20552762598E+04  0.10100000352E+00 0. -1.
       -3    1    3    3    0  502 -0.21791069665E+03  0.11921940478E+04 -0.79882039922E+03  0.14515253218E+04  0.10100000352E+00 0.  1.
</event>
<event>
 5   0  0.4764953E-08  0.3400177E+04  0.7818609E-02  0.8137863E-01
       -2   -1    0    0    0  501  0.00000000000E+00  0.00000000000E+00  0.15567188932E+04  0.15567188932E+04  0.25500000920E-02 0.  1.
        2   -1    0    0  501    0  0.00000000000E+00  0.00000000000E+00 -0.18566625428E+04  0.18566625428E+04  0.25500000920E-02 0. -1.
    10030    2    1    2    0    0  0.00000000000E+00  0.00000000000E+00 -0.29994364967E+03  0.34133814360E+04  0.34001774416E+04 0.  0.
        2    1    3    3  502    0 -0.73488468268E+03 -0.14716270437E+04  0.28130094544E+03  0.16687935386E+04  0.25500000920E-02 0.  1.
       -2    1    3    3    0  502  0.73488468268E+03  0.14716270437E+04 -0.58124459511E+03  0.17445878974E+04  0.25500000920E-02 0. -1.
</event>
<event>
 5   0  0.1595851E-08  0.3401486E+04  0.7818609E-02  0.8137542E-01
        1   -1    0    0  501    0  0.00000000000E+00  0.00000000000E+00  0.12089375423E+04  0.12089375423E+04  0.50400001928E-02 0. -1.
       -1   -1    0    0    0  501  0.00000000000E+00  0.00000000000E+00 -0.23926192104E+04  0.23926192104E+04  0.50400001928E-02 0.  1.
    10030    2    1    2    0    0  0.00000000000E+00  0.00000000000E+00 -0.11836816681E+04  0.36015567527E+04  0.34014862563E+04 0.  0.
        2    1    3    3  502    0  0.74740613577E+03 -0.42419519401E+03  0.96212453609E+03  0.12900546955E+04  0.25500000920E-02 0. -1.
       -2    1    3    3    0  502 -0.74740613577E+03  0.42419519401E+03 -0.21458062042E+04  0.23115020572E+04  0.25500000920E-02 0.  1.
</event>
<event>
 5   0  0.1595851E-08  0.3400688E+04  0.7818609E-02  0.8137738E-01
        1   -1    0    0  501    0  0.00000000000E+00  0.00000000000E+00  0.20939605576E+04  0.20939605576E+04  0.50400001928E-02 0. -1.
       -1   -1    0    0    0  501  0.00000000000E+00  0.00000000000E+00 -0.13807180633E+04  0.13807180633E+04  0.50400001928E-02 0.  1.
    10030    2    1    2    0    0  0.00000000000E+00  0.00000000000E+00  0.71324249435E+03  0.34746786209E+04  0.34006876750E+04 0.  0.
        2    1    3    3  502    0  0.14286379099E+04  0.78554197103E+03  0.84991616486E+03  0.18385972787E+04  0.25500000920E-02 0. -1.
       -2    1    3    3    0  502 -0.14286379099E+04 -0.78554197103E+03 -0.13667367051E+03  0.16360813422E+04  0.25500000920E-02 0.  1.
</event>
<event>
 5   0  0.4775023E-08  0.3400071E+04  0.7818609E-02  0.8137889E-01
       -2   -1    0    0    0  501  0.00000000000E+00  0.00000000000E+00  0.19448574791E+04  0.19448574791E+04  0.25500000920E-02 0.  1.
        2   -1    0    0  501    0  0.00000000000E+00  0.00000000000E+00 -0.14860323999E+04  0.14860323999E+04  0.25500000920E-02 0. -1.
    10030    2    1    2    0    0  0.00000000000E+00  0.00000000000E+00  0.45882507919E+03  0.34308898791E+04  0.34000713094E+04 0.  0.
        4    1    3    3  502    0 -0.31379692071E+03  0.27718644913E+03  0.18920178969E+04  0.19377910543E+04  0.12699999809E+01 0.  1.
       -4    1    3    3    0  502  0.31379692071E+03 -0.27718644913E+03 -0.14331928177E+04  0.14930988248E+04  0.12699999809E+01 0. -1.
</event>
<event>
 5   0  0.1630571E-08  0.3397685E+04  0.7818609E-02  0.8138475E-01
       -1   -1    0    0    0  501  0.00000000000E+00  0.00000000000E+00  0.18342043613E+04  0.18342043613E+04  0.50400001928E-02 0.  1.
        1   -1    0    0  501    0  0.00000000000E+00  0.00000000000E+00 -0.15734705965E+04  0.15734705965E+04  0.50400001928E-02 0. -1.
    10030    2    1    2    0    0  0.00000000000E+00  0.00000000000E+00  0.26073376474E+03  0.34076749578E+04  0.33976854654E+04 0.  0.
        3    1    3    3  502    0  0.23011443256E+03 -0.97936787062E+03 -0.12425817363E+04  0.15987881222E+04  0.10100000352E+00 0. -1.
       -3    1    3    3    0  502 -0.23011443256E+03  0.97936787062E+03  0.15033155010E+04  0.18088868356E+04  0.10100000352E+00 0.  1.
</event>
<event>
 5   0  0.4973409E-08  0.3399868E+04  0.7818609E-02  0.8137939E-01
       -2   -1    0    0    0  501  0.00000000000E+00  0.00000000000E+00  0.31359653408E+04  0.31359653408E+04  0.25500000920E-02 0.  1.
        2   -1    0    0  501    0  0.00000000000E+00  0.00000000000E+00 -0.92149501938E+03  0.92149501938E+03  0.25500000920E-02 0. -1.
    10030    2    1    2    0    0  0.00000000000E+00  0.00000000000E+00  0.22144703214E+04  0.40574603601E+04  0.33998684930E+04 0.  0.
        1    1    3    3  502    0 -0.11457245744E+04 -0.96194248134E+03  0.20706990759E+04  0.25545670476E+04  0.50400001928E-02 0.  1.
       -1    1    3    3    0  502  0.11457245744E+04  0.96194248134E+03  0.14377124549E+03  0.15028933125E+04  0.50400001928E-02 0. -1.
</event>
<event>
 5   0  0.1595851E-08  0.3399419E+04  0.7818609E-02  0.8138049E-01
       -1   -1    0    0    0  501  0.00000000000E+00  0.00000000000E+00  0.22134051755E+04  0.22134051755E+04  0.50400001928E-02 0. -1.
        1   -1    0    0  501    0  0.00000000000E+00  0.00000000000E+00 -0.13052345165E+04  0.13052345165E+04  0.50400001928E-02 0.  1.
    10030    2    1    2    0    0  0.00000000000E+00  0.00000000000E+00  0.90817065900E+03  0.35186396921E+04  0.33994192646E+04 0.  0.
        2    1    3    3  502    0  0.81444420424E+03 -0.10631696805E+04 -0.62921590731E+03  0.14797167937E+04  0.25500000920E-02 0.  1.
       -2    1    3    3    0  502 -0.81444420424E+03  0.10631696805E+04  0.15373865663E+04  0.20389228984E+04  0.25500000920E-02 0. -1.
</event>
<event>
 5   0  0.1645631E-08  0.3399854E+04  0.7818609E-02  0.8137942E-01
       -1   -1    0    0    0  501  0.00000000000E+00  0.00000000000E+00  0.19933032664E+04  0.19933032664E+04  0.50400001928E-02 0. -1.
        1   -1    0    0  501    0  0.00000000000E+00  0.00000000000E+00 -0.14497297951E+04  0.14497297951E+04  0.50400001928E-02 0.  1.
    10030    2    1    2    0    0  0.00000000000E+00  0.00000000000E+00  0.54357347130E+03  0.34430330616E+04  0.33998536063E+04 0.  0.
        4    1    3    3  502    0  0.95535298720E+03 -0.87409715326E+03  0.13871392655E+04  0.18976043102E+04  0.12699999809E+01 0. -1.
       -4    1    3    3    0  502 -0.95535298720E+03  0.87409715326E+03 -0.84356579417E+03  0.15454287513E+04  0.12699999809E+01 0.  1.
</event>
<event>
 5   0  0.4775023E-08  0.3391677E+04  0.7818609E-02  0.8139952E-01
       -2   -1    0    0    0  501  0.00000000000E+00  0.00000000000E+00  0.18514354767E+04  0.18514354767E+04  0.25500000920E-02 0. -1.
        2   -1    0    0  501    0  0.00000000000E+00  0.00000000000E+00 -0.15533178685E+04  0.15533178685E+04  0.25500000920E-02 0.  1.
    10030    2    1    2    0    0  0.00000000000E+00  0.00000000000E+00  0.29811760824E+03  0.34047533452E+04  0.33916767584E+04 0.  0.
        4    1    3    3  502    0 -0.12129644018E+04  0.61215401279E+03 -0.86966956784E+03  0.16131775927E+04  0.12699999809E+01 0.  1.
       -4    1    3    3    0  502  0.12129644018E+04 -0.61215401279E+03  0.11677871761E+04  0.17915757525E+04  0.12699999809E+01 0. -1.
</event>
<event>
 5   0  0.4764953E-08  0.3400314E+04  0.7818609E-02  0.8137829E-01
       -2   -1    0    0    0  501  0.00000000000E+00  0.00000000000E+00  0.14370619271E+04  0.14370619271E+04  0.25500000920E-02 0.  1.
        2   -1    0    0  501    0  0.00000000000E+00  0.00000000000E+00 -0.20114191152E+04  0.20114191152E+04  0.25500000920E-02 0. -1.
    10030    2    1    2    0    0  0.00000000000E+00  0.00000000000E+00 -0.57435718809E+03  0.34484810423E+04  0.34003140031E+04 0.  0.
        2    1    3    3  502    0  0.84567143570E+03 -0.82327933278E+03  0.95391498742E+03  0.15175318251E+04  0.25500000920E-02 0.  1.
       -2    1    3    3    0  502 -0.84567143570E+03  0.82327933278E+03 -0.15282721755E+04  0.19309492172E+04  0.25500000920E-02 0. -1.
</event>
<event>
 5   0  0.1579536E-08  0.3399766E+04  0.7818609E-02  0.8137964E-01
       -1   -1    0    0    0  501  0.00000000000E+00  0.00000000000E+00  0.19742700329E+04  0.19742700329E+04  0.50400001928E-02 0. -1.
        1   -1    0    0  501    0  0.00000000000E+00  0.00000000000E+00 -0.14636307952E+04  0.14636307953E+04  0.50400001928E-02 0.  1.
    10030    2    1    2    0    0  0.00000000000E+00  0.00000000000E+00  0.51063923762E+03  0.34379008281E+04  0.33997661203E+04 0.  0.
        5    1    3    3  502    0 -0.12554897106E+04 -0.10543818665E+04 -0.19872102518E+03  0.16515107234E+04  0.46999998093E+01 0.  1.
       -5    1    3    3    0  502  0.12554897106E+04  0.10543818665E+04  0.70936026281E+03  0.17863901047E+04  0.46999998093E+01 0. -1.
</event>
<event>
 5   0  0.5001197E-08  0.3400632E+04  0.7818609E-02  0.8137751E-01
        2   -1    0    0  501    0  0.00000000000E+00  0.00000000000E+00  0.17100882683E+04  0.17100882683E+04  0.25500000920E-02 0.  1.
       -2   -1    0    0    0  501  0.00000000000E+00  0.00000000000E+00 -0.16905996433E+04  0.16905996433E+04  0.25500000920E-02 0. -1.
    10030    2    1    2    0    0  0.00000000000E+00  0.00000000000E+00  0.19488624954E+02  0.34006879116E+04  0.34006320685E+04 0.  0.
        5    1    3    3  502    0  0.94277828170E+03  0.67392540511E+03  0.12539697859E+04  0.17074743495E+04  0.46999998093E+01 0.  1.
       -5    1    3    3    0  502 -0.94277828170E+03 -0.67392540511E+03 -0.12344811610E+04  0.16932135621E+04  0.46999998093E+01 0. -1.
</event>
<event>
 5   0  0.4764953E-08  0.3396778E+04  0.7818609E-02  0.8138698E-01
        2   -1    0    0  501    0  0.00000000000E+00  0.00000000000E+00  0.20128233739E+04  0.20128233739E+04  0.25500000920E-02 0. -1.
       -2   -1    0    0    0  501  0.00000000000E+00  0.00000000000E+00 -0.14330738753E+04  0.14330738753E+04  0.25500000920E-02 0.  1.
    10030    2    1    2    0    0  0.00000000000E+00  0.00000000000E+00  0.57974949865E+03  0.34458972492E+04  0.33967776452E+04 0.  0.
        2    1    3    3  502    0 -0.10197159163E+04 -0.42860039307E+03 -0.10175622535E+04  0.15029809668E+04  0.25500000920E-02 0.  1.
       -2    1    3    3    0  502  0.10197159163E+04  0.42860039307E+03  0.15973117521E+04  0.19429162824E+04  0.25500000920E-02 0. -1.
</event>
<event>
 5   0  0.5001197E-08  0.3395076E+04  0.7818609E-02  0.8139116E-01
       -2   -1    0    0    0  501  0.00000000000E+00  0.00000000000E+00  0.19020708216E+04  0.19020708216E+04  0.25500000920E-02 0. -1.
        2   -1    0    0  501    0  0.00000000000E+00  0.00000000000E+00 -0.15149990035E+04  0.15149990035E+04  0.25500000920E-02 0.  1.
    10030    2    1    2    0    0  0.00000000000E+00  0.00000000000E+00  0.38707181814E+03  0.34170698251E+04  0.33950760812E+04 0.  0.
        5    1    3    3  502    0  0.95634622266E+03 -0.12430756985E+04 -0.46011566896E+03  0.16344919115E+04  0.46999998093E+01 0.  1.
       -5    1    3    3    0  502 -0.95634622266E+03  0.12430756985E+04  0.84718748710E+03  0.17825779136E+04  0.46999998093E+01 0. -1.
</event>
<event>
 5   0  0.1630571E-08  0.3398817E+04  0.7818609E-02  0.8138197E-01
       -1   -1    0    0    0  501  0.00000000000E+00  0.00000000000E+00  0.16703520559E+04  0.16703520559E+04  0.50400001928E-02 0. -1.
        1   -1    0    0  501    0  0.00000000000E+00  0.00000000000E+00 -0.17289705282E+04  0.17289705282E+04  0.50400001928E-02 0.  1.
    10030    2    1    2    0    0  0.00000000000E+00  0.00000000000E+00 -0.58618472329E+02  0.33993225841E+04  0.33988171333E+04 0.  0.
        3    1    3    3  502    0 -0.42819629126E+03  0.15596774076E+04  0.49234649884E+03  0.16906657756E+04  0.10100000352E+00 0.  1.
       -3    1    3    3    0  502  0.42819629126E+03 -0.15596774076E+04 -0.55096497117E+03  0.17086568085E+04  0.10100000352E+00 0. -1.
</event>
<event>
 5   0  0.4973409E-08  0.3399648E+04  0.7818609E-02  0.8137993E-01
        2   -1    0    0  501    0  0.00000000000E+00  0.00000000000E+00  0.24169528774E+04  0.24169528774E+04  0.25500000920E-02 0.  1.
       -2   -1    0    0    0  501  0.00000000000E+00  0.00000000000E+00 -0.11954726272E+04  0.11954726272E+04  0.25500000920E-02 0. -1.
    10030    2    1    2    0    0  0.00000000000E+00  0.00000000000E+00  0.12214802501E+04  0.36124255046E+04  0.33996476325E+04 0.  0.
        1    1    3    3  502    0  0.66338672964E+03  0.70580362081E+02  0.22720306059E+04  0.23679498759E+04  0.50400001928E-02 0.  1.
       -1    1    3    3    0  502 -0.66338672964E+03 -0.70580362081E+02 -0.10505503557E+04  0.12444756287E+04  0.50400001928E-02 0. -1.
</event>
<event>
 5   0  0.1630571E-08  0.3400596E+04  0.7818609E-02  0.8137760E-01
        1   -1    0    0  501    0  0.00000000000E+00  0.00000000000E+00  0.23031726972E+04  0.23031726972E+04  0.50400001928E-02 0.  1.
       -1   -1    0    0    0  501  0.00000000000E+00  0.00000000000E+00 -0.12552308381E+04  0.12552308381E+04  0.50400001928E-02 0. -1.
    10030    2    1    2    0    0  0.00000000000E+00  0.00000000000E+00  0.10479418591E+04  0.35584035353E+04  0.34005960625E+04 0.  0.
        3    1    3    3  502    0 -0.16579684927E+04  0.18944945839E+03  0.18286387229E+03  0.16787465044E+04  0.10100000352E+00 0. -1.
       -3    1    3    3    0  502  0.16579684927E+04 -0.18944945839E+03  0.86507798682E+03  0.18796570309E+04  0.10100000352E+00 0.  1.
</event>
<event>
 5   0  0.4764953E-08  0.3399603E+04  0.7818609E-02  0.8138004E-01
        2   -1    0    0  501    0  0.00000000000E+00  0.00000000000E+00  0.20849824844E+04  0.20849824844E+04  0.25500000920E-02 0.  1.
       -2   -1    0    0    0  501  0.00000000000E+00  0.00000000000E+00 -0.13857788139E+04  0.13857788139E+04  0.25500000920E-02 0. -1.
    10030    2    1    2    0    0  0.00000000000E+00  0.00000000000E+00  0.69920367053E+03  0.34707612983E+04  0.33996026557E+04 0.  0.
        2    1    3    3  502    0 -0.10361685779E+04 -0.10871188714E+04 -0.46321080242E+03  0.15716351389E+04  0.25500000920E-02 0. -1.
       -2    1    3    3    0  502  0.10361685779E+04  0.10871188714E+04  0.11624144730E+04  0.18991261594E+04  0.25500000920E-02 0.  1.
</event>
<event>
 5   0  0.4946315E-08  0.3400694E+04  0.7818609E-02  0.8137736E-01
        2   -1    0    0  501    0  0.00000000000E+00  0.00000000000E+00  0.16931732245E+04  0.16931732245E+04  0.25500000920E-02 0. -1.
       -2   -1    0    0    0  501  0.00000000000E+00  0.00000000000E+00 -0.17075509046E+04  0.17075509046E+04  0.25500000920E-02 0.  1.
    10030    2    1    2    0    0  0.00000000000E+00  0.00000000000E+00 -0.14377680142E+02  0.34007241291E+04  0.34006937358E+04 0.  0.
        3    1    3    3  502    0 -0.11619189534E+04  0.26523001838E+03 -0.12199555670E+04  0.17054894349E+04  0.10100000352E+00 0.  1.
       -3    1    3    3    0  502  0.11619189534E+04 -0.26523001838E+03  0.12055778869E+04  0.16952346942E+04  0.10100000352E+00 0. -1.
</event>
<event>
 5   0  0.4973409E-08  0.3398138E+04  0.7818609E-02  0.8138364E-01
       -2   -1    0    0    0  501  0.00000000000E+00  0.00000000000E+00  0.21242208163E+04  0.21242208163E+04  0.25500000920E-02 0. -1.
        2   -1    0    0  501    0  0.00000000000E+00  0.00000000000E+00 -0.13590088073E+04  0.13590088073E+04  0.25500000920E-02 0.  1.
    10030    2    1    2    0    0  0.00000000000E+00  0.00000000000E+00  0.76521200898E+03  0.34832296236E+04  0.33981376064E+04 0.  0.
        1    1    3    3  502    0 -0.63586474903E+03  0.11142799238E+04  0.15244531574E+04  0.19924610804E+04  0.50400001928E-02 0. -1.
       -1    1    3    3    0  502  0.63586474903E+03 -0.11142799238E+04 -0.75924114845E+03  0.14907685431E+04  0.50400001928E-02 0.  1.
</event>
<event>
 5   0  0.5001197E-08  0.3410356E+04  0.7818609E-02  0.8135369E-01
        2   -1    0    0  501    0  0.00000000000E+00  0.00000000000E+00  0.18106763205E+04  0.18106763205E+04  0.25500000920E-02 0. -1.
       -2   -1    0    0    0  501  0.00000000000E+00  0.00000000000E+00 -0.16058261760E+04  0.16058261760E+04  0.25500000920E-02 0.  1.
    10030    2    1    2    0    0  0.00000000000E+00  0.00000000000E+00  0.20485014447E+03  0.34165024965E+04  0.34103556599E+04 0.  0.
        5    1    3    3  502    0  0.47253029518E+03 -0.10890174067E+04 -0.11238586371E+04  0.16347244777E+04  0.46999998093E+01 0.  1.
       -5    1    3    3    0  502 -0.47253029518E+03  0.10890174067E+04  0.13287087816E+04  0.17817780188E+04  0.46999998093E+01 0. -1.
</event>
<event>
 5   0  0.1645631E-08  0.3400171E+04  0.7818609E-02  0.8137864E-01
       -1   -1    0    0    0  501  0.00000000000E+00  0.00000000000E+00  0.11155274677E+04  0.11155274677E+04  0.50400001928E-02 0.  1.
        1   -1    0    0  501    0  0.00000000000E+00  0.00000000000E+00 -0.25909625934E+04  0.25909625934E+04  0.50400001928E-02 0. -1.
    10030    2    1    2    0    0  0.00000000000E+00  0.00000000000E+00 -0.14754351258E+04  0.37064900611E+04  0.34001705491E+04 0.  0.
        4    1    3    3  502    0  0.16606028644E+04  0.33762866369E+03 -0.88675850666E+03  0.19125734626E+04  0.12699999809E+01 0.  1.
       -4    1    3    3    0  502 -0.16606028644E+04 -0.33762866369E+03 -0.58867661911E+03  0.17939165985E+04  0.12699999809E+01 0. -1.
</event>
<event>
 5   0  0.1579536E-08  0.3401043E+04  0.7818609E-02  0.8137650E-01
       -1   -1    0    0    0  501  0.00000000000E+00  0.00000000000E+00  0.14528743842E+04  0.14528743842E+04  0.50400001928E-02 0. -1.
        1   -1    0    0  501    0  0.00000000000E+00  0.00000000000E+00 -0.19903812014E+04  0.19903812014E+04  0.50400001928E-02 0.  1.
    10030    2    1    2    0    0  0.00000000000E+00  0.00000000000E+00 -0.53750681722E+03  0.34432555857E+04  0.34010432884E+04 0.  0.
        5    1    3    3  502    0 -0.91803076456E+03  0.11802206647E+04  0.55126901160E+03  0.15936188112E+04  0.46999998093E+01 0. -1.
       -5    1    3    3    0  502  0.91803076456E+03 -0.11802206647E+04 -0.10887758288E+04  0.18496367745E+04  0.46999998093E+01 0.  1.
</event>
<event>
 5   0  0.4775023E-08  0.3398592E+04  0.7818609E-02  0.8138252E-01
        2   -1    0    0  501    0  0.00000000000E+00  0.00000000000E+00  0.12614500300E+04  0.12614500300E+04  0.25500000920E-02 0. -1.
       -2   -1    0    0    0  501  0.00000000000E+00  0.00000000000E+00 -0.22891167345E+04  0.22891167345E+04  0.25500000920E-02 0.  1.
    10030    2    1    2    0    0  0.00000000000E+00  0.00000000000E+00 -0.10276667045E+04  0.35505667644E+04  0.33985916926E+04 0.  0.
        4    1    3    3  502    0  0.99482095112E+03 -0.43723626088E+02  0.92470233133E+03  0.13589173981E+04  0.12699999809E+01 0. -1.
       -4    1    3    3    0  502 -0.99482095112E+03  0.43723626088E+02 -0.19523690358E+04  0.21916493664E+04  0.12699999809E+01 0.  1.
</event>
<event>
 5   0  0.1645631E-08  0.3401128E+04  0.7818609E-02  0.8137630E-01
        1   -1    0    0  501    0  0.00000000000E+00  0.00000000000E+00  0.26691077920E+04  0.26691077920E+04  0.50400001928E-02 0. -1.
       -1   -1    0    0    0  501  0.00000000000E+00  0.00000000000E+00 -0.10834774283E+04  0.10834774283E+04  0.50400001928E-02 0.  1.
    10030    2    1    2    0    0  0.00000000000E+00  0.00000000000E+00  0.15856303637E+04  0.37525852204E+04  0.34011280755E+04 0.  0.
        4    1    3    3  502    0 -0.16364850727E+04  0.29488117967E+03  0.11858227944E+04  0.20423554088E+04  0.12699999809E+01 0.  1.
       -4    1    3    3    0  502  0.16364850727E+04 -0.29488117967E+03  0.39980756934E+03  0.17102298116E+04  0.12699999809E+01 0. -1.
</event>
<event>
 5   0  0.1625282E-08  0.3402685E+04  0.7818609E-02  0.8137248E-01
       -1   -1    0    0    0  501  0.00000000000E+00  0.00000000000E+00  0.27109676007E+04  0.27109676007E+04  0.50400001928E-02 0. -1.
        1   -1    0    0  501    0  0.00000000000E+00  0.00000000000E+00 -0.10677243450E+04  0.10677243450E+04  0.50400001928E-02 0.  1.
    10030    2    1    2    0    0  0.00000000000E+00  0.00000000000E+00  0.16432432557E+04  0.37786919457E+04  0.34026848845E+04 0.  0.
        1    1    3    3  502    0 -0.50429424443E+03  0.94172538360E+03  0.22921082902E+04  0.25288178656E+04  0.50400001928E-02 0. -1.
       -1    1    3    3    0  502  0.50429424443E+03 -0.94172538360E+03 -0.64886503451E+03  0.12498740801E+04  0.50400001928E-02 0.  1.
</event>
<event>
 5   0  0.4973409E-08  0.3408072E+04  0.7818609E-02  0.8135928E-01
       -2   -1    0    0    0  501  0.00000000000E+00  0.00000000000E+00  0.19292002892E+04  0.19292002892E+04  0.25500000920E-02 0. -1.
        2   -1    0    0  501    0  0.00000000000E+00  0.00000000000E+00 -0.15051511819E+04  0.15051511819E+04  0.25500000920E-02 0.  1.
    10030    2    1    2    0    0  0.00000000000E+00  0.00000000000E+00  0.42404910731E+03  0.34343514711E+04  0.34080716515E+04 0.  0.
        1    1    3    3  502    0  0.48136519050E+03 -0.33096485147E+03  0.18251455163E+04  0.19163523516E+04  0.50400001928E-02 0. -1.
       -1    1    3    3    0  502 -0.48136519050E+03  0.33096485147E+03 -0.14010964090E+04  0.15179991195E+04  0.50400001928E-02 0.  1.
</event>
<event>
 5   0  0.1579536E-08  0.3404107E+04  0.7818609E-02  0.8136899E-01
       -1   -1    0    0    0  501  0.00000000000E+00  0.00000000000E+00  0.18198044820E+04  0.18198044821E+04  0.50400001928E-02 0. -1.
        1   -1    0    0  501    0  0.00000000000E+00  0.00000000000E+00 -0.15919213060E+04  0.15919213061E+04  0.50400001928E-02 0.  1.
    10030    2    1    2    0    0  0.00000000000E+00  0.00000000000E+00  0.22788317600E+03  0.34117257881E+04  0.34041066539E+04 0.  0.
        5    1    3    3  502    0  0.69480138994E+03 -0.14201768098E+04 -0.51779635523E+03  0.16636665225E+04  0.46999998093E+01 0.  1.
       -5    1    3    3    0  502 -0.69480138994E+03  0.14201768098E+04  0.74567953123E+03  0.17480592656E+04  0.46999998093E+01 0. -1.
</event>
<event>
 5   0  0.4775023E-08  0.3396846E+04  0.7818609E-02  0.8138681E-01
        2   -1    0    0  501    0  0.00000000000E+00  0.00000000000E+00  0.13549774426E+04  0.13549774426E+04  0.25500000920E-02 0.  1.
       -2   -1    0    0    0  501  0.00000000000E+00  0.00000000000E+00 -0.21289215454E+04  0.21289215454E+04  0.25500000920E-02 0. -1.
    10030    2    1    2    0    0  0.00000000000E+00  0.00000000000E+00 -0.77394410279E+03  0.34838989880E+04  0.33968459907E+04 0.  0.
        4    1    3    3  502    0 -0.10953129629E+04 -0.74408362344E+02  0.94215266282E+03  0.14466859866E+04  0.12699999809E+01 0.  1.
       -4    1    3    3    0  502  0.10953129629E+04  0.74408362344E+02 -0.17160967656E+04  0.20372130013E+04  0.12699999809E+01 0. -1.
</event>
<event>
 5   0  0.4973409E-08  0.3399835E+04  0.7818609E-02  0.8137947E-01
       -2   -1    0    0    0  501  0.00000000000E+00  0.00000000000E+00  0.14267994021E+04  0.14267994021E+04  0.25500000920E-02 0.  1.
        2   -1    0    0  501    0  0.00000000000E+00  0.00000000000E+00 -0.20253153536E+04  0.20253153536E+04  0.25500000920E-02 0. -1.
    10030    2    1    2    0    0  0.00000000000E+00  0.00000000000E+00 -0.59851595142E+03  0.34521147557E+04  0.33998345463E+04 0.  0.
        1    1    3    3  502    0  0.75580699471E+03  0.17804097359E+03  0.12362046440E+04  0.14598440751E+04  0.50400001928E-02 0.  1.
       -1    1    3    3    0  502 -0.75580699471E+03 -0.17804097359E+03 -0.18347205955E+04  0.19922706806E+04  0.50400001928E-02 0. -1.
</event>
<event>
 5   0  0.4946315E-08  0.3401626E+04  0.7818609E-02  0.8137507E-01
       -2   -1    0    0    0  501  0.00000000000E+00  0.00000000000E+00  0.11211596686E+04  0.11211596686E+04  0.25500000920E-02 0. -1.
        2   -1    0    0  501    0  0.00000000000E+00  0.00000000000E+00 -0.25801547785E+04  0.25801547785E+04  0.25500000920E-02 0.  1.
    10030    2    1    2    0    0  0.00000000000E+00  0.00000000000E+00 -0.14589951098E+04  0.37013144471E+04  0.34016263619E+04 0.  0.
        3    1    3    3  502    0  0.85641037027E+03  0.79331450193E+03 -0.20753953659E+04  0.23811872157E+04  0.10100000352E+00 0.  1.
       -3    1    3    3    0  502 -0.85641037027E+03 -0.79331450193E+03  0.61640025606E+03  0.13201272314E+04  0.10100000352E+00 0. -1.
</event>
<event>
 5   0  0.4764953E-08  0.3399523E+04  0.7818609E-02  0.8138023E-01
       -2   -1    0    0    0  501  0.00000000000E+00  0.00000000000E+00  0.16971971063E+04  0.16971971063E+04  0.25500000920E-02 0. -1.
        2   -1    0    0  501    0  0.00000000000E+00  0.00000000000E+00 -0.17023295288E+04  0.17023295288E+04  0.25500000920E-02 0.  1.
    10030    2    1    2    0    0  0.00000000000E+00  0.00000000000E+00 -0.51324224887E+01  0.33995266351E+04  0.33995227607E+04 0.  0.
        2    1    3    3  502    0 -0.47082324513E+03  0.15196785626E+04  0.59584176383E+03  0.16988598734E+04  0.25500000920E-02 0. -1.
       -2    1    3    3    0  502  0.47082324513E+03 -0.15196785626E+04 -0.60097418631E+03  0.17006667617E+04  0.25500000920E-02 0.  1.
</event>
<event>
 5   0  0.4973409E-08  0.3399660E+04  0.7818609E-02  0.8137990E-01
       -2   -1    0    0    0  501  0.00000000000E+00  0.00000000000E+00  0.17928922032E+04  0.17928922032E+04  0.25500000920E-02 0.  1.
        2   -1    0    0  501    0  0.00000000000E+00  0.00000000000E+00 -0.16115983768E+04  0.16115983768E+04  0.25500000920E-02 0. -1.
    10030    2    1    2    0    0  0.00000000000E+00  0.00000000000E+00  0.18129382644E+03  0.34044905800E+04  0.33996600797E+04 0.  0.
        1    1    3    3  502    0 -0.10243340812E+04  0.10696684932E+04  0.92608114387E+03  0.17467333169E+04  0.50400001928E-02 0. -1.
       -1    1    3    3    0  502  0.10243340812E+04 -0.10696684932E+04 -0.74478731744E+03  0.16577572631E+04  0.50400001928E-02 0.  1.
</event>
<event>
 5   0  0.4946315E-08  0.3401593E+04  0.7818609E-02  0.8137516E-01
        2   -1    0    0  501    0  0.00000000000E+00  0.00000000000E+00  0.12564872973E+04  0.12564872974E+04  0.25500000920E-02 0. -1.
       -2   -1    0    0    0  501  0.00000000000E+00  0.00000000000E+00 -0.23022182202E+04  0.23022182202E+04  0.25500000920E-02 0.  1.
    10030    2    1    2    0    0  0.00000000000E+00  0.00000000000E+00 -0.10457309228E+04  0.35587055175E+04  0.34015925384E+04 0.  0.
        3    1    3    3  502    0 -0.12786145804E+04 -0.94403443092E+02  0.64631262772E+03  0.14357880339E+04  0.10100000352E+00 0. -1.
       -3    1    3    3    0  502  0.12786145804E+04  0.94403443092E+02 -0.16920435506E+04  0.21229174837E+04  0.10100000352E+00 0.  1.
</event>
<event>
 5   0  0.4764953E-08  0.3400296E+04  0.7818609E-02  0.8137834E-01
        2   -1    0    0  501    0  0.00000000000E+00  0.00000000000E+00  0.25915048667E+04  0.25915048667E+04  0.25500000920E-02 0. -1.
       -2   -1    0    0    0  501  0.00000000000E+00  0.00000000000E+00 -0.11153763734E+04  0.11153763734E+04  0.25500000920E-02 0.  1.
    10030    2    1    2    0    0  0.00000000000E+00  0.00000000000E+00  0.14761284933E+04  0.37068812401E+04  0.34002960458E+04 0.  0.
        2    1    3    3  502    0  0.67808638290E+03  0.14432654629E+04  0.95249037300E+02  0.15974632134E+04  0.25500000920E-02 0.  1.
       -2    1    3    3    0  502 -0.67808638290E+03 -0.14432654629E+04  0.13808794560E+04  0.21094180266E+04  0.25500000920E-02 0. -1.
</event>
<event>
 5   0  0.1630571E-08  0.3400087E+04  0.7818609E-02  0.8137885E-01
        1   -1    0    0  501    0  0.00000000000E+00  0.00000000000E+00  0.13995750835E+04  0.13995750835E+04  0.50400001928E-02 0.  1.
       -1   -1    0    0    0  501  0.00000000000E+00  0.00000000000E+00 -0.20650176689E+04  0.20650176689E+04  0.50400001928E-02 0. -1.
    10030    2    1    2    0    0  0.00000000000E+00  0.00000000000E+00 -0.66544258539E+03  0.34645927524E+04  0.34000866321E+04 0.  0.
        3    1    3    3  502    0  0.10064558975E+04 -0.18754956370E+03 -0.17156801404E+04  0.19979205857E+04  0.10100000352E+00 0. -1.
       -3    1    3    3    0  502 -0.10064558975E+04  0.18754956370E+03  0.10502375550E+04  0.14666721667E+04  0.10100000352E+00 0.  1.
</event>
<event>
 5   0  0.1625282E-08  0.3401554E+04  0.7818609E-02  0.8137525E-01
        1   -1    0    0  501    0  0.00000000000E+00  0.00000000000E+00  0.28685227839E+04  0.28685227839E+04  0.50400001928E-02 0.  1.
       -1   -1    0    0    0  501  0.00000000000E+00  0.00000000000E+00 -0.10084086320E+04  0.10084086320E+04  0.50400001928E-02 0. -1.
    10030    2    1    2    0    0  0.00000000000E+00  0.00000000000E+00  0.18601141518E+04  0.38769314159E+04  0.34015544308E+04 0.  0.
        1    1    3    3  502    0  0.41537981685E+02  0.10604894714E+04 -0.58469112799E+03  0.12117041875E+04  0.50400001928E-02 0.  1.
       -1    1    3    3    0  502 -0.41537981685E+02 -0.10604894714E+04  0.24448052798E+04  0.26652272284E+04  0.50400001928E-02 0. -1.
</event>
<event>
 5   0  0.4764953E-08  0.3400091E+04  0.7818609E-02  0.8137884E-01
        2   -1    0    0  501    0  0.00000000000E+00  0.00000000000E+00  0.15713519980E+04  0.15713519980E+04  0.25500000920E-02 0. -1.
       -2   -1    0    0    0  501  0.00000000000E+00  0.00000000000E+00 -0.18392789022E+04  0.18392789022E+04  0.25500000920E-02 0.  1.
    10030    2    1    2    0    0  0.00000000000E+00  0.00000000000E+00 -0.26792690426E+03  0.34106309002E+04  0.34000909269E+04 0.  0.
        2    1    3    3  502    0  0.93947315707E+03  0.14065217832E+04  0.37567331490E+02  0.16918406083E+04  0.25500000920E-02 0. -1.
       -2    1    3    3    0  502 -0.93947315707E+03 -0.14065217832E+04 -0.30549423575E+03  0.17187902919E+04  0.25500000920E-02 0.  1.
</event>
<event>
 5   0  0.5001197E-08  0.3400615E+04  0.7818609E-02  0.8137755E-01
       -2   -1    0    0    0  501  0.00000000000E+00  0.00000000000E+00  0.13635541711E+04  0.13635541711E+04  0.25500000920E-02 0. -1.
        2   -1    0    0  501    0  0.00000000000E+00  0.00000000000E+00 -0.21202281222E+04  0.21202281222E+04  0.25500000920E-02 0.  1.
    10030    2    1    2    0    0  0.00000000000E+00  0.00000000000E+00 -0.75667395108E+03  0.34837822933E+04  0.34006151795E+04 0.  0.
        5    1    3    3  502    0  0.10939894411E+04  0.96756025346E+03  0.51360997817E+03  0.15481611805E+04  0.46999998093E+01 0. -1.
       -5    1    3    3    0  502 -0.10939894411E+04 -0.96756025346E+03 -0.12702839293E+04  0.19356211128E+04  0.46999998093E+01 0.  1.
</event>
<event>
 5   0  0.5001197E-08  0.3401588E+04  0.7818609E-02  0.8137517E-01
       -2   -1    0    0    0  501  0.00000000000E+00  0.00000000000E+00  0.12814384182E+04  0.12814384182E+04  0.25500000920E-02 0. -1.
        2   -1    0    0  501    0  0.00000000000E+00  0.00000000000E+00 -0.22573850172E+04  0.22573850172E+04  0.25500000920E-02 0.  1.
    10030    2    1    2    0    0  0.00000000000E+00  0.00000000000E+00 -0.97594659894E+03  0.35388234354E+04  0.34015877973E+04 0.  0.
        5    1    3    3  502    0 -0.66955082728E+03 -0.13538311235E+04  0.32557401807E+03  0.15450493690E+04  0.46999998093E+01 0.  1.
       -5    1    3    3    0  502  0.66955082728E+03  0.13538311235E+04 -0.13015206170E+04  0.19937740664E+04  0.46999998093E+01 0. -1.
</event>
<event>
 5   0  0.1645631E-08  0.3398420E+04  0.7818609E-02  0.8138294E-01
       -1   -1    0    0    0  501  0.00000000000E+00  0.00000000000E+00  0.13724656615E+04  0.13724656615E+04  0.50400001928E-02 0. -1.
        1   -1    0    0  501    0  0.00000000000E+00  0.00000000000E+00 -0.21037429330E+04  0.21037429330E+04  0.50400001928E-02 0.  1.
    10030    2    1    2    0    0  0.00000000000E+00  0.00000000000E+00 -0.73127727151E+03  0.34762085944E+04  0.33984201836E+04 0.  0.
        4    1    3    3  502    0 -0.57329767029E+03  0.14776270391E+04  0.26096905886E+03  0.16062871312E+04  0.12699999809E+01 0. -1.
       -4    1    3    3    0  502  0.57329767029E+03 -0.14776270391E+04 -0.99224633036E+03  0.18699214632E+04  0.12699999809E+01 0.  1.
</event>
<event>
 5   0  0.1579536E-08  0.3400475E+04  0.7818609E-02  0.8137790E-01
       -1   -1    0    0    0  501  0.00000000000E+00  0.00000000000E+00  0.16943592351E+04  0.16943592351E+04  0.50400001928E-02 0.  1.
        1   -1    0    0  501    0  0.00000000000E+00  0.00000000000E+00 -0.17061364660E+04  0.17061364660E+04  0.50400001928E-02 0. -1.
    10030    2    1    2    0    0  0.00000000000E+00  0.00000000000E+00 -0.11777230855E+02  0.34004957011E+04  0.34004753065E+04 0.  0.
        5    1    3    3  502    0 -0.21079962109E+02  0.80326273368E+03 -0.15042669168E+04  0.17054373137E+04  0.46999998093E+01 0. -1.
       -5    1    3    3    0  502  0.21079962109E+02 -0.80326273368E+03  0.14924896859E+04  0.16950583874E+04  0.46999998093E+01 0.  1.
</event>
<event>
 5   0  0.4973409E-08  0.3400630E+04  0.7818609E-02  0.8137752E-01
        2   -1    0    0  501    0  0.00000000000E+00  0.00000000000E+00  0.17691218245E+04  0.17691218245E+04  0.25500000920E-02 0. -1.
       -2   -1    0    0    0  501  0.00000000000E+00  0.00000000000E+00 -0.16341846911E+04  0.16341846911E+04  0.25500000920E-02 0.  1.
    10030    2    1    2    0    0  0.00000000000E+00  0.00000000000E+00  0.13493713342E+03  0.34033065157E+04  0.34006304136E+04 0.  0.
        1    1    3    3  502    0 -0.16402526251E+04 -0.43727260723E+03 -0.29745896872E+02  0.16977988178E+04  0.50400001928E-02 0. -1.
       -1    1    3    3    0  502  0.16402526251E+04  0.43727260723E+03  0.16468303029E+03  0.17055076979E+04  0.50400001928E-02 0.  1.
</event>
<event>
 5   0  0.4775023E-08  0.3399990E+04  0.7818609E-02  0.8137909E-01
       -2   -1    0    0    0  501  0.00000000000E+00  0.00000000000E+00  0.16495397191E+04  0.16495397191E+04  0.25500000920E-02 0. -1.
        2   -1    0    0  501    0  0.00000000000E+00  0.00000000000E+00 -0.17519939103E+04  0.17519939103E+04  0.25500000920E-02 0.  1.
    10030    2    1    2    0    0  0.00000000000E+00  0.00000000000E+00 -0.10245419121E+03  0.34015336294E+04  0.33999903192E+04 0.  0.
        4    1    3    3  502    0 -0.74447905730E+03  0.97136685472E+03  0.11292149608E+04  0.16652119006E+04  0.12699999809E+01 0. -1.
       -4    1    3    3    0  502  0.74447905730E+03 -0.97136685472E+03 -0.12316691520E+04  0.17363217289E+04  0.12699999809E+01 0.  1.
</event>
<event>
 5   0  0.4764953E-08  0.3401218E+04  0.7818609E-02  0.8137608E-01
       -2   -1    0    0    0  501  0.00000000000E+00  0.00000000000E+00  0.13834504604E+04  0.13834504605E+04  0.25500000920E-02 0.  1.
        2   -1    0    0  501    0  0.00000000000E+00  0.00000000000E+00 -0.20904763167E+04  0.20904763167E+04  0.25500000920E-02 0. -1.
    10030    2    1    2    0    0  0.00000000000E+00  0.00000000000E+00 -0.70702585623E+03  0.34739267771E+04  0.34012176778E+04 0.  0.
        2    1    3    3  502    0 -0.51072083751E+03 -0.12166156074E+04  0.74230700635E+03  0.15139382423E+04  0.25500000920E-02 0.  1.
       -2    1    3    3    0  502  0.51072083751E+03  0.12166156074E+04 -0.14493328626E+04  0.19599885348E+04  0.25500000920E-02 0. -1.
</event>
<event>
 5   0  0.4764953E-08  0.3400789E+04  0.7818609E-02  0.8137713E-01
        2   -1    0    0  501    0  0.00000000000E+00  0.00000000000E+00  0.12763470823E+04  0.12763470823E+04  0.25500000920E-02 0.  1.
       -2   -1    0    0    0  501  0.00000000000E+00  0.00000000000E+00 -0.22653252866E+04  0.22653252866E+04  0.25500000920E-02 0. -1.
    10030    2    1    2    0    0  0.00000000000E+00  0.00000000000E+00 -0.98897820433E+03  0.35416723689E+04  0.34007889202E+04 0.  0.
        2    1    3    3  502    0  0.31993047875E+02  0.33175361710E+03  0.12419965579E+04  0.12859391383E+04  0.25500000920E-02 0.  1.
       -2    1    3    3    0  502 -0.31993047875E+02 -0.33175361710E+03 -0.22309747623E+04  0.22557332306E+04  0.25500000920E-02 0. -1.
</event>
<event>
 5   0  0.1595851E-08  0.3407605E+04  0.7818609E-02  0.8136042E-01
       -1   -1    0    0    0  501  0.00000000000E+00  0.00000000000E+00  0.99480912630E+03  0.99480912631E+03  0.50400001928E-02 0. -1.
        1   -1    0    0  501    0  0.00000000000E+00  0.00000000000E+00 -0.29180900413E+04  0.29180900413E+04  0.50400001928E-02 0.  1.
    10030    2    1    2    0    0  0.00000000000E+00  0.00000000000E+00 -0.19232809150E+04  0.39128991677E+04  0.34076047919E+04 0.  0.
        2    1    3    3  502    0  0.14445394586E+04  0.11918952339E+02  0.75703544934E+02  0.14465708886E+04  0.25500000920E-02 0. -1.
       -2    1    3    3    0  502 -0.14445394586E+04 -0.11918952339E+02 -0.19989844600E+04  0.24663282791E+04  0.25500000920E-02 0.  1.
</event>
<event>
 5   0  0.1630571E-08  0.3399169E+04  0.7818609E-02  0.8138110E-01
       -1   -1    0    0    0  501  0.00000000000E+00  0.00000000000E+00  0.13925549727E+04  0.13925549727E+04  0.50400001928E-02 0. -1.
        1   -1    0    0  501    0  0.00000000000E+00  0.00000000000E+00 -0.20743077571E+04  0.20743077571E+04  0.50400001928E-02 0.  1.
    10030    2    1    2    0    0  0.00000000000E+00  0.00000000000E+00 -0.68175278444E+03  0.34668627298E+04  0.33991690644E+04 0.  0.
        3    1    3    3  502    0  0.56143802670E+03 -0.69092824857E+03  0.11357097956E+04  0.14430631492E+04  0.10100000352E+00 0. -1.
       -3    1    3    3    0  502 -0.56143802670E+03  0.69092824857E+03 -0.18174625800E+04  0.20237995806E+04  0.10100000352E+00 0.  1.
</event>
<event>
 5   0  0.5001197E-08  0.3398855E+04  0.7818609E-02  0.8138187E-01
        2   -1    0    0  501    0  0.00000000000E+00  0.00000000000E+00  0.23713905517E+04  0.23713905517E+04  0.25500000920E-02 0. -1.
       -2   -1    0    0    0  501  0.00000000000E+00  0.00000000000E+00 -0.12178738654E+04  0.12178738655E+04  0.25500000920E-02 0.  1.
    10030    2    1    2    0    0  0.00000000000E+00  0.00000000000E+00  0.11535166862E+04  0.35892644171E+04  0.33988554413E+04 0.  0.
        5    1    3    3  502    0 -0.16984696482E+04  0.12420836055E+02  0.51816042657E+03  0.17758000283E+04  0.46999998093E+01 0.  1.
       -5    1    3    3    0  502  0.16984696482E+04 -0.12420836055E+02  0.63535625968E+03  0.18134643888E+04  0.46999998093E+01 0. -1.
</event>
<event>
 5   0  0.4973409E-08  0.3400845E+04  0.7818609E-02  0.8137699E-01
       -2   -1    0    0    0  501  0.00000000000E+00  0.00000000000E+00  0.12355984289E+04  0.12355984289E+04  0.25500000920E-02 0.  1.
        2   -1    0    0  501    0  0.00000000000E+00  0.00000000000E+00 -0.23401100389E+04  0.23401100389E+04  0.25500000920E-02 0. -1.
    10030    2    1    2    0    0  0.00000000000E+00  0.00000000000E+00 -0.11045116100E+04  0.35757084678E+04  0.34008447701E+04 0.  0.
        1    1    3    3  502    0 -0.89165720007E+03  0.47991990088E+03  0.88402106632E+03  0.13441982441E+04  0.50400001928E-02 0.  1.
       -1    1    3    3    0  502  0.89165720007E+03 -0.47991990088E+03 -0.19885326763E+04  0.22315102237E+04  0.50400001928E-02 0. -1.
</event>
<event>
 5   0  0.1645631E-08  0.3404189E+04  0.7818609E-02  0.8136879E-01
        1   -1    0    0  501    0  0.00000000000E+00  0.00000000000E+00  0.20538367175E+04  0.20538367175E+04  0.50400001928E-02 0. -1.
       -1   -1    0    0    0  501  0.00000000000E+00  0.00000000000E+00 -0.14105922552E+04  0.14105922552E+04  0.50400001928E-02 0.  1.
    10030    2    1    2    0    0  0.00000000000E+00  0.00000000000E+00  0.64324446225E+03  0.34644289727E+04  0.34041892822E+04 0.  0.
        4    1    3    3  502    0  0.46109147714E+03 -0.93693359125E+03 -0.10462890692E+04  0.14782328416E+04  0.12699999809E+01 0.  1.
       -4    1    3    3    0  502 -0.46109147714E+03  0.93693359125E+03  0.16895335314E+04  0.19861961312E+04  0.12699999809E+01 0. -1.
</event>
<event>
 5   0  0.1630571E-08  0.3400585E+04  0.7818609E-02  0.8137763E-01
       -1   -1    0    0    0  501  0.00000000000E+00  0.00000000000E+00  0.11506861446E+04  0.11506861446E+04  0.50400001928E-02 0.  1.
        1   -1    0    0  501    0  0.00000000000E+00  0.00000000000E+00 -0.25124090828E+04  0.25124090828E+04  0.50400001928E-02 0. -1.
    10030    2    1    2    0    0  0.00000000000E+00  0.00000000000E+00 -0.13617229382E+04  0.36630952275E+04  0.34005848446E+04 0.  0.
        3    1    3    3  502    0  0.71239409602E+03 -0.14554884505E+04 -0.12629677486E+03  0.16253931411E+04  0.10100000352E+00 0.  1.
       -3    1    3    3    0  502 -0.71239409602E+03  0.14554884505E+04 -0.12354261634E+04  0.20377020864E+04  0.10100000352E+00 0. -1.
</event>
<event>
 5   0  0.5001197E-08  0.3399498E+04  0.7818609E-02  0.8138029E-01
        2   -1    0    0  501    0  0.00000000000E+00  0.00000000000E+00  0.20013005370E+04  0.20013005370E+04  0.25500000920E-02 0.  1.
       -2   -1    0    0    0  501  0.00000000000E+00  0.00000000000E+00 -0.14436348794E+04  0.14436348794E+04  0.25500000920E-02 0. -1.
    10030    2    1    2    0    0  0.00000000000E+00  0.00000000000E+00  0.55766565767E+03  0.34449354164E+04  0.33994983509E+04 0.  0.
        5    1    3    3  502    0  0.54925779079E+02 -0.91200974550E+03 -0.11736235672E+04  0.14873442724E+04  0.46999998093E+01 0. -1.
       -5    1    3    3    0  502 -0.54925779079E+02  0.91200974550E+03  0.17312892249E+04  0.19575911440E+04  0.46999998093E+01 0.  1.
</event>
<event>
 5   0  0.5001197E-08  0.3401283E+04  0.7818609E-02  0.8137591E-01
        2   -1    0    0  501    0  0.00000000000E+00  0.00000000000E+00  0.18249575716E+04  0.18249575716E+04  0.25500000920E-02 0. -1.
       -2   -1    0    0    0  501  0.00000000000E+00  0.00000000000E+00 -0.15847941807E+04  0.15847941807E+04  0.25500000920E-02 0.  1.
    10030    2    1    2    0    0  0.00000000000E+00  0.00000000000E+00  0.24016339094E+03  0.34097517523E+04  0.34012833692E+04 0.  0.
        5    1    3    3  502    0  0.23260767238E+03  0.15706710100E+04 -0.49057060500E+03  0.16618650244E+04  0.46999998093E+01 0.  1.
       -5    1    3    3    0  502 -0.23260767238E+03 -0.15706710100E+04  0.73073399593E+03  0.17478867279E+04  0.46999998093E+01 0. -1.
</event>
<event>
 5   0  0.4764953E-08  0.3404469E+04  0.7818609E-02  0.8136810E-01
        2   -1    0    0  501    0  0.00000000000E+00  0.00000000000E+00  0.16048104468E+04  0.16048104468E+04  0.25500000920E-02 0.  1.
       -2   -1    0    0    0  501  0.00000000000E+00  0.00000000000E+00 -0.18055728980E+04  0.18055728980E+04  0.25500000920E-02 0. -1.
    10030    2    1    2    0    0  0.00000000000E+00  0.00000000000E+00 -0.20076245116E+03  0.34103833448E+04  0.34044689743E+04 0.  0.
        2    1    3    3  502    0 -0.10039156126E+04  0.13737494801E+04 -0.49617180890E+02  0.17022032946E+04  0.25500000920E-02 0.  1.
       -2    1    3    3    0  502  0.10039156126E+04 -0.13737494801E+04 -0.15114527027E+03  0.17081800503E+04  0.25500000920E-02 0. -1.
</event>
<event>
 5   0  0.4775023E-08  0.3398970E+04  0.7818609E-02  0.8138159E-01
        2   -1    0    0  501    0  0.00000000000E+00  0.00000000000E+00  0.17225886125E+04  0.17225886125E+04  0.25500000920E-02 0.  1.
       -2   -1    0    0    0  501  0.00000000000E+00  0.00000000000E+00 -0.16766917280E+04  0.16766917280E+04  0.25500000920E-02 0. -1.
    10030    2    1    2    0    0  0.00000000000E+00  0.00000000000E+00  0.45896884407E+02  0.33992803405E+04  0.33989704779E+04 0.  0.
        4    1    3    3  502    0  0.45005513280E+03  0.16315100183E+04 -0.13157746163E+03  0.16975537705E+04  0.12699999809E+01 0. -1.
       -4    1    3    3    0  502 -0.45005513280E+03 -0.16315100183E+04  0.17747434604E+03  0.17017265700E+04  0.12699999809E+01 0.  1.
</event>
<event>
 5   0  0.1625282E-08  0.3402153E+04  0.7818609E-02  0.8137378E-01
       -1   -1    0    0    0  501  0.00000000000E+00  0.00000000000E+00  0.15441853975E+04  0.15441853975E+04  0.50400001928E-02 0. -1.
        1   -1    0    0  501    0  0.00000000000E+00  0.00000000000E+00 -0.18739080204E+04  0.18739080204E+04  0.50400001928E-02 0.  1.
    10030    2    1    2    0    0  0.00000000000E+00  0.00000000000E+00 -0.32972262298E+03  0.34180934179E+04  0.34021530838E+04 0.  0.
        1    1    3    3  502    0 -0.11452828954E+04 -0.12099430239E+04  0.18029800582E+03  0.16757512949E+04  0.50400001928E-02 0. -1.
       -1    1    3    3    0  502  0.11452828954E+04  0.12099430239E+04 -0.51002062880E+03  0.17423421230E+04  0.50400001928E-02 0.  1.
</event>
<event>
 5   0  0.1625282E-08  0.3399311E+04  0.7818609E-02  0.8138076E-01
       -1   -1    0    0    0  501  0.00000000000E+00  0.00000000000E+00  0.20774172920E+04  0.20774172921E+04  0.50400001928E-02 0.  1.
        1   -1    0    0  501    0  0.00000000000E+00  0.00000000000E+00 -0.13905864635E+04  0.13905864635E+04  0.50400001928E-02 0. -1.
    10030    2    1    2    0    0  0.00000000000E+00  0.00000000000E+00  0.68683082851E+03  0.34680037556E+04  0.33993107333E+04 0.  0.
        1    1    3    3  502    0 -0.59673415835E+03  0.47615183373E+03 -0.12058287359E+04  0.14271773418E+04  0.50400001928E-02 0. -1.
       -1    1    3    3    0  502  0.59673415835E+03 -0.47615183373E+03  0.18926595644E+04  0.20408264138E+04  0.50400001928E-02 0.  1.
</event>
<event>
 5   0  0.1579536E-08  0.3398774E+04  0.7818609E-02  0.8138207E-01
       -1   -1    0    0    0  501  0.00000000000E+00  0.00000000000E+00  0.15611540408E+04  0.15611540408E+04  0.50400001928E-02 0.  1.
        1   -1    0    0  501    0  0.00000000000E+00  0.00000000000E+00 -0.18498603168E+04  0.18498603168E+04  0.50400001928E-02 0. -1.
    10030    2    1    2    0    0  0.00000000000E+00  0.00000000000E+00 -0.28870627596E+03  0.34110143577E+04  0.33987744312E+04 0.  0.
        5    1    3    3  502    0 -0.12848150146E+04 -0.82706219749E+03  0.60204107407E+03  0.16423328058E+04  0.46999998093E+01 0.  1.
       -5    1    3    3    0  502  0.12848150146E+04  0.82706219749E+03 -0.89074735003E+03  0.17686815518E+04  0.46999998093E+01 0. -1.
</event>
<event>
 5   0  0.4973409E-08  0.3402296E+04  0.7818609E-02  0.8137343E-01
        2   -1    0    0  501    0  0.00000000000E+00  0.00000000000E+00  0.18424036314E+04  0.18424036314E+04  0.25500000920E-02 0. -1.
       -2   -1    0    0    0  501  0.00000000000E+00  0.00000000000E+00 -0.15707219082E+04  0.15707219082E+04  0.25500000920E-02 0.  1.
    10030    2    1    2    0    0  0.00000000000E+00  0.00000000000E+00  0.27168172317E+03  0.34131255396E+04  0.34022955471E+04 0.  0.
        1    1    3    3  502    0 -0.97725000410E+02  0.80532891492E+03  0.16358592944E+04  0.18259628879E+04  0.50400001928E-02 0. -1.
       -1    1    3    3    0  502  0.97725000410E+02 -0.80532891492E+03 -0.13641775712E+04  0.15871626517E+04  0.50400001928E-02 0.  1.
</event>
<event>
 5   0  0.4764953E-08  0.3398630E+04  0.7818609E-02  0.8138243E-01
       -2   -1    0    0    0  501  0.00000000000E+00  0.00000000000E+00  0.14590917083E+04  0.14590917083E+04  0.25500000920E-02 0. -1.
        2   -1    0    0  501    0  0.00000000000E+00  0.00000000000E+00 -0.19790878164E+04  0.19790878164E+04  0.25500000920E-02 0.  1.
    10030    2    1    2    0    0  0.00000000000E+00  0.00000000000E+00 -0.51999610808E+03  0.34381795247E+04  0.33986295019E+04 0.  0.
        2    1    3    3  502    0  0.43620741575E+03 -0.13957802815E+04 -0.11356288694E+04  0.18515216533E+04  0.25500000920E-02 0.  1.
       -2    1    3    3    0  502 -0.43620741575E+03  0.13957802815E+04  0.61563276135E+03  0.15866578713E+04  0.25500000920E-02 0. -1.
</event>
<event>
 5   0  0.1645631E-08  0.3399764E+04  0.7818609E-02  0.8137964E-01
       -1   -1    0    0    0  501  0.00000000000E+00  0.00000000000E+00  0.15267384738E+04  0.15267384738E+04  0.50400001928E-02 0. -1.
        1   -1    0    0  501    0  0.00000000000E+00  0.00000000000E+00 -0.18926613934E+04  0.18926613934E+04  0.50400001928E-02 0.  1.
    10030    2    1    2    0    0  0.00000000000E+00  0.00000000000E+00 -0.36592291964E+03  0.34193998672E+04  0.33997640902E+04 0.  0.
        4    1    3    3  502    0  0.10630795111E+04 -0.12209421062E+04  0.33845311466E+03  0.16539013868E+04  0.12699999809E+01 0. -1.
       -4    1    3    3    0  502 -0.10630795111E+04  0.12209421062E+04 -0.70437603430E+03  0.17654984804E+04  0.12699999809E+01 0.  1.
</event>
<event>
 5   0  0.1579536E-08  0.3399169E+04  0.7818609E-02  0.8138110E-01
        1   -1    0    0  501    0  0.00000000000E+00  0.00000000000E+00  0.10222354808E+04  0.10222354808E+04  0.50400001928E-02 0.  1.
       -1   -1    0    0    0  501  0.00000000000E+00  0.00000000000E+00 -0.28257546350E+04  0.28257546350E+04  0.50400001928E-02 0. -1.
    10030    2    1    2    0    0  0.00000000000E+00  0.00000000000E+00 -0.18035191542E+04  0.38479901159E+04  0.33991685148E+04 0.  0.
        5    1    3    3  502    0 -0.74388855212E+03  0.12866445369E+04 -0.18350842246E+04  0.23614361189E+04  0.46999998093E+01 0. -1.
       -5    1    3    3    0  502  0.74388855212E+03 -0.12866445369E+04  0.31565070435E+02  0.14865539970E+04  0.46999998093E+01 0.  1.
</event>
<event>
 5   0  0.4973409E-08  0.3401449E+04  0.7818609E-02  0.8137551E-01
        2   -1    0    0  501    0  0.00000000000E+00  0.00000000000E+00  0.20301319078E+04  0.20301319078E+04  0.25500000920E-02 0.  1.
       -2   -1    0    0    0  501  0.00000000000E+00  0.00000000000E+00 -0.14247660963E+04  0.14247660963E+04  0.25500000920E-02 0. -1.
    10030    2    1    2    0    0  0.00000000000E+00  0.00000000000E+00  0.60536581152E+03  0.34548980041E+04  0.34014485816E+04 0.  0.
        1    1    3    3  502    0  0.91551492089E+03  0.92842701824E+02 -0.11500632053E+04  0.14728994242E+04  0.50400001928E-02 0. -1.
       -1    1    3    3    0  502 -0.91551492089E+03 -0.92842701824E+02  0.17554290168E+04  0.19819985799E+04  0.50400001928E-02 0.  1.
</event>
<event>
 5   0  0.1630571E-08  0.3399597E+04  0.7818609E-02  0.8138005E-01
        1   -1    0    0  501    0  0.00000000000E+00  0.00000000000E+00  0.29027437078E+04  0.29027437078E+04  0.50400001928E-02 0. -1.
       -1   -1    0    0    0  501  0.00000000000E+00  0.00000000000E+00 -0.99537396871E+03  0.99537396872E+03  0.50400001928E-02 0.  1.
    10030    2    1    2    0    0  0.00000000000E+00  0.00000000000E+00  0.19073697391E+04  0.38981176765E+04  0.33995973436E+04 0.  0.
        3    1    3    3  502    0 -0.17256445903E+01  0.85670640251E+03  0.26370876738E+04  0.27727567956E+04  0.10100000352E+00 0. -1.
       -3    1    3    3    0  502  0.17256445903E+01 -0.85670640251E+03 -0.72971793470E+03  0.11253608809E+04  0.10100000352E+00 0.  1.
</event>
<event>
 5   0  0.4764953E-08  0.3398648E+04  0.7818609E-02  0.8138238E-01
       -2   -1    0    0    0  501  0.00000000000E+00  0.00000000000E+00  0.90602604703E+03  0.90602604704E+03  0.25500000920E-02 0. -1.
        2   -1    0    0  501    0  0.00000000000E+00  0.00000000000E+00 -0.31872176199E+04  0.31872176199E+04  0.25500000920E-02 0.  1.
    10030    2    1    2    0    0  0.00000000000E+00  0.00000000000E+00 -0.22811915729E+04  0.40932436669E+04  0.33986480731E+04 0.  0.
        2    1    3    3  502    0  0.17392021049E+03  0.15448329563E+04 -0.19671027822E+04  0.25072396093E+04  0.25500000920E-02 0.  1.
       -2    1    3    3    0  502 -0.17392021049E+03 -0.15448329563E+04 -0.31408879064E+03  0.15860040577E+04  0.25500000920E-02 0. -1.
</event>
<event>
 5   0  0.4764953E-08  0.3415729E+04  0.7818609E-02  0.8134057E-01
       -2   -1    0    0    0  501  0.00000000000E+00  0.00000000000E+00  0.12470304665E+04  0.12470304665E+04  0.25500000920E-02 0.  1.
        2   -1    0    0  501    0  0.00000000000E+00  0.00000000000E+00 -0.23389980768E+04  0.23389980768E+04  0.25500000920E-02 0. -1.
    10030    2    1    2    0    0  0.00000000000E+00  0.00000000000E+00 -0.10919676104E+04  0.35860285433E+04  0.34157294172E+04 0.  0.
        2    1    3    3  502    0 -0.10384874211E+04  0.93504078835E+03  0.48482664898E+03  0.14791261877E+04  0.25500000920E-02 0.  1.
       -2    1    3    3    0  502  0.10384874211E+04 -0.93504078835E+03 -0.15767942594E+04  0.21069023556E+04  0.25500000920E-02 0. -1.
</event>
<event>
 5   0  0.4764953E-08  0.3399483E+04  0.7818609E-02  0.8138033E-01
       -2   -1    0    0    0  501  0.00000000000E+00  0.00000000000E+00  0.10187463600E+04  0.10187463600E+04  0.25500000920E-02 0. -1.
        2   -1    0    0  501    0  0.00000000000E+00  0.00000000000E+00 -0.28359573871E+04  0.28359573871E+04  0.25500000920E-02 0.  1.
    10030    2    1    2    0    0  0.00000000000E+00  0.00000000000E+00 -0.18172110271E+04  0.38547037471E+04  0.33994830579E+04 0.  0.
        2    1    3    3  502    0 -0.55337296701E+03 -0.84915139399E+03  0.63860526470E+03  0.11979550971E+04  0.25500000920E-02 0. -1.
       -2    1    3    3    0  502  0.55337296701E+03  0.84915139399E+03 -0.24558162918E+04  0.26567486500E+04  0.25500000920E-02 0.  1.
</event>
<event>
 5   0  0.4946315E-08  0.3403337E+04  0.7818609E-02  0.8137088E-01
       -2   -1    0    0    0  501  0.00000000000E+00  0.00000000000E+00  0.12108453877E+04  0.12108453877E+04  0.25500000920E-02 0. -1.
        2   -1    0    0  501    0  0.00000000000E+00  0.00000000000E+00 -0.23914489196E+04  0.23914489196E+04  0.25500000920E-02 0.  1.
    10030    2    1    2    0    0  0.00000000000E+00  0.00000000000E+00 -0.11806035320E+04  0.36022943073E+04  0.34033365359E+04 0.  0.
        3    1    3    3  502    0  0.79073905260E+03  0.88218399614E+03 -0.18832516936E+04  0.22248941107E+04  0.10100000352E+00 0.  1.
       -3    1    3    3    0  502 -0.79073905260E+03 -0.88218399614E+03  0.70264816159E+03  0.13774001966E+04  0.10100000352E+00 0. -1.
</event>
<event>
 5   0  0.4973409E-08  0.3399715E+04  0.7818609E-02  0.8137976E-01
       -2   -1    0    0    0  501  0.00000000000E+00  0.00000000000E+00  0.12672277363E+04  0.12672277363E+04  0.25500000920E-02 0.  1.
        2   -1    0    0  501    0  0.00000000000E+00  0.00000000000E+00 -0.22801867614E+04  0.22801867614E+04  0.25500000920E-02 0. -1.
    10030    2    1    2    0    0  0.00000000000E+00  0.00000000000E+00 -0.10129590251E+04  0.35474144977E+04  0.33997152280E+04 0.  0.
        1    1    3    3  502    0 -0.14922585643E+04  0.56276559633E+03  0.10727099041E+03  0.15984516897E+04  0.50400001928E-02 0. -1.
       -1    1    3    3    0  502  0.14922585643E+04 -0.56276559633E+03 -0.11202300155E+04  0.19489628079E+04  0.50400001928E-02 0.  1.
</event>
<event>
 5   0  0.5001197E-08  0.3400486E+04  0.7818609E-02  0.8137787E-01
       -2   -1    0    0    0  501  0.00000000000E+00  0.00000000000E+00  0.14825981010E+04  0.14825981010E+04  0.25500000920E-02 0.  1.
        2   -1    0    0  501    0  0.00000000000E+00  0.00000000000E+00 -0.19498380375E+04  0.19498380375E+04  0.25500000920E-02 0. -1.
    10030    2    1    2    0    0  0.00000000000E+00  0.00000000000E+00 -0.46723993654E+03  0.34324361385E+04  0.34004859486E+04 0.  0.
        5    1    3    3  502    0  0.12751260166E+04 -0.79267359738E+02  0.89878281899E+03  0.15620698826E+04  0.46999998093E+01 0.  1.
       -5    1    3    3    0  502 -0.12751260166E+04  0.79267359738E+02 -0.13660227555E+04  0.18703662559E+04  0.46999998093E+01 0. -1.
</event>
<event>
 5   0  0.1645631E-08  0.3399212E+04  0.7818609E-02  0.8138100E-01
        1   -1    0    0  501    0  0.00000000000E+00  0.00000000000E+00  0.18499439332E+04  0.18499439332E+04  0.50400001928E-02 0. -1.
       -1   -1    0    0    0  501  0.00000000000E+00  0.00000000000E+00 -0.15614858547E+04  0.15614858547E+04  0.50400001928E-02 0.  1.
    10030    2    1    2    0    0  0.00000000000E+00  0.00000000000E+00  0.28845807847E+03  0.34114297879E+04  0.33992124286E+04 0.  0.
        4    1    3    3  502    0 -0.17858379820E+03  0.39365441566E+03  0.17938532703E+04  0.18452011110E+04  0.12699999809E+01 0. -1.
       -4    1    3    3    0  502  0.17858379820E+03 -0.39365441566E+03 -0.15053951918E+04  0.15662286769E+04  0.12699999809E+01 0.  1.
</event>
<event>
 5   0  0.1579536E-08  0.3399609E+04  0.7818609E-02  0.8138002E-01
        1   -1    0    0  501    0  0.00000000000E+00  0.00000000000E+00  0.25255557848E+04  0.25255557848E+04  0.50400001928E-02 0.  1.
       -1   -1    0    0    0  501  0.00000000000E+00  0.00000000000E+00 -0.11440395385E+04  0.11440395385E+04  0.50400001928E-02 0. -1.
    10030    2    1    2    0    0  0.00000000000E+00  0.00000000000E+00  0.13815162463E+04  0.36695953233E+04  0.33996091979E+04 0.  0.
        5    1    3    3  502    0  0.16409273462E+04 -0.27805961456E+03  0.10636710590E+04  0.19751906026E+04  0.46999998093E+01 0.  1.
       -5    1    3    3    0  502 -0.16409273462E+04  0.27805961456E+03  0.31784518728E+03  0.16944047208E+04  0.46999998093E+01 0. -1.
</event>
<event>
 5   0  0.4775023E-08  0.3399816E+04  0.7818609E-02  0.8137951E-01
       -2   -1    0    0    0  501  0.00000000000E+00  0.00000000000E+00  0.15786265356E+04  0.15786265356E+04  0.25500000920E-02 0. -1.
        2   -1    0    0  501    0  0.00000000000E+00  0.00000000000E+00 -0.18305073833E+04  0.18305073833E+04  0.25500000920E-02 0.  1.
    10030    2    1    2    0    0  0.00000000000E+00  0.00000000000E+00 -0.25188084773E+03  0.34091339189E+04  0.33998161885E+04 0.  0.
        4    1    3    3  502    0 -0.51375184869E+03  0.12112509000E+04  0.95339995495E+03  0.16248208491E+04  0.12699999809E+01 0. -1.
       -4    1    3    3    0  502  0.51375184869E+03 -0.12112509000E+04 -0.12052808027E+04  0.17843130698E+04  0.12699999809E+01 0.  1.
</event>
<event>
 5   0  0.4764953E-08  0.3400525E+04  0.7818609E-02  0.8137777E-01
       -2   -1    0    0    0  501  0.00000000000E+00  0.00000000000E+00  0.10221443084E+04  0.10221443084E+04  0.25500000920E-02 0.  1.
        2   -1    0    0  501    0  0.00000000000E+00  0.00000000000E+00 -0.28282633838E+04  0.28282633838E+04  0.25500000920E-02 0. -1.
    10030    2    1    2    0    0  0.00000000000E+00  0.00000000000E+00 -0.18061190754E+04  0.38504076922E+04  0.34005254420E+04 0.  0.
        2    1    3    3  502    0  0.11903921246E+04  0.23995971108E+03 -0.22505792701E+04  0.25572878454E+04  0.25500000920E-02 0. -1.
       -2    1    3    3    0  502 -0.11903921246E+04 -0.23995971108E+03  0.44446019476E+03  0.12931198467E+04  0.25500000920E-02 0.  1.
</event>
<event>
 5   0  0.1579536E-08  0.3401075E+04  0.7818609E-02  0.8137643E-01
       -1   -1    0    0    0  501  0.00000000000E+00  0.00000000000E+00  0.13953566602E+04  0.13953566602E+04  0.50400001928E-02 0. -1.
        1   -1    0    0  501    0  0.00000000000E+00  0.00000000000E+00 -0.20724648942E+04  0.20724648942E+04  0.50400001928E-02 0.  1.
    10030    2    1    2    0    0  0.00000000000E+00  0.00000000000E+00 -0.67710823397E+03  0.34678215544E+04  0.34010749437E+04 0.  0.
        5    1    3    3  502    0  0.15832785504E+03 -0.16427070519E+04 -0.75678868789E+03  0.18155730160E+04  0.46999998093E+01 0. -1.
       -5    1    3    3    0  502 -0.15832785504E+03  0.16427070519E+04  0.79680453915E+02  0.16522485385E+04  0.46999998093E+01 0.  1.
</event>
<event>
 5   0  0.1645631E-08  0.3399832E+04  0.7818609E-02  0.8137948E-01
       -1   -1    0    0    0  501  0.00000000000E+00  0.00000000000E+00  0.17381537455E+04  0.17381537455E+04  0.50400001928E-02 0.  1.
        1   -1    0    0  501    0  0.00000000000E+00  0.00000000000E+00 -0.16625195085E+04  0.16625195085E+04  0.50400001928E-02 0. -1.
    10030    2    1    2    0    0  0.00000000000E+00  0.00000000000E+00  0.75634237031E+02  0.34006732541E+04  0.33998320610E+04 0.  0.
        4    1    3    3  502    0 -0.65839117668E+03 -0.10315695029E+04 -0.11423469691E+04  0.16740886450E+04  0.12699999809E+01 0. -1.
       -4    1    3    3    0  502  0.65839117668E+03  0.10315695029E+04  0.12179812061E+04  0.17265846090E+04  0.12699999809E+01 0.  1.
</event>
<event>
 5   0  0.5001197E-08  0.3390238E+04  0.7818609E-02  0.8140306E-01
       -2   -1    0    0    0  501  0.00000000000E+00  0.00000000000E+00  0.16871598511E+04  0.16871598511E+04  0.25500000920E-02 0.  1.
        2   -1    0    0  501    0  0.00000000000E+00  0.00000000000E+00 -0.17031159699E+04  0.17031159699E+04  0.25500000920E-02 0. -1.
    10030    2    1    2    0    0  0.00000000000E+00  0.00000000000E+00 -0.15956118745E+02  0.33902758210E+04  0.33902382725E+04 0.  0.
        5    1    3    3  502    0 -0.11923240891E+04 -0.83645795582E+03 -0.87522935563E+03  0.16992195739E+04  0.46999998093E+01 0. -1.
       -5    1    3    3    0  502  0.11923240891E+04  0.83645795582E+03  0.85927323689E+03  0.16910562471E+04  0.46999998093E+01 0.  1.
</event>
<event>
 5   0  0.1595851E-08  0.3400605E+04  0.7818609E-02  0.8137758E-01
       -1   -1    0    0    0  501  0.00000000000E+00  0.00000000000E+00  0.20189251165E+04  0.20189251165E+04  0.50400001928E-02 0. -1.
        1   -1    0    0  501    0  0.00000000000E+00  0.00000000000E+00 -0.14319640874E+04  0.14319640874E+04  0.50400001928E-02 0.  1.
    10030    2    1    2    0    0  0.00000000000E+00  0.00000000000E+00  0.58696102915E+03  0.34508892039E+04  0.34006048062E+04 0.  0.
        2    1    3    3  502    0 -0.12588296873E+04  0.24744758983E+03 -0.83888060835E+03  0.15328415334E+04  0.25500000920E-02 0.  1.
       -2    1    3    3    0  502  0.12588296873E+04 -0.24744758983E+03  0.14258416375E+04  0.19180476706E+04  0.25500000920E-02 0. -1.
</event>
<event>
 5   0  0.1630571E-08  0.3404646E+04  0.7818609E-02  0.8136767E-01
       -1   -1    0    0    0  501  0.00000000000E+00  0.00000000000E+00  0.11191450217E+04  0.11191450217E+04  0.50400001928E-02 0.  1.
        1   -1    0    0  501    0  0.00000000000E+00  0.00000000000E+00 -0.25893907729E+04  0.25893907729E+04  0.50400001928E-02 0. -1.
    10030    2    1    2    0    0  0.00000000000E+00  0.00000000000E+00 -0.14702457512E+04  0.37085357945E+04  0.34046461153E+04 0.  0.
        3    1    3    3  502    0 -0.14002872299E+04 -0.35644281871E+03  0.24523776672E+03  0.14656047836E+04  0.10100000352E+00 0.  1.
       -3    1    3    3    0  502  0.14002872299E+04  0.35644281871E+03 -0.17154835179E+04  0.22429310109E+04  0.10100000352E+00 0. -1.
</event>
<event>
 5   0  0.1625282E-08  0.3400067E+04  0.7818609E-02  0.8137890E-01
        1   -1    0    0  501    0  0.00000000000E+00  0.00000000000E+00  0.25051339385E+04  0.25051339386E+04  0.50400001928E-02 0. -1.
       -1   -1    0    0    0  501  0.00000000000E+00  0.00000000000E+00 -0.11536761231E+04  0.11536761231E+04  0.50400001928E-02 0.  1.
    10030    2    1    2    0    0  0.00000000000E+00  0.00000000000E+00  0.13514578155E+04  0.36588100616E+04  0.34000665935E+04 0.  0.
        1    1    3    3  502    0  0.14784827210E+04  0.75069688174E+03  0.10793110598E+04  0.19784765170E+04  0.50400001928E-02 0. -1.
       -1    1    3    3    0  502 -0.14784827210E+04 -0.75069688174E+03  0.27214675572E+03  0.16803335446E+04  0.50400001928E-02 0.  1.
</event>
<event>
 5   0  0.4973409E-08  0.3398031E+04  0.7818609E-02  0.8138390E-01
       -2   -1    0    0    0  501  0.00000000000E+00  0.00000000000E+00  0.14568902191E+04  0.14568902191E+04  0.25500000920E-02 0. -1.
        2   -1    0    0  501    0  0.00000000000E+00  0.00000000000E+00 -0.19813798237E+04  0.19813798237E+04  0.25500000920E-02 0.  1.
    10030    2    1    2    0    0  0.00000000000E+00  0.00000000000E+00 -0.52448960459E+03  0.34382700428E+04  0.33980305387E+04 0.  0.
        1    1    3    3  502    0  0.67055601003E+02 -0.77710761753E+03 -0.17895096843E+04  0.19521110658E+04  0.50400001928E-02 0.  1.
       -1    1    3    3    0  502 -0.67055601003E+02  0.77710761753E+03  0.12650200797E+04  0.14861589770E+04  0.50400001928E-02 0. -1.
</event>
<event>
 5   0  0.4946315E-08  0.3398932E+04  0.7818609E-02  0.8138168E-01
       -2   -1    0    0    0  501  0.00000000000E+00  0.00000000000E+00  0.28380767676E+04  0.28380767676E+04  0.25500000920E-02 0. -1.
        2   -1    0    0  501    0  0.00000000000E+00  0.00000000000E+00 -0.10176558106E+04  0.10176558106E+04  0.25500000920E-02 0.  1.
    10030    2    1    2    0    0  0.00000000000E+00  0.00000000000E+00  0.18204209569E+04  0.38557325782E+04  0.33989323697E+04 0.  0.
        3    1    3    3  502    0  0.94298843257E+03  0.15659416105E+03 -0.68378085126E+03  0.11752894018E+04  0.10100000352E+00 0.  1.
       -3    1    3    3    0  502 -0.94298843257E+03 -0.15659416105E+03  0.25042018082E+04  0.26804431764E+04  0.10100000352E+00 0. -1.
</event>
<event>
 5   0  0.5001197E-08  0.3400131E+04  0.7818609E-02  0.8137874E-01
        2   -1    0    0  501    0  0.00000000000E+00  0.00000000000E+00  0.19223623050E+04  0.19223623050E+04  0.25500000920E-02 0. -1.
       -2   -1    0    0    0  501  0.00000000000E+00  0.00000000000E+00 -0.15034742801E+04  0.15034742801E+04  0.25500000920E-02 0.  1.
    10030    2    1    2    0    0  0.00000000000E+00  0.00000000000E+00  0.41888802495E+03  0.34258365851E+04  0.34001307520E+04 0.  0.
        5    1    3    3  502    0 -0.42369034520E+03 -0.97910285756E+03  0.15430992155E+04  0.18759885909E+04  0.46999998093E+01 0. -1.
       -5    1    3    3    0  502  0.42369034520E+03  0.97910285756E+03 -0.11242111906E+04  0.15498479942E+04  0.46999998093E+01 0.  1.
</event>
<event>
 5   0  0.4775023E-08  0.3399193E+04  0.7818609E-02  0.8138104E-01
        2   -1    0    0  501    0  0.00000000000E+00  0.00000000000E+00  0.19709528452E+04  0.19709528452E+04  0.25500000920E-02 0. -1.
       -2   -1    0    0    0  501  0.00000000000E+00  0.00000000000E+00 -0.14655995656E+04  0.14655995656E+04  0.25500000920E-02 0.  1.
    10030    2    1    2    0    0  0.00000000000E+00  0.00000000000E+00  0.50535327962E+03  0.34365524108E+04  0.33991926299E+04 0.  0.
        4    1    3    3  502    0 -0.72672990728E+03 -0.61172280155E+03 -0.11721694774E+04  0.15087491643E+04  0.12699999809E+01 0.  1.
       -4    1    3    3    0  502  0.72672990728E+03  0.61172280155E+03  0.16775227570E+04  0.19278032465E+04  0.12699999809E+01 0. -1.
</event>
<event>
 5   0  0.4973409E-08  0.3397493E+04  0.7818609E-02  0.8138522E-01
       -2   -1    0    0    0  501  0.00000000000E+00  0.00000000000E+00  0.12491445886E+04  0.12491445886E+04  0.25500000920E-02 0. -1.
        2   -1    0    0  501    0  0.00000000000E+00  0.00000000000E+00 -0.23101723921E+04  0.23101723921E+04  0.25500000920E-02 0.  1.
    10030    2    1    2    0    0  0.00000000000E+00  0.00000000000E+00 -0.10610278035E+04  0.35593169807E+04  0.33974928063E+04 0.  0.
        1    1    3    3  502    0 -0.42672336818E+03 -0.12198961743E+04  0.62449564117E+03  0.14353516345E+04  0.50400001928E-02 0.  1.
       -1    1    3    3    0  502  0.42672336818E+03  0.12198961743E+04 -0.16855234447E+04  0.21239653461E+04  0.50400001928E-02 0. -1.
</event>
<event>
 5   0  0.1595851E-08  0.3407641E+04  0.7818609E-02  0.8136033E-01
       -1   -1    0    0    0  501  0.00000000000E+00  0.00000000000E+00  0.15519786625E+04  0.15519786625E+04  0.50400001928E-02 0. -1.
        1   -1    0    0  501    0  0.00000000000E+00  0.00000000000E+00 -0.18705186259E+04  0.18705186259E+04  0.50400001928E-02 0.  1.
    10030    2    1    2    0    0  0.00000000000E+00  0.00000000000E+00 -0.31853996336E+03  0.34224972884E+04  0.34076414102E+04 0.  0.
        2    1    3    3  502    0 -0.55202197199E+02  0.75636551081E+03  0.13731171175E+04  0.15686257319E+04  0.25500000920E-02 0. -1.
       -2    1    3    3    0  502  0.55202197199E+02 -0.75636551081E+03 -0.16916570809E+04  0.18538715564E+04  0.25500000920E-02 0.  1.
</event>
<event>
 5   0  0.1630571E-08  0.3394735E+04  0.7818609E-02  0.8139200E-01
       -1   -1    0    0    0  501  0.00000000000E+00  0.00000000000E+00  0.96480748621E+03  0.96480748622E+03  0.50400001928E-02 0.  1.
        1   -1    0    0  501    0  0.00000000000E+00  0.00000000000E+00 -0.29861456879E+04  0.29861456879E+04  0.50400001928E-02 0. -1.
    10030    2    1    2    0    0  0.00000000000E+00  0.00000000000E+00 -0.20213382017E+04  0.39509531741E+04  0.33947345785E+04 0.  0.
        3    1    3    3  502    0 -0.14576822001E+04  0.84269410945E+03 -0.76082126065E+03  0.18476524996E+04  0.10100000352E+00 0.  1.
       -3    1    3    3    0  502  0.14576822001E+04 -0.84269410945E+03 -0.12605169410E+04  0.21033006745E+04  0.10100000352E+00 0. -1.
</event>
<event>
 5   0  0.4946315E-08  0.3401915E+04  0.7818609E-02  0.8137436E-01
       -2   -1    0    0    0  501  0.00000000000E+00  0.00000000000E+00  0.17936764016E+04  0.17936764016E+04  0.25500000920E-02 0. -1.
        2   -1    0    0  501    0  0.00000000000E+00  0.00000000000E+00 -0.16130315685E+04  0.16130315685E+04  0.25500000920E-02 0.  1.
    10030    2    1    2    0    0  0.00000000000E+00  0.00000000000E+00  0.18064483307E+03  0.34067079701E+04  0.34019151427E+04 0.  0.
        3    1    3    3  502    0  0.10952909647E+04 -0.42821404749E+03  0.13209667522E+04  0.17686103976E+04  0.10100000352E+00 0. -1.
       -3    1    3    3    0  502 -0.10952909647E+04  0.42821404749E+03 -0.11403219191E+04  0.16380975726E+04  0.10100000352E+00 0.  1.
</event>
<event>
 5   0  0.4946315E-08  0.3400301E+04  0.7818609E-02  0.8137832E-01
       -2   -1    0    0    0  501  0.00000000000E+00  0.00000000000E+00  0.19452718999E+04  0.19452718999E+04  0.25500000920E-02 0.  1.
        2   -1    0    0  501    0  0.00000000000E+00  0.00000000000E+00 -0.14859169879E+04  0.14859169879E+04  0.25500000920E-02 0. -1.
    10030    2    1    2    0    0  0.00000000000E+00  0.00000000000E+00  0.45935491204E+03  0.34311888877E+04  0.34003014937E+04 0.  0.
        3    1    3    3  502    0 -0.13345381610E+04  0.25356288652E+03 -0.80197250777E+03  0.15774809521E+04  0.10100000352E+00 0. -1.
       -3    1    3    3    0  502  0.13345381610E+04 -0.25356288652E+03  0.12613274198E+04  0.18537079357E+04  0.10100000352E+00 0.  1.
</event>
<event>
 5   0  0.1645631E-08  0.3397942E+04  0.7818609E-02  0.8138411E-01
       -1   -1    0    0    0  501  0.00000000000E+00  0.00000000000E+00  0.10493850973E+04  0.10493850973E+04  0.50400001928E-02 0.  1.
        1   -1    0    0  501    0  0.00000000000E+00  0.00000000000E+00 -0.27506615684E+04  0.27506615684E+04  0.50400001928E-02 0. -1.
    10030    2    1    2    0    0  0.00000000000E+00  0.00000000000E+00 -0.17012764712E+04  0.38000466657E+04  0.33979424701E+04 0.  0.
        4    1    3    3  502    0  0.37817865681E+03 -0.45492822581E+03 -0.26317546187E+04  0.26974270654E+04  0.12699999809E+01 0. -1.
       -4    1    3    3    0  502 -0.37817865681E+03  0.45492822581E+03  0.93047814752E+03  0.11026196003E+04  0.12699999809E+01 0.  1.
</event>
<event>
 5   0  0.1625282E-08  0.3399282E+04  0.7818609E-02  0.8138082E-01
       -1   -1    0    0    0  501  0.00000000000E+00  0.00000000000E+00  0.19747006921E+04  0.19747006921E+04  0.50400001928E-02 0. -1.
        1   -1    0    0  501    0  0.00000000000E+00  0.00000000000E+00 -0.14628951969E+04  0.14628951969E+04  0.50400001928E-02 0.  1.
    10030    2    1    2    0    0  0.00000000000E+00  0.00000000000E+00  0.51180549520E+03  0.34375958890E+04  0.33992823700E+04 0.  0.
        1    1    3    3  502    0 -0.53882997373E+03  0.13961718195E+04  0.10706801875E+04  0.18401058540E+04  0.50400001928E-02 0. -1.
       -1    1    3    3    0  502  0.53882997373E+03 -0.13961718195E+04 -0.55887469228E+03  0.15974900350E+04  0.50400001928E-02 0.  1.
</event>
<event>
 5   0  0.5001197E-08  0.3399579E+04  0.7818609E-02  0.8138010E-01
        2   -1    0    0  501    0  0.00000000000E+00  0.00000000000E+00  0.17520680824E+04  0.17520680824E+04  0.25500000920E-02 0.  1.
       -2   -1    0    0    0  501  0.00000000000E+00  0.00000000000E+00 -0.16490712452E+04  0.16490712452E+04  0.25500000920E-02 0. -1.
    10030    2    1    2    0    0  0.00000000000E+00  0.00000000000E+00  0.10299683718E+03  0.34011393276E+04  0.33995794412E+04 0.  0.
        5    1    3    3  502    0 -0.17065789546E+03  0.13295445933E+04 -0.99418452855E+03  0.16689032056E+04  0.46999998093E+01 0. -1.
       -5    1    3    3    0  502  0.17065789546E+03 -0.13295445933E+04  0.10971813657E+04  0.17322361220E+04  0.46999998093E+01 0.  1.
</event>
<event>
 5   0  0.1645631E-08  0.3399718E+04  0.7818609E-02  0.8137976E-01
        1   -1    0    0  501    0  0.00000000000E+00  0.00000000000E+00  0.25854724616E+04  0.25854724616E+04  0.50400001928E-02 0. -1.
       -1   -1    0    0    0  501  0.00000000000E+00  0.00000000000E+00 -0.11175985416E+04  0.11175985416E+04  0.50400001928E-02 0.  1.
    10030    2    1    2    0    0  0.00000000000E+00  0.00000000000E+00  0.14678739200E+04  0.37030710031E+04  0.33997177838E+04 0.  0.
        4    1    3    3  502    0  0.74885134537E+03 -0.13248246661E+04 -0.90991214181E+02  0.15245391918E+04  0.12699999809E+01 0.  1.
       -4    1    3    3    0  502 -0.74885134537E+03  0.13248246661E+04  0.15588651342E+04  0.21785318113E+04  0.12699999809E+01 0. -1.
</event>
<event>
 5   0  0.1625282E-08  0.3399824E+04  0.7818609E-02  0.8137950E-01
        1   -1    0    0  501    0  0.00000000000E+00  0.00000000000E+00  0.22551703887E+04  0.22551703887E+04  0.50400001928E-02 0. -1.
       -1   -1    0    0    0  501  0.00000000000E+00  0.00000000000E+00 -0.12813669503E+04  0.12813669503E+04  0.50400001928E-02 0.  1.
    10030    2    1    2    0    0  0.00000000000E+00  0.00000000000E+00  0.97380343836E+03  0.35365373390E+04  0.33998239974E+04 0.  0.
        1    1    3    3  502    0 -0.10349483902E+04  0.11889019912E+04  0.11489658922E+04  0.19505713872E+04  0.50400001928E-02 0. -1.
       -1    1    3    3    0  502  0.10349483902E+04 -0.11889019912E+04 -0.17516245382E+03  0.15859659518E+04  0.50400001928E-02 0.  1.
</event>
<event>
 5   0  0.4775023E-08  0.3400227E+04  0.7818609E-02  0.8137851E-01
       -2   -1    0    0    0  501  0.00000000000E+00  0.00000000000E+00  0.21911650947E+04  0.21911650947E+04  0.25500000920E-02 0.  1.
        2   -1    0    0  501    0  0.00000000000E+00  0.00000000000E+00 -0.13191094451E+04  0.13191094451E+04  0.25500000920E-02 0. -1.
    10030    2    1    2    0    0  0.00000000000E+00  0.00000000000E+00  0.87205564961E+03  0.35102745398E+04  0.34002273878E+04 0.  0.
        4    1    3    3  502    0 -0.72357293022E+02  0.11782558709E+04 -0.82703244627E+03  0.14413558739E+04  0.12699999809E+01 0. -1.
       -4    1    3    3    0  502  0.72357293022E+02 -0.11782558709E+04  0.16990880959E+04  0.20689186658E+04  0.12699999809E+01 0.  1.
</event>
<event>
 5   0  0.1630571E-08  0.3398065E+04  0.7818609E-02  0.8138381E-01
       -1   -1    0    0    0  501  0.00000000000E+00  0.00000000000E+00  0.11394219624E+04  0.11394219625E+04  0.50400001928E-02 0.  1.
        1   -1    0    0  501    0  0.00000000000E+00  0.00000000000E+00 -0.25334872058E+04  0.25334872058E+04  0.50400001928E-02 0. -1.
    10030    2    1    2    0    0  0.00000000000E+00  0.00000000000E+00 -0.13940652434E+04  0.36729091683E+04  0.33980647221E+04 0.  0.
        3    1    3    3  502    0  0.49604189354E+03  0.16184254767E+04 -0.85497605822E+03  0.18964025560E+04  0.10100000352E+00 0. -1.
       -3    1    3    3    0  502 -0.49604189354E+03 -0.16184254767E+04 -0.53908918516E+03  0.17765066123E+04  0.10100000352E+00 0.  1.
</event>
<event>
 5   0  0.1625282E-08  0.3400771E+04  0.7818609E-02  0.8137717E-01
       -1   -1    0    0    0  501  0.00000000000E+00  0.00000000000E+00  0.11711159857E+04  0.11711159857E+04  0.50400001928E-02 0.  1.
        1   -1    0    0  501    0  0.00000000000E+00  0.00000000000E+00 -0.24688516091E+04  0.24688516091E+04  0.50400001928E-02 0. -1.
    10030    2    1    2    0    0  0.00000000000E+00  0.00000000000E+00 -0.12977356234E+04  0.36399675948E+04  0.34007714335E+04 0.  0.
        1    1    3    3  502    0  0.97123859376E+03  0.43283357535E+03 -0.20690959176E+04  0.23263291311E+04  0.50400001928E-02 0. -1.
       -1    1    3    3    0  502 -0.97123859376E+03 -0.43283357535E+03  0.77136029417E+03  0.13136384637E+04  0.50400001928E-02 0.  1.
</event>
<event>
 5   0  0.1625282E-08  0.3398287E+04  0.7818609E-02  0.8138327E-01
       -1   -1    0    0    0  501  0.00000000000E+00  0.00000000000E+00  0.14487815304E+04  0.14487815304E+04  0.50400001928E-02 0. -1.
        1   -1    0    0  501    0  0.00000000000E+00  0.00000000000E+00 -0.19927703401E+04  0.19927703401E+04  0.50400001928E-02 0.  1.
    10030    2    1    2    0    0  0.00000000000E+00  0.00000000000E+00 -0.54398880974E+03  0.34415518705E+04  0.33982871351E+04 0.  0.
        1    1    3    3  502    0  0.50304746311E+03 -0.11407993903E+04 -0.14410780824E+04  0.19055671173E+04  0.50400001928E-02 0.  1.
       -1    1    3    3    0  502 -0.50304746311E+03  0.11407993903E+04  0.89708927263E+03  0.15359847532E+04  0.50400001928E-02 0. -1.
</event>
<event>
 5   0  0.1579536E-08  0.3400113E+04  0.7818609E-02  0.8137879E-01
        1   -1    0    0  501    0  0.00000000000E+00  0.00000000000E+00  0.11031146669E+04  0.11031146669E+04  0.50400001928E-02 0. -1.
       -1   -1    0    0    0  501  0.00000000000E+00  0.00000000000E+00 -0.26200289116E+04  0.26200289116E+04  0.50400001928E-02 0.  1.
    10030    2    1    2    0    0  0.00000000000E+00  0.00000000000E+00 -0.15169142447E+04  0.37231435785E+04  0.34001131276E+04 0.  0.
        5    1    3    3  502    0 -0.57623390616E+03 -0.27836161219E+03  0.96618205520E+03  0.11589048950E+04  0.46999998093E+01 0. -1.
       -5    1    3    3    0  502  0.57623390616E+03  0.27836161219E+03 -0.24830962999E+04  0.25642386836E+04  0.46999998093E+01 0.  1.
</event>
<event>
 5   0  0.1579536E-08  0.3407059E+04  0.7818609E-02  0.8136176E-01
       -1   -1    0    0    0  501  0.00000000000E+00  0.00000000000E+00  0.11783040289E+04  0.11783040290E+04  0.50400001928E-02 0. -1.
        1   -1    0    0  501    0  0.00000000000E+00  0.00000000000E+00 -0.24628721776E+04  0.24628721776E+04  0.50400001928E-02 0.  1.
    10030    2    1    2    0    0  0.00000000000E+00  0.00000000000E+00 -0.12845681487E+04  0.36411762066E+04  0.34070586785E+04 0.  0.
        5    1    3    3  502    0  0.89753717824E+03  0.11179193779E+04  0.34109291137E+03  0.14736631861E+04  0.46999998093E+01 0. -1.
       -5    1    3    3    0  502 -0.89753717824E+03 -0.11179193779E+04 -0.16256610601E+04  0.21675130205E+04  0.46999998093E+01 0.  1.
</event>
<event>
 5   0  0.1595851E-08  0.3401206E+04  0.7818609E-02  0.8137610E-01
        1   -1    0    0  501    0  0.00000000000E+00  0.00000000000E+00  0.29635970343E+04  0.29635970343E+04  0.50400001928E-02 0.  1.
       -1   -1    0    0    0  501  0.00000000000E+00  0.00000000000E+00 -0.97585844198E+03  0.97585844200E+03  0.50400001928E-02 0. -1.
    10030    2    1    2    0    0  0.00000000000E+00  0.00000000000E+00  0.19877385923E+04  0.39394554763E+04  0.34012063651E+04 0.  0.
        2    1    3    3  502    0  0.76939876101E+03  0.78364272522E+03  0.24978058906E+04  0.27285719051E+04  0.25500000920E-02 0.  1.
       -2    1    3    3    0  502 -0.76939876101E+03 -0.78364272522E+03 -0.51006729827E+03  0.12108835712E+04  0.25500000920E-02 0. -1.
</event>
<event>
 5   0  0.1595851E-08  0.3400260E+04  0.7818609E-02  0.8137842E-01
        1   -1    0    0  501    0  0.00000000000E+00  0.00000000000E+00  0.28284528692E+04  0.28284528692E+04  0.50400001928E-02 0. -1.
       -1   -1    0    0    0  501  0.00000000000E+00  0.00000000000E+00 -0.10219165158E+04  0.10219165158E+04  0.50400001928E-02 0.  1.
    10030    2    1    2    0    0  0.00000000000E+00  0.00000000000E+00  0.18065363534E+04  0.38503693851E+04  0.34002604026E+04 0.  0.
        2    1    3    3  502    0 -0.12401271408E+04  0.68276802947E+03 -0.16282242449E+03  0.14249907541E+04  0.25500000920E-02 0.  1.
       -2    1    3    3    0  502  0.12401271408E+04 -0.68276802947E+03  0.19693587779E+04  0.24253786309E+04  0.25500000920E-02 0. -1.
</event>
<event>
 5   0  0.1595851E-08  0.3400521E+04  0.7818609E-02  0.8137778E-01
        1   -1    0    0  501    0  0.00000000000E+00  0.00000000000E+00  0.15608660073E+04  0.15608660073E+04  0.50400001928E-02 0. -1.
       -1   -1    0    0    0  501  0.00000000000E+00  0.00000000000E+00 -0.18521040605E+04  0.18521040605E+04  0.50400001928E-02 0.  1.
    10030    2    1    2    0    0  0.00000000000E+00  0.00000000000E+00 -0.29123805323E+03  0.34129700678E+04  0.34005212953E+04 0.  0.
        2    1    3    3  502    0 -0.74395473731E+03 -0.97466758655E+03 -0.13278278543E+04  0.18073661406E+04  0.25500000920E-02 0.  1.
       -2    1    3    3    0  502  0.74395473731E+03  0.97466758655E+03  0.10365898011E+04  0.16056039272E+04  0.25500000920E-02 0. -1.
</event>
<event>
 5   0  0.5001197E-08  0.3400179E+04  0.7818609E-02  0.8137862E-01
       -2   -1    0    0    0  501  0.00000000000E+00  0.00000000000E+00  0.12885225278E+04  0.12885225278E+04  0.25500000920E-02 0.  1.
        2   -1    0    0  501    0  0.00000000000E+00  0.00000000000E+00 -0.22431149440E+04  0.22431149440E+04  0.25500000920E-02 0. -1.
    10030    2    1    2    0    0  0.00000000000E+00  0.00000000000E+00 -0.95459241626E+03  0.35316374718E+04  0.34001788999E+04 0.  0.
        5    1    3    3  502    0  0.16817496362E+04  0.22597534974E+03 -0.36868098514E+03  0.17364603238E+04  0.46999998093E+01 0. -1.
       -5    1    3    3    0  502 -0.16817496362E+04 -0.22597534974E+03 -0.58591143111E+03  0.17951771480E+04  0.46999998093E+01 0.  1.
</event>
<event>
 5   0  0.1625282E-08  0.3401927E+04  0.7818609E-02  0.8137434E-01
        1   -1    0    0  501    0  0.00000000000E+00  0.00000000000E+00  0.15726326926E+04  0.15726326926E+04  0.50400001928E-02 0.  1.
       -1   -1    0    0    0  501  0.00000000000E+00  0.00000000000E+00 -0.18397663720E+04  0.18397663720E+04  0.50400001928E-02 0. -1.
    10030    2    1    2    0    0  0.00000000000E+00  0.00000000000E+00 -0.26713367945E+03  0.34123990646E+04  0.34019269500E+04 0.  0.
        1    1    3    3  502    0 -0.87335655604E+03 -0.10006724507E+04  0.93233292054E+03  0.16227574379E+04  0.50400001928E-02 0.  1.
       -1    1    3    3    0  502  0.87335655604E+03  0.10006724507E+04 -0.11994666000E+04  0.17896416267E+04  0.50400001928E-02 0. -1.
</event>
<event>
 5   0  0.1573625E-08  0.3399958E+04  0.7818609E-02  0.8137917E-01
        3   -1    0    0  501    0  0.00000000000E+00  0.00000000000E+00  0.17719481306E+04  0.17719481335E+04  0.10100000352E+00 0.  1.
       -3   -1    0    0    0  501  0.00000000000E+00  0.00000000000E+00 -0.16309333956E+04  0.16309333987E+04  0.10100000352E+00 0. -1.
    10030    2    1    2    0    0  0.00000000000E+00  0.00000000000E+00  0.14101473499E+03  0.34028815322E+04  0.33999584654E+04 0.  0.
        3    1    3    3  502    0 -0.15839362715E+04  0.50644795276E+03 -0.28276314398E+03  0.16868013062E+04  0.10100000352E+00 0.  1.
       -3    1    3    3    0  502  0.15839362715E+04 -0.50644795276E+03  0.42377787898E+03  0.17160802259E+04  0.10100000352E+00 0. -1.
</event>
<event>
 5   0  0.4946315E-08  0.3405206E+04  0.7818609E-02  0.8136630E-01
       -2   -1    0    0    0  501  0.00000000000E+00  0.00000000000E+00  0.16832482165E+04  0.16832482165E+04  0.25500000920E-02 0.  1.
        2   -1    0    0  501    0  0.00000000000E+00  0.00000000000E+00 -0.17221799721E+04  0.17221799721E+04  0.25500000920E-02 0. -1.
    10030    2    1    2    0    0  0.00000000000E+00  0.00000000000E+00 -0.38931755637E+02  0.34054281886E+04  0.34052056423E+04 0.  0.
        3    1    3    3  502    0 -0.15742169495E+04 -0.62545945754E+03 -0.19122639461E+03  0.17046777060E+04  0.10100000352E+00 0. -1.
       -3    1    3    3    0  502  0.15742169495E+04  0.62545945754E+03  0.15229463897E+03  0.17007504827E+04  0.10100000352E+00 0.  1.
</event>
<event>
 5   0  0.1645631E-08  0.3399400E+04  0.7818609E-02  0.8138054E-01
       -1   -1    0    0    0  501  0.00000000000E+00  0.00000000000E+00  0.17841985174E+04  0.17841985174E+04  0.50400001928E-02 0.  1.
        1   -1    0    0  501    0  0.00000000000E+00  0.00000000000E+00 -0.16192035593E+04  0.16192035593E+04  0.50400001928E-02 0. -1.
    10030    2    1    2    0    0  0.00000000000E+00  0.00000000000E+00  0.16499495815E+03  0.34034020767E+04  0.33994002941E+04 0.  0.
        4    1    3    3  502    0 -0.60027842169E+03  0.12033088022E+04 -0.95829001411E+03  0.16512442645E+04  0.12699999809E+01 0. -1.
       -4    1    3    3    0  502  0.60027842169E+03 -0.12033088022E+04  0.11232849723E+04  0.17521578122E+04  0.12699999809E+01 0.  1.
</event>
<event>
 5   0  0.4775023E-08  0.3400293E+04  0.7818609E-02  0.8137834E-01
       -2   -1    0    0    0  501  0.00000000000E+00  0.00000000000E+00  0.12461011681E+04  0.12461011681E+04  0.25500000920E-02 0. -1.
        2   -1    0    0  501    0  0.00000000000E+00  0.00000000000E+00 -0.23196335000E+04  0.23196335000E+04  0.25500000920E-02 0.  1.
    10030    2    1    2    0    0  0.00000000000E+00  0.00000000000E+00 -0.10735323318E+04  0.35657346681E+04  0.34002929368E+04 0.  0.
        4    1    3    3  502    0  0.12775800719E+04  0.10566571308E+04 -0.14193494567E+03  0.16639958756E+04  0.12699999809E+01 0.  1.
       -4    1    3    3    0  502 -0.12775800719E+04 -0.10566571308E+04 -0.93159738616E+03  0.19017387925E+04  0.12699999809E+01 0. -1.
</event>
<event>
 5   0  0.4973409E-08  0.3401174E+04  0.7818609E-02  0.8137618E-01
       -2   -1    0    0    0  501  0.00000000000E+00  0.00000000000E+00  0.11443313891E+04  0.11443313891E+04  0.25500000920E-02 0. -1.
        2   -1    0    0  501    0  0.00000000000E+00  0.00000000000E+00 -0.25272365355E+04  0.25272365355E+04  0.25500000920E-02 0.  1.
    10030    2    1    2    0    0  0.00000000000E+00  0.00000000000E+00 -0.13829051464E+04  0.36715679246E+04  0.34011739710E+04 0.  0.
        1    1    3    3  502    0 -0.11723752306E+04 -0.40635427896E+02  0.63764021144E+03  0.13351778753E+04  0.50400001928E-02 0. -1.
       -1    1    3    3    0  502  0.11723752306E+04  0.40635427896E+02 -0.20205453579E+04  0.23363900493E+04  0.50400001928E-02 0.  1.
</event>
<event>
 5   0  0.1630571E-08  0.3399154E+04  0.7818609E-02  0.8138114E-01
        1   -1    0    0  501    0  0.00000000000E+00  0.00000000000E+00  0.23572914819E+04  0.23572914819E+04  0.50400001928E-02 0.  1.
       -1   -1    0    0    0  501  0.00000000000E+00  0.00000000000E+00 -0.12253730106E+04  0.12253730106E+04  0.50400001928E-02 0. -1.
    10030    2    1    2    0    0  0.00000000000E+00  0.00000000000E+00  0.11319184713E+04  0.35826644925E+04  0.33991536358E+04 0.  0.
        3    1    3    3  502    0  0.18074929238E+02  0.13243775668E+04 -0.55655383340E+03  0.14366818792E+04  0.10100000352E+00 0. -1.
       -3    1    3    3    0  502 -0.18074929238E+02 -0.13243775668E+04  0.16884723047E+04  0.21459826132E+04  0.10100000352E+00 0.  1.
</event>
<event>
 5   0  0.4946315E-08  0.3398601E+04  0.7818609E-02  0.8138250E-01
       -2   -1    0    0    0  501  0.00000000000E+00  0.00000000000E+00  0.17576682783E+04  0.17576682783E+04  0.25500000920E-02 0. -1.
        2   -1    0    0  501    0  0.00000000000E+00  0.00000000000E+00 -0.16428712312E+04  0.16428712312E+04  0.25500000920E-02 0.  1.
    10030    2    1    2    0    0  0.00000000000E+00  0.00000000000E+00  0.11479704705E+03  0.34005395095E+04  0.33986012702E+04 0.  0.
        3    1    3    3  502    0 -0.79391126004E+03  0.71331450721E+03  0.13804649995E+04  0.17449344687E+04  0.10100000352E+00 0. -1.
       -3    1    3    3    0  502  0.79391126004E+03 -0.71331450721E+03 -0.12656679525E+04  0.16556050408E+04  0.10100000352E+00 0.  1.
</event>
<event>
 5   0  0.1645631E-08  0.3403158E+04  0.7818609E-02  0.8137132E-01
       -1   -1    0    0    0  501  0.00000000000E+00  0.00000000000E+00  0.19808933618E+04  0.19808933618E+04  0.50400001928E-02 0.  1.
        1   -1    0    0  501    0  0.00000000000E+00  0.00000000000E+00 -0.14616489541E+04  0.14616489541E+04  0.50400001928E-02 0. -1.
    10030    2    1    2    0    0  0.00000000000E+00  0.00000000000E+00  0.51924440773E+03  0.34425423160E+04  0.34031577751E+04 0.  0.
        4    1    3    3  502    0  0.51268632691E+03 -0.77159895502E+03 -0.11841857860E+04  0.15034991872E+04  0.12699999809E+01 0. -1.
       -4    1    3    3    0  502 -0.51268632691E+03  0.77159895502E+03  0.17034301938E+04  0.19390431288E+04  0.12699999809E+01 0.  1.
</event>
<event>
 5   0  0.4764953E-08  0.3401548E+04  0.7818609E-02  0.8137526E-01
       -2   -1    0    0    0  501  0.00000000000E+00  0.00000000000E+00  0.15019372005E+04  0.15019372005E+04  0.25500000920E-02 0. -1.
        2   -1    0    0  501    0  0.00000000000E+00  0.00000000000E+00 -0.19259343620E+04  0.19259343620E+04  0.25500000920E-02 0.  1.
    10030    2    1    2    0    0  0.00000000000E+00  0.00000000000E+00 -0.42399716149E+03  0.34278715625E+04  0.34015481558E+04 0.  0.
        2    1    3    3  502    0 -0.70541013109E+02  0.12632489617E+04  0.93339669995E+03  0.15722605933E+04  0.25500000920E-02 0. -1.
       -2    1    3    3    0  502  0.70541013109E+02 -0.12632489617E+04 -0.13573938614E+04  0.18556109692E+04  0.25500000920E-02 0.  1.
</event>
<event>
 5   0  0.1645631E-08  0.3400113E+04  0.7818609E-02  0.8137879E-01
        1   -1    0    0  501    0  0.00000000000E+00  0.00000000000E+00  0.15172567815E+04  0.15172567815E+04  0.50400001928E-02 0.  1.
       -1   -1    0    0    0  501  0.00000000000E+00  0.00000000000E+00 -0.19048800492E+04  0.19048800492E+04  0.50400001928E-02 0. -1.
    10030    2    1    2    0    0  0.00000000000E+00  0.00000000000E+00 -0.38762326773E+03  0.34221368308E+04  0.34001130409E+04 0.  0.
        4    1    3    3  502    0  0.88595478193E+03  0.36025991153E+03 -0.16084360684E+04  0.18713020276E+04  0.12699999809E+01 0. -1.
       -4    1    3    3    0  502 -0.88595478193E+03 -0.36025991153E+03  0.12208128007E+04  0.15508348032E+04  0.12699999809E+01 0.  1.
</event>
<event>
 5   0  0.1645631E-08  0.3401066E+04  0.7818609E-02  0.8137645E-01
       -1   -1    0    0    0  501  0.00000000000E+00  0.00000000000E+00  0.19448627220E+04  0.19448627220E+04  0.50400001928E-02 0. -1.
        1   -1    0    0  501    0  0.00000000000E+00  0.00000000000E+00 -0.14868980243E+04  0.14868980243E+04  0.50400001928E-02 0.  1.
    10030    2    1    2    0    0  0.00000000000E+00  0.00000000000E+00  0.45796469777E+03  0.34317607463E+04  0.34010660322E+04 0.  0.
        4    1    3    3  502    0 -0.79293364996E+03  0.13062166683E+04 -0.52398642349E+03  0.16153975185E+04  0.12699999809E+01 0.  1.
       -4    1    3    3    0  502  0.79293364996E+03 -0.13062166683E+04  0.98195112126E+03  0.18163632278E+04  0.12699999809E+01 0. -1.
</event>
<event>
 5   0  0.1595851E-08  0.3399416E+04  0.7818609E-02  0.8138050E-01
        1   -1    0    0  501    0  0.00000000000E+00  0.00000000000E+00  0.19937875586E+04  0.19937875586E+04  0.50400001928E-02 0. -1.
       -1   -1    0    0    0  501  0.00000000000E+00  0.00000000000E+00 -0.14490047159E+04  0.14490047159E+04  0.50400001928E-02 0.  1.
    10030    2    1    2    0    0  0.00000000000E+00  0.00000000000E+00  0.54478284269E+03  0.34427922745E+04  0.33994161704E+04 0.  0.
        2    1    3    3  502    0  0.13760995270E+04  0.89718415574E+03  0.71432884230E+03  0.17913277234E+04  0.25500000920E-02 0.  1.
       -2    1    3    3    0  502 -0.13760995270E+04 -0.89718415574E+03 -0.16954599961E+03  0.16514645511E+04  0.25500000920E-02 0. -1.
</event>
<event>
 5   0  0.4764953E-08  0.3399401E+04  0.7818609E-02  0.8138053E-01
       -2   -1    0    0    0  501  0.00000000000E+00  0.00000000000E+00  0.27927582194E+04  0.27927582194E+04  0.25500000920E-02 0. -1.
        2   -1    0    0  501    0  0.00000000000E+00  0.00000000000E+00 -0.10344545895E+04  0.10344545895E+04  0.25500000920E-02 0.  1.
    10030    2    1    2    0    0  0.00000000000E+00  0.00000000000E+00  0.17583036299E+04  0.38272128089E+04  0.33994008633E+04 0.  0.
        2    1    3    3  502    0 -0.11269525296E+03 -0.14832572315E+04  0.18049732475E+04  0.23389486226E+04  0.25500000920E-02 0. -1.
       -2    1    3    3    0  502  0.11269525296E+03  0.14832572315E+04 -0.46669617663E+02  0.14882641863E+04  0.25500000920E-02 0.  1.
</event>
<event>
 5   0  0.4973409E-08  0.3400404E+04  0.7818609E-02  0.8137807E-01
       -2   -1    0    0    0  501  0.00000000000E+00  0.00000000000E+00  0.15936952793E+04  0.15936952793E+04  0.25500000920E-02 0.  1.
        2   -1    0    0  501    0  0.00000000000E+00  0.00000000000E+00 -0.18138264700E+04  0.18138264700E+04  0.25500000920E-02 0. -1.
    10030    2    1    2    0    0  0.00000000000E+00  0.00000000000E+00 -0.22013119077E+03  0.34075217493E+04  0.34004039070E+04 0.  0.
        1    1    3    3  502    0  0.51895242320E+03  0.13272168773E+04  0.81916742924E+03  0.16437309798E+04  0.50400001928E-02 0.  1.
       -1    1    3    3    0  502 -0.51895242320E+03 -0.13272168773E+04 -0.10392986200E+04  0.17637907695E+04  0.50400001928E-02 0. -1.
</event>
<event>
 5   0  0.5001197E-08  0.3400239E+04  0.7818609E-02  0.8137848E-01
        2   -1    0    0  501    0  0.00000000000E+00  0.00000000000E+00  0.15785876129E+04  0.15785876129E+04  0.25500000920E-02 0. -1.
       -2   -1    0    0    0  501  0.00000000000E+00  0.00000000000E+00 -0.18310074717E+04  0.18310074717E+04  0.25500000920E-02 0.  1.
    10030    2    1    2    0    0  0.00000000000E+00  0.00000000000E+00 -0.25241985881E+03  0.34095950847E+04  0.34002386470E+04 0.  0.
        5    1    3    3  502    0 -0.12260836620E+04 -0.28808697070E+03  0.10189080909E+04  0.16200219248E+04  0.46999998093E+01 0. -1.
       -5    1    3    3    0  502  0.12260836620E+04  0.28808697070E+03 -0.12713279497E+04  0.17895731599E+04  0.46999998093E+01 0.  1.
</event>
<event>
 5   0  0.4973409E-08  0.3397932E+04  0.7818609E-02  0.8138414E-01
       -2   -1    0    0    0  501  0.00000000000E+00  0.00000000000E+00  0.15941086768E+04  0.15941086768E+04  0.25500000920E-02 0.  1.
        2   -1    0    0  501    0  0.00000000000E+00  0.00000000000E+00 -0.18107204589E+04  0.18107204589E+04  0.25500000920E-02 0. -1.
    10030    2    1    2    0    0  0.00000000000E+00  0.00000000000E+00 -0.21661178210E+03  0.34048291357E+04  0.33979318385E+04 0.  0.
        1    1    3    3  502    0 -0.95841826889E+03 -0.11158491584E+03 -0.15095250393E+04  0.17915587113E+04  0.50400001928E-02 0. -1.
       -1    1    3    3    0  502  0.95841826889E+03  0.11158491584E+03  0.12929132572E+04  0.16132704244E+04  0.50400001928E-02 0.  1.
</event>
<event>
 5   0  0.1625282E-08  0.3399873E+04  0.7818609E-02  0.8137937E-01
        1   -1    0    0  501    0  0.00000000000E+00  0.00000000000E+00  0.25241110664E+04  0.25241110664E+04  0.50400001928E-02 0.  1.
       -1   -1    0    0    0  501  0.00000000000E+00  0.00000000000E+00 -0.11448721845E+04  0.11448721845E+04  0.50400001928E-02 0. -1.
    10030    2    1    2    0    0  0.00000000000E+00  0.00000000000E+00  0.13792388819E+04  0.36689832508E+04  0.33998732626E+04 0.  0.
        1    1    3    3  502    0  0.14863835362E+04 -0.62599652754E+03  0.10990546728E+03  0.16165663861E+04  0.50400001928E-02 0. -1.
       -1    1    3    3    0  502 -0.14863835362E+04  0.62599652754E+03  0.12693334146E+04  0.20524168647E+04  0.50400001928E-02 0.  1.
</event>
<event>
 5   0  0.5001197E-08  0.3400591E+04  0.7818609E-02  0.8137761E-01
        2   -1    0    0  501    0  0.00000000000E+00  0.00000000000E+00  0.22377021608E+04  0.22377021608E+04  0.25500000920E-02 0. -1.
       -2   -1    0    0    0  501  0.00000000000E+00  0.00000000000E+00 -0.12919526499E+04  0.12919526499E+04  0.25500000920E-02 0.  1.
    10030    2    1    2    0    0  0.00000000000E+00  0.00000000000E+00  0.94574951094E+03  0.35296548107E+04  0.34005912640E+04 0.  0.
        5    1    3    3  502    0  0.29072331955E+03  0.41661240419E+03  0.21570789767E+04  0.22160996696E+04  0.46999998093E+01 0. -1.
       -5    1    3    3    0  502 -0.29072331955E+03 -0.41661240419E+03 -0.12113294658E+04  0.13135551410E+04  0.46999998093E+01 0.  1.
</event>
<event>
 5   0  0.4775023E-08  0.3406697E+04  0.7818609E-02  0.8136265E-01
        2   -1    0    0  501    0  0.00000000000E+00  0.00000000000E+00  0.14170117764E+04  0.14170117764E+04  0.25500000920E-02 0. -1.
       -2   -1    0    0    0  501  0.00000000000E+00  0.00000000000E+00 -0.20475454189E+04  0.20475454189E+04  0.25500000920E-02 0.  1.
    10030    2    1    2    0    0  0.00000000000E+00  0.00000000000E+00 -0.63053364249E+03  0.34645571953E+04  0.34066969171E+04 0.  0.
        4    1    3    3  502    0 -0.17848606276E+03  0.16660056948E+04 -0.35281963510E+01  0.16755435866E+04  0.12699999809E+01 0. -1.
       -4    1    3    3    0  502  0.17848606276E+03 -0.16660056948E+04 -0.62700544613E+03  0.17890136087E+04  0.12699999809E+01 0.  1.
</event>
<event>
 5   0  0.4775023E-08  0.3400300E+04  0.7818609E-02  0.8137833E-01
       -2   -1    0    0    0  501  0.00000000000E+00  0.00000000000E+00  0.15590937465E+04  0.15590937465E+04  0.25500000920E-02 0. -1.
        2   -1    0    0  501    0  0.00000000000E+00  0.00000000000E+00 -0.18539685418E+04  0.18539685418E+04  0.25500000920E-02 0.  1.
    10030    2    1    2    0    0  0.00000000000E+00  0.00000000000E+00 -0.29487479527E+03  0.34130622883E+04  0.34003004337E+04 0.  0.
        4    1    3    3  502    0  0.11456040231E+04 -0.12559322391E+04 -0.17464595500E+03  0.17088818536E+04  0.12699999809E+01 0.  1.
       -4    1    3    3    0  502 -0.11456040231E+04  0.12559322391E+04 -0.12022884028E+03  0.17041804347E+04  0.12699999809E+01 0. -1.
</event>
<event>
 5   0  0.1595851E-08  0.3399953E+04  0.7818609E-02  0.8137918E-01
        1   -1    0    0  501    0  0.00000000000E+00  0.00000000000E+00  0.20802373894E+04  0.20802373894E+04  0.50400001928E-02 0. -1.
       -1   -1    0    0    0  501  0.00000000000E+00  0.00000000000E+00 -0.13892259196E+04  0.13892259196E+04  0.50400001928E-02 0.  1.
    10030    2    1    2    0    0  0.00000000000E+00  0.00000000000E+00  0.69101146977E+03  0.34694633090E+04  0.33999527645E+04 0.  0.
        2    1    3    3  502    0  0.11402069785E+04 -0.10402218934E+04  0.10726655072E+04  0.18795597441E+04  0.25500000920E-02 0.  1.
       -2    1    3    3    0  502 -0.11402069785E+04  0.10402218934E+04 -0.38165403745E+03  0.15899035649E+04  0.25500000920E-02 0. -1.
</event>
<event>
 5   0  0.1630571E-08  0.3400074E+04  0.7818609E-02  0.8137888E-01
       -1   -1    0    0    0  501  0.00000000000E+00  0.00000000000E+00  0.29889848683E+04  0.29889848683E+04  0.50400001928E-02 0.  1.
        1   -1    0    0  501    0  0.00000000000E+00  0.00000000000E+00 -0.96692569090E+03  0.96692569091E+03  0.50400001928E-02 0. -1.
    10030    2    1    2    0    0  0.00000000000E+00  0.00000000000E+00  0.20220591774E+04  0.39559105592E+04  0.34000742691E+04 0.  0.
        3    1    3    3  502    0  0.13214935777E+04  0.90050772022E+03  0.16822935212E+04  0.23210710743E+04  0.10100000352E+00 0.  1.
       -3    1    3    3    0  502 -0.13214935777E+04 -0.90050772022E+03  0.33976565618E+03  0.16348394849E+04  0.10100000352E+00 0. -1.
</event>
<event>
 5   0  0.1579536E-08  0.3402128E+04  0.7818609E-02  0.8137384E-01
       -1   -1    0    0    0  501  0.00000000000E+00  0.00000000000E+00  0.10356884347E+04  0.10356884347E+04  0.50400001928E-02 0. -1.
        1   -1    0    0  501    0  0.00000000000E+00  0.00000000000E+00 -0.27939082652E+04  0.27939082652E+04  0.50400001928E-02 0.  1.
    10030    2    1    2    0    0  0.00000000000E+00  0.00000000000E+00 -0.17582198305E+04  0.38295966999E+04  0.34021278505E+04 0.  0.
        5    1    3    3  502    0  0.16838974382E+04 -0.22774916639E+03 -0.96785865652E+03  0.19555441018E+04  0.46999998093E+01 0.  1.
       -5    1    3    3    0  502 -0.16838974382E+04  0.22774916639E+03 -0.79036117394E+03  0.18740525981E+04  0.46999998093E+01 0. -1.
</event>
<event>
 5   0  0.4775023E-08  0.3400735E+04  0.7818609E-02  0.8137726E-01
       -2   -1    0    0    0  501  0.00000000000E+00  0.00000000000E+00  0.11717295767E+04  0.11717295767E+04  0.25500000920E-02 0.  1.
        2   -1    0    0  501    0  0.00000000000E+00  0.00000000000E+00 -0.24675053787E+04  0.24675053787E+04  0.25500000920E-02 0. -1.
    10030    2    1    2    0    0  0.00000000000E+00  0.00000000000E+00 -0.12957758020E+04  0.36392349553E+04  0.34007346458E+04 0.  0.
        4    1    3    3  502    0  0.92760079061E+03 -0.14222282622E+04 -0.74402699822E+03  0.18538484953E+04  0.12699999809E+01 0.  1.
       -4    1    3    3    0  502 -0.92760079061E+03  0.14222282622E+04 -0.55174880378E+03  0.17853864601E+04  0.12699999809E+01 0. -1.
</event>
<event>
 5   0  0.5001197E-08  0.3399280E+04  0.7818609E-02  0.8138083E-01
       -2   -1    0    0    0  501  0.00000000000E+00  0.00000000000E+00  0.18784543526E+04  0.18784543526E+04  0.25500000920E-02 0.  1.
        2   -1    0    0  501    0  0.00000000000E+00  0.00000000000E+00 -0.15378469751E+04  0.15378469751E+04  0.25500000920E-02 0. -1.
    10030    2    1    2    0    0  0.00000000000E+00  0.00000000000E+00  0.34060737752E+03  0.34163013277E+04  0.33992795378E+04 0.  0.
        5    1    3    3  502    0 -0.41039766992E+03 -0.18557736442E+03 -0.14767708097E+04  0.15439363070E+04  0.46999998093E+01 0. -1.
       -5    1    3    3    0  502  0.41039766992E+03  0.18557736442E+03  0.18173781872E+04  0.18723650207E+04  0.46999998093E+01 0.  1.
</event>
<event>
 5   0  0.4973409E-08  0.3399983E+04  0.7818609E-02  0.8137910E-01
       -2   -1    0    0    0  501  0.00000000000E+00  0.00000000000E+00  0.30221983279E+04  0.30221983279E+04  0.25500000920E-02 0.  1.
        2   -1    0    0  501    0  0.00000000000E+00  0.00000000000E+00 -0.95624817893E+03  0.95624817894E+03  0.25500000920E-02 0. -1.
    10030    2    1    2    0    0  0.00000000000E+00  0.00000000000E+00  0.20659501489E+04  0.39784465068E+04  0.33999833220E+04 0.  0.
        1    1    3    3  502    0 -0.15490417272E+04  0.19598286384E+02  0.21383125301E+03  0.15638536281E+04  0.50400001928E-02 0. -1.
       -1    1    3    3    0  502  0.15490417272E+04 -0.19598286384E+02  0.18521188959E+04  0.24145928787E+04  0.50400001928E-02 0.  1.
</event>
<event>
 5   0  0.4973409E-08  0.3399912E+04  0.7818609E-02  0.8137928E-01
        2   -1    0    0  501    0  0.00000000000E+00  0.00000000000E+00  0.26956213320E+04  0.26956213320E+04  0.25500000920E-02 0.  1.
       -2   -1    0    0    0  501  0.00000000000E+00  0.00000000000E+00 -0.10720537427E+04  0.10720537427E+04  0.25500000920E-02 0. -1.
    10030    2    1    2    0    0  0.00000000000E+00  0.00000000000E+00  0.16235675893E+04  0.37676750748E+04  0.33999123153E+04 0.  0.
        1    1    3    3  502    0 -0.65412219252E+03 -0.68316723126E+03 -0.75354370692E+03  0.12093061758E+04  0.50400001928E-02 0. -1.
       -1    1    3    3    0  502  0.65412219252E+03  0.68316723126E+03  0.23771112962E+04  0.25583688989E+04  0.50400001928E-02 0.  1.
</event>
<event>
 5   0  0.1573625E-08  0.3400933E+04  0.7818609E-02  0.8137677E-01
       -3   -1    0    0    0  501  0.00000000000E+00  0.00000000000E+00  0.10081360062E+04  0.10081360113E+04  0.10100000352E+00 0.  1.
        3   -1    0    0  501    0  0.00000000000E+00  0.00000000000E+00 -0.28682495140E+04  0.28682495158E+04  0.10100000352E+00 0. -1.
    10030    2    1    2    0    0  0.00000000000E+00  0.00000000000E+00 -0.18601135078E+04  0.38763855271E+04  0.34009325916E+04 0.  0.
        2    1    3    3  502    0 -0.95492944106E+03  0.11131088315E+04  0.50890045944E+02  0.14674778720E+04  0.25500000920E-02 0.  1.
       -2    1    3    3    0  502  0.95492944106E+03 -0.11131088315E+04 -0.19110035537E+04  0.24089076550E+04  0.25500000920E-02 0. -1.
</event>
<event>
 5   0  0.1573625E-08  0.3402434E+04  0.7818609E-02  0.8137309E-01
       -3   -1    0    0    0  501  0.00000000000E+00  0.00000000000E+00  0.15370498128E+04  0.15370498161E+04  0.10100000352E+00 0.  1.
        3   -1    0    0  501    0  0.00000000000E+00  0.00000000000E+00 -0.18829180805E+04  0.18829180832E+04  0.10100000352E+00 0. -1.
    10030    2    1    2    0    0  0.00000000000E+00  0.00000000000E+00 -0.34586826769E+03  0.34199678993E+04  0.34024337721E+04 0.  0.
        2    1    3    3  502    0  0.29393979197E+03 -0.15697653795E+04  0.41623921352E+03  0.16503996579E+04  0.25500000920E-02 0.  1.
       -2    1    3    3    0  502 -0.29393979197E+03  0.15697653795E+04 -0.76210748121E+03  0.17695682414E+04  0.25500000920E-02 0. -1.
</event>
<event>
 5   0  0.4775023E-08  0.3399789E+04  0.7818609E-02  0.8137958E-01
        2   -1    0    0  501    0  0.00000000000E+00  0.00000000000E+00  0.23863481096E+04  0.23863481096E+04  0.25500000920E-02 0. -1.
       -2   -1    0    0    0  501  0.00000000000E+00  0.00000000000E+00 -0.12109054871E+04  0.12109054871E+04  0.25500000920E-02 0.  1.
    10030    2    1    2    0    0  0.00000000000E+00  0.00000000000E+00  0.11754426226E+04  0.35972535967E+04  0.33997894170E+04 0.  0.
        4    1    3    3  502    0  0.76962876245E+03  0.12010627383E+04 -0.39050919578E+03  0.14789791000E+04  0.12699999809E+01 0.  1.
       -4    1    3    3    0  502 -0.76962876245E+03 -0.12010627383E+04  0.15659518183E+04  0.21182744967E+04  0.12699999809E+01 0. -1.
</event>
<event>
 5   0  0.1645631E-08  0.3401507E+04  0.7818609E-02  0.8137537E-01
        1   -1    0    0  501    0  0.00000000000E+00  0.00000000000E+00  0.24573317274E+04  0.24573317274E+04  0.50400001928E-02 0. -1.
       -1   -1    0    0    0  501  0.00000000000E+00  0.00000000000E+00 -0.11771148714E+04  0.11771148714E+04  0.50400001928E-02 0.  1.
    10030    2    1    2    0    0  0.00000000000E+00  0.00000000000E+00  0.12802168560E+04  0.36344465989E+04  0.34015065606E+04 0.  0.
        4    1    3    3  502    0  0.33805244099E+03  0.34092717319E+03  0.23834200590E+04  0.24312966871E+04  0.12699999809E+01 0. -1.
       -4    1    3    3    0  502 -0.33805244099E+03 -0.34092717319E+03 -0.11032032030E+04  0.12031499118E+04  0.12699999809E+01 0.  1.
</event>
<event>
 5   0  0.4775023E-08  0.3399278E+04  0.7818609E-02  0.8138083E-01
        2   -1    0    0  501    0  0.00000000000E+00  0.00000000000E+00  0.26484838128E+04  0.26484838128E+04  0.25500000920E-02 0.  1.
       -2   -1    0    0    0  501  0.00000000000E+00  0.00000000000E+00 -0.10907272563E+04  0.10907272563E+04  0.25500000920E-02 0. -1.
    10030    2    1    2    0    0  0.00000000000E+00  0.00000000000E+00  0.15577565566E+04  0.37392110691E+04  0.33992784425E+04 0.  0.
        4    1    3    3  502    0 -0.78566702743E+03  0.95892168640E+03  0.20578958456E+04  0.24024446722E+04  0.12699999809E+01 0.  1.
       -4    1    3    3    0  502  0.78566702743E+03 -0.95892168640E+03 -0.50013928902E+03  0.13367663969E+04  0.12699999809E+01 0. -1.
</event>
<event>
 5   0  0.1630571E-08  0.3400351E+04  0.7818609E-02  0.8137820E-01
       -1   -1    0    0    0  501  0.00000000000E+00  0.00000000000E+00  0.18023712458E+04  0.18023712458E+04  0.50400001928E-02 0. -1.
        1   -1    0    0  501    0  0.00000000000E+00  0.00000000000E+00 -0.16037745527E+04  0.16037745527E+04  0.50400001928E-02 0.  1.
    10030    2    1    2    0    0  0.00000000000E+00  0.00000000000E+00  0.19859669313E+03  0.34061457985E+04  0.34003512398E+04 0.  0.
        3    1    3    3  502    0  0.12953812630E+04  0.10566899277E+04 -0.21105362242E+03  0.16849777036E+04  0.10100000352E+00 0.  1.
       -3    1    3    3    0  502 -0.12953812630E+04 -0.10566899277E+04  0.40965031555E+03  0.17211680949E+04  0.10100000352E+00 0. -1.
</event>
<event>
 5   0  0.1645631E-08  0.3397072E+04  0.7818609E-02  0.8138625E-01
       -1   -1    0    0    0  501  0.00000000000E+00  0.00000000000E+00  0.16975916340E+04  0.16975916340E+04  0.50400001928E-02 0.  1.
        1   -1    0    0  501    0  0.00000000000E+00  0.00000000000E+00 -0.16994808261E+04  0.16994808261E+04  0.50400001928E-02 0. -1.
    10030    2    1    2    0    0  0.00000000000E+00  0.00000000000E+00 -0.18891921335E+01  0.33970724601E+04  0.33970719348E+04 0.  0.
        4    1    3    3  502    0  0.15738641104E+04 -0.59177070327E+03  0.23943434284E+03  0.16984025497E+04  0.12699999809E+01 0. -1.
       -4    1    3    3    0  502 -0.15738641104E+04  0.59177070327E+03 -0.24132353497E+03  0.16986699105E+04  0.12699999809E+01 0.  1.
</event>
<event>
 5   0  0.1595851E-08  0.3394157E+04  0.7818609E-02  0.8139342E-01
       -1   -1    0    0    0  501  0.00000000000E+00  0.00000000000E+00  0.33302860766E+04  0.33302860766E+04  0.50400001928E-02 0.  1.
        1   -1    0    0  501    0  0.00000000000E+00  0.00000000000E+00 -0.86481300182E+03  0.86481300184E+03  0.50400001928E-02 0. -1.
    10030    2    1    2    0    0  0.00000000000E+00  0.00000000000E+00  0.24654730748E+04  0.41950990785E+04  0.33941565662E+04 0.  0.
        2    1    3    3  502    0 -0.30374198105E+03 -0.16233568675E+04  0.75002784188E+03  0.18138601032E+04  0.25500000920E-02 0. -1.
       -2    1    3    3    0  502  0.30374198105E+03  0.16233568675E+04  0.17154452329E+04  0.23812389753E+04  0.25500000920E-02 0.  1.
</event>
<event>
 5   0  0.4973409E-08  0.3400032E+04  0.7818609E-02  0.8137898E-01
        2   -1    0    0  501    0  0.00000000000E+00  0.00000000000E+00  0.20570644767E+04  0.20570644767E+04  0.25500000920E-02 0. -1.
       -2   -1    0    0    0  501  0.00000000000E+00  0.00000000000E+00 -0.14049414071E+04  0.14049414071E+04  0.25500000920E-02 0.  1.
    10030    2    1    2    0    0  0.00000000000E+00  0.00000000000E+00  0.65212306968E+03  0.34620058838E+04  0.34000323883E+04 0.  0.
        1    1    3    3  502    0 -0.16936583437E+04  0.14343397223E+03  0.29381135198E+03  0.17249281145E+04  0.50400001928E-02 0.  1.
       -1    1    3    3    0  502  0.16936583437E+04 -0.14343397223E+03  0.35831171770E+03  0.17370777693E+04  0.50400001928E-02 0. -1.
</event>
<event>
 5   0  0.1625282E-08  0.3401545E+04  0.7818609E-02  0.8137527E-01
        1   -1    0    0  501    0  0.00000000000E+00  0.00000000000E+00  0.23173237449E+04  0.23173237449E+04  0.50400001928E-02 0.  1.
       -1   -1    0    0    0  501  0.00000000000E+00  0.00000000000E+00 -0.12482623239E+04  0.12482623239E+04  0.50400001928E-02 0. -1.
    10030    2    1    2    0    0  0.00000000000E+00  0.00000000000E+00  0.10690614210E+04  0.35655860689E+04  0.34015454859E+04 0.  0.
        1    1    3    3  502    0 -0.15714228121E+04  0.25233171955E+03 -0.94043582806E+02  0.15943290585E+04  0.50400001928E-02 0. -1.
       -1    1    3    3    0  502  0.15714228121E+04 -0.25233171955E+03  0.11631050038E+04  0.19712570104E+04  0.50400001928E-02 0.  1.
</event>
<event>
 5   0  0.4973409E-08  0.3397181E+04  0.7818609E-02  0.8138599E-01
       -2   -1    0    0    0  501  0.00000000000E+00  0.00000000000E+00  0.16754413061E+04  0.16754413061E+04  0.25500000920E-02 0. -1.
        2   -1    0    0  501    0  0.00000000000E+00  0.00000000000E+00 -0.17220592484E+04  0.17220592484E+04  0.25500000920E-02 0.  1.
    10030    2    1    2    0    0  0.00000000000E+00  0.00000000000E+00 -0.46617942304E+02  0.33975005544E+04  0.33971807112E+04 0.  0.
        1    1    3    3  502    0 -0.86610164876E+03  0.14069778404E+03  0.14312286146E+04  0.16787922086E+04  0.50400001928E-02 0. -1.
       -1    1    3    3    0  502  0.86610164876E+03 -0.14069778404E+03 -0.14778465569E+04  0.17187083459E+04  0.50400001928E-02 0.  1.
</event>
<event>
 5   0  0.4764953E-08  0.3406703E+04  0.7818609E-02  0.8136263E-01
        2   -1    0    0  501    0  0.00000000000E+00  0.00000000000E+00  0.15392760744E+04  0.15392760744E+04  0.25500000920E-02 0.  1.
       -2   -1    0    0    0  501  0.00000000000E+00  0.00000000000E+00 -0.18849156749E+04  0.18849156749E+04  0.25500000920E-02 0. -1.
    10030    2    1    2    0    0  0.00000000000E+00  0.00000000000E+00 -0.34563960054E+03  0.34241917493E+04  0.34067025703E+04 0.  0.
        2    1    3    3  502    0 -0.46057738867E+03  0.14113917349E+04 -0.10121199926E+04  0.17968152492E+04  0.25500000920E-02 0.  1.
       -2    1    3    3    0  502  0.46057738867E+03 -0.14113917349E+04  0.66648039206E+03  0.16273765001E+04  0.25500000920E-02 0. -1.
</event>
<event>
 5   0  0.4775023E-08  0.3400785E+04  0.7818609E-02  0.8137714E-01
        2   -1    0    0  501    0  0.00000000000E+00  0.00000000000E+00  0.10367678663E+04  0.10367678663E+04  0.25500000920E-02 0. -1.
       -2   -1    0    0    0  501  0.00000000000E+00  0.00000000000E+00 -0.27887972320E+04  0.27887972320E+04  0.25500000920E-02 0.  1.
    10030    2    1    2    0    0  0.00000000000E+00  0.00000000000E+00 -0.17520293657E+04  0.38255650983E+04  0.34007854127E+04 0.  0.
        4    1    3    3  502    0  0.12291253149E+04  0.63992072513E+03  0.23250970389E+03  0.14051014019E+04  0.12699999809E+01 0. -1.
       -4    1    3    3    0  502 -0.12291253149E+04 -0.63992072513E+03 -0.19845390695E+04  0.24204636964E+04  0.12699999809E+01 0.  1.
</event>
<event>
 5   0  0.1645631E-08  0.3399530E+04  0.7818609E-02  0.8138022E-01
        1   -1    0    0  501    0  0.00000000000E+00  0.00000000000E+00  0.24332514379E+04  0.24332514379E+04  0.50400001928E-02 0. -1.
       -1   -1    0    0    0  501  0.00000000000E+00  0.00000000000E+00 -0.11873829521E+04  0.11873829522E+04  0.50400001928E-02 0.  1.
    10030    2    1    2    0    0  0.00000000000E+00  0.00000000000E+00  0.12458684857E+04  0.36206343900E+04  0.33995301297E+04 0.  0.
        4    1    3    3  502    0 -0.44832466870E+03 -0.14614025796E+04 -0.16871851794E+03  0.15379076888E+04  0.12699999809E+01 0.  1.
       -4    1    3    3    0  502  0.44832466870E+03  0.14614025796E+04  0.14145870037E+04  0.20827267012E+04  0.12699999809E+01 0. -1.
</event>
<event>
 5   0  0.1625282E-08  0.3399016E+04  0.7818609E-02  0.8138148E-01
        1   -1    0    0  501    0  0.00000000000E+00  0.00000000000E+00  0.23878927686E+04  0.23878927686E+04  0.50400001928E-02 0. -1.
       -1   -1    0    0    0  501  0.00000000000E+00  0.00000000000E+00 -0.12095719923E+04  0.12095719923E+04  0.50400001928E-02 0.  1.
    10030    2    1    2    0    0  0.00000000000E+00  0.00000000000E+00  0.11783207763E+04  0.35974647609E+04  0.33990164539E+04 0.  0.
        1    1    3    3  502    0  0.10957730743E+04  0.11981978707E+04  0.57928090665E+02  0.16247314951E+04  0.50400001928E-02 0.  1.
       -1    1    3    3    0  502 -0.10957730743E+04 -0.11981978707E+04  0.11203926857E+04  0.19727332657E+04  0.50400001928E-02 0. -1.
</event>
<event>
 5   0  0.4775023E-08  0.3399584E+04  0.7818609E-02  0.8138008E-01
        2   -1    0    0  501    0  0.00000000000E+00  0.00000000000E+00  0.22925625671E+04  0.22925625671E+04  0.25500000920E-02 0.  1.
       -2   -1    0    0    0  501  0.00000000000E+00  0.00000000000E+00 -0.12602898704E+04  0.12602898704E+04  0.25500000920E-02 0. -1.
    10030    2    1    2    0    0  0.00000000000E+00  0.00000000000E+00  0.10322726966E+04  0.35528524375E+04  0.33995843161E+04 0.  0.
        4    1    3    3  502    0  0.16597802242E+04 -0.28047269119E+03  0.76291005738E+03  0.18481257240E+04  0.12699999809E+01 0.  1.
       -4    1    3    3    0  502 -0.16597802242E+04  0.28047269119E+03  0.26936263926E+03  0.17047267135E+04  0.12699999809E+01 0. -1.
</event>
<event>
 5   0  0.4946315E-08  0.3394242E+04  0.7818609E-02  0.8139321E-01
        2   -1    0    0  501    0  0.00000000000E+00  0.00000000000E+00  0.21434454695E+04  0.21434454695E+04  0.25500000920E-02 0.  1.
       -2   -1    0    0    0  501  0.00000000000E+00  0.00000000000E+00 -0.13437337883E+04  0.13437337883E+04  0.25500000920E-02 0. -1.
    10030    2    1    2    0    0  0.00000000000E+00  0.00000000000E+00  0.79971168125E+03  0.34871792578E+04  0.33942422429E+04 0.  0.
        3    1    3    3  502    0  0.11604767375E+03  0.15184170484E+04  0.11694749362E+04  0.19200856836E+04  0.10100000352E+00 0.  1.
       -3    1    3    3    0  502 -0.11604767375E+03 -0.15184170484E+04 -0.36976325500E+03  0.15670935743E+04  0.10100000352E+00 0. -1.
</event>
<event>
 5   0  0.1595851E-08  0.3398844E+04  0.7818609E-02  0.8138190E-01
        1   -1    0    0  501    0  0.00000000000E+00  0.00000000000E+00  0.22109828696E+04  0.22109828696E+04  0.50400001928E-02 0. -1.
       -1   -1    0    0    0  501  0.00000000000E+00  0.00000000000E+00 -0.13062225116E+04  0.13062225116E+04  0.50400001928E-02 0.  1.
    10030    2    1    2    0    0  0.00000000000E+00  0.00000000000E+00  0.90476035799E+03  0.35172053812E+04  0.33988442724E+04 0.  0.
        2    1    3    3  502    0  0.11414784074E+04 -0.38790610580E+03 -0.78707432015E+03  0.14397673725E+04  0.25500000920E-02 0.  1.
       -2    1    3    3    0  502 -0.11414784074E+04  0.38790610580E+03  0.16918346781E+04  0.20774380086E+04  0.25500000920E-02 0. -1.
</event>
<event>
 5   0  0.1630571E-08  0.3400975E+04  0.7818609E-02  0.8137667E-01
       -1   -1    0    0    0  501  0.00000000000E+00  0.00000000000E+00  0.23407912979E+04  0.23407912979E+04  0.50400001928E-02 0. -1.
        1   -1    0    0  501    0  0.00000000000E+00  0.00000000000E+00 -0.12353333568E+04  0.12353333568E+04  0.50400001928E-02 0.  1.
    10030    2    1    2    0    0  0.00000000000E+00  0.00000000000E+00  0.11054579412E+04  0.35761246547E+04  0.34009749023E+04 0.  0.
        3    1    3    3  502    0 -0.75390558950E+03  0.11782499981E+04  0.15694868592E+04  0.21023643137E+04  0.10100000352E+00 0. -1.
       -3    1    3    3    0  502  0.75390558950E+03 -0.11782499981E+04 -0.46402891803E+03  0.14737603411E+04  0.10100000352E+00 0.  1.
</event>
<event>
 5   0  0.4764953E-08  0.3400132E+04  0.7818609E-02  0.8137874E-01
       -2   -1    0    0    0  501  0.00000000000E+00  0.00000000000E+00  0.21904554941E+04  0.21904554941E+04  0.25500000920E-02 0.  1.
        2   -1    0    0  501    0  0.00000000000E+00  0.00000000000E+00 -0.13194626713E+04  0.13194626713E+04  0.25500000920E-02 0. -1.
    10030    2    1    2    0    0  0.00000000000E+00  0.00000000000E+00  0.87099282281E+03  0.35099181655E+04  0.34001319137E+04 0.  0.
        2    1    3    3  502    0  0.50554756803E+03  0.89243029798E+03 -0.96408855286E+03  0.14076494301E+04  0.25500000920E-02 0. -1.
       -2    1    3    3    0  502 -0.50554756803E+03 -0.89243029798E+03  0.18350813757E+04  0.21022687354E+04  0.25500000920E-02 0.  1.
</event>
<event>
 5   0  0.4775023E-08  0.3397767E+04  0.7818609E-02  0.8138455E-01
        2   -1    0    0  501    0  0.00000000000E+00  0.00000000000E+00  0.16755485639E+04  0.16755485639E+04  0.25500000920E-02 0.  1.
       -2   -1    0    0    0  501  0.00000000000E+00  0.00000000000E+00 -0.17225436559E+04  0.17225436559E+04  0.25500000920E-02 0. -1.
    10030    2    1    2    0    0  0.00000000000E+00  0.00000000000E+00 -0.46995092064E+02  0.33980922198E+04  0.33977672368E+04 0.  0.
        4    1    3    3  502    0 -0.13423198691E+04  0.37317351642E+03 -0.99576481117E+03  0.17124924164E+04  0.12699999809E+01 0. -1.
       -4    1    3    3    0  502  0.13423198691E+04 -0.37317351642E+03  0.94876971911E+03  0.16855998034E+04  0.12699999809E+01 0.  1.
</event>
<event>
 5   0  0.1625282E-08  0.3399661E+04  0.7818609E-02  0.8137989E-01
        1   -1    0    0  501    0  0.00000000000E+00  0.00000000000E+00  0.20016324871E+04  0.20016324871E+04  0.50400001928E-02 0.  1.
       -1   -1    0    0    0  501  0.00000000000E+00  0.00000000000E+00 -0.14435337867E+04  0.14435337867E+04  0.50400001928E-02 0. -1.
    10030    2    1    2    0    0  0.00000000000E+00  0.00000000000E+00  0.55809870045E+03  0.34451662738E+04  0.33996612324E+04 0.  0.
        1    1    3    3  502    0 -0.14638783230E+04  0.78271563374E+03 -0.91689848789E+02  0.16625253491E+04  0.50400001928E-02 0.  1.
       -1    1    3    3    0  502  0.14638783230E+04 -0.78271563374E+03  0.64978854924E+03  0.17826409248E+04  0.50400001928E-02 0. -1.
</event>
<event>
 5   0  0.1625282E-08  0.3399692E+04  0.7818609E-02  0.8137982E-01
        1   -1    0    0  501    0  0.00000000000E+00  0.00000000000E+00  0.24564410591E+04  0.24564410591E+04  0.50400001928E-02 0.  1.
       -1   -1    0    0    0  501  0.00000000000E+00  0.00000000000E+00 -0.11762858956E+04  0.11762858956E+04  0.50400001928E-02 0. -1.
    10030    2    1    2    0    0  0.00000000000E+00  0.00000000000E+00  0.12801551635E+04  0.36327269547E+04  0.33996923220E+04 0.  0.
        1    1    3    3  502    0  0.83420895082E+03 -0.69629976258E+03 -0.75671208234E+03  0.13241416497E+04  0.50400001928E-02 0. -1.
       -1    1    3    3    0  502 -0.83420895082E+03  0.69629976258E+03  0.20368672458E+04  0.23085853049E+04  0.50400001928E-02 0.  1.
</event>
<event>
 5   0  0.4946315E-08  0.3400789E+04  0.7818609E-02  0.8137713E-01
        2   -1    0    0  501    0  0.00000000000E+00  0.00000000000E+00  0.20029239125E+04  0.20029239125E+04  0.25500000920E-02 0. -1.
       -2   -1    0    0    0  501  0.00000000000E+00  0.00000000000E+00 -0.14435600579E+04  0.14435600579E+04  0.25500000920E-02 0.  1.
    10030    2    1    2    0    0  0.00000000000E+00  0.00000000000E+00  0.55936385455E+03  0.34464839704E+04  0.34007887080E+04 0.  0.
        3    1    3    3  502    0  0.44484135144E+03 -0.15697353425E+04  0.76506210007E+03  0.18020191177E+04  0.10100000352E+00 0. -1.
       -3    1    3    3    0  502 -0.44484135144E+03  0.15697353425E+04 -0.20569824552E+03  0.16444648527E+04  0.10100000352E+00 0.  1.
</event>
<event>
 5   0  0.1645631E-08  0.3401670E+04  0.7818609E-02  0.8137497E-01
        1   -1    0    0  501    0  0.00000000000E+00  0.00000000000E+00  0.24967133250E+04  0.24967133250E+04  0.50400001928E-02 0.  1.
       -1   -1    0    0    0  501  0.00000000000E+00  0.00000000000E+00 -0.11586588277E+04  0.11586588277E+04  0.50400001928E-02 0. -1.
    10030    2    1    2    0    0  0.00000000000E+00  0.00000000000E+00  0.13380544973E+04  0.36553721527E+04  0.34016695514E+04 0.  0.
        4    1    3    3  502    0 -0.15887413166E+04  0.59690301495E+03  0.78890522052E+03  0.18715675890E+04  0.12699999809E+01 0. -1.
       -4    1    3    3    0  502  0.15887413166E+04 -0.59690301495E+03  0.54914927677E+03  0.17838045637E+04  0.12699999809E+01 0.  1.
</event>
<event>
 5   0  0.1630571E-08  0.3400512E+04  0.7818609E-02  0.8137781E-01
       -1   -1    0    0    0  501  0.00000000000E+00  0.00000000000E+00  0.15379909854E+04  0.15379909854E+04  0.50400001928E-02 0. -1.
        1   -1    0    0  501    0  0.00000000000E+00  0.00000000000E+00 -0.18796401783E+04  0.18796401783E+04  0.50400001928E-02 0.  1.
    10030    2    1    2    0    0  0.00000000000E+00  0.00000000000E+00 -0.34164919292E+03  0.34176311637E+04  0.34005115203E+04 0.  0.
        3    1    3    3  502    0 -0.32953466711E+03  0.40341029940E+03  0.14558218999E+04  0.15462051549E+04  0.10100000352E+00 0. -1.
       -3    1    3    3    0  502  0.32953466711E+03 -0.40341029940E+03 -0.17974710929E+04  0.18714260088E+04  0.10100000352E+00 0.  1.
</event>
<event>
 5   0  0.1625282E-08  0.3395110E+04  0.7818609E-02  0.8139108E-01
       -1   -1    0    0    0  501  0.00000000000E+00  0.00000000000E+00  0.15466873628E+04  0.15466873628E+04  0.50400001928E-02 0.  1.
        1   -1    0    0  501    0  0.00000000000E+00  0.00000000000E+00 -0.18631382669E+04  0.18631382669E+04  0.50400001928E-02 0. -1.
    10030    2    1    2    0    0  0.00000000000E+00  0.00000000000E+00 -0.31645090413E+03  0.34098256296E+04  0.33951096668E+04 0.  0.
        1    1    3    3  502    0  0.15288238842E+04 -0.71541426788E+03  0.23034990588E+02  0.16880908312E+04  0.50400001928E-02 0.  1.
       -1    1    3    3    0  502 -0.15288238842E+04  0.71541426788E+03 -0.33948589472E+03  0.17217347985E+04  0.50400001928E-02 0. -1.
</event>
<event>
 5   0  0.1630571E-08  0.3401107E+04  0.7818609E-02  0.8137635E-01
       -1   -1    0    0    0  501  0.00000000000E+00  0.00000000000E+00  0.25443065265E+04  0.25443065265E+04  0.50400001928E-02 0.  1.
        1   -1    0    0  501    0  0.00000000000E+00  0.00000000000E+00 -0.11366089063E+04  0.11366089063E+04  0.50400001928E-02 0. -1.
    10030    2    1    2    0    0  0.00000000000E+00  0.00000000000E+00  0.14076976202E+04  0.36809154329E+04  0.34011065602E+04 0.  0.
        3    1    3    3  502    0  0.17557868854E+03 -0.13284664969E+04 -0.42929885831E+03  0.14071064740E+04  0.10100000352E+00 0.  1.
       -3    1    3    3    0  502 -0.17557868854E+03  0.13284664969E+04  0.18369964785E+04  0.22738089589E+04  0.10100000352E+00 0. -1.
</event>
<event>
 5   0  0.5001197E-08  0.3401699E+04  0.7818609E-02  0.8137489E-01
        2   -1    0    0  501    0  0.00000000000E+00  0.00000000000E+00  0.23532523673E+04  0.23532523673E+04  0.25500000920E-02 0. -1.
       -2   -1    0    0    0  501  0.00000000000E+00  0.00000000000E+00 -0.12293153165E+04  0.12293153165E+04  0.25500000920E-02 0.  1.
    10030    2    1    2    0    0  0.00000000000E+00  0.00000000000E+00  0.11239370508E+04  0.35825676838E+04  0.34016990923E+04 0.  0.
        5    1    3    3  502    0 -0.10373279782E+03 -0.97918731436E+03 -0.89859984043E+03  0.13330686603E+04  0.46999998093E+01 0.  1.
       -5    1    3    3    0  502  0.10373279782E+03  0.97918731436E+03  0.20225368913E+04  0.22494990234E+04  0.46999998093E+01 0. -1.
</event>
<event>
 5   0  0.1645631E-08  0.3394014E+04  0.7818609E-02  0.8139377E-01
       -1   -1    0    0    0  501  0.00000000000E+00  0.00000000000E+00  0.20868700742E+04  0.20868700742E+04  0.50400001928E-02 0. -1.
        1   -1    0    0  501    0  0.00000000000E+00  0.00000000000E+00 -0.13799769591E+04  0.13799769591E+04  0.50400001928E-02 0.  1.
    10030    2    1    2    0    0  0.00000000000E+00  0.00000000000E+00  0.70689311505E+03  0.34668470333E+04  0.33940139181E+04 0.  0.
        4    1    3    3  502    0 -0.58703135690E+03 -0.86764077449E+03 -0.10102779779E+04  0.14553589018E+04  0.12699999809E+01 0.  1.
       -4    1    3    3    0  502  0.58703135690E+03  0.86764077449E+03  0.17171710930E+04  0.20114881315E+04  0.12699999809E+01 0. -1.
</event>
<event>
 5   0  0.1625282E-08  0.3399553E+04  0.7818609E-02  0.8138016E-01
        1   -1    0    0  501    0  0.00000000000E+00  0.00000000000E+00  0.21983377310E+04  0.21983377310E+04  0.50400001928E-02 0.  1.
       -1   -1    0    0    0  501  0.00000000000E+00  0.00000000000E+00 -0.13142843894E+04  0.13142843894E+04  0.50400001928E-02 0. -1.
    10030    2    1    2    0    0  0.00000000000E+00  0.00000000000E+00  0.88405334165E+03  0.35126221204E+04  0.33995534780E+04 0.  0.
        1    1    3    3  502    0 -0.98096181090E+03  0.12746623071E+03  0.18702845548E+04  0.21157736246E+04  0.50400001928E-02 0.  1.
       -1    1    3    3    0  502  0.98096181090E+03 -0.12746623071E+03 -0.98623121316E+03  0.13968484958E+04  0.50400001928E-02 0. -1.
</event>
<event>
 5   0  0.1630571E-08  0.3399894E+04  0.7818609E-02  0.8137932E-01
        1   -1    0    0  501    0  0.00000000000E+00  0.00000000000E+00  0.15735031530E+04  0.15735031530E+04  0.50400001928E-02 0. -1.
       -1   -1    0    0    0  501  0.00000000000E+00  0.00000000000E+00 -0.18365515215E+04  0.18365515215E+04  0.50400001928E-02 0.  1.
    10030    2    1    2    0    0  0.00000000000E+00  0.00000000000E+00 -0.26304836847E+03  0.34100546744E+04  0.33998938864E+04 0.  0.
        3    1    3    3  502    0  0.78863670723E+03  0.25407509766E+03 -0.16203179115E+04  0.18198714668E+04  0.10100000352E+00 0.  1.
       -3    1    3    3    0  502 -0.78863670723E+03 -0.25407509766E+03  0.13572695430E+04  0.15901832076E+04  0.10100000352E+00 0. -1.
</event>
<event>
 5   0  0.5001197E-08  0.3400953E+04  0.7818609E-02  0.8137672E-01
       -2   -1    0    0    0  501  0.00000000000E+00  0.00000000000E+00  0.20912503686E+04  0.20912503686E+04  0.25500000920E-02 0. -1.
        2   -1    0    0  501    0  0.00000000000E+00  0.00000000000E+00 -0.13827232994E+04  0.13827232994E+04  0.25500000920E-02 0.  1.
    10030    2    1    2    0    0  0.00000000000E+00  0.00000000000E+00  0.70852706917E+03  0.34739736680E+04  0.34009531661E+04 0.  0.
        5    1    3    3  502    0 -0.64992629973E+03  0.12630585422E+04  0.13091486762E+04  0.19317384457E+04  0.46999998093E+01 0. -1.
       -5    1    3    3    0  502  0.64992629973E+03 -0.12630585422E+04 -0.60062160708E+03  0.15422352223E+04  0.46999998093E+01 0.  1.
</event>
<event>
 5   0  0.4775023E-08  0.3399487E+04  0.7818609E-02  0.8138032E-01
       -2   -1    0    0    0  501  0.00000000000E+00  0.00000000000E+00  0.13466934112E+04  0.13466934112E+04  0.25500000920E-02 0. -1.
        2   -1    0    0  501    0  0.00000000000E+00  0.00000000000E+00 -0.21453494392E+04  0.21453494392E+04  0.25500000920E-02 0.  1.
    10030    2    1    2    0    0  0.00000000000E+00  0.00000000000E+00 -0.79865602795E+03  0.34920428504E+04  0.33994869933E+04 0.  0.
        4    1    3    3  502    0  0.56323661593E+03 -0.10427279328E+04 -0.16509473700E+04  0.20322760292E+04  0.12699999809E+01 0.  1.
       -4    1    3    3    0  502 -0.56323661593E+03  0.10427279328E+04  0.85229134208E+03  0.14597668211E+04  0.12699999809E+01 0. -1.
</event>
<event>
 5   0  0.1579536E-08  0.3399500E+04  0.7818609E-02  0.8138029E-01
       -1   -1    0    0    0  501  0.00000000000E+00  0.00000000000E+00  0.11825069811E+04  0.11825069811E+04  0.50400001928E-02 0. -1.
        1   -1    0    0  501    0  0.00000000000E+00  0.00000000000E+00 -0.24432412548E+04  0.24432412548E+04  0.50400001928E-02 0.  1.
    10030    2    1    2    0    0  0.00000000000E+00  0.00000000000E+00 -0.12607342736E+04  0.36257482359E+04  0.33994998693E+04 0.  0.
        5    1    3    3  502    0  0.15698656688E+03  0.26606005292E+03  0.11523076088E+04  0.11930078161E+04  0.46999998093E+01 0. -1.
       -5    1    3    3    0  502 -0.15698656688E+03 -0.26606005292E+03 -0.24130418824E+04  0.24327404198E+04  0.46999998093E+01 0.  1.
</event>
<event>
 5   0  0.4775023E-08  0.3400399E+04  0.7818609E-02  0.8137808E-01
        2   -1    0    0  501    0  0.00000000000E+00  0.00000000000E+00  0.26303216901E+04  0.26303216901E+04  0.25500000920E-02 0. -1.
       -2   -1    0    0    0  501  0.00000000000E+00  0.00000000000E+00 -0.10989831075E+04  0.10989831075E+04  0.25500000920E-02 0.  1.
    10030    2    1    2    0    0  0.00000000000E+00  0.00000000000E+00  0.15313385826E+04  0.37293047977E+04  0.34003994500E+04 0.  0.
        4    1    3    3  502    0  0.96616470717E+03  0.86551973120E+03 -0.43977066391E+03  0.13696709445E+04  0.12699999809E+01 0.  1.
       -4    1    3    3    0  502 -0.96616470717E+03 -0.86551973120E+03  0.19711092465E+04  0.23596338532E+04  0.12699999809E+01 0. -1.
</event>
<event>
 5   0  0.1630571E-08  0.3400579E+04  0.7818609E-02  0.8137764E-01
        1   -1    0    0  501    0  0.00000000000E+00  0.00000000000E+00  0.18492590093E+04  0.18492590093E+04  0.50400001928E-02 0. -1.
       -1   -1    0    0    0  501  0.00000000000E+00  0.00000000000E+00 -0.15633205137E+04  0.15633205137E+04  0.50400001928E-02 0.  1.
    10030    2    1    2    0    0  0.00000000000E+00  0.00000000000E+00  0.28593849553E+03  0.34125795230E+04  0.34005790945E+04 0.  0.
        3    1    3    3  502    0 -0.39435964387E+03  0.40344388143E+03  0.17525927616E+04  0.18411593881E+04  0.10100000352E+00 0. -1.
       -3    1    3    3    0  502  0.39435964387E+03 -0.40344388143E+03 -0.14666542660E+04  0.15714201349E+04  0.10100000352E+00 0.  1.
</event>
<event>
 5   0  0.4764953E-08  0.3401309E+04  0.7818609E-02  0.8137585E-01
        2   -1    0    0  501    0  0.00000000000E+00  0.00000000000E+00  0.16455520190E+04  0.16455520191E+04  0.25500000920E-02 0.  1.
       -2   -1    0    0    0  501  0.00000000000E+00  0.00000000000E+00 -0.17576017969E+04  0.17576017969E+04  0.25500000920E-02 0. -1.
    10030    2    1    2    0    0  0.00000000000E+00  0.00000000000E+00 -0.11204977789E+03  0.34031538160E+04  0.34013086809E+04 0.  0.
        2    1    3    3  502    0 -0.15847167033E+03  0.16798803491E+04 -0.26854050677E+03  0.17085740433E+04  0.25500000920E-02 0.  1.
       -2    1    3    3    0  502  0.15847167033E+03 -0.16798803491E+04  0.15649072888E+03  0.16945797727E+04  0.25500000920E-02 0. -1.
</event>
<event>
 5   0  0.4973409E-08  0.3399330E+04  0.7818609E-02  0.8138071E-01
       -2   -1    0    0    0  501  0.00000000000E+00  0.00000000000E+00  0.21464296508E+04  0.21464296508E+04  0.25500000920E-02 0.  1.
        2   -1    0    0  501    0  0.00000000000E+00  0.00000000000E+00 -0.13458914344E+04  0.13458914344E+04  0.25500000920E-02 0. -1.
    10030    2    1    2    0    0  0.00000000000E+00  0.00000000000E+00  0.80053821640E+03  0.34923210853E+04  0.33993300997E+04 0.  0.
        1    1    3    3  502    0 -0.55639830792E+02 -0.12461337788E+04  0.15863716389E+04  0.20180486025E+04  0.50400001928E-02 0.  1.
       -1    1    3    3    0  502  0.55639830792E+02  0.12461337788E+04 -0.78583342254E+03  0.14742724827E+04  0.50400001928E-02 0. -1.
</event>
<event>
 5   0  0.1645631E-08  0.3399681E+04  0.7818609E-02  0.8137985E-01
       -1   -1    0    0    0  501  0.00000000000E+00  0.00000000000E+00  0.12150480258E+04  0.12150480258E+04  0.50400001928E-02 0.  1.
        1   -1    0    0  501    0  0.00000000000E+00  0.00000000000E+00 -0.23780602596E+04  0.23780602596E+04  0.50400001928E-02 0. -1.
    10030    2    1    2    0    0  0.00000000000E+00  0.00000000000E+00 -0.11630122338E+04  0.35931082854E+04  0.33996808225E+04 0.  0.
        4    1    3    3  502    0 -0.11168198031E+04 -0.12735262695E+04 -0.43092098453E+03  0.17478129589E+04  0.12699999809E+01 0.  1.
       -4    1    3    3    0  502  0.11168198031E+04  0.12735262695E+04 -0.73209124926E+03  0.18452953264E+04  0.12699999809E+01 0. -1.
</event>
<event>
 5   0  0.4973409E-08  0.3398828E+04  0.7818609E-02  0.8138194E-01
       -2   -1    0    0    0  501  0.00000000000E+00  0.00000000000E+00  0.15651705991E+04  0.15651705991E+04  0.25500000920E-02 0.  1.
        2   -1    0    0  501    0  0.00000000000E+00  0.00000000000E+00 -0.18451711465E+04  0.18451711465E+04  0.25500000920E-02 0. -1.
    10030    2    1    2    0    0  0.00000000000E+00  0.00000000000E+00 -0.28000054733E+03  0.34103417456E+04  0.33988278149E+04 0.  0.
        1    1    3    3  502    0  0.18766302594E+03  0.15005236120E+04  0.63800962891E+03  0.16412936385E+04  0.50400001928E-02 0.  1.
       -1    1    3    3    0  502 -0.18766302594E+03 -0.15005236120E+04 -0.91801017624E+03  0.17690481070E+04  0.50400001928E-02 0. -1.
</event>
<event>
 5   0  0.1595851E-08  0.3400473E+04  0.7818609E-02  0.8137790E-01
       -1   -1    0    0    0  501  0.00000000000E+00  0.00000000000E+00  0.14364181977E+04  0.14364181977E+04  0.50400001928E-02 0. -1.
        1   -1    0    0  501    0  0.00000000000E+00  0.00000000000E+00 -0.20125083970E+04  0.20125083970E+04  0.50400001928E-02 0.  1.
    10030    2    1    2    0    0  0.00000000000E+00  0.00000000000E+00 -0.57609019925E+03  0.34489265947E+04  0.34004727228E+04 0.  0.
        2    1    3    3  502    0  0.14770634013E+04  0.61219093826E+03  0.29838885884E+03  0.16265085144E+04  0.25500000920E-02 0. -1.
       -2    1    3    3    0  502 -0.14770634013E+04 -0.61219093826E+03 -0.87447905808E+03  0.18224180803E+04  0.25500000920E-02 0.  1.
</event>
<event>
 5   0  0.4775023E-08  0.3399276E+04  0.7818609E-02  0.8138084E-01
        2   -1    0    0  501    0  0.00000000000E+00  0.00000000000E+00  0.15282577797E+04  0.15282577797E+04  0.25500000920E-02 0.  1.
       -2   -1    0    0    0  501  0.00000000000E+00  0.00000000000E+00 -0.18902367961E+04  0.18902367961E+04  0.25500000920E-02 0. -1.
    10030    2    1    2    0    0  0.00000000000E+00  0.00000000000E+00 -0.36197901638E+03  0.34184945757E+04  0.33992758576E+04 0.  0.
        4    1    3    3  502    0  0.51569039618E+03 -0.88120644185E+03 -0.15474602505E+04  0.18539407265E+04  0.12699999809E+01 0. -1.
       -4    1    3    3    0  502 -0.51569039618E+03  0.88120644185E+03  0.11854812341E+04  0.15645538492E+04  0.12699999809E+01 0.  1.
</event>
<event>
 5   0  0.4946315E-08  0.3407133E+04  0.7818609E-02  0.8136158E-01
        2   -1    0    0  501    0  0.00000000000E+00  0.00000000000E+00  0.22672918026E+04  0.22672918026E+04  0.25500000920E-02 0.  1.
       -2   -1    0    0    0  501  0.00000000000E+00  0.00000000000E+00 -0.12800024572E+04  0.12800024572E+04  0.25500000920E-02 0. -1.
    10030    2    1    2    0    0  0.00000000000E+00  0.00000000000E+00  0.98728934544E+03  0.35472942599E+04  0.34071331518E+04 0.  0.
        3    1    3    3  502    0 -0.68917179868E+03  0.52100307842E+03  0.20222874446E+04  0.21991017472E+04  0.10100000352E+00 0.  1.
       -3    1    3    3    0  502  0.68917179868E+03 -0.52100307842E+03 -0.10349980991E+04  0.13481925127E+04  0.10100000352E+00 0. -1.
</event>
<event>
 5   0  0.1595851E-08  0.3403343E+04  0.7818609E-02  0.8137086E-01
       -1   -1    0    0    0  501  0.00000000000E+00  0.00000000000E+00  0.12471752350E+04  0.12471752350E+04  0.50400001928E-02 0. -1.
        1   -1    0    0  501    0  0.00000000000E+00  0.00000000000E+00 -0.23217953594E+04  0.23217953594E+04  0.50400001928E-02 0.  1.
    10030    2    1    2    0    0  0.00000000000E+00  0.00000000000E+00 -0.10746201245E+04  0.35689705944E+04  0.34033428702E+04 0.  0.
        2    1    3    3  502    0 -0.16898492398E+04 -0.19331130507E+03 -0.59206167680E+03  0.18009710556E+04  0.25500000920E-02 0.  1.
       -2    1    3    3    0  502  0.16898492398E+04  0.19331130507E+03 -0.48255844766E+03  0.17679995388E+04  0.25500000920E-02 0. -1.
</event>
<event>
 5   0  0.1645631E-08  0.3402955E+04  0.7818609E-02  0.8137182E-01
       -1   -1    0    0    0  501  0.00000000000E+00  0.00000000000E+00  0.17440274027E+04  0.17440274027E+04  0.50400001928E-02 0. -1.
        1   -1    0    0  501    0  0.00000000000E+00  0.00000000000E+00 -0.16599654825E+04  0.16599654825E+04  0.50400001928E-02 0.  1.
    10030    2    1    2    0    0  0.00000000000E+00  0.00000000000E+00  0.84061920240E+02  0.34039928852E+04  0.34029547685E+04 0.  0.
        4    1    3    3  502    0 -0.90926916889E+03  0.78459568026E+03  0.12476632908E+04  0.17317696449E+04  0.12699999809E+01 0. -1.
       -4    1    3    3    0  502  0.90926916889E+03 -0.78459568026E+03 -0.11636013706E+04  0.16722232403E+04  0.12699999809E+01 0.  1.
</event>
<event>
 5   0  0.1630571E-08  0.3399773E+04  0.7818609E-02  0.8137962E-01
       -1   -1    0    0    0  501  0.00000000000E+00  0.00000000000E+00  0.12771018701E+04  0.12771018701E+04  0.50400001928E-02 0. -1.
        1   -1    0    0  501    0  0.00000000000E+00  0.00000000000E+00 -0.22626339759E+04  0.22626339759E+04  0.50400001928E-02 0.  1.
    10030    2    1    2    0    0  0.00000000000E+00  0.00000000000E+00 -0.98553210584E+03  0.35397358461E+04  0.33997729819E+04 0.  0.
        3    1    3    3  502    0  0.20623265550E+02 -0.56228753215E+03 -0.21628666907E+04  0.22348568008E+04  0.10100000352E+00 0.  1.
       -3    1    3    3    0  502 -0.20623265550E+02  0.56228753215E+03  0.11773345849E+04  0.13048790453E+04  0.10100000352E+00 0. -1.
</event>
<event>
 5   0  0.1630571E-08  0.3399966E+04  0.7818609E-02  0.8137915E-01
        1   -1    0    0  501    0  0.00000000000E+00  0.00000000000E+00  0.25953804407E+04  0.25953804407E+04  0.50400001928E-02 0. -1.
       -1   -1    0    0    0  501  0.00000000000E+00  0.00000000000E+00 -0.11134945081E+04  0.11134945081E+04  0.50400001928E-02 0.  1.
    10030    2    1    2    0    0  0.00000000000E+00  0.00000000000E+00  0.14818859325E+04  0.37088749488E+04  0.33999658041E+04 0.  0.
        3    1    3    3  502    0  0.35770109176E+03  0.14466858945E+04 -0.15135615554E+03  0.14979181702E+04  0.10100000352E+00 0.  1.
       -3    1    3    3    0  502 -0.35770109176E+03 -0.14466858945E+04  0.16332420881E+04  0.22109567786E+04  0.10100000352E+00 0. -1.
</event>
<event>
 5   0  0.4973409E-08  0.3400122E+04  0.7818609E-02  0.8137876E-01
        2   -1    0    0  501    0  0.00000000000E+00  0.00000000000E+00  0.20225485027E+04  0.20225485027E+04  0.25500000920E-02 0.  1.
       -2   -1    0    0    0  501  0.00000000000E+00  0.00000000000E+00 -0.14289929920E+04  0.14289929920E+04  0.25500000920E-02 0. -1.
    10030    2    1    2    0    0  0.00000000000E+00  0.00000000000E+00  0.59355551065E+03  0.34515414947E+04  0.34001221368E+04 0.  0.
        1    1    3    3  502    0  0.75184986693E+03 -0.35058191241E+03 -0.12095843504E+04  0.14667243096E+04  0.50400001928E-02 0. -1.
       -1    1    3    3    0  502 -0.75184986693E+03  0.35058191241E+03  0.18031398610E+04  0.19848171851E+04  0.50400001928E-02 0.  1.
</event>
<event>
 5   0  0.5001197E-08  0.3400301E+04  0.7818609E-02  0.8137833E-01
        2   -1    0    0  501    0  0.00000000000E+00  0.00000000000E+00  0.17601626480E+04  0.17601626481E+04  0.25500000920E-02 0. -1.
       -2   -1    0    0    0  501  0.00000000000E+00  0.00000000000E+00 -0.16421841964E+04  0.16421841964E+04  0.25500000920E-02 0.  1.
    10030    2    1    2    0    0  0.00000000000E+00  0.00000000000E+00  0.11797845170E+03  0.34023468444E+04  0.34003007418E+04 0.  0.
        5    1    3    3  502    0 -0.12186259910E+03 -0.64998232745E+03  0.16261889266E+04  0.17555170276E+04  0.46999998093E+01 0. -1.
       -5    1    3    3    0  502  0.12186259910E+03  0.64998232745E+03 -0.15082104749E+04  0.16468298168E+04  0.46999998093E+01 0.  1.
</event>
<event>
 5   0  0.4764953E-08  0.3399875E+04  0.7818609E-02  0.8137937E-01
        2   -1    0    0  501    0  0.00000000000E+00  0.00000000000E+00  0.21925697893E+04  0.21925697893E+04  0.25500000920E-02 0.  1.
       -2   -1    0    0    0  501  0.00000000000E+00  0.00000000000E+00 -0.13179911948E+04  0.13179911948E+04  0.25500000920E-02 0. -1.
    10030    2    1    2    0    0  0.00000000000E+00  0.00000000000E+00  0.87457859454E+03  0.35105609841E+04  0.33998751014E+04 0.  0.
        2    1    3    3  502    0  0.15336707849E+03 -0.13603008683E+04 -0.60341625882E+03  0.14960117294E+04  0.25500000920E-02 0. -1.
       -2    1    3    3    0  502 -0.15336707849E+03  0.13603008683E+04  0.14779948534E+04  0.20145492547E+04  0.25500000920E-02 0.  1.
</event>
<event>
 5   0  0.1625282E-08  0.3399822E+04  0.7818609E-02  0.8137950E-01
       -1   -1    0    0    0  501  0.00000000000E+00  0.00000000000E+00  0.28684369846E+04  0.28684369846E+04  0.50400001928E-02 0.  1.
        1   -1    0    0  501    0  0.00000000000E+00  0.00000000000E+00 -0.10074118346E+04  0.10074118346E+04  0.50400001928E-02 0. -1.
    10030    2    1    2    0    0  0.00000000000E+00  0.00000000000E+00  0.18610251500E+04  0.38758488192E+04  0.33998219748E+04 0.  0.
        1    1    3    3  502    0  0.57440596093E+03 -0.49838936396E+03  0.26636968863E+04  0.27701291068E+04  0.50400001928E-02 0.  1.
       -1    1    3    3    0  502 -0.57440596093E+03  0.49838936396E+03 -0.80267173630E+03  0.11057197124E+04  0.50400001928E-02 0. -1.
</event>
<event>
 5   0  0.4764953E-08  0.3423073E+04  0.7818609E-02  0.8132267E-01
        2   -1    0    0  501    0  0.00000000000E+00  0.00000000000E+00  0.15599504123E+04  0.15599504123E+04  0.25500000920E-02 0.  1.
       -2   -1    0    0    0  501  0.00000000000E+00  0.00000000000E+00 -0.18778524682E+04  0.18778524682E+04  0.25500000920E-02 0. -1.
    10030    2    1    2    0    0  0.00000000000E+00  0.00000000000E+00 -0.31790205596E+03  0.34378028805E+04  0.34230727319E+04 0.  0.
        2    1    3    3  502    0 -0.53687907357E+03 -0.53571352082E+03 -0.16998704796E+04  0.18613940376E+04  0.25500000920E-02 0. -1.
       -2    1    3    3    0  502  0.53687907357E+03  0.53571352082E+03  0.13819684236E+04  0.15764088429E+04  0.25500000920E-02 0.  1.
</event>
<event>
 5   0  0.1625282E-08  0.3398966E+04  0.7818609E-02  0.8138160E-01
        1   -1    0    0  501    0  0.00000000000E+00  0.00000000000E+00  0.17758152183E+04  0.17758152183E+04  0.50400001928E-02 0.  1.
       -1   -1    0    0    0  501  0.00000000000E+00  0.00000000000E+00 -0.16264316879E+04  0.16264316879E+04  0.50400001928E-02 0. -1.
    10030    2    1    2    0    0  0.00000000000E+00  0.00000000000E+00  0.14938353039E+03  0.34022469061E+04  0.33989658091E+04 0.  0.
        1    1    3    3  502    0  0.11559455079E+04 -0.11874938382E+04 -0.30235542303E+03  0.16845683230E+04  0.50400001928E-02 0.  1.
       -1    1    3    3    0  502 -0.11559455079E+04  0.11874938382E+04  0.45173895343E+03  0.17176785831E+04  0.50400001928E-02 0. -1.
</event>
<event>
 5   0  0.1579536E-08  0.3399872E+04  0.7818609E-02  0.8137938E-01
       -1   -1    0    0    0  501  0.00000000000E+00  0.00000000000E+00  0.14275432989E+04  0.14275432989E+04  0.50400001928E-02 0. -1.
        1   -1    0    0  501    0  0.00000000000E+00  0.00000000000E+00 -0.20243045886E+04  0.20243045887E+04  0.50400001928E-02 0.  1.
    10030    2    1    2    0    0  0.00000000000E+00  0.00000000000E+00 -0.59676128971E+03  0.34518478876E+04  0.33998720273E+04 0.  0.
        5    1    3    3  502    0 -0.12536801487E+04 -0.93381259378E+03  0.37969199153E+03  0.16086976018E+04  0.46999998093E+01 0. -1.
       -5    1    3    3    0  502  0.12536801487E+04  0.93381259378E+03 -0.97645328123E+03  0.18431502858E+04  0.46999998093E+01 0.  1.
</event>
<event>
 5   0  0.4775023E-08  0.3399089E+04  0.7818609E-02  0.8138130E-01
       -2   -1    0    0    0  501  0.00000000000E+00  0.00000000000E+00  0.20783659490E+04  0.20783659490E+04  0.25500000920E-02 0.  1.
        2   -1    0    0  501    0  0.00000000000E+00  0.00000000000E+00 -0.13897705921E+04  0.13897705921E+04  0.25500000920E-02 0. -1.
    10030    2    1    2    0    0  0.00000000000E+00  0.00000000000E+00  0.68859535695E+03  0.34681365411E+04  0.33990892166E+04 0.  0.
        4    1    3    3  502    0 -0.12225184374E+04 -0.33443293007E+03  0.14995762184E+04  0.19634477743E+04  0.12699999809E+01 0.  1.
       -4    1    3    3    0  502  0.12225184374E+04  0.33443293007E+03 -0.81098086148E+03  0.15046887669E+04  0.12699999809E+01 0. -1.
</event>
<event>
 5   0  0.1630571E-08  0.3399941E+04  0.7818609E-02  0.8137921E-01
       -1   -1    0    0    0  501  0.00000000000E+00  0.00000000000E+00  0.20975978637E+04  0.20975978637E+04  0.50400001928E-02 0. -1.
        1   -1    0    0  501    0  0.00000000000E+00  0.00000000000E+00 -0.13777183332E+04  0.13777183332E+04  0.50400001928E-02 0.  1.
    10030    2    1    2    0    0  0.00000000000E+00  0.00000000000E+00  0.71987953051E+03  0.34753161969E+04  0.33999406069E+04 0.  0.
        3    1    3    3  502    0  0.83916647356E+03 -0.11305297105E+04 -0.61386194019E+03  0.15359441033E+04  0.10100000352E+00 0.  1.
       -3    1    3    3    0  502 -0.83916647356E+03  0.11305297105E+04  0.13337414707E+04  0.19393720936E+04  0.10100000352E+00 0. -1.
</event>
<event>
 5   0  0.1573625E-08  0.3390613E+04  0.7818609E-02  0.8140214E-01
       -3   -1    0    0    0  501  0.00000000000E+00  0.00000000000E+00  0.27097685422E+04  0.27097685441E+04  0.10100000352E+00 0.  1.
        3   -1    0    0  501    0  0.00000000000E+00  0.00000000000E+00 -0.10606310532E+04  0.10606310581E+04  0.10100000352E+00 0. -1.
    10030    2    1    2    0    0  0.00000000000E+00  0.00000000000E+00  0.16491374889E+04  0.37703996021E+04  0.33906133224E+04 0.  0.
        3    1    3    3  502    0  0.50330033593E+03 -0.11787923624E+04  0.20584511560E+04  0.24248884168E+04  0.10100000352E+00 0.  1.
       -3    1    3    3    0  502 -0.50330033593E+03  0.11787923624E+04 -0.40931366710E+03  0.13455111854E+04  0.10100000352E+00 0. -1.
</event>
<event>
 5   0  0.1625282E-08  0.3399956E+04  0.7818609E-02  0.8137917E-01
       -1   -1    0    0    0  501  0.00000000000E+00  0.00000000000E+00  0.21300941874E+04  0.21300941874E+04  0.50400001928E-02 0. -1.
        1   -1    0    0  501    0  0.00000000000E+00  0.00000000000E+00 -0.13567123508E+04  0.13567123508E+04  0.50400001928E-02 0.  1.
    10030    2    1    2    0    0  0.00000000000E+00  0.00000000000E+00  0.77338183659E+03  0.34868065381E+04  0.33999559364E+04 0.  0.
        1    1    3    3  502    0 -0.66865325404E+03 -0.47759805644E+02 -0.12154405242E+04  0.13880467720E+04  0.50400001928E-02 0.  1.
       -1    1    3    3    0  502  0.66865325404E+03  0.47759805644E+02  0.19888223608E+04  0.20987597662E+04  0.50400001928E-02 0. -1.
</event>
<event>
 5   0  0.1595851E-08  0.3412109E+04  0.7818609E-02  0.8134941E-01
        1   -1    0    0  501    0  0.00000000000E+00  0.00000000000E+00  0.18530582353E+04  0.18530582353E+04  0.50400001928E-02 0.  1.
       -1   -1    0    0    0  501  0.00000000000E+00  0.00000000000E+00 -0.15707126159E+04  0.15707126159E+04  0.50400001928E-02 0. -1.
    10030    2    1    2    0    0  0.00000000000E+00  0.00000000000E+00  0.28234561944E+03  0.34237708512E+04  0.34121089948E+04 0.  0.
        2    1    3    3  502    0  0.80454735939E+02  0.14401416400E+04 -0.77306196606E+03  0.16364918916E+04  0.25500000920E-02 0. -1.
       -2    1    3    3    0  502 -0.80454735939E+02 -0.14401416400E+04  0.10554075855E+04  0.17872789596E+04  0.25500000920E-02 0.  1.
</event>
<event>
 5   0  0.1645631E-08  0.3399875E+04  0.7818609E-02  0.8137937E-01
       -1   -1    0    0    0  501  0.00000000000E+00  0.00000000000E+00  0.13162496417E+04  0.13162496418E+04  0.50400001928E-02 0.  1.
        1   -1    0    0  501    0  0.00000000000E+00  0.00000000000E+00 -0.21954703026E+04  0.21954703026E+04  0.50400001928E-02 0. -1.
    10030    2    1    2    0    0  0.00000000000E+00  0.00000000000E+00 -0.87922066082E+03  0.35117199443E+04  0.33998747031E+04 0.  0.
        4    1    3    3  502    0  0.23413202965E+03  0.10823549254E+04  0.89257655102E+03  0.14223236285E+04  0.12699999809E+01 0. -1.
       -4    1    3    3    0  502 -0.23413202965E+03 -0.10823549254E+04 -0.17717972118E+04  0.20893963158E+04  0.12699999809E+01 0.  1.
</event>
<event>
 5   0  0.1579536E-08  0.3400555E+04  0.7818609E-02  0.8137770E-01
       -1   -1    0    0    0  501  0.00000000000E+00  0.00000000000E+00  0.11961070446E+04  0.11961070446E+04  0.50400001928E-02 0. -1.
        1   -1    0    0  501    0  0.00000000000E+00  0.00000000000E+00 -0.24169611345E+04  0.24169611345E+04  0.50400001928E-02 0.  1.
    10030    2    1    2    0    0  0.00000000000E+00  0.00000000000E+00 -0.12208540899E+04  0.36130681791E+04  0.34005553896E+04 0.  0.
        5    1    3    3  502    0 -0.96407573295E+03  0.13661938512E+04 -0.93790005762E+03  0.19171870712E+04  0.46999998093E+01 0. -1.
       -5    1    3    3    0  502  0.96407573295E+03 -0.13661938512E+04 -0.28295403225E+03  0.16958811079E+04  0.46999998093E+01 0.  1.
</event>
<event>
 5   0  0.4973409E-08  0.3400058E+04  0.7818609E-02  0.8137892E-01
        2   -1    0    0  501    0  0.00000000000E+00  0.00000000000E+00  0.20117362469E+04  0.20117362469E+04  0.25500000920E-02 0. -1.
       -2   -1    0    0    0  501  0.00000000000E+00  0.00000000000E+00 -0.14366188462E+04  0.14366188462E+04  0.25500000920E-02 0.  1.
    10030    2    1    2    0    0  0.00000000000E+00  0.00000000000E+00  0.57511740068E+03  0.34483550930E+04  0.34000577676E+04 0.  0.
        1    1    3    3  502    0 -0.12039583281E+04 -0.13096027350E+03 -0.92246545694E+03  0.15223694585E+04  0.50400001928E-02 0.  1.
       -1    1    3    3    0  502  0.12039583281E+04  0.13096027350E+03  0.14975828576E+04  0.19259856345E+04  0.50400001928E-02 0. -1.
</event>
<event>
 5   0  0.1595851E-08  0.3401337E+04  0.7818609E-02  0.8137578E-01
        1   -1    0    0  501    0  0.00000000000E+00  0.00000000000E+00  0.24851910882E+04  0.24851910882E+04  0.50400001928E-02 0. -1.
       -1   -1    0    0    0  501  0.00000000000E+00  0.00000000000E+00 -0.11638034869E+04  0.11638034869E+04  0.50400001928E-02 0.  1.
    10030    2    1    2    0    0  0.00000000000E+00  0.00000000000E+00  0.13213876013E+04  0.36489945751E+04  0.34013374158E+04 0.  0.
        2    1    3    3  502    0 -0.25285601698E+02 -0.14217128797E+03  0.24786022755E+04  0.24828051226E+04  0.25500000920E-02 0. -1.
       -2    1    3    3    0  502  0.25285601698E+02  0.14217128797E+03 -0.11572146742E+04  0.11661894524E+04  0.25500000920E-02 0.  1.
</event>
<event>
 5   0  0.4946315E-08  0.3399586E+04  0.7818609E-02  0.8138008E-01
       -2   -1    0    0    0  501  0.00000000000E+00  0.00000000000E+00  0.11635552582E+04  0.11635552582E+04  0.25500000920E-02 0.  1.
        2   -1    0    0  501    0  0.00000000000E+00  0.00000000000E+00 -0.24831627543E+04  0.24831627543E+04  0.25500000920E-02 0. -1.
    10030    2    1    2    0    0  0.00000000000E+00  0.00000000000E+00 -0.13196074961E+04  0.36467180126E+04  0.33995864924E+04 0.  0.
        3    1    3    3  502    0 -0.34403244014E+03 -0.13401653344E+04  0.39934058828E+03  0.14400952604E+04  0.10100000352E+00 0.  1.
       -3    1    3    3    0  502  0.34403244014E+03  0.13401653344E+04 -0.17189480844E+04  0.22066227522E+04  0.10100000352E+00 0. -1.
</event>
<event>
 5   0  0.1645631E-08  0.3399651E+04  0.7818609E-02  0.8137992E-01
       -1   -1    0    0    0  501  0.00000000000E+00  0.00000000000E+00  0.15983460954E+04  0.15983460954E+04  0.50400001928E-02 0. -1.
        1   -1    0    0  501    0  0.00000000000E+00  0.00000000000E+00 -0.18077483678E+04  0.18077483678E+04  0.50400001928E-02 0.  1.
    10030    2    1    2    0    0  0.00000000000E+00  0.00000000000E+00 -0.20940227239E+03  0.34060944632E+04  0.33996514793E+04 0.  0.
        4    1    3    3  502    0 -0.48410162294E+03  0.10833389767E+04  0.11147449298E+04  0.16280772682E+04  0.12699999809E+01 0. -1.
       -4    1    3    3    0  502  0.48410162294E+03 -0.10833389767E+04 -0.13241472022E+04  0.17780171950E+04  0.12699999809E+01 0.  1.
</event>
<event>
 5   0  0.4973409E-08  0.3403071E+04  0.7818609E-02  0.8137153E-01
       -2   -1    0    0    0  501  0.00000000000E+00  0.00000000000E+00  0.15338974288E+04  0.15338974288E+04  0.25500000920E-02 0.  1.
        2   -1    0    0  501    0  0.00000000000E+00  0.00000000000E+00 -0.18874941078E+04  0.18874941078E+04  0.25500000920E-02 0. -1.
    10030    2    1    2    0    0  0.00000000000E+00  0.00000000000E+00 -0.35359667908E+03  0.34213915366E+04  0.34030705892E+04 0.  0.
        1    1    3    3  502    0  0.14639998645E+04  0.36568264031E+03  0.61369344348E+03  0.16289993982E+04  0.50400001928E-02 0.  1.
       -1    1    3    3    0  502 -0.14639998645E+04 -0.36568264031E+03 -0.96729012256E+03  0.17923921384E+04  0.50400001928E-02 0. -1.
</event>
<event>
 5   0  0.1630571E-08  0.3399786E+04  0.7818609E-02  0.8137959E-01
        1   -1    0    0  501    0  0.00000000000E+00  0.00000000000E+00  0.26759469510E+04  0.26759469510E+04  0.50400001928E-02 0.  1.
       -1   -1    0    0    0  501  0.00000000000E+00  0.00000000000E+00 -0.10798556926E+04  0.10798556926E+04  0.50400001928E-02 0. -1.
    10030    2    1    2    0    0  0.00000000000E+00  0.00000000000E+00  0.15960912584E+04  0.37558026436E+04  0.33997861981E+04 0.  0.
        3    1    3    3  502    0  0.42396128479E+02  0.30920913164E+02  0.26750520084E+04  0.26755666301E+04  0.10100000352E+00 0.  1.
       -3    1    3    3    0  502 -0.42396128479E+02 -0.30920913164E+02 -0.10789607500E+04  0.10802360135E+04  0.10100000352E+00 0. -1.
</event>
<event>
 5   0  0.4775023E-08  0.3400030E+04  0.7818609E-02  0.8137899E-01
       -2   -1    0    0    0  501  0.00000000000E+00  0.00000000000E+00  0.10688755361E+04  0.10688755361E+04  0.25500000920E-02 0.  1.
        2   -1    0    0  501    0  0.00000000000E+00  0.00000000000E+00 -0.27038240383E+04  0.27038240383E+04  0.25500000920E-02 0. -1.
    10030    2    1    2    0    0  0.00000000000E+00  0.00000000000E+00 -0.16349485021E+04  0.37726995744E+04  0.34000302166E+04 0.  0.
        4    1    3    3  502    0  0.12553383726E+04  0.11320817815E+04 -0.10177151390E+04  0.19731267842E+04  0.12699999809E+01 0. -1.
       -4    1    3    3    0  502 -0.12553383726E+04 -0.11320817815E+04 -0.61723336315E+03  0.17995727902E+04  0.12699999809E+01 0.  1.
</event>
<event>
 5   0  0.4764953E-08  0.3400272E+04  0.7818609E-02  0.8137840E-01
       -2   -1    0    0    0  501  0.00000000000E+00  0.00000000000E+00  0.94881023547E+03  0.94881023548E+03  0.25500000920E-02 0.  1.
        2   -1    0    0  501    0  0.00000000000E+00  0.00000000000E+00 -0.30464070328E+04  0.30464070328E+04  0.25500000920E-02 0. -1.
    10030    2    1    2    0    0  0.00000000000E+00  0.00000000000E+00 -0.20975967973E+04  0.39952172683E+04  0.34002718563E+04 0.  0.
        2    1    3    3  502    0  0.67027486235E+03  0.75743187787E+02 -0.28824506342E+04  0.29603255024E+04  0.25500000920E-02 0. -1.
       -2    1    3    3    0  502 -0.67027486235E+03 -0.75743187787E+02  0.78485383693E+03  0.10348917658E+04  0.25500000920E-02 0.  1.
</event>
<event>
 5   0  0.5001197E-08  0.3398716E+04  0.7818609E-02  0.8138221E-01
       -2   -1    0    0    0  501  0.00000000000E+00  0.00000000000E+00  0.11268744946E+04  0.11268744946E+04  0.25500000920E-02 0. -1.
        2   -1    0    0  501    0  0.00000000000E+00  0.00000000000E+00 -0.25626791873E+04  0.25626791873E+04  0.25500000920E-02 0.  1.
    10030    2    1    2    0    0  0.00000000000E+00  0.00000000000E+00 -0.14358046927E+04  0.36895536819E+04  0.33987161188E+04 0.  0.
        5    1    3    3  502    0  0.67597413977E+03 -0.44851843170E+03 -0.23388940287E+04  0.24755922905E+04  0.46999998093E+01 0.  1.
       -5    1    3    3    0  502 -0.67597413977E+03  0.44851843170E+03  0.90308933601E+03  0.12139613915E+04  0.46999998093E+01 0. -1.
</event>
<event>
 5   0  0.4764953E-08  0.3401150E+04  0.7818609E-02  0.8137624E-01
        2   -1    0    0  501    0  0.00000000000E+00  0.00000000000E+00  0.18245584343E+04  0.18245584343E+04  0.25500000920E-02 0.  1.
       -2   -1    0    0    0  501  0.00000000000E+00  0.00000000000E+00 -0.15850161409E+04  0.15850161409E+04  0.25500000920E-02 0. -1.
    10030    2    1    2    0    0  0.00000000000E+00  0.00000000000E+00  0.23954229334E+03  0.34095745752E+04  0.34011495518E+04 0.  0.
        2    1    3    3  502    0 -0.55776990890E+03 -0.10737157379E+03 -0.14871088676E+04  0.15918946920E+04  0.25500000920E-02 0. -1.
       -2    1    3    3    0  502  0.55776990890E+03  0.10737157379E+03  0.17266511610E+04  0.18176798832E+04  0.25500000920E-02 0.  1.
</event>
<event>
 5   0  0.4946315E-08  0.3401420E+04  0.7818609E-02  0.8137558E-01
        2   -1    0    0  501    0  0.00000000000E+00  0.00000000000E+00  0.17834023334E+04  0.17834023334E+04  0.25500000920E-02 0.  1.
       -2   -1    0    0    0  501  0.00000000000E+00  0.00000000000E+00 -0.16218520138E+04  0.16218520138E+04  0.25500000920E-02 0. -1.
    10030    2    1    2    0    0  0.00000000000E+00  0.00000000000E+00  0.16155031959E+03  0.34052543473E+04  0.34014200952E+04 0.  0.
        3    1    3    3  502    0  0.11393210738E+04 -0.42964279543E+03 -0.11079002930E+04  0.16462346462E+04  0.10100000352E+00 0. -1.
       -3    1    3    3    0  502 -0.11393210738E+04  0.42964279543E+03  0.12694506126E+04  0.17590197011E+04  0.10100000352E+00 0.  1.
</event>
<event>
 5   0  0.4946315E-08  0.3399708E+04  0.7818609E-02  0.8137978E-01
        2   -1    0    0  501    0  0.00000000000E+00  0.00000000000E+00  0.23546075871E+04  0.23546075871E+04  0.25500000920E-02 0. -1.
       -2   -1    0    0    0  501  0.00000000000E+00  0.00000000000E+00 -0.12271701342E+04  0.12271701342E+04  0.25500000920E-02 0.  1.
    10030    2    1    2    0    0  0.00000000000E+00  0.00000000000E+00  0.11274374529E+04  0.35817777213E+04  0.33997082867E+04 0.  0.
        3    1    3    3  502    0  0.27095760878E+03  0.16559758727E+04  0.84998709143E+03  0.18809976562E+04  0.10100000352E+00 0. -1.
       -3    1    3    3    0  502 -0.27095760878E+03 -0.16559758727E+04  0.27745036146E+03  0.17007800652E+04  0.10100000352E+00 0.  1.
</event>
<event>
 5   0  0.4764953E-08  0.3401656E+04  0.7818609E-02  0.8137500E-01
        2   -1    0    0  501    0  0.00000000000E+00  0.00000000000E+00  0.21608457349E+04  0.21608457349E+04  0.25500000920E-02 0. -1.
       -2   -1    0    0    0  501  0.00000000000E+00  0.00000000000E+00 -0.13387423579E+04  0.13387423579E+04  0.25500000920E-02 0.  1.
    10030    2    1    2    0    0  0.00000000000E+00  0.00000000000E+00  0.82210337700E+03  0.34995880929E+04  0.34016558993E+04 0.  0.
        2    1    3    3  502    0 -0.11921560307E+04 -0.12122545288E+04  0.36482856979E+03  0.17389355737E+04  0.25500000920E-02 0. -1.
       -2    1    3    3    0  502  0.11921560307E+04  0.12122545288E+04  0.45727480721E+03  0.17606525192E+04  0.25500000920E-02 0.  1.
</event>
<event>
 5   0  0.5001197E-08  0.3399643E+04  0.7818609E-02  0.8137994E-01
        2   -1    0    0  501    0  0.00000000000E+00  0.00000000000E+00  0.27227969254E+04  0.27227969254E+04  0.25500000920E-02 0. -1.
       -2   -1    0    0    0  501  0.00000000000E+00  0.00000000000E+00 -0.10611855268E+04  0.10611855268E+04  0.25500000920E-02 0.  1.
    10030    2    1    2    0    0  0.00000000000E+00  0.00000000000E+00  0.16616113987E+04  0.37839824522E+04  0.33996427398E+04 0.  0.
        5    1    3    3  502    0 -0.69323143338E+03 -0.98515823768E+03 -0.50405252695E+03  0.13058321536E+04  0.46999998093E+01 0.  1.
       -5    1    3    3    0  502  0.69323143338E+03  0.98515823768E+03  0.21656639256E+04  0.24781502986E+04  0.46999998093E+01 0. -1.
</event>
<event>
 5   0  0.4946315E-08  0.3401494E+04  0.7818609E-02  0.8137540E-01
        2   -1    0    0  501    0  0.00000000000E+00  0.00000000000E+00  0.16254666664E+04  0.16254666664E+04  0.25500000920E-02 0. -1.
       -2   -1    0    0    0  501  0.00000000000E+00  0.00000000000E+00 -0.17795135607E+04  0.17795135607E+04  0.25500000920E-02 0.  1.
    10030    2    1    2    0    0  0.00000000000E+00  0.00000000000E+00 -0.15404689430E+03  0.34049802271E+04  0.34014937749E+04 0.  0.
        3    1    3    3  502    0 -0.16302367369E+03  0.24772895678E+03 -0.17534320620E+04  0.17783335909E+04  0.10100000352E+00 0.  1.
       -3    1    3    3    0  502  0.16302367369E+03 -0.24772895678E+03  0.15993851677E+04  0.16266466362E+04  0.10100000352E+00 0. -1.
</event>
<event>
 5   0  0.1645631E-08  0.3400493E+04  0.7818609E-02  0.8137785E-01
        1   -1    0    0  501    0  0.00000000000E+00  0.00000000000E+00  0.14515123941E+04  0.14515123941E+04  0.50400001928E-02 0. -1.
       -1   -1    0    0    0  501  0.00000000000E+00  0.00000000000E+00 -0.19916046243E+04  0.19916046243E+04  0.50400001928E-02 0.  1.
    10030    2    1    2    0    0  0.00000000000E+00  0.00000000000E+00 -0.54009223021E+03  0.34431170184E+04  0.34004933738E+04 0.  0.
        4    1    3    3  502    0 -0.99452679610E+03  0.31864434136E+03  0.10884943262E+04  0.15084559243E+04  0.12699999809E+01 0. -1.
       -4    1    3    3    0  502  0.99452679610E+03 -0.31864434136E+03 -0.16285865564E+04  0.19346610941E+04  0.12699999809E+01 0.  1.
</event>
<event>
 5   0  0.4973409E-08  0.3399487E+04  0.7818609E-02  0.8138032E-01
        2   -1    0    0  501    0  0.00000000000E+00  0.00000000000E+00  0.13042498883E+04  0.13042498883E+04  0.25500000920E-02 0.  1.
       -2   -1    0    0    0  501  0.00000000000E+00  0.00000000000E+00 -0.22151643082E+04  0.22151643082E+04  0.25500000920E-02 0. -1.
    10030    2    1    2    0    0  0.00000000000E+00  0.00000000000E+00 -0.91091441984E+03  0.35194141965E+04  0.33994869034E+04 0.  0.
        1    1    3    3  502    0  0.75691875186E+01 -0.14692669946E+04 -0.13401960537E+04  0.19887001424E+04  0.50400001928E-02 0.  1.
       -1    1    3    3    0  502 -0.75691875186E+01  0.14692669946E+04  0.42928163385E+03  0.15307140541E+04  0.50400001928E-02 0. -1.
</event>
<event>
 5   0  0.4764953E-08  0.3397226E+04  0.7818609E-02  0.8138588E-01
        2   -1    0    0  501    0  0.00000000000E+00  0.00000000000E+00  0.21490676122E+04  0.21490676122E+04  0.25500000920E-02 0. -1.
       -2   -1    0    0    0  501  0.00000000000E+00  0.00000000000E+00 -0.13425754453E+04  0.13425754453E+04  0.25500000920E-02 0.  1.
    10030    2    1    2    0    0  0.00000000000E+00  0.00000000000E+00  0.80649216690E+03  0.34916430576E+04  0.33972255778E+04 0.  0.
        2    1    3    3  502    0  0.24986511261E+03  0.13942651093E+03  0.21241198052E+04  0.21433052217E+04  0.25500000920E-02 0. -1.
       -2    1    3    3    0  502 -0.24986511261E+03 -0.13942651093E+03 -0.13176276383E+04  0.13483378359E+04  0.25500000920E-02 0.  1.
</event>
<event>
 5   0  0.1595851E-08  0.3403128E+04  0.7818609E-02  0.8137139E-01
       -1   -1    0    0    0  501  0.00000000000E+00  0.00000000000E+00  0.20222899419E+04  0.20222899419E+04  0.50400001928E-02 0. -1.
        1   -1    0    0  501    0  0.00000000000E+00  0.00000000000E+00 -0.14317036679E+04  0.14317036679E+04  0.50400001928E-02 0.  1.
    10030    2    1    2    0    0  0.00000000000E+00  0.00000000000E+00  0.59058627401E+03  0.34539936098E+04  0.34031279302E+04 0.  0.
        2    1    3    3  502    0  0.14737246599E+04  0.35074532980E+03 -0.49116503188E+03  0.15925230762E+04  0.25500000920E-02 0.  1.
       -2    1    3    3    0  502 -0.14737246599E+04 -0.35074532980E+03  0.10817513059E+04  0.18614705336E+04  0.25500000920E-02 0. -1.
</event>
<event>
 5   0  0.5001197E-08  0.3400819E+04  0.7818609E-02  0.8137705E-01
       -2   -1    0    0    0  501  0.00000000000E+00  0.00000000000E+00  0.13499168953E+04  0.13499168953E+04  0.25500000920E-02 0. -1.
        2   -1    0    0  501    0  0.00000000000E+00  0.00000000000E+00 -0.21419034520E+04  0.21419034520E+04  0.25500000920E-02 0.  1.
    10030    2    1    2    0    0  0.00000000000E+00  0.00000000000E+00 -0.79198655668E+03  0.34918203474E+04  0.34008185239E+04 0.  0.
        5    1    3    3  502    0 -0.13225165069E+04 -0.10138523670E+04 -0.48676978882E+02  0.16671346891E+04  0.46999998093E+01 0. -1.
       -5    1    3    3    0  502  0.13225165069E+04  0.10138523670E+04 -0.74330957780E+03  0.18246856583E+04  0.46999998093E+01 0.  1.
</event>
<event>
 5   0  0.1630571E-08  0.3398962E+04  0.7818609E-02  0.8138161E-01
       -1   -1    0    0    0  501  0.00000000000E+00  0.00000000000E+00  0.18966463248E+04  0.18966463248E+04  0.50400001928E-02 0.  1.
        1   -1    0    0  501    0  0.00000000000E+00  0.00000000000E+00 -0.15228116764E+04  0.15228116764E+04  0.50400001928E-02 0. -1.
    10030    2    1    2    0    0  0.00000000000E+00  0.00000000000E+00  0.37383464836E+03  0.34194580012E+04  0.33989617058E+04 0.  0.
        3    1    3    3  502    0  0.27446480377E+03 -0.11344208439E+03  0.18703383296E+04  0.18937701847E+04  0.10100000352E+00 0.  1.
       -3    1    3    3    0  502 -0.27446480377E+03  0.11344208439E+03 -0.14965036813E+04  0.15256878164E+04  0.10100000352E+00 0. -1.
</event>
<event>
 5   0  0.1630571E-08  0.3400043E+04  0.7818609E-02  0.8137896E-01
        1   -1    0    0  501    0  0.00000000000E+00  0.00000000000E+00  0.20073344137E+04  0.20073344137E+04  0.50400001928E-02 0.  1.
       -1   -1    0    0    0  501  0.00000000000E+00  0.00000000000E+00 -0.14397567805E+04  0.14397567805E+04  0.50400001928E-02 0. -1.
    10030    2    1    2    0    0  0.00000000000E+00  0.00000000000E+00  0.56757763325E+03  0.34470911942E+04  0.34000431367E+04 0.  0.
        3    1    3    3  502    0  0.11325813357E+03  0.16949383505E+04  0.21631029092E+03  0.17124349824E+04  0.10100000352E+00 0. -1.
       -3    1    3    3    0  502 -0.11325813357E+03 -0.16949383505E+04  0.35126734234E+03  0.17346562117E+04  0.10100000352E+00 0.  1.
</event>
<event>
 5   0  0.1645631E-08  0.3401845E+04  0.7818609E-02  0.8137454E-01
        1   -1    0    0  501    0  0.00000000000E+00  0.00000000000E+00  0.18331607749E+04  0.18331607749E+04  0.50400001928E-02 0. -1.
       -1   -1    0    0    0  501  0.00000000000E+00  0.00000000000E+00 -0.15782237684E+04  0.15782237684E+04  0.50400001928E-02 0.  1.
    10030    2    1    2    0    0  0.00000000000E+00  0.00000000000E+00  0.25493700652E+03  0.34113845434E+04  0.34018453265E+04 0.  0.
        4    1    3    3  502    0  0.79088337408E+03  0.73793723490E+03  0.14438140113E+04  0.18040644074E+04  0.12699999809E+01 0. -1.
       -4    1    3    3    0  502 -0.79088337408E+03 -0.73793723490E+03 -0.11888770048E+04  0.16073201359E+04  0.12699999809E+01 0.  1.
</event>
<event>
 5   0  0.4775023E-08  0.3406008E+04  0.7818609E-02  0.8136433E-01
       -2   -1    0    0    0  501  0.00000000000E+00  0.00000000000E+00  0.13432295912E+04  0.13432295912E+04  0.25500000920E-02 0.  1.
        2   -1    0    0  501    0  0.00000000000E+00  0.00000000000E+00 -0.21591419279E+04  0.21591419279E+04  0.25500000920E-02 0. -1.
    10030    2    1    2    0    0  0.00000000000E+00  0.00000000000E+00 -0.81591233668E+03  0.35023715191E+04  0.34060084140E+04 0.  0.
        4    1    3    3  502    0  0.12555349736E+04  0.88941905919E+03 -0.11585300747E+04  0.19260394284E+04  0.12699999809E+01 0. -1.
       -4    1    3    3    0  502 -0.12555349736E+04 -0.88941905919E+03  0.34261773804E+03  0.15763320907E+04  0.12699999809E+01 0.  1.
</event>
<event>
 5   0  0.4764953E-08  0.3393384E+04  0.7818609E-02  0.8139532E-01
       -2   -1    0    0    0  501  0.00000000000E+00  0.00000000000E+00  0.22963145051E+04  0.22963145051E+04  0.25500000920E-02 0. -1.
        2   -1    0    0  501    0  0.00000000000E+00  0.00000000000E+00 -0.12536451549E+04  0.12536451549E+04  0.25500000920E-02 0.  1.
    10030    2    1    2    0    0  0.00000000000E+00  0.00000000000E+00  0.10426693503E+04  0.35499596600E+04  0.33933838883E+04 0.  0.
        2    1    3    3  502    0 -0.11706910367E+04 -0.69443675682E+03  0.15809906113E+04  0.20862145685E+04  0.25500000920E-02 0.  1.
       -2    1    3    3    0  502  0.11706910367E+04  0.69443675682E+03 -0.53832126104E+03  0.14637450915E+04  0.25500000920E-02 0. -1.
</event>
<event>
 5   0  0.4775023E-08  0.3407633E+04  0.7818609E-02  0.8136035E-01
        2   -1    0    0  501    0  0.00000000000E+00  0.00000000000E+00  0.27195797733E+04  0.27195797733E+04  0.25500000920E-02 0. -1.
       -2   -1    0    0    0  501  0.00000000000E+00  0.00000000000E+00 -0.10674410097E+04  0.10674410097E+04  0.25500000920E-02 0.  1.
    10030    2    1    2    0    0  0.00000000000E+00  0.00000000000E+00  0.16521387636E+04  0.37870207830E+04  0.34076331840E+04 0.  0.
        4    1    3    3  502    0  0.14738745730E+04  0.57245497263E+03  0.15315510631E+04  0.22012862659E+04  0.12699999809E+01 0.  1.
       -4    1    3    3    0  502 -0.14738745730E+04 -0.57245497263E+03  0.12058770057E+03  0.15857345172E+04  0.12699999809E+01 0. -1.
</event>
<event>
 5   0  0.4973409E-08  0.3399708E+04  0.7818609E-02  0.8137978E-01
        2   -1    0    0  501    0  0.00000000000E+00  0.00000000000E+00  0.16934149290E+04  0.16934149290E+04  0.25500000920E-02 0.  1.
       -2   -1    0    0    0  501  0.00000000000E+00  0.00000000000E+00 -0.17063178449E+04  0.17063178449E+04  0.25500000920E-02 0. -1.
    10030    2    1    2    0    0  0.00000000000E+00  0.00000000000E+00 -0.12902915922E+02  0.33997327740E+04  0.33997082888E+04 0.  0.
        1    1    3    3  502    0  0.87338371761E+02  0.16968538096E+04  0.44177651530E+02  0.16996742357E+04  0.50400001928E-02 0. -1.
       -1    1    3    3    0  502 -0.87338371761E+02 -0.16968538096E+04 -0.57080567452E+02  0.17000585383E+04  0.50400001928E-02 0.  1.
</event>
<event>
 5   0  0.4946315E-08  0.3401261E+04  0.7818609E-02  0.8137597E-01
        2   -1    0    0  501    0  0.00000000000E+00  0.00000000000E+00  0.15422408356E+04  0.15422408356E+04  0.25500000920E-02 0. -1.
       -2   -1    0    0    0  501  0.00000000000E+00  0.00000000000E+00 -0.18752869013E+04  0.18752869013E+04  0.25500000920E-02 0.  1.
    10030    2    1    2    0    0  0.00000000000E+00  0.00000000000E+00 -0.33304606567E+03  0.34175277369E+04  0.34012609648E+04 0.  0.
        3    1    3    3  502    0 -0.11615947918E+04 -0.84738545314E+03 -0.10790401335E+04  0.17976907927E+04  0.10100000352E+00 0.  1.
       -3    1    3    3    0  502  0.11615947918E+04  0.84738545314E+03  0.74599406781E+03  0.16198369442E+04  0.10100000352E+00 0. -1.
</event>
<event>
 5   0  0.1625282E-08  0.3401545E+04  0.7818609E-02  0.8137527E-01
        1   -1    0    0  501    0  0.00000000000E+00  0.00000000000E+00  0.18802793930E+04  0.18802793930E+04  0.50400001928E-02 0. -1.
       -1   -1    0    0    0  501  0.00000000000E+00  0.00000000000E+00 -0.15384026112E+04  0.15384026112E+04  0.50400001928E-02 0.  1.
    10030    2    1    2    0    0  0.00000000000E+00  0.00000000000E+00  0.34187678178E+03  0.34186820043E+04  0.34015447832E+04 0.  0.
        1    1    3    3  502    0 -0.74130345695E+01  0.16455598323E+04  0.60287636235E+03  0.17525358835E+04  0.50400001928E-02 0.  1.
       -1    1    3    3    0  502  0.74130345695E+01 -0.16455598323E+04 -0.26099958058E+03  0.16661461208E+04  0.50400001928E-02 0. -1.
</event>
<event>
 5   0  0.4764953E-08  0.3400543E+04  0.7818609E-02  0.8137773E-01
       -2   -1    0    0    0  501  0.00000000000E+00  0.00000000000E+00  0.13427308738E+04  0.13427308738E+04  0.25500000920E-02 0.  1.
        2   -1    0    0  501    0  0.00000000000E+00  0.00000000000E+00 -0.21530171398E+04  0.21530171398E+04  0.25500000920E-02 0. -1.
    10030    2    1    2    0    0  0.00000000000E+00  0.00000000000E+00 -0.81028626605E+03  0.34957480136E+04  0.34005426540E+04 0.  0.
        2    1    3    3  502    0 -0.55822175582E+03 -0.17997871538E+03 -0.20457307737E+04  0.21281490233E+04  0.25500000920E-02 0. -1.
       -2    1    3    3    0  502  0.55822175582E+03  0.17997871538E+03  0.12354445077E+04  0.13675989903E+04  0.25500000920E-02 0.  1.
</event>
<event>
 5   0  0.1595851E-08  0.3400084E+04  0.7818609E-02  0.8137886E-01
        1   -1    0    0  501    0  0.00000000000E+00  0.00000000000E+00  0.29901907373E+04  0.29901907373E+04  0.50400001928E-02 0.  1.
       -1   -1    0    0    0  501  0.00000000000E+00  0.00000000000E+00 -0.96654153581E+03  0.96654153582E+03  0.50400001928E-02 0. -1.
    10030    2    1    2    0    0  0.00000000000E+00  0.00000000000E+00  0.20236492015E+04  0.39567322731E+04  0.34000844387E+04 0.  0.
        2    1    3    3  502    0 -0.14973000319E+04 -0.77572265416E+03  0.76090811723E+03  0.18500362657E+04  0.25500000920E-02 0.  1.
       -2    1    3    3    0  502  0.14973000319E+04  0.77572265416E+03  0.12627410843E+04  0.21066960074E+04  0.25500000920E-02 0. -1.
</event>
<event>
 5   0  0.4764953E-08  0.3397565E+04  0.7818609E-02  0.8138504E-01
       -2   -1    0    0    0  501  0.00000000000E+00  0.00000000000E+00  0.21001365617E+04  0.21001365617E+04  0.25500000920E-02 0. -1.
        2   -1    0    0  501    0  0.00000000000E+00  0.00000000000E+00 -0.13741305290E+04  0.13741305290E+04  0.25500000920E-02 0.  1.
    10030    2    1    2    0    0  0.00000000000E+00  0.00000000000E+00  0.72600603264E+03  0.34742670907E+04  0.33975648718E+04 0.  0.
        2    1    3    3  502    0 -0.16568641990E+04  0.24059738384E+03  0.68800184528E+02  0.16756549586E+04  0.25500000920E-02 0. -1.
       -2    1    3    3    0  502  0.16568641990E+04 -0.24059738384E+03  0.65720584811E+03  0.17986121321E+04  0.25500000920E-02 0.  1.
</event>
<event>
 5   0  0.4775023E-08  0.3394659E+04  0.7818609E-02  0.8139219E-01
       -2   -1    0    0    0  501  0.00000000000E+00  0.00000000000E+00  0.14841321067E+04  0.14841321067E+04  0.25500000920E-02 0.  1.
        2   -1    0    0  501    0  0.00000000000E+00  0.00000000000E+00 -0.19411525170E+04  0.19411525170E+04  0.25500000920E-02 0. -1.
    10030    2    1    2    0    0  0.00000000000E+00  0.00000000000E+00 -0.45702041035E+03  0.34252846237E+04  0.33946586129E+04 0.  0.
        4    1    3    3  502    0 -0.10742780367E+03 -0.15583300808E+04  0.44155306179E+03  0.16232387665E+04  0.12699999809E+01 0.  1.
       -4    1    3    3    0  502  0.10742780367E+03  0.15583300808E+04 -0.89857347214E+03  0.18020458572E+04  0.12699999809E+01 0. -1.
</event>
<event>
 5   0  0.1625282E-08  0.3398631E+04  0.7818609E-02  0.8138242E-01
       -1   -1    0    0    0  501  0.00000000000E+00  0.00000000000E+00  0.10825983425E+04  0.10825983425E+04  0.50400001928E-02 0.  1.
        1   -1    0    0  501    0  0.00000000000E+00  0.00000000000E+00 -0.26673547040E+04  0.26673547040E+04  0.50400001928E-02 0. -1.
    10030    2    1    2    0    0  0.00000000000E+00  0.00000000000E+00 -0.15847563615E+04  0.37499530466E+04  0.33986313607E+04 0.  0.
        1    1    3    3  502    0  0.34084306682E+03 -0.14970542294E+04  0.11137247285E+02  0.15354052886E+04  0.50400001928E-02 0.  1.
       -1    1    3    3    0  502 -0.34084306682E+03  0.14970542294E+04 -0.15958936088E+04  0.22145477580E+04  0.50400001928E-02 0. -1.
</event>
<event>
 5   0  0.1630571E-08  0.3397160E+04  0.7818609E-02  0.8138604E-01
        1   -1    0    0  501    0  0.00000000000E+00  0.00000000000E+00  0.20444550225E+04  0.20444550225E+04  0.50400001928E-02 0. -1.
       -1   -1    0    0    0  501  0.00000000000E+00  0.00000000000E+00 -0.14112191586E+04  0.14112191586E+04  0.50400001928E-02 0.  1.
    10030    2    1    2    0    0  0.00000000000E+00  0.00000000000E+00  0.63323586391E+03  0.34556741811E+04  0.33971600472E+04 0.  0.
        3    1    3    3  502    0 -0.10534093111E+04  0.12754735338E+04 -0.75601138073E+02  0.16559648107E+04  0.10100000352E+00 0.  1.
       -3    1    3    3    0  502  0.10534093111E+04 -0.12754735338E+04  0.70883700199E+03  0.17997093703E+04  0.10100000352E+00 0. -1.
</event>
<event>
 5   0  0.4946315E-08  0.3391260E+04  0.7818609E-02  0.8140055E-01
       -2   -1    0    0    0  501  0.00000000000E+00  0.00000000000E+00  0.12676292102E+04  0.12676292102E+04  0.25500000920E-02 0.  1.
        2   -1    0    0  501    0  0.00000000000E+00  0.00000000000E+00 -0.22681402673E+04  0.22681402673E+04  0.25500000920E-02 0. -1.
    10030    2    1    2    0    0  0.00000000000E+00  0.00000000000E+00 -0.10005110571E+04  0.35357694774E+04  0.33912598577E+04 0.  0.
        3    1    3    3  502    0  0.13435371380E+04 -0.10289017241E+04 -0.61172267101E+03  0.17994264185E+04  0.10100000352E+00 0.  1.
       -3    1    3    3    0  502 -0.13435371380E+04  0.10289017241E+04 -0.38878838607E+03  0.17363430590E+04  0.10100000352E+00 0. -1.
</event>
<event>
 5   0  0.1579536E-08  0.3400116E+04  0.7818609E-02  0.8137878E-01
       -1   -1    0    0    0  501  0.00000000000E+00  0.00000000000E+00  0.22454687683E+04  0.22454687684E+04  0.50400001928E-02 0. -1.
        1   -1    0    0  501    0  0.00000000000E+00  0.00000000000E+00 -0.12871240391E+04  0.12871240391E+04  0.50400001928E-02 0.  1.
    10030    2    1    2    0    0  0.00000000000E+00  0.00000000000E+00  0.95834472928E+03  0.35325928074E+04  0.34001157808E+04 0.  0.
        5    1    3    3  502    0 -0.74104642716E+03  0.10584740085E+03 -0.11066742395E+04  0.13360776332E+04  0.46999998093E+01 0.  1.
       -5    1    3    3    0  502  0.74104642716E+03 -0.10584740085E+03  0.20650189688E+04  0.21965151743E+04  0.46999998093E+01 0. -1.
</event>
<event>
 5   0  0.1645631E-08  0.3399140E+04  0.7818609E-02  0.8138117E-01
        1   -1    0    0  501    0  0.00000000000E+00  0.00000000000E+00  0.16228267935E+04  0.16228267935E+04  0.50400001928E-02 0. -1.
       -1   -1    0    0    0  501  0.00000000000E+00  0.00000000000E+00 -0.17799426853E+04  0.17799426853E+04  0.50400001928E-02 0.  1.
    10030    2    1    2    0    0  0.00000000000E+00  0.00000000000E+00 -0.15711589177E+03  0.34027694788E+04  0.33991402916E+04 0.  0.
        4    1    3    3  502    0 -0.12502185924E+04 -0.63662810644E+03  0.88173429405E+03  0.16570452175E+04  0.12699999809E+01 0. -1.
       -4    1    3    3    0  502  0.12502185924E+04  0.63662810644E+03 -0.10388501858E+04  0.17457242612E+04  0.12699999809E+01 0.  1.
</event>
<event>
 5   0  0.4775023E-08  0.3399772E+04  0.7818609E-02  0.8137962E-01
       -2   -1    0    0    0  501  0.00000000000E+00  0.00000000000E+00  0.12959216588E+04  0.12959216588E+04  0.25500000920E-02 0.  1.
        2   -1    0    0  501    0  0.00000000000E+00  0.00000000000E+00 -0.22297737005E+04  0.22297737005E+04  0.25500000920E-02 0. -1.
    10030    2    1    2    0    0  0.00000000000E+00  0.00000000000E+00 -0.93385204167E+03  0.35256953594E+04  0.33997717764E+04 0.  0.
        4    1    3    3  502    0  0.71574085268E+03  0.83115404105E+03  0.87983108483E+03  0.14061317004E+04  0.12699999809E+01 0.  1.
       -4    1    3    3    0  502 -0.71574085268E+03 -0.83115404105E+03 -0.18136831265E+04  0.21195636590E+04  0.12699999809E+01 0. -1.
</event>
<event>
 5   0  0.4973409E-08  0.3399205E+04  0.7818609E-02  0.8138101E-01
       -2   -1    0    0    0  501  0.00000000000E+00  0.00000000000E+00  0.11192470892E+04  0.11192470892E+04  0.25500000920E-02 0. -1.
        2   -1    0    0  501    0  0.00000000000E+00  0.00000000000E+00 -0.25808858197E+04  0.25808858197E+04  0.25500000920E-02 0.  1.
    10030    2    1    2    0    0  0.00000000000E+00  0.00000000000E+00 -0.14616387305E+04  0.37001329089E+04  0.33992051667E+04 0.  0.
        1    1    3    3  502    0 -0.44977675717E+03 -0.15224817132E+04 -0.70126965994E+02  0.15890775593E+04  0.50400001928E-02 0. -1.
       -1    1    3    3    0  502  0.44977675717E+03  0.15224817132E+04 -0.13915117645E+04  0.21110553496E+04  0.50400001928E-02 0.  1.
</event>
<event>
 5   0  0.1595851E-08  0.3407863E+04  0.7818609E-02  0.8135979E-01
        1   -1    0    0  501    0  0.00000000000E+00  0.00000000000E+00  0.18426508508E+04  0.18426508508E+04  0.50400001928E-02 0.  1.
       -1   -1    0    0    0  501  0.00000000000E+00  0.00000000000E+00 -0.15756556368E+04  0.15756556368E+04  0.50400001928E-02 0. -1.
    10030    2    1    2    0    0  0.00000000000E+00  0.00000000000E+00  0.26699521401E+03  0.34183064876E+04  0.34078633774E+04 0.  0.
        2    1    3    3  502    0  0.11170747651E+04 -0.15355311967E+03 -0.11478945544E+04  0.16090669655E+04  0.25500000920E-02 0. -1.
       -2    1    3    3    0  502 -0.11170747651E+04  0.15355311967E+03  0.14148897685E+04  0.18092395221E+04  0.25500000920E-02 0.  1.
</event>
<event>
 5   0  0.4764953E-08  0.3396852E+04  0.7818609E-02  0.8138679E-01
       -2   -1    0    0    0  501  0.00000000000E+00  0.00000000000E+00  0.13500570356E+04  0.13500570356E+04  0.25500000920E-02 0. -1.
        2   -1    0    0  501    0  0.00000000000E+00  0.00000000000E+00 -0.21366884714E+04  0.21366884714E+04  0.25500000920E-02 0.  1.
    10030    2    1    2    0    0  0.00000000000E+00  0.00000000000E+00 -0.78663143573E+03  0.34867455070E+04  0.33968522510E+04 0.  0.
        2    1    3    3  502    0 -0.87212754307E+03 -0.10319068403E+04 -0.14497324460E+04  0.19817069267E+04  0.25500000920E-02 0.  1.
       -2    1    3    3    0  502  0.87212754307E+03  0.10319068403E+04  0.66310101025E+03  0.15050385803E+04  0.25500000920E-02 0. -1.
</event>
<event>
 5   0  0.4973409E-08  0.3404736E+04  0.7818609E-02  0.8136745E-01
       -2   -1    0    0    0  501  0.00000000000E+00  0.00000000000E+00  0.15894656282E+04  0.15894656282E+04  0.25500000920E-02 0.  1.
        2   -1    0    0  501    0  0.00000000000E+00  0.00000000000E+00 -0.18232897022E+04  0.18232897022E+04  0.25500000920E-02 0. -1.
    10030    2    1    2    0    0  0.00000000000E+00  0.00000000000E+00 -0.23382407402E+03  0.34127553303E+04  0.34047357089E+04 0.  0.
        1    1    3    3  502    0  0.15774395090E+04  0.55373668329E+03  0.20496205817E+03  0.16843245424E+04  0.50400001928E-02 0.  1.
       -1    1    3    3    0  502 -0.15774395090E+04 -0.55373668329E+03 -0.43878613218E+03  0.17284307879E+04  0.50400001928E-02 0. -1.
</event>
<event>
 5   0  0.4946315E-08  0.3396051E+04  0.7818609E-02  0.8138876E-01
        2   -1    0    0  501    0  0.00000000000E+00  0.00000000000E+00  0.22720060942E+04  0.22720060942E+04  0.25500000920E-02 0.  1.
       -2   -1    0    0    0  501  0.00000000000E+00  0.00000000000E+00 -0.12690508239E+04  0.12690508239E+04  0.25500000920E-02 0. -1.
    10030    2    1    2    0    0  0.00000000000E+00  0.00000000000E+00  0.10029552702E+04  0.35410569181E+04  0.33960513575E+04 0.  0.
        3    1    3    3  502    0  0.16553892211E+04  0.28374099159E+03  0.76208707490E+03  0.18443424691E+04  0.10100000352E+00 0. -1.
       -3    1    3    3    0  502 -0.16553892211E+04 -0.28374099159E+03  0.24086819534E+03  0.16967144490E+04  0.10100000352E+00 0.  1.
</event>
<event>
 5   0  0.4764953E-08  0.3402242E+04  0.7818609E-02  0.8137356E-01
       -2   -1    0    0    0  501  0.00000000000E+00  0.00000000000E+00  0.13462458661E+04  0.13462458661E+04  0.25500000920E-02 0. -1.
        2   -1    0    0  501    0  0.00000000000E+00  0.00000000000E+00 -0.21495430894E+04  0.21495430894E+04  0.25500000920E-02 0.  1.
    10030    2    1    2    0    0  0.00000000000E+00  0.00000000000E+00 -0.80329722329E+03  0.34957889556E+04  0.34022424947E+04 0.  0.
        2    1    3    3  502    0  0.76909968618E+03 -0.76711820273E+03 -0.17467767692E+04  0.20569914306E+04  0.25500000920E-02 0.  1.
       -2    1    3    3    0  502 -0.76909968618E+03  0.76711820273E+03  0.94347954592E+03  0.14387975250E+04  0.25500000920E-02 0. -1.
</event>
<event>
 5   0  0.1579536E-08  0.3400637E+04  0.7818609E-02  0.8137750E-01
       -1   -1    0    0    0  501  0.00000000000E+00  0.00000000000E+00  0.97524958705E+03  0.97524958707E+03  0.50400001928E-02 0.  1.
        1   -1    0    0  501    0  0.00000000000E+00  0.00000000000E+00 -0.29644541345E+04  0.29644541345E+04  0.50400001928E-02 0. -1.
    10030    2    1    2    0    0  0.00000000000E+00  0.00000000000E+00 -0.19892045474E+04  0.39397037216E+04  0.34006368054E+04 0.  0.
        5    1    3    3  502    0  0.15723427370E+04 -0.39439694985E+03 -0.15890141193E+04  0.22699776646E+04  0.46999998093E+01 0. -1.
       -5    1    3    3    0  502 -0.15723427370E+04  0.39439694985E+03 -0.40019042816E+03  0.16697260570E+04  0.46999998093E+01 0.  1.
</event>
<event>
 5   0  0.4775023E-08  0.3398842E+04  0.7818609E-02  0.8138191E-01
        2   -1    0    0  501    0  0.00000000000E+00  0.00000000000E+00  0.16039890230E+04  0.16039890230E+04  0.25500000920E-02 0. -1.
       -2   -1    0    0    0  501  0.00000000000E+00  0.00000000000E+00 -0.18005306504E+04  0.18005306504E+04  0.25500000920E-02 0.  1.
    10030    2    1    2    0    0  0.00000000000E+00  0.00000000000E+00 -0.19654162737E+03  0.34045196733E+04  0.33988418020E+04 0.  0.
        4    1    3    3  502    0 -0.91160497063E+03 -0.43592777228E+03 -0.14669256367E+04  0.17812717597E+04  0.12699999809E+01 0.  1.
       -4    1    3    3    0  502  0.91160497063E+03  0.43592777228E+03  0.12703840094E+04  0.16232479137E+04  0.12699999809E+01 0. -1.
</event>
<event>
 5   0  0.1630571E-08  0.3399733E+04  0.7818609E-02  0.8137972E-01
        1   -1    0    0  501    0  0.00000000000E+00  0.00000000000E+00  0.14441695097E+04  0.14441695097E+04  0.50400001928E-02 0. -1.
       -1   -1    0    0    0  501  0.00000000000E+00  0.00000000000E+00 -0.20008359400E+04  0.20008359401E+04  0.50400001928E-02 0.  1.
    10030    2    1    2    0    0  0.00000000000E+00  0.00000000000E+00 -0.55666643034E+03  0.34450054498E+04  0.33997330828E+04 0.  0.
        3    1    3    3  502    0  0.24413443155E+03  0.33669999395E+03  0.13918194114E+04  0.14526285797E+04  0.10100000352E+00 0. -1.
       -3    1    3    3    0  502 -0.24413443155E+03 -0.33669999395E+03 -0.19484858417E+04  0.19923768700E+04  0.10100000352E+00 0.  1.
</event>
<event>
 5   0  0.1630571E-08  0.3399426E+04  0.7818609E-02  0.8138047E-01
        1   -1    0    0  501    0  0.00000000000E+00  0.00000000000E+00  0.24907613595E+04  0.24907613595E+04  0.50400001928E-02 0.  1.
       -1   -1    0    0    0  501  0.00000000000E+00  0.00000000000E+00 -0.11598961946E+04  0.11598961946E+04  0.50400001928E-02 0. -1.
    10030    2    1    2    0    0  0.00000000000E+00  0.00000000000E+00  0.13308651649E+04  0.36506575541E+04  0.33994262002E+04 0.  0.
        3    1    3    3  502    0  0.85589745579E+03  0.67087591266E+03 -0.73739593345E+03  0.13139207426E+04  0.10100000352E+00 0. -1.
       -3    1    3    3    0  502 -0.85589745579E+03 -0.67087591266E+03  0.20682610984E+04  0.23367368115E+04  0.10100000352E+00 0.  1.
</event>
<event>
 5   0  0.4946315E-08  0.3401222E+04  0.7818609E-02  0.8137606E-01
        2   -1    0    0  501    0  0.00000000000E+00  0.00000000000E+00  0.14610578541E+04  0.14610578541E+04  0.25500000920E-02 0. -1.
       -2   -1    0    0    0  501  0.00000000000E+00  0.00000000000E+00 -0.19794410243E+04  0.19794410243E+04  0.25500000920E-02 0.  1.
    10030    2    1    2    0    0  0.00000000000E+00  0.00000000000E+00 -0.51838317019E+03  0.34404988783E+04  0.34012220481E+04 0.  0.
        3    1    3    3  502    0  0.27293402276E+03 -0.55028134787E+03  0.13449253660E+04  0.14785556442E+04  0.10100000352E+00 0. -1.
       -3    1    3    3    0  502 -0.27293402276E+03  0.55028134787E+03 -0.18633085362E+04  0.19619432341E+04  0.10100000352E+00 0.  1.
</event>
<event>
 5   0  0.1573625E-08  0.3400156E+04  0.7818609E-02  0.8137868E-01
       -3   -1    0    0    0  501  0.00000000000E+00  0.00000000000E+00  0.13861198898E+04  0.13861198935E+04  0.10100000352E+00 0. -1.
        3   -1    0    0  501    0  0.00000000000E+00  0.00000000000E+00 -0.20851477662E+04  0.20851477687E+04  0.10100000352E+00 0.  1.
    10030    2    1    2    0    0  0.00000000000E+00  0.00000000000E+00 -0.69902787641E+03  0.34712676621E+04  0.34001557626E+04 0.  0.
        3    1    3    3  502    0  0.12457645076E+04  0.56720985216E+03 -0.13788712944E+04  0.19429210693E+04  0.10100000352E+00 0.  1.
       -3    1    3    3    0  502 -0.12457645076E+04 -0.56720985216E+03  0.67984341795E+03  0.15283465929E+04  0.10100000352E+00 0. -1.
</event>
<event>
 5   0  0.1630571E-08  0.3400099E+04  0.7818609E-02  0.8137882E-01
        1   -1    0    0  501    0  0.00000000000E+00  0.00000000000E+00  0.21567976410E+04  0.21567976410E+04  0.50400001928E-02 0. -1.
       -1   -1    0    0    0  501  0.00000000000E+00  0.00000000000E+00 -0.13400271798E+04  0.13400271798E+04  0.50400001928E-02 0.  1.
    10030    2    1    2    0    0  0.00000000000E+00  0.00000000000E+00  0.81677046121E+03  0.34968248209E+04  0.34000985047E+04 0.  0.
        3    1    3    3  502    0 -0.39154208528E+03  0.11377791647E+04  0.16435170580E+04  0.20369081870E+04  0.10100000352E+00 0. -1.
       -3    1    3    3    0  502  0.39154208528E+03 -0.11377791647E+04 -0.82674659679E+03  0.14599166338E+04  0.10100000352E+00 0.  1.
</event>
<event>
 5   0  0.1645631E-08  0.3399006E+04  0.7818609E-02  0.8138150E-01
        1   -1    0    0  501    0  0.00000000000E+00  0.00000000000E+00  0.23296682460E+04  0.23296682460E+04  0.50400001928E-02 0. -1.
       -1   -1    0    0    0  501  0.00000000000E+00  0.00000000000E+00 -0.12397944623E+04  0.12397944623E+04  0.50400001928E-02 0.  1.
    10030    2    1    2    0    0  0.00000000000E+00  0.00000000000E+00  0.10898737837E+04  0.35694627083E+04  0.33990056136E+04 0.  0.
        4    1    3    3  502    0  0.16756157234E+04  0.16120074435E+03  0.79039887299E+03  0.18596789303E+04  0.12699999809E+01 0. -1.
       -4    1    3    3    0  502 -0.16756157234E+04 -0.16120074435E+03  0.29947491073E+03  0.17097837780E+04  0.12699999809E+01 0.  1.
</event>
<event>
 5   0  0.1579536E-08  0.3405610E+04  0.7818609E-02  0.8136531E-01
        1   -1    0    0  501    0  0.00000000000E+00  0.00000000000E+00  0.22415247617E+04  0.22415247617E+04  0.50400001928E-02 0.  1.
       -1   -1    0    0    0  501  0.00000000000E+00  0.00000000000E+00 -0.12935590973E+04  0.12935590973E+04  0.50400001928E-02 0. -1.
    10030    2    1    2    0    0  0.00000000000E+00  0.00000000000E+00  0.94796566439E+03  0.35350838590E+04  0.34056099291E+04 0.  0.
        5    1    3    3  502    0  0.15572740554E+04  0.68741257696E+03  0.42892612741E+03  0.17554595544E+04  0.46999998093E+01 0.  1.
       -5    1    3    3    0  502 -0.15572740554E+04 -0.68741257696E+03  0.51903953698E+03  0.17796243046E+04  0.46999998093E+01 0. -1.
</event>
<event>
 5   0  0.1645631E-08  0.3400354E+04  0.7818609E-02  0.8137819E-01
       -1   -1    0    0    0  501  0.00000000000E+00  0.00000000000E+00  0.14750136981E+04  0.14750136981E+04  0.50400001928E-02 0. -1.
        1   -1    0    0  501    0  0.00000000000E+00  0.00000000000E+00 -0.19597120116E+04  0.19597120116E+04  0.50400001928E-02 0.  1.
    10030    2    1    2    0    0  0.00000000000E+00  0.00000000000E+00 -0.48469831356E+03  0.34347257097E+04  0.34003541353E+04 0.  0.
        4    1    3    3  502    0  0.13827881419E+04 -0.98593964547E+03 -0.16141169519E+03  0.17059412001E+04  0.12699999809E+01 0.  1.
       -4    1    3    3    0  502 -0.13827881419E+04  0.98593964547E+03 -0.32328661836E+03  0.17287845096E+04  0.12699999809E+01 0. -1.
</event>
<event>
 5   0  0.4973409E-08  0.3399322E+04  0.7818609E-02  0.8138073E-01
       -2   -1    0    0    0  501  0.00000000000E+00  0.00000000000E+00  0.12560572075E+04  0.12560572075E+04  0.25500000920E-02 0.  1.
        2   -1    0    0  501    0  0.00000000000E+00  0.00000000000E+00 -0.22999331809E+04  0.22999331809E+04  0.25500000920E-02 0. -1.
    10030    2    1    2    0    0  0.00000000000E+00  0.00000000000E+00 -0.10438759734E+04  0.35559903884E+04  0.33993220787E+04 0.  0.
        1    1    3    3  502    0 -0.15871087627E+04  0.69291886666E+02 -0.11540488386E+04  0.19635540003E+04  0.50400001928E-02 0. -1.
       -1    1    3    3    0  502  0.15871087627E+04 -0.69291886666E+02  0.11017286520E+03  0.15924363882E+04  0.50400001928E-02 0.  1.
</event>
<event>
 5   0  0.1625282E-08  0.3399756E+04  0.7818609E-02  0.8137966E-01
        1   -1    0    0  501    0  0.00000000000E+00  0.00000000000E+00  0.27301064392E+04  0.27301064392E+04  0.50400001928E-02 0. -1.
       -1   -1    0    0    0  501  0.00000000000E+00  0.00000000000E+00 -0.10584147702E+04  0.10584147702E+04  0.50400001928E-02 0.  1.
    10030    2    1    2    0    0  0.00000000000E+00  0.00000000000E+00  0.16716916690E+04  0.37885212094E+04  0.33997558615E+04 0.  0.
        1    1    3    3  502    0  0.19795553930E+03 -0.16457301028E+04  0.41596908006E+03  0.17089892459E+04  0.50400001928E-02 0.  1.
       -1    1    3    3    0  502 -0.19795553930E+03  0.16457301028E+04  0.12557225890E+04  0.20795319635E+04  0.50400001928E-02 0. -1.
</event>
<event>
 5   0  0.4946315E-08  0.3400148E+04  0.7818609E-02  0.8137870E-01
        2   -1    0    0  501    0  0.00000000000E+00  0.00000000000E+00  0.20691078976E+04  0.20691078976E+04  0.25500000920E-02 0.  1.
       -2   -1    0    0    0  501  0.00000000000E+00  0.00000000000E+00 -0.13968584223E+04  0.13968584223E+04  0.25500000920E-02 0. -1.
    10030    2    1    2    0    0  0.00000000000E+00  0.00000000000E+00  0.67224947530E+03  0.34659663199E+04  0.34001475223E+04 0.  0.
        3    1    3    3  502    0  0.40038339328E+03 -0.13323240348E+04  0.13322080227E+04  0.19261807862E+04  0.10100000352E+00 0.  1.
       -3    1    3    3    0  502 -0.40038339328E+03  0.13323240348E+04 -0.65995854735E+03  0.15397855337E+04  0.10100000352E+00 0. -1.
</event>
<event>
 5   0  0.4775023E-08  0.3400910E+04  0.7818609E-02  0.8137683E-01
        2   -1    0    0  501    0  0.00000000000E+00  0.00000000000E+00  0.19890982760E+04  0.19890982760E+04  0.25500000920E-02 0. -1.
       -2   -1    0    0    0  501  0.00000000000E+00  0.00000000000E+00 -0.14536978927E+04  0.14536978927E+04  0.25500000920E-02 0.  1.
    10030    2    1    2    0    0  0.00000000000E+00  0.00000000000E+00  0.53540038329E+03  0.34427961688E+04  0.34009104501E+04 0.  0.
        4    1    3    3  502    0 -0.12767972314E+04 -0.10884031443E+04 -0.12683545186E+02  0.16777947013E+04  0.12699999809E+01 0.  1.
       -4    1    3    3    0  502  0.12767972314E+04  0.10884031443E+04  0.54808392848E+03  0.17650014675E+04  0.12699999809E+01 0. -1.
</event>
<event>
 5   0  0.1645631E-08  0.3398539E+04  0.7818609E-02  0.8138265E-01
        1   -1    0    0  501    0  0.00000000000E+00  0.00000000000E+00  0.20776746082E+04  0.20776746082E+04  0.50400001928E-02 0. -1.
       -1   -1    0    0    0  501  0.00000000000E+00  0.00000000000E+00 -0.13897829877E+04  0.13897829877E+04  0.50400001928E-02 0.  1.
    10030    2    1    2    0    0  0.00000000000E+00  0.00000000000E+00  0.68789162051E+03  0.34674575960E+04  0.33985389947E+04 0.  0.
        4    1    3    3  502    0  0.50305704835E+03 -0.75041600411E+03 -0.11244494938E+04  0.14424211764E+04  0.12699999809E+01 0.  1.
       -4    1    3    3    0  502 -0.50305704835E+03  0.75041600411E+03  0.18123411143E+04  0.20250364196E+04  0.12699999809E+01 0. -1.
</event>
<event>
 5   0  0.1625282E-08  0.3397066E+04  0.7818609E-02  0.8138627E-01
       -1   -1    0    0    0  501  0.00000000000E+00  0.00000000000E+00  0.22426176938E+04  0.22426176938E+04  0.50400001928E-02 0. -1.
        1   -1    0    0  501    0  0.00000000000E+00  0.00000000000E+00 -0.12864494088E+04  0.12864494088E+04  0.50400001928E-02 0.  1.
    10030    2    1    2    0    0  0.00000000000E+00  0.00000000000E+00  0.95616828498E+03  0.35290671026E+04  0.33970659142E+04 0.  0.
        1    1    3    3  502    0 -0.11563823807E+04 -0.32547991735E+03  0.17255165152E+04  0.21025138837E+04  0.50400001928E-02 0. -1.
       -1    1    3    3    0  502  0.11563823807E+04  0.32547991735E+03 -0.76934823017E+03  0.14265532189E+04  0.50400001928E-02 0.  1.
</event>
<event>
 5   0  0.4764953E-08  0.3400538E+04  0.7818609E-02  0.8137774E-01
        2   -1    0    0  501    0  0.00000000000E+00  0.00000000000E+00  0.24054398353E+04  0.24054398353E+04  0.25500000920E-02 0. -1.
       -2   -1    0    0    0  501  0.00000000000E+00  0.00000000000E+00 -0.12018239666E+04  0.12018239666E+04  0.25500000920E-02 0.  1.
    10030    2    1    2    0    0  0.00000000000E+00  0.00000000000E+00  0.12036158687E+04  0.36072638019E+04  0.34005383364E+04 0.  0.
        2    1    3    3  502    0  0.16151948704E+04  0.45809992417E+03  0.88685368427E+03  0.18987415483E+04  0.25500000920E-02 0. -1.
       -2    1    3    3    0  502 -0.16151948704E+04 -0.45809992417E+03  0.31676218438E+03  0.17085222537E+04  0.25500000920E-02 0.  1.
</event>
<event>
 5   0  0.4946315E-08  0.3406004E+04  0.7818609E-02  0.8136434E-01
        2   -1    0    0  501    0  0.00000000000E+00  0.00000000000E+00  0.17798742557E+04  0.17798742557E+04  0.25500000920E-02 0. -1.
       -2   -1    0    0    0  501  0.00000000000E+00  0.00000000000E+00 -0.16294502082E+04  0.16294502082E+04  0.25500000920E-02 0.  1.
    10030    2    1    2    0    0  0.00000000000E+00  0.00000000000E+00  0.15042404747E+03  0.34093244639E+04  0.34060043902E+04 0.  0.
        3    1    3    3  502    0 -0.75113323362E+03 -0.14107038412E+04  0.66394348856E+03  0.17306378675E+04  0.10100000352E+00 0. -1.
       -3    1    3    3    0  502  0.75113323362E+03  0.14107038412E+04 -0.51351944109E+03  0.16786865964E+04  0.10100000352E+00 0.  1.
</event>
<event>
 5   0  0.1645631E-08  0.3400455E+04  0.7818609E-02  0.8137795E-01
       -1   -1    0    0    0  501  0.00000000000E+00  0.00000000000E+00  0.11539668856E+04  0.11539668856E+04  0.50400001928E-02 0. -1.
        1   -1    0    0  501    0  0.00000000000E+00  0.00000000000E+00 -0.25050753649E+04  0.25050753649E+04  0.50400001928E-02 0.  1.
    10030    2    1    2    0    0  0.00000000000E+00  0.00000000000E+00 -0.13511084793E+04  0.36590422505E+04  0.34004552736E+04 0.  0.
        4    1    3    3  502    0  0.60009144366E+03  0.15901274054E+04 -0.72553531137E+03  0.18479767333E+04  0.12699999809E+01 0.  1.
       -4    1    3    3    0  502 -0.60009144366E+03 -0.15901274054E+04 -0.62557316789E+03  0.18110655171E+04  0.12699999809E+01 0. -1.
</event>
<event>
 5   0  0.1595851E-08  0.3398311E+04  0.7818609E-02  0.8138321E-01
        1   -1    0    0  501    0  0.00000000000E+00  0.00000000000E+00  0.17265379163E+04  0.17265379163E+04  0.50400001928E-02 0.  1.
       -1   -1    0    0    0  501  0.00000000000E+00  0.00000000000E+00 -0.16722078434E+04  0.16722078435E+04  0.50400001928E-02 0. -1.
    10030    2    1    2    0    0  0.00000000000E+00  0.00000000000E+00  0.54330072839E+02  0.33987457598E+04  0.33983114899E+04 0.  0.
        2    1    3    3  502    0  0.11230750493E+04 -0.84154935389E+03 -0.93088606156E+03  0.16840581168E+04  0.25500000920E-02 0.  1.
       -2    1    3    3    0  502 -0.11230750493E+04  0.84154935389E+03  0.98521613440E+03  0.17146876429E+04  0.25500000920E-02 0. -1.
</event>
<event>
 5   0  0.1625282E-08  0.3400907E+04  0.7818609E-02  0.8137684E-01
        1   -1    0    0  501    0  0.00000000000E+00  0.00000000000E+00  0.15854599570E+04  0.15854599570E+04  0.50400001928E-02 0. -1.
       -1   -1    0    0    0  501  0.00000000000E+00  0.00000000000E+00 -0.18237876858E+04  0.18237876858E+04  0.50400001928E-02 0.  1.
    10030    2    1    2    0    0  0.00000000000E+00  0.00000000000E+00 -0.23832772882E+03  0.34092476428E+04  0.34009071413E+04 0.  0.
        1    1    3    3  502    0  0.23919199267E+03 -0.14496075891E+04  0.73907088864E+03  0.16446278455E+04  0.50400001928E-02 0. -1.
       -1    1    3    3    0  502 -0.23919199267E+03  0.14496075891E+04 -0.97739861746E+03  0.17646197973E+04  0.50400001928E-02 0.  1.
</event>
<event>
 5   0  0.4764953E-08  0.3400491E+04  0.7818609E-02  0.8137786E-01
       -2   -1    0    0    0  501  0.00000000000E+00  0.00000000000E+00  0.35511358423E+04  0.35511358423E+04  0.25500000920E-02 0.  1.
        2   -1    0    0  501    0  0.00000000000E+00  0.00000000000E+00 -0.81405901427E+03  0.81405901428E+03  0.25500000920E-02 0. -1.
    10030    2    1    2    0    0  0.00000000000E+00  0.00000000000E+00  0.27370768281E+04  0.43651948566E+04  0.34004906372E+04 0.  0.
        2    1    3    3  502    0  0.31116647376E+03  0.48358435531E+03 -0.68543701526E+03  0.89470794396E+03  0.25500000920E-02 0. -1.
       -2    1    3    3    0  502 -0.31116647376E+03 -0.48358435531E+03  0.34225138433E+04  0.34704869127E+04  0.25500000920E-02 0.  1.
</event>
<event>
 5   0  0.1579536E-08  0.3402090E+04  0.7818609E-02  0.8137394E-01
        1   -1    0    0  501    0  0.00000000000E+00  0.00000000000E+00  0.17103925118E+04  0.17103925118E+04  0.50400001928E-02 0.  1.
       -1   -1    0    0    0  501  0.00000000000E+00  0.00000000000E+00 -0.16917481855E+04  0.16917481855E+04  0.50400001928E-02 0. -1.
    10030    2    1    2    0    0  0.00000000000E+00  0.00000000000E+00  0.18644326320E+02  0.34021406973E+04  0.34020896099E+04 0.  0.
        5    1    3    3  502    0  0.12050952899E+03  0.13072515651E+04 -0.10724066750E+04  0.16951422854E+04  0.46999998093E+01 0. -1.
       -5    1    3    3    0  502 -0.12050952899E+03 -0.13072515651E+04  0.10910510013E+04  0.17069984120E+04  0.46999998093E+01 0.  1.
</event>
<event>
 5   0  0.1630571E-08  0.3400331E+04  0.7818609E-02  0.8137825E-01
       -1   -1    0    0    0  501  0.00000000000E+00  0.00000000000E+00  0.10519279795E+04  0.10519279795E+04  0.50400001928E-02 0. -1.
        1   -1    0    0  501    0  0.00000000000E+00  0.00000000000E+00 -0.27478718094E+04  0.27478718094E+04  0.50400001928E-02 0.  1.
    10030    2    1    2    0    0  0.00000000000E+00  0.00000000000E+00 -0.16959438299E+04  0.37997997889E+04  0.34003313017E+04 0.  0.
        3    1    3    3  502    0 -0.14281308733E+04  0.64827324736E+03 -0.11455532343E+03  0.15725580838E+04  0.10100000352E+00 0. -1.
       -3    1    3    3    0  502  0.14281308733E+04 -0.64827324736E+03 -0.15813885065E+04  0.22272417052E+04  0.10100000352E+00 0.  1.
</event>
<event>
 5   0  0.4946315E-08  0.3404412E+04  0.7818609E-02  0.8136824E-01
        2   -1    0    0  501    0  0.00000000000E+00  0.00000000000E+00  0.12190479104E+04  0.12190479104E+04  0.25500000920E-02 0. -1.
       -2   -1    0    0    0  501  0.00000000000E+00  0.00000000000E+00 -0.23768593866E+04  0.23768593866E+04  0.25500000920E-02 0.  1.
    10030    2    1    2    0    0  0.00000000000E+00  0.00000000000E+00 -0.11578114762E+04  0.35959072970E+04  0.34044121188E+04 0.  0.
        3    1    3    3  502    0  0.10606303369E+04 -0.12967162883E+04 -0.89770337529E+03  0.19006002221E+04  0.10100000352E+00 0. -1.
       -3    1    3    3    0  502 -0.10606303369E+04  0.12967162883E+04 -0.26010810090E+03  0.16953070749E+04  0.10100000352E+00 0.  1.
</event>
<event>
 5   0  0.4946315E-08  0.3403184E+04  0.7818609E-02  0.8137125E-01
        2   -1    0    0  501    0  0.00000000000E+00  0.00000000000E+00  0.19159733666E+04  0.19159733666E+04  0.25500000920E-02 0. -1.
       -2   -1    0    0    0  501  0.00000000000E+00  0.00000000000E+00 -0.15111983137E+04  0.15111983138E+04  0.25500000920E-02 0.  1.
    10030    2    1    2    0    0  0.00000000000E+00  0.00000000000E+00  0.40477505289E+03  0.34271716804E+04  0.34031842271E+04 0.  0.
        3    1    3    3  502    0  0.78078270568E+03  0.10644238095E+04  0.12836388125E+04  0.18412898443E+04  0.10100000352E+00 0. -1.
       -3    1    3    3    0  502 -0.78078270568E+03 -0.10644238095E+04 -0.87886375963E+03  0.15858818360E+04  0.10100000352E+00 0.  1.
</event>
<event>
 5   0  0.1625282E-08  0.3401207E+04  0.7818609E-02  0.8137610E-01
        1   -1    0    0  501    0  0.00000000000E+00  0.00000000000E+00  0.26680326713E+04  0.26680326713E+04  0.50400001928E-02 0.  1.
       -1   -1    0    0    0  501  0.00000000000E+00  0.00000000000E+00 -0.10839643055E+04  0.10839643055E+04  0.50400001928E-02 0. -1.
    10030    2    1    2    0    0  0.00000000000E+00  0.00000000000E+00  0.15840683658E+04  0.37519969768E+04  0.34012069514E+04 0.  0.
        1    1    3    3  502    0  0.85508557189E+03 -0.22369913303E+03 -0.81068351474E+03  0.11993416521E+04  0.50400001928E-02 0. -1.
       -1    1    3    3    0  502 -0.85508557189E+03  0.22369913303E+03  0.23947518805E+04  0.25526553247E+04  0.50400001928E-02 0.  1.
</event>
<event>
 5   0  0.4973409E-08  0.3419808E+04  0.7818609E-02  0.8133062E-01
       -2   -1    0    0    0  501  0.00000000000E+00  0.00000000000E+00  0.12754605243E+04  0.12754605243E+04  0.25500000920E-02 0.  1.
        2   -1    0    0  501    0  0.00000000000E+00  0.00000000000E+00 -0.22923256729E+04  0.22923256729E+04  0.25500000920E-02 0. -1.
    10030    2    1    2    0    0  0.00000000000E+00  0.00000000000E+00 -0.10168651486E+04  0.35677861972E+04  0.34198075411E+04 0.  0.
        1    1    3    3  502    0  0.50970053337E+03  0.40493392602E+03  0.11411253690E+04  0.13137477786E+04  0.50400001928E-02 0.  1.
       -1    1    3    3    0  502 -0.50970053337E+03 -0.40493392602E+03 -0.21579905176E+04  0.22540384185E+04  0.50400001928E-02 0. -1.
</event>
<event>
 5   0  0.1595851E-08  0.3392914E+04  0.7818609E-02  0.8139648E-01
       -1   -1    0    0    0  501  0.00000000000E+00  0.00000000000E+00  0.27785221182E+04  0.27785221182E+04  0.50400001928E-02 0.  1.
        1   -1    0    0  501    0  0.00000000000E+00  0.00000000000E+00 -0.10357903941E+04  0.10357903941E+04  0.50400001928E-02 0. -1.
    10030    2    1    2    0    0  0.00000000000E+00  0.00000000000E+00  0.17427317242E+04  0.38143125123E+04  0.33929140984E+04 0.  0.
        2    1    3    3  502    0  0.13815632205E+04 -0.94675703787E+03  0.11749011960E+04  0.20458393489E+04  0.25500000920E-02 0. -1.
       -2    1    3    3    0  502 -0.13815632205E+04  0.94675703787E+03  0.56783052814E+03  0.17684731634E+04  0.25500000920E-02 0.  1.
</event>
<event>
 5   0  0.1625282E-08  0.3400252E+04  0.7818609E-02  0.8137844E-01
        1   -1    0    0  501    0  0.00000000000E+00  0.00000000000E+00  0.23989047953E+04  0.23989047953E+04  0.50400001928E-02 0.  1.
       -1   -1    0    0    0  501  0.00000000000E+00  0.00000000000E+00 -0.12048953406E+04  0.12048953406E+04  0.50400001928E-02 0. -1.
    10030    2    1    2    0    0  0.00000000000E+00  0.00000000000E+00  0.11940094547E+04  0.36038001360E+04  0.34002524674E+04 0.  0.
        1    1    3    3  502    0  0.37228958062E+03  0.13861186372E+04  0.15628790194E+04  0.21219131079E+04  0.50400001928E-02 0.  1.
       -1    1    3    3    0  502 -0.37228958062E+03 -0.13861186372E+04 -0.36886956471E+03  0.14818870281E+04  0.50400001928E-02 0. -1.
</event>
<event>
 5   0  0.1573625E-08  0.3399870E+04  0.7818609E-02  0.8137938E-01
        4   -1    0    0  501    0  0.00000000000E+00  0.00000000000E+00  0.14760875812E+04  0.14760881275E+04  0.12699999809E+01 0. -1.
       -4   -1    0    0    0  501  0.00000000000E+00  0.00000000000E+00 -0.19577281078E+04  0.19577285197E+04  0.12699999809E+01 0.  1.
    10030    2    1    2    0    0  0.00000000000E+00  0.00000000000E+00 -0.48164052655E+03  0.34338166472E+04  0.33998704637E+04 0.  0.
        3    1    3    3  502    0  0.29045181525E+03 -0.14376480101E+04  0.62717066408E+03  0.15951605280E+04  0.10100000352E+00 0. -1.
       -3    1    3    3    0  502 -0.29045181525E+03  0.14376480101E+04 -0.11088111906E+04  0.18386561192E+04  0.10100000352E+00 0.  1.
</event>
<event>
 5   0  0.4973409E-08  0.3399871E+04  0.7818609E-02  0.8137938E-01
        2   -1    0    0  501    0  0.00000000000E+00  0.00000000000E+00  0.19799840973E+04  0.19799840973E+04  0.25500000920E-02 0.  1.
       -2   -1    0    0    0  501  0.00000000000E+00  0.00000000000E+00 -0.14594967564E+04  0.14594967564E+04  0.25500000920E-02 0. -1.
    10030    2    1    2    0    0  0.00000000000E+00  0.00000000000E+00  0.52048734087E+03  0.34394808537E+04  0.33998708021E+04 0.  0.
        1    1    3    3  502    0 -0.76938558840E+03  0.13851009437E+04 -0.36282260697E+03  0.16254534912E+04  0.50400001928E-02 0. -1.
       -1    1    3    3    0  502  0.76938558840E+03 -0.13851009437E+04  0.88330994783E+03  0.18140273625E+04  0.50400001928E-02 0.  1.
</event>
<event>
 5   0  0.1645631E-08  0.3400822E+04  0.7818609E-02  0.8137705E-01
       -1   -1    0    0    0  501  0.00000000000E+00  0.00000000000E+00  0.13238103777E+04  0.13238103777E+04  0.50400001928E-02 0. -1.
        1   -1    0    0  501    0  0.00000000000E+00  0.00000000000E+00 -0.21841480088E+04  0.21841480088E+04  0.50400001928E-02 0.  1.
    10030    2    1    2    0    0  0.00000000000E+00  0.00000000000E+00 -0.86033763110E+03  0.35079583866E+04  0.34008221362E+04 0.  0.
        4    1    3    3  502    0  0.55159768670E+02 -0.74397167850E+02  0.13212063030E+04  0.13244490351E+04  0.12699999809E+01 0. -1.
       -4    1    3    3    0  502 -0.55159768670E+02  0.74397167850E+02 -0.21815439341E+04  0.21835093515E+04  0.12699999809E+01 0.  1.
</event>
<event>
 5   0  0.1595851E-08  0.3399796E+04  0.7818609E-02  0.8137956E-01
        1   -1    0    0  501    0  0.00000000000E+00  0.00000000000E+00  0.13759814801E+04  0.13759814801E+04  0.50400001928E-02 0. -1.
       -1   -1    0    0    0  501  0.00000000000E+00  0.00000000000E+00 -0.21000674657E+04  0.21000674657E+04  0.50400001928E-02 0.  1.
    10030    2    1    2    0    0  0.00000000000E+00  0.00000000000E+00 -0.72408598565E+03  0.34760489458E+04  0.33997964290E+04 0.  0.
        2    1    3    3  502    0 -0.16894096583E+04  0.11133254158E+03 -0.51762024316E+03  0.17704323326E+04  0.25500000920E-02 0. -1.
       -2    1    3    3    0  502  0.16894096583E+04 -0.11133254158E+03 -0.20646574249E+03  0.17056166132E+04  0.25500000920E-02 0.  1.
</event>
<event>
 5   0  0.4764953E-08  0.3399290E+04  0.7818609E-02  0.8138081E-01
       -2   -1    0    0    0  501  0.00000000000E+00  0.00000000000E+00  0.15179091473E+04  0.15179091473E+04  0.25500000920E-02 0. -1.
        2   -1    0    0  501    0  0.00000000000E+00  0.00000000000E+00 -0.19031399450E+04  0.19031399450E+04  0.25500000920E-02 0.  1.
    10030    2    1    2    0    0  0.00000000000E+00  0.00000000000E+00 -0.38523079769E+03  0.34210490923E+04  0.33992902384E+04 0.  0.
        2    1    3    3  502    0 -0.24765440202E+03 -0.33600283079E+03 -0.18507547112E+04  0.18972410512E+04  0.25500000920E-02 0.  1.
       -2    1    3    3    0  502  0.24765440202E+03  0.33600283079E+03  0.14655239135E+04  0.15238080411E+04  0.25500000920E-02 0. -1.
</event>
<event>
 5   0  0.1630571E-08  0.3399623E+04  0.7818609E-02  0.8137999E-01
        1   -1    0    0  501    0  0.00000000000E+00  0.00000000000E+00  0.21050283224E+04  0.21050283224E+04  0.50400001928E-02 0.  1.
       -1   -1    0    0    0  501  0.00000000000E+00  0.00000000000E+00 -0.13725986052E+04  0.13725986052E+04  0.50400001928E-02 0. -1.
    10030    2    1    2    0    0  0.00000000000E+00  0.00000000000E+00  0.73242971722E+03  0.34776269276E+04  0.33996228845E+04 0.  0.
        3    1    3    3  502    0 -0.99948465015E+03 -0.13495880835E+04  0.97506549414E+02  0.16822202883E+04  0.10100000352E+00 0.  1.
       -3    1    3    3    0  502  0.99948465015E+03  0.13495880835E+04  0.63492316780E+03  0.17954066393E+04  0.10100000352E+00 0. -1.
</event>
<event>
 5   0  0.5001197E-08  0.3399287E+04  0.7818609E-02  0.8138081E-01
       -2   -1    0    0    0  501  0.00000000000E+00  0.00000000000E+00  0.12879937453E+04  0.12879937453E+04  0.25500000920E-02 0. -1.
        2   -1    0    0  501    0  0.00000000000E+00  0.00000000000E+00 -0.22428586616E+04  0.22428586616E+04  0.25500000920E-02 0.  1.
    10030    2    1    2    0    0  0.00000000000E+00  0.00000000000E+00 -0.95486491636E+03  0.35308524069E+04  0.33992869416E+04 0.  0.
        5    1    3    3  502    0  0.55344179199E+03 -0.57834391966E+03 -0.20347908636E+04  0.21865899147E+04  0.46999998093E+01 0.  1.
       -5    1    3    3    0  502 -0.55344179199E+03  0.57834391966E+03  0.10799259472E+04  0.13442624922E+04  0.46999998093E+01 0. -1.
</event>
<event>
 5   0  0.1630571E-08  0.3395858E+04  0.7818609E-02  0.8138924E-01
       -1   -1    0    0    0  501  0.00000000000E+00  0.00000000000E+00  0.13541274597E+04  0.13541274597E+04  0.50400001928E-02 0.  1.
        1   -1    0    0  501    0  0.00000000000E+00  0.00000000000E+00 -0.21290184495E+04  0.21290184495E+04  0.50400001928E-02 0. -1.
    10030    2    1    2    0    0  0.00000000000E+00  0.00000000000E+00 -0.77489098985E+03  0.34831459092E+04  0.33958576794E+04 0.  0.
        3    1    3    3  502    0  0.30952168970E+03 -0.11595757283E+04 -0.16193769346E+04  0.20156391573E+04  0.10100000352E+00 0.  1.
       -3    1    3    3    0  502 -0.30952168970E+03  0.11595757283E+04  0.84448594473E+03  0.14675067519E+04  0.10100000352E+00 0. -1.
</event>
<event>
 5   0  0.4764953E-08  0.3401338E+04  0.7818609E-02  0.8137578E-01
       -2   -1    0    0    0  501  0.00000000000E+00  0.00000000000E+00  0.18941145588E+04  0.18941145588E+04  0.25500000920E-02 0. -1.
        2   -1    0    0  501    0  0.00000000000E+00  0.00000000000E+00 -0.15269801065E+04  0.15269801065E+04  0.25500000920E-02 0.  1.
    10030    2    1    2    0    0  0.00000000000E+00  0.00000000000E+00  0.36713445226E+03  0.34210946653E+04  0.34013381194E+04 0.  0.
        2    1    3    3  502    0 -0.48462627748E+03 -0.16488906407E+03  0.18147839734E+04  0.18856012045E+04  0.25500000920E-02 0. -1.
       -2    1    3    3    0  502  0.48462627748E+03  0.16488906407E+03 -0.14476495211E+04  0.15354934608E+04  0.25500000920E-02 0.  1.
</event>
<event>
 5   0  0.4764953E-08  0.3396566E+04  0.7818609E-02  0.8138750E-01
        2   -1    0    0  501    0  0.00000000000E+00  0.00000000000E+00  0.16830784478E+04  0.16830784478E+04  0.25500000920E-02 0.  1.
       -2   -1    0    0    0  501  0.00000000000E+00  0.00000000000E+00 -0.17136248223E+04  0.17136248223E+04  0.25500000920E-02 0. -1.
    10030    2    1    2    0    0  0.00000000000E+00  0.00000000000E+00 -0.30546374521E+02  0.33967032701E+04  0.33965659163E+04 0.  0.
        2    1    3    3  502    0 -0.15542963295E+04 -0.54154441765E+03  0.40314254915E+03  0.16945888442E+04  0.25500000920E-02 0. -1.
       -2    1    3    3    0  502  0.15542963295E+04  0.54154441765E+03 -0.43368892367E+03  0.17021144258E+04  0.25500000920E-02 0.  1.
</event>
<event>
 5   0  0.1625282E-08  0.3399141E+04  0.7818609E-02  0.8138117E-01
       -1   -1    0    0    0  501  0.00000000000E+00  0.00000000000E+00  0.13479628124E+04  0.13479628124E+04  0.50400001928E-02 0. -1.
        1   -1    0    0  501    0  0.00000000000E+00  0.00000000000E+00 -0.21428934770E+04  0.21428934770E+04  0.50400001928E-02 0.  1.
    10030    2    1    2    0    0  0.00000000000E+00  0.00000000000E+00 -0.79493066458E+03  0.34908562894E+04  0.33991414904E+04 0.  0.
        1    1    3    3  502    0  0.59662319306E+03 -0.44055768008E+02 -0.20311865935E+04  0.21174558136E+04  0.50400001928E-02 0.  1.
       -1    1    3    3    0  502 -0.59662319306E+03  0.44055768008E+02  0.12362559289E+04  0.13734004758E+04  0.50400001928E-02 0. -1.
</event>
<event>
 5   0  0.4946315E-08  0.3403221E+04  0.7818609E-02  0.8137116E-01
        2   -1    0    0  501    0  0.00000000000E+00  0.00000000000E+00  0.24462968495E+04  0.24462968495E+04  0.25500000920E-02 0.  1.
       -2   -1    0    0    0  501  0.00000000000E+00  0.00000000000E+00 -0.11836169563E+04  0.11836169563E+04  0.25500000920E-02 0. -1.
    10030    2    1    2    0    0  0.00000000000E+00  0.00000000000E+00  0.12626798932E+04  0.36299138058E+04  0.34032210808E+04 0.  0.
        3    1    3    3  502    0  0.16268192722E+04 -0.46128688381E+03  0.83414166848E+03  0.18855022850E+04  0.10100000352E+00 0. -1.
       -3    1    3    3    0  502 -0.16268192722E+04  0.46128688381E+03  0.42853822476E+03  0.17444115208E+04  0.10100000352E+00 0.  1.
</event>
<event>
 5   0  0.4764953E-08  0.3406961E+04  0.7818609E-02  0.8136200E-01
        2   -1    0    0  501    0  0.00000000000E+00  0.00000000000E+00  0.14509862865E+04  0.14509862865E+04  0.25500000920E-02 0. -1.
       -2   -1    0    0    0  501  0.00000000000E+00  0.00000000000E+00 -0.19999130943E+04  0.19999130943E+04  0.25500000920E-02 0.  1.
    10030    2    1    2    0    0  0.00000000000E+00  0.00000000000E+00 -0.54892680781E+03  0.34508993809E+04  0.34069613876E+04 0.  0.
        2    1    3    3  502    0  0.13144633150E+04  0.97882225467E+03 -0.74514941697E+03  0.18003206566E+04  0.25500000920E-02 0.  1.
       -2    1    3    3    0  502 -0.13144633150E+04 -0.97882225467E+03  0.19622260915E+03  0.16505787243E+04  0.25500000920E-02 0. -1.
</event>
<event>
 5   0  0.1630571E-08  0.3392795E+04  0.7818609E-02  0.8139677E-01
       -1   -1    0    0    0  501  0.00000000000E+00  0.00000000000E+00  0.91785199961E+03  0.91785199962E+03  0.50400001928E-02 0. -1.
        1   -1    0    0  501    0  0.00000000000E+00  0.00000000000E+00 -0.31353258603E+04  0.31353258603E+04  0.50400001928E-02 0.  1.
    10030    2    1    2    0    0  0.00000000000E+00  0.00000000000E+00 -0.22174738606E+04  0.40531778599E+04  0.33927953727E+04 0.  0.
        3    1    3    3  502    0  0.67195508894E+03 -0.15549397417E+04 -0.99922098488E+03  0.19666732897E+04  0.10100000352E+00 0. -1.
       -3    1    3    3    0  502 -0.67195508894E+03  0.15549397417E+04 -0.12182528758E+04  0.20865045701E+04  0.10100000352E+00 0.  1.
</event>
<event>
 5   0  0.1630571E-08  0.3398780E+04  0.7818609E-02  0.8138206E-01
        1   -1    0    0  501    0  0.00000000000E+00  0.00000000000E+00  0.23296986281E+04  0.23296986281E+04  0.50400001928E-02 0.  1.
       -1   -1    0    0    0  501  0.00000000000E+00  0.00000000000E+00 -0.12396137622E+04  0.12396137622E+04  0.50400001928E-02 0. -1.
    10030    2    1    2    0    0  0.00000000000E+00  0.00000000000E+00  0.10900848659E+04  0.35693123903E+04  0.33987800642E+04 0.  0.
        3    1    3    3  502    0 -0.12239705754E+04 -0.16930657131E+03  0.17702671045E+04  0.21588455980E+04  0.10100000352E+00 0.  1.
       -3    1    3    3    0  502  0.12239705754E+04  0.16930657131E+03 -0.68018223859E+03  0.14104667924E+04  0.10100000352E+00 0. -1.
</event>
<event>
 5   0  0.1645631E-08  0.3401629E+04  0.7818609E-02  0.8137507E-01
       -1   -1    0    0    0  501  0.00000000000E+00  0.00000000000E+00  0.23109735366E+04  0.23109735366E+04  0.50400001928E-02 0. -1.
        1   -1    0    0  501    0  0.00000000000E+00  0.00000000000E+00 -0.12517534979E+04  0.12517534979E+04  0.50400001928E-02 0.  1.
    10030    2    1    2    0    0  0.00000000000E+00  0.00000000000E+00  0.10592200387E+04  0.35627270346E+04  0.34016285559E+04 0.  0.
        4    1    3    3  502    0 -0.14100961950E+04 -0.53797583480E+03 -0.29173487638E+03  0.15371727713E+04  0.12699999809E+01 0.  1.
       -4    1    3    3    0  502  0.14100961950E+04  0.53797583480E+03  0.13509549151E+04  0.20255542633E+04  0.12699999809E+01 0. -1.
</event>
<event>
 5   0  0.4946315E-08  0.3399140E+04  0.7818609E-02  0.8138117E-01
        2   -1    0    0  501    0  0.00000000000E+00  0.00000000000E+00  0.26173938687E+04  0.26173938687E+04  0.25500000920E-02 0. -1.
       -2   -1    0    0    0  501  0.00000000000E+00  0.00000000000E+00 -0.11035931561E+04  0.11035931561E+04  0.25500000920E-02 0.  1.
    10030    2    1    2    0    0  0.00000000000E+00  0.00000000000E+00  0.15138007126E+04  0.37209870249E+04  0.33991398679E+04 0.  0.
        3    1    3    3  502    0  0.10350090472E+04  0.73434375254E+03 -0.48064246439E+03  0.13570267733E+04  0.10100000352E+00 0.  1.
       -3    1    3    3    0  502 -0.10350090472E+04 -0.73434375254E+03  0.19944431770E+04  0.23639602516E+04  0.10100000352E+00 0. -1.
</event>
<event>
 5   0  0.4764953E-08  0.3399491E+04  0.7818609E-02  0.8138031E-01
        2   -1    0    0  501    0  0.00000000000E+00  0.00000000000E+00  0.21152878483E+04  0.21152878483E+04  0.25500000920E-02 0. -1.
       -2   -1    0    0    0  501  0.00000000000E+00  0.00000000000E+00 -0.13658350565E+04  0.13658350565E+04  0.25500000920E-02 0.  1.
    10030    2    1    2    0    0  0.00000000000E+00  0.00000000000E+00  0.74945279175E+03  0.34811229048E+04  0.33994907253E+04 0.  0.
        2    1    3    3  502    0 -0.56340582149E+03  0.44301891950E+03 -0.12035306962E+04  0.14007776481E+04  0.25500000920E-02 0.  1.
       -2    1    3    3    0  502  0.56340582149E+03 -0.44301891950E+03  0.19529834880E+04  0.20803452567E+04  0.25500000920E-02 0. -1.
</event>
<event>
 5   0  0.4775023E-08  0.3400879E+04  0.7818609E-02  0.8137691E-01
        2   -1    0    0  501    0  0.00000000000E+00  0.00000000000E+00  0.21548232095E+04  0.21548232095E+04  0.25500000920E-02 0.  1.
       -2   -1    0    0    0  501  0.00000000000E+00  0.00000000000E+00 -0.13418712328E+04  0.13418712328E+04  0.25500000920E-02 0. -1.
    10030    2    1    2    0    0  0.00000000000E+00  0.00000000000E+00  0.81295197666E+03  0.34966944423E+04  0.34008794608E+04 0.  0.
        4    1    3    3  502    0  0.84775882019E+03  0.47693840303E+03 -0.10275694365E+04  0.14149437506E+04  0.12699999809E+01 0. -1.
       -4    1    3    3    0  502 -0.84775882019E+03 -0.47693840303E+03  0.18405214132E+04  0.20817506918E+04  0.12699999809E+01 0.  1.
</event>
<event>
 5   0  0.1595851E-08  0.3402926E+04  0.7818609E-02  0.8137188E-01
        1   -1    0    0  501    0  0.00000000000E+00  0.00000000000E+00  0.19691963514E+04  0.19691963515E+04  0.50400001928E-02 0. -1.
       -1   -1    0    0    0  501  0.00000000000E+00  0.00000000000E+00 -0.14701312090E+04  0.14701312090E+04  0.50400001928E-02 0.  1.
    10030    2    1    2    0    0  0.00000000000E+00  0.00000000000E+00  0.49906514244E+03  0.34393275605E+04  0.34029263953E+04 0.  0.
        2    1    3    3  502    0  0.17422429582E+02  0.30253141322E+03  0.19417026643E+04  0.19652068679E+04  0.25500000920E-02 0. -1.
       -2    1    3    3    0  502 -0.17422429582E+02 -0.30253141322E+03 -0.14426375218E+04  0.14741206926E+04  0.25500000920E-02 0.  1.
</event>
<event>
 5   0  0.1573625E-08  0.3399749E+04  0.7818609E-02  0.8137968E-01
       -3   -1    0    0    0  501  0.00000000000E+00  0.00000000000E+00  0.12742320331E+04  0.12742320371E+04  0.10100000352E+00 0. -1.
        3   -1    0    0  501    0  0.00000000000E+00  0.00000000000E+00 -0.22676978033E+04  0.22676978056E+04  0.10100000352E+00 0.  1.
    10030    2    1    2    0    0  0.00000000000E+00  0.00000000000E+00 -0.99346577023E+03  0.35419298427E+04  0.33997489281E+04 0.  0.
        5    1    3    3  502    0 -0.93273786438E+03 -0.85329672850E+03 -0.16806724444E+04  0.21030447418E+04  0.46999998093E+01 0.  1.
       -5    1    3    3    0  502  0.93273786438E+03  0.85329672850E+03  0.68720667421E+03  0.14388851009E+04  0.46999998093E+01 0. -1.
</event>
<event>
 5   0  0.4973409E-08  0.3398648E+04  0.7818609E-02  0.8138238E-01
        2   -1    0    0  501    0  0.00000000000E+00  0.00000000000E+00  0.22528210768E+04  0.22528210768E+04  0.25500000920E-02 0.  1.
       -2   -1    0    0    0  501  0.00000000000E+00  0.00000000000E+00 -0.12818157251E+04  0.12818157251E+04  0.25500000920E-02 0. -1.
    10030    2    1    2    0    0  0.00000000000E+00  0.00000000000E+00  0.97100535167E+03  0.35346368019E+04  0.33986476617E+04 0.  0.
        1    1    3    3  502    0 -0.13235515970E+04 -0.52621228295E+03 -0.47841199805E+03  0.15025199621E+04  0.50400001928E-02 0.  1.
       -1    1    3    3    0  502  0.13235515970E+04  0.52621228295E+03  0.14494173497E+04  0.20321168398E+04  0.50400001928E-02 0. -1.
</event>
<event>
 5   0  0.4764953E-08  0.3400051E+04  0.7818609E-02  0.8137894E-01
        2   -1    0    0  501    0  0.00000000000E+00  0.00000000000E+00  0.17873822038E+04  0.17873822038E+04  0.25500000920E-02 0. -1.
       -2   -1    0    0    0  501  0.00000000000E+00  0.00000000000E+00 -0.16169385163E+04  0.16169385163E+04  0.25500000920E-02 0.  1.
    10030    2    1    2    0    0  0.00000000000E+00  0.00000000000E+00  0.17044368750E+03  0.34043207200E+04  0.34000512517E+04 0.  0.
        2    1    3    3  502    0  0.71329646534E+03 -0.13062519241E+04  0.90783807483E+03  0.17433461810E+04  0.25500000920E-02 0. -1.
       -2    1    3    3    0  502 -0.71329646534E+03  0.13062519241E+04 -0.73739438733E+03  0.16609745390E+04  0.25500000920E-02 0.  1.
</event>
<event>
 5   0  0.1625282E-08  0.3400422E+04  0.7818609E-02  0.8137803E-01
       -1   -1    0    0    0  501  0.00000000000E+00  0.00000000000E+00  0.11388645271E+04  0.11388645271E+04  0.50400001928E-02 0. -1.
        1   -1    0    0  501    0  0.00000000000E+00  0.00000000000E+00 -0.25382446665E+04  0.25382446665E+04  0.50400001928E-02 0.  1.
    10030    2    1    2    0    0  0.00000000000E+00  0.00000000000E+00 -0.13993801395E+04  0.36771091936E+04  0.34004216278E+04 0.  0.
        1    1    3    3  502    0 -0.50827469630E+03 -0.10259557906E+04 -0.20588582910E+04  0.23558068498E+04  0.50400001928E-02 0.  1.
       -1    1    3    3    0  502  0.50827469630E+03  0.10259557906E+04  0.65947815156E+03  0.13213023438E+04  0.50400001928E-02 0. -1.
</event>
<event>
 5   0  0.1630571E-08  0.3397520E+04  0.7818609E-02  0.8138515E-01
        1   -1    0    0  501    0  0.00000000000E+00  0.00000000000E+00  0.16650872865E+04  0.16650872865E+04  0.50400001928E-02 0. -1.
       -1   -1    0    0    0  501  0.00000000000E+00  0.00000000000E+00 -0.17331137349E+04  0.17331137349E+04  0.50400001928E-02 0.  1.
    10030    2    1    2    0    0  0.00000000000E+00  0.00000000000E+00 -0.68026448391E+02  0.33982010213E+04  0.33975200638E+04 0.  0.
        3    1    3    3  502    0 -0.55062734479E+03 -0.12172707586E+04  0.10154096592E+04  0.16780927742E+04  0.10100000352E+00 0. -1.
       -3    1    3    3    0  502  0.55062734479E+03  0.12172707586E+04 -0.10834361076E+04  0.17201082472E+04  0.10100000352E+00 0.  1.
</event>
<event>
 5   0  0.1645631E-08  0.3401438E+04  0.7818609E-02  0.8137553E-01
       -1   -1    0    0    0  501  0.00000000000E+00  0.00000000000E+00  0.13228705321E+04  0.13228705322E+04  0.50400001928E-02 0. -1.
        1   -1    0    0  501    0  0.00000000000E+00  0.00000000000E+00 -0.21864913383E+04  0.21864913383E+04  0.50400001928E-02 0.  1.
    10030    2    1    2    0    0  0.00000000000E+00  0.00000000000E+00 -0.86362080616E+03  0.35093618705E+04  0.34014379079E+04 0.  0.
        4    1    3    3  502    0  0.64530586001E+03  0.78169620184E+03  0.97716068945E+03  0.14079464588E+04  0.12699999809E+01 0. -1.
       -4    1    3    3    0  502 -0.64530586001E+03 -0.78169620184E+03 -0.18407814956E+04  0.21014154117E+04  0.12699999809E+01 0.  1.
</event>
<event>
 5   0  0.1630571E-08  0.3398207E+04  0.7818609E-02  0.8138347E-01
       -1   -1    0    0    0  501  0.00000000000E+00  0.00000000000E+00  0.18202500827E+04  0.18202500827E+04  0.50400001928E-02 0. -1.
        1   -1    0    0  501    0  0.00000000000E+00  0.00000000000E+00 -0.15860194701E+04  0.15860194701E+04  0.50400001928E-02 0.  1.
    10030    2    1    2    0    0  0.00000000000E+00  0.00000000000E+00  0.23423061261E+03  0.34062695529E+04  0.33982066281E+04 0.  0.
        3    1    3    3  502    0  0.30643939113E+03 -0.14784943636E+04  0.89813114125E+03  0.17568409834E+04  0.10100000352E+00 0. -1.
       -3    1    3    3    0  502 -0.30643939113E+03  0.14784943636E+04 -0.66390052864E+03  0.16494285695E+04  0.10100000352E+00 0.  1.
</event>
<event>
 5   0  0.4946315E-08  0.3401151E+04  0.7818609E-02  0.8137624E-01
        2   -1    0    0  501    0  0.00000000000E+00  0.00000000000E+00  0.17421203980E+04  0.17421203980E+04  0.25500000920E-02 0.  1.
       -2   -1    0    0    0  501  0.00000000000E+00  0.00000000000E+00 -0.16600213853E+04  0.16600213853E+04  0.25500000920E-02 0. -1.
    10030    2    1    2    0    0  0.00000000000E+00  0.00000000000E+00  0.82099012690E+02  0.34021417833E+04  0.34011510502E+04 0.  0.
        3    1    3    3  502    0 -0.21847251323E+03  0.10201870540E+04  0.13843648300E+04  0.17334871955E+04  0.10100000352E+00 0.  1.
       -3    1    3    3    0  502  0.21847251323E+03 -0.10201870540E+04 -0.13022658173E+04  0.16686545878E+04  0.10100000352E+00 0. -1.
</event>
<event>
 5   0  0.1595851E-08  0.3396106E+04  0.7818609E-02  0.8138863E-01
        1   -1    0    0  501    0  0.00000000000E+00  0.00000000000E+00  0.19970465270E+04  0.19970465270E+04  0.50400001928E-02 0.  1.
       -1   -1    0    0    0  501  0.00000000000E+00  0.00000000000E+00 -0.14438241662E+04  0.14438241663E+04  0.50400001928E-02 0. -1.
    10030    2    1    2    0    0  0.00000000000E+00  0.00000000000E+00  0.55322236078E+03  0.34408706933E+04  0.33961060271E+04 0.  0.
        2    1    3    3  502    0  0.21709583788E+03 -0.16174864752E+04 -0.19860312517E+03  0.16440305051E+04  0.25500000920E-02 0. -1.
       -2    1    3    3    0  502 -0.21709583788E+03  0.16174864752E+04  0.75182548595E+03  0.17968401882E+04  0.25500000920E-02 0.  1.
</event>
<event>
 5   0  0.4973409E-08  0.3399838E+04  0.7818609E-02  0.8137946E-01
       -2   -1    0    0    0  501  0.00000000000E+00  0.00000000000E+00  0.13033554283E+04  0.13033554283E+04  0.25500000920E-02 0. -1.
        2   -1    0    0  501    0  0.00000000000E+00  0.00000000000E+00 -0.22171428277E+04  0.22171428277E+04  0.25500000920E-02 0.  1.
    10030    2    1    2    0    0  0.00000000000E+00  0.00000000000E+00 -0.91378739941E+03  0.35204982559E+04  0.33998383136E+04 0.  0.
        1    1    3    3  502    0 -0.13875200552E+04 -0.83182688748E+03  0.83724528379E+02  0.16199252054E+04  0.50400001928E-02 0.  1.
       -1    1    3    3    0  502  0.13875200552E+04  0.83182688748E+03 -0.99751192779E+03  0.19005730505E+04  0.50400001928E-02 0. -1.
</event>
<event>
 5   0  0.1595851E-08  0.3400568E+04  0.7818609E-02  0.8137767E-01
       -1   -1    0    0    0  501  0.00000000000E+00  0.00000000000E+00  0.18601956537E+04  0.18601956537E+04  0.50400001928E-02 0. -1.
        1   -1    0    0  501    0  0.00000000000E+00  0.00000000000E+00 -0.15541193910E+04  0.15541193910E+04  0.50400001928E-02 0.  1.
    10030    2    1    2    0    0  0.00000000000E+00  0.00000000000E+00  0.30607626270E+03  0.34143150448E+04  0.34005682681E+04 0.  0.
        2    1    3    3  502    0  0.30851269841E+03  0.37794128696E+03  0.17884092907E+04  0.18537603654E+04  0.25500000920E-02 0. -1.
       -2    1    3    3    0  502 -0.30851269841E+03 -0.37794128696E+03 -0.14823330280E+04  0.15605546794E+04  0.25500000920E-02 0.  1.
</event>
<event>
 5   0  0.1630571E-08  0.3399231E+04  0.7818609E-02  0.8138095E-01
       -1   -1    0    0    0  501  0.00000000000E+00  0.00000000000E+00  0.15290207395E+04  0.15290207395E+04  0.50400001928E-02 0.  1.
        1   -1    0    0  501    0  0.00000000000E+00  0.00000000000E+00 -0.18892432724E+04  0.18892432724E+04  0.50400001928E-02 0. -1.
    10030    2    1    2    0    0  0.00000000000E+00  0.00000000000E+00 -0.36022253289E+03  0.34182640119E+04  0.33992305868E+04 0.  0.
        3    1    3    3  502    0 -0.14363141494E+03 -0.48564181630E+03  0.14513831387E+04  0.15372023232E+04  0.10100000352E+00 0.  1.
       -3    1    3    3    0  502  0.14363141494E+03  0.48564181630E+03 -0.18116056716E+04  0.18810616887E+04  0.10100000352E+00 0. -1.
</event>
<event>
 5   0  0.4775023E-08  0.3399603E+04  0.7818609E-02  0.8138004E-01
        2   -1    0    0  501    0  0.00000000000E+00  0.00000000000E+00  0.15351396327E+04  0.15351396327E+04  0.25500000920E-02 0.  1.
       -2   -1    0    0    0  501  0.00000000000E+00  0.00000000000E+00 -0.18821250114E+04  0.18821250114E+04  0.25500000920E-02 0. -1.
    10030    2    1    2    0    0  0.00000000000E+00  0.00000000000E+00 -0.34698537869E+03  0.34172646441E+04  0.33996027408E+04 0.  0.
        4    1    3    3  502    0  0.12608835599E+04 -0.93930054510E+03 -0.82276653966E+03  0.17745588909E+04  0.12699999809E+01 0. -1.
       -4    1    3    3    0  502 -0.12608835599E+04  0.93930054510E+03  0.47578116097E+03  0.16427057532E+04  0.12699999809E+01 0.  1.
</event>
<event>
 5   0  0.1645631E-08  0.3399659E+04  0.7818609E-02  0.8137990E-01
        1   -1    0    0  501    0  0.00000000000E+00  0.00000000000E+00  0.13402768253E+04  0.13402768253E+04  0.50400001928E-02 0.  1.
       -1   -1    0    0    0  501  0.00000000000E+00  0.00000000000E+00 -0.21558384670E+04  0.21558384670E+04  0.50400001928E-02 0. -1.
    10030    2    1    2    0    0  0.00000000000E+00  0.00000000000E+00 -0.81556164169E+03  0.34961152923E+04  0.33996590043E+04 0.  0.
        4    1    3    3  502    0 -0.15608549574E+04  0.55842506918E+03 -0.21200395377E+02  0.16578775062E+04  0.12699999809E+01 0.  1.
       -4    1    3    3    0  502  0.15608549574E+04 -0.55842506918E+03 -0.79436124632E+03  0.18382377861E+04  0.12699999809E+01 0. -1.
</event>
<event>
 5   0  0.4764953E-08  0.3400622E+04  0.7818609E-02  0.8137754E-01
        2   -1    0    0  501    0  0.00000000000E+00  0.00000000000E+00  0.28412301243E+04  0.28412301243E+04  0.25500000920E-02 0. -1.
       -2   -1    0    0    0  501  0.00000000000E+00  0.00000000000E+00 -0.10175369972E+04  0.10175369972E+04  0.25500000920E-02 0.  1.
    10030    2    1    2    0    0  0.00000000000E+00  0.00000000000E+00  0.18236931270E+04  0.38587671215E+04  0.34006215720E+04 0.  0.
        2    1    3    3  502    0  0.10938929860E+04 -0.64280360549E+03  0.21962712136E+04  0.25364158933E+04  0.25500000920E-02 0. -1.
       -2    1    3    3    0  502 -0.10938929860E+04  0.64280360549E+03 -0.37257808655E+03  0.13223512282E+04  0.25500000920E-02 0.  1.
</event>
<event>
 5   0  0.1579536E-08  0.3401315E+04  0.7818609E-02  0.8137584E-01
       -1   -1    0    0    0  501  0.00000000000E+00  0.00000000000E+00  0.13210081369E+04  0.13210081369E+04  0.50400001928E-02 0. -1.
        1   -1    0    0  501    0  0.00000000000E+00  0.00000000000E+00 -0.21894156257E+04  0.21894156257E+04  0.50400001928E-02 0.  1.
    10030    2    1    2    0    0  0.00000000000E+00  0.00000000000E+00 -0.86840748881E+03  0.35104237626E+04  0.34013149555E+04 0.  0.
        5    1    3    3  502    0  0.38448018675E+03 -0.12955959663E+04 -0.14997065514E+04  0.20187956192E+04  0.46999998093E+01 0.  1.
       -5    1    3    3    0  502 -0.38448018675E+03  0.12955959663E+04  0.63129906259E+03  0.14916281434E+04  0.46999998093E+01 0. -1.
</event>
<event>
 5   0  0.4946315E-08  0.3398224E+04  0.7818609E-02  0.8138342E-01
       -2   -1    0    0    0  501  0.00000000000E+00  0.00000000000E+00  0.20544810687E+04  0.20544810687E+04  0.25500000920E-02 0. -1.
        2   -1    0    0  501    0  0.00000000000E+00  0.00000000000E+00 -0.14052122817E+04  0.14052122817E+04  0.25500000920E-02 0.  1.
    10030    2    1    2    0    0  0.00000000000E+00  0.00000000000E+00  0.64926878707E+03  0.34596933504E+04  0.33982242600E+04 0.  0.
        3    1    3    3  502    0  0.16251525325E+04  0.48715500919E+03  0.23054370959E+03  0.17121889992E+04  0.10100000352E+00 0.  1.
       -3    1    3    3    0  502 -0.16251525325E+04 -0.48715500919E+03  0.41872507748E+03  0.17475043512E+04  0.10100000352E+00 0. -1.
</event>
<event>
 5   0  0.1595851E-08  0.3394480E+04  0.7818609E-02  0.8139263E-01
       -1   -1    0    0    0  501  0.00000000000E+00  0.00000000000E+00  0.13515255047E+04  0.13515255047E+04  0.50400001928E-02 0. -1.
        1   -1    0    0  501    0  0.00000000000E+00  0.00000000000E+00 -0.21313864242E+04  0.21313864242E+04  0.50400001928E-02 0.  1.
    10030    2    1    2    0    0  0.00000000000E+00  0.00000000000E+00 -0.77986091950E+03  0.34829119289E+04  0.33944797025E+04 0.  0.
        2    1    3    3  502    0  0.82975977416E+03  0.12552053654E+04 -0.11956139389E+04  0.19218570402E+04  0.25500000920E-02 0. -1.
       -2    1    3    3    0  502 -0.82975977416E+03 -0.12552053654E+04  0.41575301940E+03  0.15610548886E+04  0.25500000920E-02 0.  1.
</event>
<event>
 5   0  0.4764953E-08  0.3397484E+04  0.7818609E-02  0.8138524E-01
        2   -1    0    0  501    0  0.00000000000E+00  0.00000000000E+00  0.21130286253E+04  0.21130286253E+04  0.25500000920E-02 0.  1.
       -2   -1    0    0    0  501  0.00000000000E+00  0.00000000000E+00 -0.13656813282E+04  0.13656813282E+04  0.25500000920E-02 0. -1.
    10030    2    1    2    0    0  0.00000000000E+00  0.00000000000E+00  0.74734729709E+03  0.34787099535E+04  0.33974836215E+04 0.  0.
        2    1    3    3  502    0 -0.14121983298E+04 -0.88846627922E+03  0.46587931086E+02  0.16690856441E+04  0.25500000920E-02 0. -1.
       -2    1    3    3    0  502  0.14121983298E+04  0.88846627922E+03  0.70075936601E+03  0.18096243094E+04  0.25500000920E-02 0.  1.
</event>
<event>
 5   0  0.4973409E-08  0.3398516E+04  0.7818609E-02  0.8138271E-01
        2   -1    0    0  501    0  0.00000000000E+00  0.00000000000E+00  0.24599728711E+04  0.24599728711E+04  0.25500000920E-02 0. -1.
       -2   -1    0    0    0  501  0.00000000000E+00  0.00000000000E+00 -0.11737843208E+04  0.11737843208E+04  0.25500000920E-02 0.  1.
    10030    2    1    2    0    0  0.00000000000E+00  0.00000000000E+00  0.12861885503E+04  0.36337571919E+04  0.33985159030E+04 0.  0.
        1    1    3    3  502    0  0.12369114162E+04 -0.77385853950E+03 -0.28821355061E+03  0.14872370159E+04  0.50400001928E-02 0.  1.
       -1    1    3    3    0  502 -0.12369114162E+04  0.77385853950E+03  0.15744021009E+04  0.21465201760E+04  0.50400001928E-02 0. -1.
</event>
<event>
 5   0  0.1630571E-08  0.3400768E+04  0.7818609E-02  0.8137718E-01
       -1   -1    0    0    0  501  0.00000000000E+00  0.00000000000E+00  0.27178753107E+04  0.27178753107E+04  0.50400001928E-02 0.  1.
        1   -1    0    0  501    0  0.00000000000E+00  0.00000000000E+00 -0.10638112937E+04  0.10638112937E+04  0.50400001928E-02 0. -1.
    10030    2    1    2    0    0  0.00000000000E+00  0.00000000000E+00  0.16540640170E+04  0.37816866044E+04  0.34007684134E+04 0.  0.
        3    1    3    3  502    0 -0.14511913011E+03  0.11994159003E+04 -0.50350408295E+03  0.13088828960E+04  0.10100000352E+00 0. -1.
       -3    1    3    3    0  502  0.14511913011E+03 -0.11994159003E+04  0.21575681000E+04  0.24728037083E+04  0.10100000352E+00 0.  1.
</event>
<event>
 5   0  0.1645631E-08  0.3398443E+04  0.7818609E-02  0.8138289E-01
       -1   -1    0    0    0  501  0.00000000000E+00  0.00000000000E+00  0.16634223217E+04  0.16634223217E+04  0.50400001928E-02 0.  1.
        1   -1    0    0  501    0  0.00000000000E+00  0.00000000000E+00 -0.17357908179E+04  0.17357908179E+04  0.50400001928E-02 0. -1.
    10030    2    1    2    0    0  0.00000000000E+00  0.00000000000E+00 -0.72368496200E+02  0.33992131397E+04  0.33984426977E+04 0.  0.
        4    1    3    3  502    0  0.14593507585E+04 -0.86616863795E+03  0.49851726913E+02  0.16977748830E+04  0.12699999809E+01 0.  1.
       -4    1    3    3    0  502 -0.14593507585E+04  0.86616863795E+03 -0.12222022311E+03  0.17014382567E+04  0.12699999809E+01 0. -1.
</event>
<event>
 5   0  0.4764953E-08  0.3402780E+04  0.7818609E-02  0.8137224E-01
       -2   -1    0    0    0  501  0.00000000000E+00  0.00000000000E+00  0.14006207378E+04  0.14006207378E+04  0.25500000920E-02 0. -1.
        2   -1    0    0  501    0  0.00000000000E+00  0.00000000000E+00 -0.20667465486E+04  0.20667465486E+04  0.25500000920E-02 0.  1.
    10030    2    1    2    0    0  0.00000000000E+00  0.00000000000E+00 -0.66612581080E+03  0.34673672865E+04  0.34027800845E+04 0.  0.
        2    1    3    3  502    0  0.14540704435E+04 -0.69556935511E+03  0.22187524006E+03  0.16270728946E+04  0.25500000920E-02 0. -1.
       -2    1    3    3    0  502 -0.14540704435E+04  0.69556935511E+03 -0.88800105086E+03  0.18402943918E+04  0.25500000920E-02 0.  1.
</event>
<event>
 5   0  0.4775023E-08  0.3387757E+04  0.7818609E-02  0.8140918E-01
        2   -1    0    0  501    0  0.00000000000E+00  0.00000000000E+00  0.17521595603E+04  0.17521595603E+04  0.25500000920E-02 0. -1.
       -2   -1    0    0    0  501  0.00000000000E+00  0.00000000000E+00 -0.16375361066E+04  0.16375361066E+04  0.25500000920E-02 0.  1.
    10030    2    1    2    0    0  0.00000000000E+00  0.00000000000E+00  0.11462345372E+03  0.33896956670E+04  0.33877571015E+04 0.  0.
        4    1    3    3  502    0 -0.66617084479E+03 -0.20641445401E+03  0.16018376192E+04  0.17470763842E+04  0.12699999809E+01 0. -1.
       -4    1    3    3    0  502  0.66617084479E+03  0.20641445401E+03 -0.14872141654E+04  0.16426192828E+04  0.12699999809E+01 0.  1.
</event>
<event>
 5   0  0.4946315E-08  0.3402839E+04  0.7818609E-02  0.8137210E-01
       -2   -1    0    0    0  501  0.00000000000E+00  0.00000000000E+00  0.14080213208E+04  0.14080213208E+04  0.25500000920E-02 0. -1.
        2   -1    0    0  501    0  0.00000000000E+00  0.00000000000E+00 -0.20559549056E+04  0.20559549056E+04  0.25500000920E-02 0.  1.
    10030    2    1    2    0    0  0.00000000000E+00  0.00000000000E+00 -0.64793358478E+03  0.34639762264E+04  0.34028390157E+04 0.  0.
        3    1    3    3  502    0  0.56782804835E+03 -0.48109992195E+03  0.12335361389E+04  0.14406586145E+04  0.10100000352E+00 0. -1.
       -3    1    3    3    0  502 -0.56782804835E+03  0.48109992195E+03 -0.18814697237E+04  0.20233176119E+04  0.10100000352E+00 0.  1.
</event>
<event>
 5   0  0.5001197E-08  0.3399150E+04  0.7818609E-02  0.8138115E-01
       -2   -1    0    0    0  501  0.00000000000E+00  0.00000000000E+00  0.15323208263E+04  0.15323208263E+04  0.25500000920E-02 0.  1.
        2   -1    0    0  501    0  0.00000000000E+00  0.00000000000E+00 -0.18850852651E+04  0.18850852651E+04  0.25500000920E-02 0. -1.
    10030    2    1    2    0    0  0.00000000000E+00  0.00000000000E+00 -0.35276443875E+03  0.34174060914E+04  0.33991501356E+04 0.  0.
        5    1    3    3  502    0  0.23864277520E+03  0.11660413062E+04 -0.13961296497E+04  0.18346124361E+04  0.46999998093E+01 0. -1.
       -5    1    3    3    0  502 -0.23864277520E+03 -0.11660413062E+04  0.10433652110E+04  0.15827936553E+04  0.46999998093E+01 0.  1.
</event>
<event>
 5   0  0.1645631E-08  0.3400308E+04  0.7818609E-02  0.8137831E-01
       -1   -1    0    0    0  501  0.00000000000E+00  0.00000000000E+00  0.13836371716E+04  0.13836371716E+04  0.50400001928E-02 0.  1.
        1   -1    0    0  501    0  0.00000000000E+00  0.00000000000E+00 -0.20890768289E+04  0.20890768289E+04  0.50400001928E-02 0. -1.
    10030    2    1    2    0    0  0.00000000000E+00  0.00000000000E+00 -0.70543965730E+03  0.34727140006E+04  0.34003084301E+04 0.  0.
        4    1    3    3  502    0  0.45516129864E+02  0.14443723913E+04  0.56203077488E+03  0.15505365290E+04  0.12699999809E+01 0.  1.
       -4    1    3    3    0  502 -0.45516129864E+02 -0.14443723913E+04 -0.12674704322E+04  0.19221774716E+04  0.12699999809E+01 0. -1.
</event>
<event>
 5   0  0.1579536E-08  0.3398134E+04  0.7818609E-02  0.8138364E-01
       -1   -1    0    0    0  501  0.00000000000E+00  0.00000000000E+00  0.16854934218E+04  0.16854934218E+04  0.50400001928E-02 0.  1.
        1   -1    0    0  501    0  0.00000000000E+00  0.00000000000E+00 -0.17127501866E+04  0.17127501866E+04  0.50400001928E-02 0. -1.
    10030    2    1    2    0    0  0.00000000000E+00  0.00000000000E+00 -0.27256764863E+02  0.33982436084E+04  0.33981342956E+04 0.  0.
        5    1    3    3  502    0 -0.16533221481E+04 -0.37422194092E+03  0.10166147612E+03  0.16981970828E+04  0.46999998093E+01 0. -1.
       -5    1    3    3    0  502  0.16533221481E+04  0.37422194092E+03 -0.12891824098E+03  0.17000465256E+04  0.46999998093E+01 0.  1.
</event>
<event>
 5   0  0.1625282E-08  0.3398317E+04  0.7818609E-02  0.8138320E-01
       -1   -1    0    0    0  501  0.00000000000E+00  0.00000000000E+00  0.13853647073E+04  0.13853647073E+04  0.50400001928E-02 0.  1.
        1   -1    0    0  501    0  0.00000000000E+00  0.00000000000E+00 -0.20840281123E+04  0.20840281123E+04  0.50400001928E-02 0. -1.
    10030    2    1    2    0    0  0.00000000000E+00  0.00000000000E+00 -0.69866340501E+03  0.34693928196E+04  0.33983166396E+04 0.  0.
        1    1    3    3  502    0  0.75533921596E+02 -0.63833970486E+03 -0.19551101434E+04  0.20580667203E+04  0.50400001928E-02 0. -1.
       -1    1    3    3    0  502 -0.75533921596E+02  0.63833970486E+03  0.12564467384E+04  0.14113260993E+04  0.50400001928E-02 0.  1.
</event>
<event>
 5   0  0.4775023E-08  0.3400082E+04  0.7818609E-02  0.8137886E-01
        2   -1    0    0  501    0  0.00000000000E+00  0.00000000000E+00  0.18521325892E+04  0.18521325892E+04  0.25500000920E-02 0.  1.
       -2   -1    0    0    0  501  0.00000000000E+00  0.00000000000E+00 -0.15604389283E+04  0.15604389284E+04  0.25500000920E-02 0. -1.
    10030    2    1    2    0    0  0.00000000000E+00  0.00000000000E+00  0.29169366088E+03  0.34125715176E+04  0.34000822300E+04 0.  0.
        4    1    3    3  502    0 -0.95659984593E+03 -0.14042543529E+04  0.20195052007E+03  0.17110812892E+04  0.12699999809E+01 0.  1.
       -4    1    3    3    0  502  0.95659984593E+03  0.14042543529E+04  0.89743140814E+02  0.17014902283E+04  0.12699999809E+01 0. -1.
</event>
<event>
 5   0  0.4775023E-08  0.3398224E+04  0.7818609E-02  0.8138342E-01
       -2   -1    0    0    0  501  0.00000000000E+00  0.00000000000E+00  0.17315183256E+04  0.17315183256E+04  0.25500000920E-02 0. -1.
        2   -1    0    0  501    0  0.00000000000E+00  0.00000000000E+00 -0.16673118448E+04  0.16673118448E+04  0.25500000920E-02 0.  1.
    10030    2    1    2    0    0  0.00000000000E+00  0.00000000000E+00  0.64206480771E+02  0.33988301704E+04  0.33982236617E+04 0.  0.
        4    1    3    3  502    0 -0.13038116509E+04 -0.88039555447E+03  0.67405753126E+03  0.17115420888E+04  0.12699999809E+01 0. -1.
       -4    1    3    3    0  502  0.13038116509E+04  0.88039555447E+03 -0.60985105049E+03  0.16872880815E+04  0.12699999809E+01 0.  1.
</event>
<event>
 5   0  0.1573625E-08  0.3399840E+04  0.7818609E-02  0.8137946E-01
        3   -1    0    0  501    0  0.00000000000E+00  0.00000000000E+00  0.22064753490E+04  0.22064753514E+04  0.10100000352E+00 0.  1.
       -3   -1    0    0    0  501  0.00000000000E+00  0.00000000000E+00 -0.13096580560E+04  0.13096580599E+04  0.10100000352E+00 0. -1.
    10030    2    1    2    0    0  0.00000000000E+00  0.00000000000E+00  0.89681729307E+03  0.35161334112E+04  0.33998401298E+04 0.  0.
        4    1    3    3  502    0  0.28527732200E+03  0.89371755478E+03 -0.10176893480E+04  0.13841269596E+04  0.12699999809E+01 0. -1.
       -4    1    3    3    0  502 -0.28527732200E+03 -0.89371755478E+03  0.19145066411E+04  0.21320064517E+04  0.12699999809E+01 0.  1.
</event>
<event>
 5   0  0.4764953E-08  0.3401904E+04  0.7818609E-02  0.8137439E-01
        2   -1    0    0  501    0  0.00000000000E+00  0.00000000000E+00  0.20674281546E+04  0.20674281546E+04  0.25500000920E-02 0. -1.
       -2   -1    0    0    0  501  0.00000000000E+00  0.00000000000E+00 -0.13994381865E+04  0.13994381865E+04  0.25500000920E-02 0.  1.
    10030    2    1    2    0    0  0.00000000000E+00  0.00000000000E+00  0.66798996812E+03  0.34668663411E+04  0.34019041183E+04 0.  0.
        2    1    3    3  502    0 -0.12373984378E+04 -0.98972704313E+03  0.96429022743E+03  0.18548773966E+04  0.25500000920E-02 0. -1.
       -2    1    3    3    0  502  0.12373984378E+04  0.98972704313E+03 -0.29630025931E+03  0.16119889445E+04  0.25500000920E-02 0.  1.
</event>
<event>
 5   0  0.1595851E-08  0.3400940E+04  0.7818609E-02  0.8137676E-01
       -1   -1    0    0    0  501  0.00000000000E+00  0.00000000000E+00  0.10395618365E+04  0.10395618366E+04  0.50400001928E-02 0. -1.
        1   -1    0    0  501    0  0.00000000000E+00  0.00000000000E+00 -0.27815549406E+04  0.27815549406E+04  0.50400001928E-02 0.  1.
    10030    2    1    2    0    0  0.00000000000E+00  0.00000000000E+00 -0.17419931041E+04  0.38211167772E+04  0.34009400833E+04 0.  0.
        2    1    3    3  502    0  0.13257475958E+03  0.56375117804E+03  0.92534671889E+03  0.10916308936E+04  0.25500000920E-02 0. -1.
       -2    1    3    3    0  502 -0.13257475958E+03 -0.56375117804E+03 -0.26673398230E+04  0.27294858836E+04  0.25500000920E-02 0.  1.
</event>
<event>
 5   0  0.1630571E-08  0.3403595E+04  0.7818609E-02  0.8137025E-01
        1   -1    0    0  501    0  0.00000000000E+00  0.00000000000E+00  0.28629131960E+04  0.28629131960E+04  0.50400001928E-02 0.  1.
       -1   -1    0    0    0  501  0.00000000000E+00  0.00000000000E+00 -0.10115969509E+04  0.10115969509E+04  0.50400001928E-02 0. -1.
    10030    2    1    2    0    0  0.00000000000E+00  0.00000000000E+00  0.18513162451E+04  0.38745101469E+04  0.34035947230E+04 0.  0.
        3    1    3    3  502    0  0.34684044159E+03 -0.11621360007E+04 -0.43336041469E+03  0.12878896053E+04  0.10100000352E+00 0. -1.
       -3    1    3    3    0  502 -0.34684044159E+03  0.11621360007E+04  0.22846766598E+04  0.25866205416E+04  0.10100000352E+00 0.  1.
</event>
<event>
 5   0  0.5001197E-08  0.3398731E+04  0.7818609E-02  0.8138218E-01
       -2   -1    0    0    0  501  0.00000000000E+00  0.00000000000E+00  0.14572130102E+04  0.14572130102E+04  0.25500000920E-02 0. -1.
        2   -1    0    0  501    0  0.00000000000E+00  0.00000000000E+00 -0.19817574960E+04  0.19817574960E+04  0.25500000920E-02 0.  1.
    10030    2    1    2    0    0  0.00000000000E+00  0.00000000000E+00 -0.52454448580E+03  0.34389705063E+04  0.33987308257E+04 0.  0.
        5    1    3    3  502    0  0.12536772767E+04  0.11189462152E+04 -0.51839635362E+03  0.17585517382E+04  0.46999998093E+01 0.  1.
       -5    1    3    3    0  502 -0.12536772767E+04 -0.11189462152E+04 -0.61481321869E+01  0.16804187681E+04  0.46999998093E+01 0. -1.
</event>
<event>
 5   0  0.4973409E-08  0.3402836E+04  0.7818609E-02  0.8137211E-01
       -2   -1    0    0    0  501  0.00000000000E+00  0.00000000000E+00  0.13994358831E+04  0.13994358831E+04  0.25500000920E-02 0. -1.
        2   -1    0    0  501    0  0.00000000000E+00  0.00000000000E+00 -0.20685641755E+04  0.20685641755E+04  0.25500000920E-02 0.  1.
    10030    2    1    2    0    0  0.00000000000E+00  0.00000000000E+00 -0.66912829248E+03  0.34680000586E+04  0.34028358372E+04 0.  0.
        1    1    3    3  502    0  0.66032693595E+02 -0.16977396071E+04 -0.42652990189E+03  0.17517442300E+04  0.50400001928E-02 0. -1.
       -1    1    3    3    0  502 -0.66032693595E+02  0.16977396071E+04 -0.24259839059E+03  0.17162558286E+04  0.50400001928E-02 0.  1.
</event>
<event>
 5   0  0.1645631E-08  0.3398857E+04  0.7818609E-02  0.8138187E-01
        1   -1    0    0  501    0  0.00000000000E+00  0.00000000000E+00  0.27106408006E+04  0.27106408006E+04  0.50400001928E-02 0.  1.
       -1   -1    0    0    0  501  0.00000000000E+00  0.00000000000E+00 -0.10654516733E+04  0.10654516733E+04  0.50400001928E-02 0. -1.
    10030    2    1    2    0    0  0.00000000000E+00  0.00000000000E+00  0.16451891273E+04  0.37760924740E+04  0.33988567353E+04 0.  0.
        4    1    3    3  502    0 -0.32511388030E+03 -0.15325048336E+04  0.15543181586E+04  0.22068476728E+04  0.12699999809E+01 0.  1.
       -4    1    3    3    0  502  0.32511388030E+03  0.15325048336E+04  0.90870968758E+02  0.15692448012E+04  0.12699999809E+01 0. -1.
</event>
<event>
 5   0  0.1645631E-08  0.3400808E+04  0.7818609E-02  0.8137708E-01
        1   -1    0    0  501    0  0.00000000000E+00  0.00000000000E+00  0.17105890073E+04  0.17105890073E+04  0.50400001928E-02 0. -1.
       -1   -1    0    0    0  501  0.00000000000E+00  0.00000000000E+00 -0.16902792719E+04  0.16902792719E+04  0.50400001928E-02 0.  1.
    10030    2    1    2    0    0  0.00000000000E+00  0.00000000000E+00  0.20309735360E+02  0.34008682793E+04  0.34008076346E+04 0.  0.
        4    1    3    3  502    0  0.21464198804E+03 -0.69555994241E+01 -0.16766626808E+04  0.16903605892E+04  0.12699999809E+01 0.  1.
       -4    1    3    3    0  502 -0.21464198804E+03  0.69555994241E+01  0.16969724162E+04  0.17105076900E+04  0.12699999809E+01 0. -1.
</event>
<event>
 5   0  0.1579536E-08  0.3399635E+04  0.7818609E-02  0.8137996E-01
       -1   -1    0    0    0  501  0.00000000000E+00  0.00000000000E+00  0.10453591658E+04  0.10453591658E+04  0.50400001928E-02 0. -1.
        1   -1    0    0  501    0  0.00000000000E+00  0.00000000000E+00 -0.27640068202E+04  0.27640068202E+04  0.50400001928E-02 0.  1.
    10030    2    1    2    0    0  0.00000000000E+00  0.00000000000E+00 -0.17186476544E+04  0.38093659859E+04  0.33996351944E+04 0.  0.
        5    1    3    3  502    0  0.13987229589E+04  0.15172226307E+03 -0.19281821177E+04  0.23869130545E+04  0.46999998093E+01 0.  1.
       -5    1    3    3    0  502 -0.13987229589E+04 -0.15172226307E+03  0.20953446334E+03  0.14224529314E+04  0.46999998093E+01 0. -1.
</event>
<event>
 5   0  0.4775023E-08  0.3400505E+04  0.7818609E-02  0.8137782E-01
        2   -1    0    0  501    0  0.00000000000E+00  0.00000000000E+00  0.22391406124E+04  0.22391406124E+04  0.25500000920E-02 0. -1.
       -2   -1    0    0    0  501  0.00000000000E+00  0.00000000000E+00 -0.12910574373E+04  0.12910574373E+04  0.25500000920E-02 0.  1.
    10030    2    1    2    0    0  0.00000000000E+00  0.00000000000E+00  0.94808317515E+03  0.35301980497E+04  0.34005053394E+04 0.  0.
        4    1    3    3  502    0 -0.10043203000E+04  0.41151217858E+03 -0.88463482215E+03  0.14002078130E+04  0.12699999809E+01 0.  1.
       -4    1    3    3    0  502  0.10043203000E+04 -0.41151217858E+03  0.18327179973E+04  0.21299902367E+04  0.12699999809E+01 0. -1.
</event>
<event>
 5   0  0.1579536E-08  0.3399725E+04  0.7818609E-02  0.8137974E-01
        1   -1    0    0  501    0  0.00000000000E+00  0.00000000000E+00  0.29243008610E+04  0.29243008610E+04  0.50400001928E-02 0.  1.
       -1   -1    0    0    0  501  0.00000000000E+00  0.00000000000E+00 -0.98811031509E+03  0.98811031510E+03  0.50400001928E-02 0. -1.
    10030    2    1    2    0    0  0.00000000000E+00  0.00000000000E+00  0.19361905459E+04  0.39124111761E+04  0.33997246037E+04 0.  0.
        5    1    3    3  502    0 -0.34603631273E+03  0.45906972996E+03  0.28090279170E+04  0.28672541002E+04  0.46999998093E+01 0.  1.
       -5    1    3    3    0  502  0.34603631273E+03 -0.45906972996E+03 -0.87283737115E+03  0.10451570758E+04  0.46999998093E+01 0. -1.
</event>
<event>
 5   0  0.4946315E-08  0.3402854E+04  0.7818609E-02  0.8137206E-01
        2   -1    0    0  501    0  0.00000000000E+00  0.00000000000E+00  0.16993543195E+04  0.16993543195E+04  0.25500000920E-02 0. -1.
       -2   -1    0    0    0  501  0.00000000000E+00  0.00000000000E+00 -0.17035018249E+04  0.17035018249E+04  0.25500000920E-02 0.  1.
    10030    2    1    2    0    0  0.00000000000E+00  0.00000000000E+00 -0.41475053245E+01  0.34028561444E+04  0.34028536169E+04 0.  0.
        3    1    3    3  502    0  0.50887118658E+03  0.14061469307E+04  0.80950192314E+03  0.17004388989E+04  0.10100000352E+00 0. -1.
       -3    1    3    3    0  502 -0.50887118658E+03 -0.14061469307E+04 -0.81364942846E+03  0.17024172455E+04  0.10100000352E+00 0.  1.
</event>
<event>
 5   0  0.4946315E-08  0.3400364E+04  0.7818609E-02  0.8137817E-01
       -2   -1    0    0    0  501  0.00000000000E+00  0.00000000000E+00  0.16524575500E+04  0.16524575500E+04  0.25500000920E-02 0.  1.
        2   -1    0    0  501    0  0.00000000000E+00  0.00000000000E+00 -0.17492848319E+04  0.17492848319E+04  0.25500000920E-02 0. -1.
    10030    2    1    2    0    0  0.00000000000E+00  0.00000000000E+00 -0.96827281879E+02  0.34017423820E+04  0.34003640556E+04 0.  0.
        3    1    3    3  502    0 -0.28624049124E+03 -0.53843495492E+03 -0.16361212540E+04  0.17460637410E+04  0.10100000352E+00 0. -1.
       -3    1    3    3    0  502  0.28624049124E+03  0.53843495492E+03  0.15392939721E+04  0.16556786410E+04  0.10100000352E+00 0.  1.
</event>
<event>
 5   0  0.1573625E-08  0.3399597E+04  0.7818609E-02  0.8138005E-01
        3   -1    0    0  501    0  0.00000000000E+00  0.00000000000E+00  0.26618638360E+04  0.26618638379E+04  0.10100000352E+00 0. -1.
       -3   -1    0    0    0  501  0.00000000000E+00  0.00000000000E+00 -0.10854481527E+04  0.10854481574E+04  0.10100000352E+00 0.  1.
    10030    2    1    2    0    0  0.00000000000E+00  0.00000000000E+00  0.15764156833E+04  0.37473119954E+04  0.33995971503E+04 0.  0.
        3    1    3    3  502    0 -0.30420680449E+03  0.16005216661E+04  0.25373920768E+03  0.16488162358E+04  0.10100000352E+00 0.  1.
       -3    1    3    3    0  502  0.30420680449E+03 -0.16005216661E+04  0.13226764756E+04  0.20984957596E+04  0.10100000352E+00 0. -1.
</event>
<event>
 5   0  0.1579536E-08  0.3400224E+04  0.7818609E-02  0.8137851E-01
       -1   -1    0    0    0  501  0.00000000000E+00  0.00000000000E+00  0.15076065665E+04  0.15076065665E+04  0.50400001928E-02 0.  1.
        1   -1    0    0  501    0  0.00000000000E+00  0.00000000000E+00 -0.19171988797E+04  0.19171988797E+04  0.50400001928E-02 0. -1.
    10030    2    1    2    0    0  0.00000000000E+00  0.00000000000E+00 -0.40959231326E+03  0.34248054462E+04  0.34002244752E+04 0.  0.
        5    1    3    3  502    0 -0.12828825528E+04  0.46911909060E+03 -0.12242888573E+04  0.18343297582E+04  0.46999998093E+01 0.  1.
       -5    1    3    3    0  502  0.12828825528E+04 -0.46911909060E+03  0.81469654408E+03  0.15904756881E+04  0.46999998093E+01 0. -1.
</event>
<event>
 5   0  0.4946315E-08  0.3401662E+04  0.7818609E-02  0.8137499E-01
       -2   -1    0    0    0  501  0.00000000000E+00  0.00000000000E+00  0.13828594563E+04  0.13828594563E+04  0.25500000920E-02 0.  1.
        2   -1    0    0  501    0  0.00000000000E+00  0.00000000000E+00 -0.20919163169E+04  0.20919163169E+04  0.25500000920E-02 0. -1.
    10030    2    1    2    0    0  0.00000000000E+00  0.00000000000E+00 -0.70905686059E+03  0.34747757732E+04  0.34016621000E+04 0.  0.
        3    1    3    3  502    0  0.10593366211E+04 -0.13189006921E+04 -0.17429013898E+03  0.17006087661E+04  0.10100000352E+00 0.  1.
       -3    1    3    3    0  502 -0.10593366211E+04  0.13189006921E+04 -0.53476672160E+03  0.17741670072E+04  0.10100000352E+00 0. -1.
</event>
<event>
 5   0  0.4764953E-08  0.3400276E+04  0.7818609E-02  0.8137839E-01
       -2   -1    0    0    0  501  0.00000000000E+00  0.00000000000E+00  0.17473202233E+04  0.17473202233E+04  0.25500000920E-02 0. -1.
        2   -1    0    0  501    0  0.00000000000E+00  0.00000000000E+00 -0.16542300508E+04  0.16542300508E+04  0.25500000920E-02 0.  1.
    10030    2    1    2    0    0  0.00000000000E+00  0.00000000000E+00  0.93090172453E+02  0.34015502741E+04  0.34002762369E+04 0.  0.
        2    1    3    3  502    0  0.25598067537E+03 -0.78691143950E+03 -0.14391759891E+04  0.16601154319E+04  0.25500000920E-02 0.  1.
       -2    1    3    3    0  502 -0.25598067537E+03  0.78691143950E+03  0.15322661616E+04  0.17414348422E+04  0.25500000920E-02 0. -1.
</event>
<event>
 5   0  0.4973409E-08  0.3400613E+04  0.7818609E-02  0.8137756E-01
       -2   -1    0    0    0  501  0.00000000000E+00  0.00000000000E+00  0.17883506548E+04  0.17883506548E+04  0.25500000920E-02 0.  1.
        2   -1    0    0  501    0  0.00000000000E+00  0.00000000000E+00 -0.16165968072E+04  0.16165968072E+04  0.25500000920E-02 0. -1.
    10030    2    1    2    0    0  0.00000000000E+00  0.00000000000E+00  0.17175384765E+03  0.34049474620E+04  0.34006128616E+04 0.  0.
        1    1    3    3  502    0 -0.16866736915E+04  0.13164267484E+03  0.25592868712E+03  0.17110515563E+04  0.50400001928E-02 0. -1.
       -1    1    3    3    0  502  0.16866736915E+04 -0.13164267484E+03 -0.84174839472E+02  0.16938959056E+04  0.50400001928E-02 0.  1.
</event>
<event>
 5   0  0.1625282E-08  0.3399498E+04  0.7818609E-02  0.8138030E-01
       -1   -1    0    0    0  501  0.00000000000E+00  0.00000000000E+00  0.13357175315E+04  0.13357175315E+04  0.50400001928E-02 0. -1.
        1   -1    0    0  501    0  0.00000000000E+00  0.00000000000E+00 -0.21629916479E+04  0.21629916479E+04  0.50400001928E-02 0.  1.
    10030    2    1    2    0    0  0.00000000000E+00  0.00000000000E+00 -0.82727411639E+03  0.34987091795E+04  0.33994975304E+04 0.  0.
        1    1    3    3  502    0 -0.15556300568E+04  0.63136622415E+03 -0.68697738351E+03  0.18139862480E+04  0.50400001928E-02 0. -1.
       -1    1    3    3    0  502  0.15556300568E+04 -0.63136622415E+03 -0.14029673288E+03  0.16847229315E+04  0.50400001928E-02 0.  1.
</event>
<event>
 5   0  0.4775023E-08  0.3398440E+04  0.7818609E-02  0.8138289E-01
        2   -1    0    0  501    0  0.00000000000E+00  0.00000000000E+00  0.26875741113E+04  0.26875741113E+04  0.25500000920E-02 0.  1.
       -2   -1    0    0    0  501  0.00000000000E+00  0.00000000000E+00 -0.10743327812E+04  0.10743327812E+04  0.25500000920E-02 0. -1.
    10030    2    1    2    0    0  0.00000000000E+00  0.00000000000E+00  0.16132413301E+04  0.37619068925E+04  0.33984402126E+04 0.  0.
        4    1    3    3  502    0 -0.19464200265E+03  0.13535602374E+04 -0.30988447922E+03  0.14021557791E+04  0.12699999809E+01 0. -1.
       -4    1    3    3    0  502  0.19464200265E+03 -0.13535602374E+04  0.19231258093E+04  0.23597511133E+04  0.12699999809E+01 0.  1.
</event>
<event>
 5   0  0.4775023E-08  0.3400994E+04  0.7818609E-02  0.8137662E-01
        2   -1    0    0  501    0  0.00000000000E+00  0.00000000000E+00  0.21667656355E+04  0.21667656355E+04  0.25500000920E-02 0. -1.
       -2   -1    0    0    0  501  0.00000000000E+00  0.00000000000E+00 -0.13345650417E+04  0.13345650417E+04  0.25500000920E-02 0.  1.
    10030    2    1    2    0    0  0.00000000000E+00  0.00000000000E+00  0.83220059381E+03  0.35013306771E+04  0.34009937786E+04 0.  0.
        4    1    3    3  502    0  0.14444527735E+04  0.57719684708E+03 -0.29125692439E+03  0.15825398018E+04  0.12699999809E+01 0.  1.
       -4    1    3    3    0  502 -0.14444527735E+04 -0.57719684708E+03  0.11234575182E+04  0.19187908754E+04  0.12699999809E+01 0. -1.
</event>
<event>
 5   0  0.4946315E-08  0.3401024E+04  0.7818609E-02  0.8137655E-01
        2   -1    0    0  501    0  0.00000000000E+00  0.00000000000E+00  0.89583638282E+03  0.89583638283E+03  0.25500000920E-02 0. -1.
       -2   -1    0    0    0  501  0.00000000000E+00  0.00000000000E+00 -0.32279789583E+04  0.32279789583E+04  0.25500000920E-02 0.  1.
    10030    2    1    2    0    0  0.00000000000E+00  0.00000000000E+00 -0.23321425754E+04  0.41238153411E+04  0.34010239598E+04 0.  0.
        3    1    3    3  502    0 -0.43910006987E+03 -0.14578088936E+04 -0.24765085925E+03  0.15425130793E+04  0.10100000352E+00 0. -1.
       -3    1    3    3    0  502  0.43910006987E+03  0.14578088936E+04 -0.20844917162E+04  0.25813022618E+04  0.10100000352E+00 0.  1.
</event>
<event>
 5   0  0.1645631E-08  0.3401094E+04  0.7818609E-02  0.8137638E-01
       -1   -1    0    0    0  501  0.00000000000E+00  0.00000000000E+00  0.24959215023E+04  0.24959215023E+04  0.50400001928E-02 0.  1.
        1   -1    0    0  501    0  0.00000000000E+00  0.00000000000E+00 -0.11586342626E+04  0.11586342626E+04  0.50400001928E-02 0. -1.
    10030    2    1    2    0    0  0.00000000000E+00  0.00000000000E+00  0.13372872397E+04  0.36545557650E+04  0.34010940413E+04 0.  0.
        4    1    3    3  502    0  0.14738146926E+04 -0.84295788668E+03  0.56585483984E+03  0.17896650691E+04  0.12699999809E+01 0. -1.
       -4    1    3    3    0  502 -0.14738146926E+04  0.84295788668E+03  0.77143239987E+03  0.18648906958E+04  0.12699999809E+01 0.  1.
</event>
<event>
 5   0  0.1595851E-08  0.3402328E+04  0.7818609E-02  0.8137335E-01
       -1   -1    0    0    0  501  0.00000000000E+00  0.00000000000E+00  0.17408070262E+04  0.17408070262E+04  0.50400001928E-02 0. -1.
        1   -1    0    0  501    0  0.00000000000E+00  0.00000000000E+00 -0.16624241279E+04  0.16624241279E+04  0.50400001928E-02 0.  1.
    10030    2    1    2    0    0  0.00000000000E+00  0.00000000000E+00  0.78382898361E+02  0.34032311541E+04  0.34023283806E+04 0.  0.
        2    1    3    3  502    0 -0.87890640502E+03  0.10201735586E+04  0.10790484783E+04  0.17255654659E+04  0.25500000920E-02 0. -1.
       -2    1    3    3    0  502  0.87890640502E+03 -0.10201735586E+04 -0.10006655800E+04  0.16776656882E+04  0.25500000920E-02 0.  1.
</event>
<event>
 5   0  0.4946315E-08  0.3400008E+04  0.7818609E-02  0.8137904E-01
        2   -1    0    0  501    0  0.00000000000E+00  0.00000000000E+00  0.24983609919E+04  0.24983609919E+04  0.25500000920E-02 0.  1.
       -2   -1    0    0    0  501  0.00000000000E+00  0.00000000000E+00 -0.11567637314E+04  0.11567637314E+04  0.25500000920E-02 0. -1.
    10030    2    1    2    0    0  0.00000000000E+00  0.00000000000E+00  0.13415972605E+04  0.36551247233E+04  0.34000078726E+04 0.  0.
        3    1    3    3  502    0  0.95940982172E+03 -0.43075780819E+03 -0.76508405360E+03  0.13005280138E+04  0.10100000352E+00 0. -1.
       -3    1    3    3    0  502 -0.95940982172E+03  0.43075780819E+03  0.21066813141E+04  0.23545967096E+04  0.10100000352E+00 0.  1.
</event>
<event>
 5   0  0.4775023E-08  0.3400905E+04  0.7818609E-02  0.8137684E-01
        2   -1    0    0  501    0  0.00000000000E+00  0.00000000000E+00  0.15191143361E+04  0.15191143361E+04  0.25500000920E-02 0.  1.
       -2   -1    0    0    0  501  0.00000000000E+00  0.00000000000E+00 -0.19034372107E+04  0.19034372108E+04  0.25500000920E-02 0. -1.
    10030    2    1    2    0    0  0.00000000000E+00  0.00000000000E+00 -0.38432287468E+03  0.34225515468E+04  0.34009050293E+04 0.  0.
        4    1    3    3  502    0  0.11491075855E+04 -0.11026073541E+04  0.40774173834E+03  0.16439118463E+04  0.12699999809E+01 0.  1.
       -4    1    3    3    0  502 -0.11491075855E+04  0.11026073541E+04 -0.79206461302E+03  0.17786397005E+04  0.12699999809E+01 0. -1.
</event>
<event>
 5   0  0.4775023E-08  0.3400960E+04  0.7818609E-02  0.8137671E-01
       -2   -1    0    0    0  501  0.00000000000E+00  0.00000000000E+00  0.20418233030E+04  0.20418233030E+04  0.25500000920E-02 0. -1.
        2   -1    0    0  501    0  0.00000000000E+00  0.00000000000E+00 -0.14162014047E+04  0.14162014047E+04  0.25500000920E-02 0.  1.
    10030    2    1    2    0    0  0.00000000000E+00  0.00000000000E+00  0.62562189831E+03  0.34580247078E+04  0.34009604702E+04 0.  0.
        4    1    3    3  502    0 -0.13768744801E+03  0.18731900046E+03 -0.13999665983E+04  0.14191385875E+04  0.12699999809E+01 0.  1.
       -4    1    3    3    0  502  0.13768744801E+03 -0.18731900046E+03  0.20255884966E+04  0.20388861203E+04  0.12699999809E+01 0. -1.
</event>
<event>
 5   0  0.1630571E-08  0.3406404E+04  0.7818609E-02  0.8136336E-01
        1   -1    0    0  501    0  0.00000000000E+00  0.00000000000E+00  0.22557829013E+04  0.22557829013E+04  0.50400001928E-02 0. -1.
       -1   -1    0    0    0  501  0.00000000000E+00  0.00000000000E+00 -0.12859823262E+04  0.12859823262E+04  0.50400001928E-02 0.  1.
    10030    2    1    2    0    0  0.00000000000E+00  0.00000000000E+00  0.96980057512E+03  0.35417652276E+04  0.34064039355E+04 0.  0.
        3    1    3    3  502    0 -0.12102965147E+04  0.75697324181E+03  0.14508329090E+04  0.20353727625E+04  0.10100000352E+00 0. -1.
       -3    1    3    3    0  502  0.12102965147E+04 -0.75697324181E+03 -0.48103233391E+03  0.15063924651E+04  0.10100000352E+00 0.  1.
</event>
<event>
 5   0  0.1625282E-08  0.3399627E+04  0.7818609E-02  0.8137998E-01
        1   -1    0    0  501    0  0.00000000000E+00  0.00000000000E+00  0.22214432238E+04  0.22214432238E+04  0.50400001928E-02 0.  1.
       -1   -1    0    0    0  501  0.00000000000E+00  0.00000000000E+00 -0.13006705620E+04  0.13006705620E+04  0.50400001928E-02 0. -1.
    10030    2    1    2    0    0  0.00000000000E+00  0.00000000000E+00  0.92077266178E+03  0.35221137858E+04  0.33996269244E+04 0.  0.
        1    1    3    3  502    0  0.82183054340E+03  0.24177982086E+03 -0.10606739508E+04  0.13634119531E+04  0.50400001928E-02 0. -1.
       -1    1    3    3    0  502 -0.82183054340E+03 -0.24177982086E+03  0.19814466126E+04  0.21587018327E+04  0.50400001928E-02 0.  1.
</event>
<event>
 5   0  0.1645631E-08  0.3403691E+04  0.7818609E-02  0.8137001E-01
        1   -1    0    0  501    0  0.00000000000E+00  0.00000000000E+00  0.18295392932E+04  0.18295392932E+04  0.50400001928E-02 0. -1.
       -1   -1    0    0    0  501  0.00000000000E+00  0.00000000000E+00 -0.15830637439E+04  0.15830637439E+04  0.50400001928E-02 0.  1.
    10030    2    1    2    0    0  0.00000000000E+00  0.00000000000E+00  0.24647554937E+03  0.34126030371E+04  0.34036905401E+04 0.  0.
        4    1    3    3  502    0 -0.98923640075E+03  0.80076547578E+03  0.12560021979E+04  0.17881155269E+04  0.12699999809E+01 0. -1.
       -4    1    3    3    0  502  0.98923640075E+03 -0.80076547578E+03 -0.10095266485E+04  0.16244875102E+04  0.12699999809E+01 0.  1.
</event>
<event>
 5   0  0.4973409E-08  0.3398595E+04  0.7818609E-02  0.8138251E-01
        2   -1    0    0  501    0  0.00000000000E+00  0.00000000000E+00  0.20299449733E+04  0.20299449733E+04  0.25500000920E-02 0. -1.
       -2   -1    0    0    0  501  0.00000000000E+00  0.00000000000E+00 -0.14225074479E+04  0.14225074479E+04  0.25500000920E-02 0.  1.
    10030    2    1    2    0    0  0.00000000000E+00  0.00000000000E+00  0.60743752540E+03  0.34524524211E+04  0.33985949115E+04 0.  0.
        1    1    3    3  502    0  0.12405295108E+03  0.10251535939E+04 -0.10672166490E+04  0.14850186536E+04  0.50400001928E-02 0.  1.
       -1    1    3    3    0  502 -0.12405295108E+03 -0.10251535939E+04  0.16746541744E+04  0.19674337675E+04  0.50400001928E-02 0. -1.
</event>
<event>
 5   0  0.4775023E-08  0.3401747E+04  0.7818609E-02  0.8137478E-01
       -2   -1    0    0    0  501  0.00000000000E+00  0.00000000000E+00  0.19351581400E+04  0.19351581400E+04  0.25500000920E-02 0. -1.
        2   -1    0    0  501    0  0.00000000000E+00  0.00000000000E+00 -0.14949529481E+04  0.14949529481E+04  0.25500000920E-02 0.  1.
    10030    2    1    2    0    0  0.00000000000E+00  0.00000000000E+00  0.44020519197E+03  0.34301110881E+04  0.34017468256E+04 0.  0.
        4    1    3    3  502    0 -0.14807415378E+04 -0.83114478577E+03  0.12145229984E+03  0.17023952041E+04  0.12699999809E+01 0. -1.
       -4    1    3    3    0  502  0.14807415378E+04  0.83114478577E+03  0.31875289213E+03  0.17277158840E+04  0.12699999809E+01 0.  1.
</event>
<event>
 5   0  0.1579536E-08  0.3399451E+04  0.7818609E-02  0.8138041E-01
       -1   -1    0    0    0  501  0.00000000000E+00  0.00000000000E+00  0.21313603545E+04  0.21313603545E+04  0.50400001928E-02 0. -1.
        1   -1    0    0  501    0  0.00000000000E+00  0.00000000000E+00 -0.13555034148E+04  0.13555034148E+04  0.50400001928E-02 0.  1.
    10030    2    1    2    0    0  0.00000000000E+00  0.00000000000E+00  0.77585693969E+03  0.34868637694E+04  0.33994506843E+04 0.  0.
        5    1    3    3  502    0 -0.40234530924E+03  0.78344492425E+02 -0.13040407732E+04  0.13669542917E+04  0.46999998093E+01 0.  1.
       -5    1    3    3    0  502  0.40234530924E+03 -0.78344492425E+02  0.20798977129E+04  0.21199094777E+04  0.46999998093E+01 0. -1.
</event>
<event>
 5   0  0.4973409E-08  0.3400301E+04  0.7818609E-02  0.8137832E-01
       -2   -1    0    0    0  501  0.00000000000E+00  0.00000000000E+00  0.27420579229E+04  0.27420579229E+04  0.25500000920E-02 0.  1.
        2   -1    0    0  501    0  0.00000000000E+00  0.00000000000E+00 -0.10541395664E+04  0.10541395664E+04  0.25500000920E-02 0. -1.
    10030    2    1    2    0    0  0.00000000000E+00  0.00000000000E+00  0.16879183564E+04  0.37961974893E+04  0.34003010160E+04 0.  0.
        1    1    3    3  502    0 -0.28473510828E+02  0.86061882436E+03  0.24805997117E+04  0.26258047207E+04  0.50400001928E-02 0.  1.
       -1    1    3    3    0  502  0.28473510828E+02 -0.86061882436E+03 -0.79268135527E+03  0.11703927686E+04  0.50400001928E-02 0. -1.
</event>
<event>
 5   0  0.1630571E-08  0.3402442E+04  0.7818609E-02  0.8137307E-01
       -1   -1    0    0    0  501  0.00000000000E+00  0.00000000000E+00  0.10620400709E+04  0.10620400709E+04  0.50400001928E-02 0. -1.
        1   -1    0    0  501    0  0.00000000000E+00  0.00000000000E+00 -0.27250876007E+04  0.27250876007E+04  0.50400001928E-02 0.  1.
    10030    2    1    2    0    0  0.00000000000E+00  0.00000000000E+00 -0.16630475298E+04  0.37871276717E+04  0.34024416108E+04 0.  0.
        3    1    3    3  502    0 -0.10691143978E+04  0.13231722118E+04 -0.85269889391E+03  0.19028625046E+04  0.10100000352E+00 0.  1.
       -3    1    3    3    0  502  0.10691143978E+04 -0.13231722118E+04 -0.81034863592E+03  0.18842651670E+04  0.10100000352E+00 0. -1.
</event>
<event>
 5   0  0.1579536E-08  0.3403584E+04  0.7818609E-02  0.8137027E-01
       -1   -1    0    0    0  501  0.00000000000E+00  0.00000000000E+00  0.16372269558E+04  0.16372269558E+04  0.50400001928E-02 0.  1.
        1   -1    0    0  501    0  0.00000000000E+00  0.00000000000E+00 -0.17689037074E+04  0.17689037074E+04  0.50400001928E-02 0. -1.
    10030    2    1    2    0    0  0.00000000000E+00  0.00000000000E+00 -0.13167675154E+03  0.34061306632E+04  0.34035844823E+04 0.  0.
        5    1    3    3  502    0 -0.16725542526E+04  0.27992472191E+03  0.76673086260E+02  0.16975560167E+04  0.46999998093E+01 0. -1.
       -5    1    3    3    0  502  0.16725542526E+04 -0.27992472191E+03 -0.20834983780E+03  0.17085746465E+04  0.46999998093E+01 0.  1.
</event>
<event>
 5   0  0.1579536E-08  0.3393962E+04  0.7818609E-02  0.8139390E-01
        1   -1    0    0  501    0  0.00000000000E+00  0.00000000000E+00  0.21659661408E+04  0.21659661408E+04  0.50400001928E-02 0. -1.
       -1   -1    0    0    0  501  0.00000000000E+00  0.00000000000E+00 -0.13295430965E+04  0.13295430965E+04  0.50400001928E-02 0.  1.
    10030    2    1    2    0    0  0.00000000000E+00  0.00000000000E+00  0.83642304428E+03  0.34955092374E+04  0.33939624806E+04 0.  0.
        5    1    3    3  502    0 -0.11849255155E+04 -0.31347097471E+03 -0.79053474257E+03  0.14585197285E+04  0.46999998093E+01 0. -1.
       -5    1    3    3    0  502  0.11849255155E+04  0.31347097471E+03  0.16269577868E+04  0.20369895089E+04  0.46999998093E+01 0.  1.
</event>
<event>
 5   0  0.5001197E-08  0.3394056E+04  0.7818609E-02  0.8139367E-01
        2   -1    0    0  501    0  0.00000000000E+00  0.00000000000E+00  0.10805788294E+04  0.10805788294E+04  0.25500000920E-02 0. -1.
       -2   -1    0    0    0  501  0.00000000000E+00  0.00000000000E+00 -0.26651491302E+04  0.26651491302E+04  0.25500000920E-02 0.  1.
    10030    2    1    2    0    0  0.00000000000E+00  0.00000000000E+00 -0.15845703008E+04  0.37457279597E+04  0.33940558200E+04 0.  0.
        5    1    3    3  502    0  0.51385978216E+02 -0.11013590300E+04 -0.22160112856E+04  0.24751485490E+04  0.46999998093E+01 0.  1.
       -5    1    3    3    0  502 -0.51385978216E+02  0.11013590300E+04  0.63144098474E+03  0.12705794107E+04  0.46999998093E+01 0. -1.
</event>
<event>
 5   0  0.5001197E-08  0.3380790E+04  0.7818609E-02  0.8142637E-01
        2   -1    0    0  501    0  0.00000000000E+00  0.00000000000E+00  0.13240416750E+04  0.13240416750E+04  0.25500000920E-02 0.  1.
       -2   -1    0    0    0  501  0.00000000000E+00  0.00000000000E+00 -0.21581157045E+04  0.21581157045E+04  0.25500000920E-02 0. -1.
    10030    2    1    2    0    0  0.00000000000E+00  0.00000000000E+00 -0.83407402945E+03  0.34821573795E+04  0.33807899268E+04 0.  0.
        5    1    3    3  502    0 -0.81856660015E+03  0.10744492921E+04 -0.14638368714E+04  0.19918165167E+04  0.46999998093E+01 0. -1.
       -5    1    3    3    0  502  0.81856660015E+03 -0.10744492921E+04  0.62976284198E+03  0.14903408628E+04  0.46999998093E+01 0.  1.
</event>
<event>
 5   0  0.4764953E-08  0.3407428E+04  0.7818609E-02  0.8136086E-01
        2   -1    0    0  501    0  0.00000000000E+00  0.00000000000E+00  0.15565652445E+04  0.15565652445E+04  0.25500000920E-02 0.  1.
       -2   -1    0    0    0  501  0.00000000000E+00  0.00000000000E+00 -0.18647729850E+04  0.18647729850E+04  0.25500000920E-02 0. -1.
    10030    2    1    2    0    0  0.00000000000E+00  0.00000000000E+00 -0.30820774046E+03  0.34213382295E+04  0.34074276616E+04 0.  0.
        2    1    3    3  502    0 -0.13638590363E+04 -0.67259629724E+03 -0.92544804530E+03  0.17801548625E+04  0.25500000920E-02 0. -1.
       -2    1    3    3    0  502  0.13638590363E+04  0.67259629724E+03  0.61724030484E+03  0.16411833670E+04  0.25500000920E-02 0.  1.
</event>
<event>
 5   0  0.1625282E-08  0.3400067E+04  0.7818609E-02  0.8137890E-01
        1   -1    0    0  501    0  0.00000000000E+00  0.00000000000E+00  0.22471056848E+04  0.22471056848E+04  0.50400001928E-02 0.  1.
       -1   -1    0    0    0  501  0.00000000000E+00  0.00000000000E+00 -0.12861491855E+04  0.12861491856E+04  0.50400001928E-02 0. -1.
    10030    2    1    2    0    0  0.00000000000E+00  0.00000000000E+00  0.96095649925E+03  0.35332548704E+04  0.34000665560E+04 0.  0.
        1    1    3    3  502    0  0.55603871125E+03 -0.13279383407E+04 -0.45910466366E+03  0.15110845037E+04  0.50400001928E-02 0. -1.
       -1    1    3    3    0  502 -0.55603871125E+03  0.13279383407E+04  0.14200611629E+04  0.20221703666E+04  0.50400001928E-02 0.  1.
</event>
<event>
 5   0  0.5001197E-08  0.3400233E+04  0.7818609E-02  0.8137849E-01
       -2   -1    0    0    0  501  0.00000000000E+00  0.00000000000E+00  0.11053754117E+04  0.11053754117E+04  0.25500000920E-02 0. -1.
        2   -1    0    0  501    0  0.00000000000E+00  0.00000000000E+00 -0.26148547695E+04  0.26148547695E+04  0.25500000920E-02 0.  1.
    10030    2    1    2    0    0  0.00000000000E+00  0.00000000000E+00 -0.15094793578E+04  0.37202301813E+04  0.34002330317E+04 0.  0.
        5    1    3    3  502    0  0.18348949065E+03 -0.31042259170E+02  0.10941909585E+04  0.11099134915E+04  0.46999998093E+01 0. -1.
       -5    1    3    3    0  502 -0.18348949065E+03  0.31042259170E+02 -0.26036703162E+04  0.26103166897E+04  0.46999998093E+01 0.  1.
</event>
<event>
 5   0  0.1579536E-08  0.3398499E+04  0.7818609E-02  0.8138275E-01
       -1   -1    0    0    0  501  0.00000000000E+00  0.00000000000E+00  0.12236318731E+04  0.12236318731E+04  0.50400001928E-02 0.  1.
        1   -1    0    0  501    0  0.00000000000E+00  0.00000000000E+00 -0.23597360584E+04  0.23597360584E+04  0.50400001928E-02 0. -1.
    10030    2    1    2    0    0  0.00000000000E+00  0.00000000000E+00 -0.11361041852E+04  0.35833679315E+04  0.33984986410E+04 0.  0.
        5    1    3    3  502    0 -0.39074630813E+03  0.10429916369E+03 -0.23082438426E+04  0.23434104890E+04  0.46999998093E+01 0. -1.
       -5    1    3    3    0  502  0.39074630813E+03 -0.10429916369E+03  0.11721396574E+04  0.12399574425E+04  0.46999998093E+01 0.  1.
</event>
<event>
 5   0  0.4946315E-08  0.3400947E+04  0.7818609E-02  0.8137674E-01
       -2   -1    0    0    0  501  0.00000000000E+00  0.00000000000E+00  0.11355023423E+04  0.11355023423E+04  0.25500000920E-02 0. -1.
        2   -1    0    0  501    0  0.00000000000E+00  0.00000000000E+00 -0.25465464343E+04  0.25465464343E+04  0.25500000920E-02 0.  1.
    10030    2    1    2    0    0  0.00000000000E+00  0.00000000000E+00 -0.14110440920E+04  0.36820487766E+04  0.34009465982E+04 0.  0.
        3    1    3    3  502    0  0.76180192068E+03  0.47985675614E+03  0.85628098480E+03  0.12425062607E+04  0.10100000352E+00 0. -1.
       -3    1    3    3    0  502 -0.76180192068E+03 -0.47985675614E+03 -0.22673250768E+04  0.24395425159E+04  0.10100000352E+00 0.  1.
</event>
<event>
 5   0  0.5001197E-08  0.3397898E+04  0.7818609E-02  0.8138423E-01
       -2   -1    0    0    0  501  0.00000000000E+00  0.00000000000E+00  0.16657543641E+04  0.16657543641E+04  0.25500000920E-02 0.  1.
        2   -1    0    0  501    0  0.00000000000E+00  0.00000000000E+00 -0.17328046725E+04  0.17328046725E+04  0.25500000920E-02 0. -1.
    10030    2    1    2    0    0  0.00000000000E+00  0.00000000000E+00 -0.67050308457E+02  0.33985590366E+04  0.33978975531E+04 0.  0.
        5    1    3    3  502    0 -0.13655879422E+04  0.10104677438E+04 -0.10512712880E+02  0.16988255049E+04  0.46999998093E+01 0. -1.
       -5    1    3    3    0  502  0.13655879422E+04 -0.10104677438E+04 -0.56537595578E+02  0.16997335317E+04  0.46999998093E+01 0.  1.
</event>
<event>
 5   0  0.1645631E-08  0.3395785E+04  0.7818609E-02  0.8138942E-01
        1   -1    0    0  501    0  0.00000000000E+00  0.00000000000E+00  0.16847728189E+04  0.16847728189E+04  0.50400001928E-02 0. -1.
       -1   -1    0    0    0  501  0.00000000000E+00  0.00000000000E+00 -0.17111144366E+04  0.17111144366E+04  0.50400001928E-02 0.  1.
    10030    2    1    2    0    0  0.00000000000E+00  0.00000000000E+00 -0.26341617760E+02  0.33958872555E+04  0.33957850891E+04 0.  0.
        4    1    3    3  502    0 -0.99831747173E+03  0.94287863228E+02  0.13570198598E+04  0.16873151716E+04  0.12699999809E+01 0. -1.
       -4    1    3    3    0  502  0.99831747173E+03 -0.94287863228E+02 -0.13833614775E+04  0.17085720839E+04  0.12699999809E+01 0.  1.
</event>
<event>
 5   0  0.4946315E-08  0.3398049E+04  0.7818609E-02  0.8138385E-01
        2   -1    0    0  501    0  0.00000000000E+00  0.00000000000E+00  0.32477079770E+04  0.32477079770E+04  0.25500000920E-02 0.  1.
       -2   -1    0    0    0  501  0.00000000000E+00  0.00000000000E+00 -0.88883723506E+03  0.88883723507E+03  0.25500000920E-02 0. -1.
    10030    2    1    2    0    0  0.00000000000E+00  0.00000000000E+00  0.23588707419E+04  0.41365452120E+04  0.33980487216E+04 0.  0.
        3    1    3    3  502    0 -0.17131891940E+03  0.16360001789E+04  0.16971039841E+04  0.23634738628E+04  0.10100000352E+00 0.  1.
       -3    1    3    3    0  502  0.17131891940E+03 -0.16360001789E+04  0.66176675783E+03  0.17730713492E+04  0.10100000352E+00 0. -1.
</event>
<event>
 5   0  0.4764953E-08  0.3420399E+04  0.7818609E-02  0.8132918E-01
       -2   -1    0    0    0  501  0.00000000000E+00  0.00000000000E+00  0.14198713670E+04  0.14198713670E+04  0.25500000920E-02 0.  1.
        2   -1    0    0  501    0  0.00000000000E+00  0.00000000000E+00 -0.20598928690E+04  0.20598928690E+04  0.25500000920E-02 0. -1.
    10030    2    1    2    0    0  0.00000000000E+00  0.00000000000E+00 -0.64002150200E+03  0.34797642360E+04  0.34203993356E+04 0.  0.
        2    1    3    3  502    0 -0.16269132715E+04  0.51808339260E+03 -0.41930444440E+03  0.17581448779E+04  0.25500000920E-02 0.  1.
       -2    1    3    3    0  502  0.16269132715E+04 -0.51808339260E+03 -0.22071705760E+03  0.17216193581E+04  0.25500000920E-02 0. -1.
</event>
<event>
 5   0  0.4775023E-08  0.3409072E+04  0.7818609E-02  0.8135683E-01
       -2   -1    0    0    0  501  0.00000000000E+00  0.00000000000E+00  0.11405847853E+04  0.11405847853E+04  0.25500000920E-02 0.  1.
        2   -1    0    0  501    0  0.00000000000E+00  0.00000000000E+00 -0.25473282064E+04  0.25473282064E+04  0.25500000920E-02 0. -1.
    10030    2    1    2    0    0  0.00000000000E+00  0.00000000000E+00 -0.14067434211E+04  0.36879129916E+04  0.34090724810E+04 0.  0.
        4    1    3    3  502    0  0.10622232755E+04  0.91143920247E+03  0.34903198660E+03  0.14425202416E+04  0.12699999809E+01 0.  1.
       -4    1    3    3    0  502 -0.10622232755E+04 -0.91143920247E+03 -0.17557754077E+04  0.22453927501E+04  0.12699999809E+01 0. -1.
</event>
<event>
 5   0  0.4946315E-08  0.3401257E+04  0.7818609E-02  0.8137598E-01
       -2   -1    0    0    0  501  0.00000000000E+00  0.00000000000E+00  0.92157599274E+03  0.92157599274E+03  0.25500000920E-02 0.  1.
        2   -1    0    0  501    0  0.00000000000E+00  0.00000000000E+00 -0.31382511340E+04  0.31382511340E+04  0.25500000920E-02 0. -1.
    10030    2    1    2    0    0  0.00000000000E+00  0.00000000000E+00 -0.22166751413E+04  0.40598271268E+04  0.34012567703E+04 0.  0.
        3    1    3    3  502    0 -0.11912789138E+04 -0.50680838966E+03 -0.24246510212E+04  0.27486237973E+04  0.10100000352E+00 0.  1.
       -3    1    3    3    0  502  0.11912789138E+04  0.50680838966E+03  0.20797587992E+03  0.13112033295E+04  0.10100000352E+00 0. -1.
</event>
<event>
 5   0  0.4973409E-08  0.3403637E+04  0.7818609E-02  0.8137014E-01
        2   -1    0    0  501    0  0.00000000000E+00  0.00000000000E+00  0.21505248083E+04  0.21505248083E+04  0.25500000920E-02 0. -1.
       -2   -1    0    0    0  501  0.00000000000E+00  0.00000000000E+00 -0.13467349420E+04  0.13467349420E+04  0.25500000920E-02 0.  1.
    10030    2    1    2    0    0  0.00000000000E+00  0.00000000000E+00  0.80378986630E+03  0.34972597503E+04  0.34036374090E+04 0.  0.
        1    1    3    3  502    0  0.81657960568E+03  0.14926479914E+04  0.36363325533E+03  0.17398360334E+04  0.50400001928E-02 0.  1.
       -1    1    3    3    0  502 -0.81657960568E+03 -0.14926479914E+04  0.44015661097E+03  0.17574237169E+04  0.50400001928E-02 0. -1.
</event>
<event>
 5   0  0.4973409E-08  0.3400091E+04  0.7818609E-02  0.8137884E-01
        2   -1    0    0  501    0  0.00000000000E+00  0.00000000000E+00  0.14626307900E+04  0.14626307900E+04  0.25500000920E-02 0. -1.
       -2   -1    0    0    0  501  0.00000000000E+00  0.00000000000E+00 -0.19759977522E+04  0.19759977522E+04  0.25500000920E-02 0.  1.
    10030    2    1    2    0    0  0.00000000000E+00  0.00000000000E+00 -0.51336696224E+03  0.34386285422E+04  0.34000912654E+04 0.  0.
        1    1    3    3  502    0 -0.47083365934E+02 -0.72067248804E+03 -0.18131427251E+04  0.19516844571E+04  0.50400001928E-02 0.  1.
       -1    1    3    3    0  502  0.47083365934E+02  0.72067248804E+03  0.12997757629E+04  0.14869440851E+04  0.50400001928E-02 0. -1.
</event>
<event>
 5   0  0.1625282E-08  0.3399518E+04  0.7818609E-02  0.8138025E-01
       -1   -1    0    0    0  501  0.00000000000E+00  0.00000000000E+00  0.12689446796E+04  0.12689446796E+04  0.50400001928E-02 0.  1.
        1   -1    0    0  501    0  0.00000000000E+00  0.00000000000E+00 -0.22768373630E+04  0.22768373630E+04  0.50400001928E-02 0. -1.
    10030    2    1    2    0    0  0.00000000000E+00  0.00000000000E+00 -0.10078926834E+04  0.35457820427E+04  0.33995180001E+04 0.  0.
        1    1    3    3  502    0  0.19417890439E+03  0.36917407483E+03  0.12147314340E+04  0.12843548580E+04  0.50400001928E-02 0.  1.
       -1    1    3    3    0  502 -0.19417890439E+03 -0.36917407483E+03 -0.22226241174E+04  0.22614271847E+04  0.50400001928E-02 0. -1.
</event>
<event>
 5   0  0.1595851E-08  0.3400185E+04  0.7818609E-02  0.8137861E-01
        1   -1    0    0  501    0  0.00000000000E+00  0.00000000000E+00  0.79722124771E+03  0.79722124772E+03  0.50400001928E-02 0.  1.
       -1   -1    0    0    0  501  0.00000000000E+00  0.00000000000E+00 -0.36254856180E+04  0.36254856180E+04  0.50400001928E-02 0. -1.
    10030    2    1    2    0    0  0.00000000000E+00  0.00000000000E+00 -0.28282643703E+04  0.44227068657E+04  0.34001847997E+04 0.  0.
        2    1    3    3  502    0  0.15551606368E+04 -0.68350316518E+03 -0.13257882674E+04  0.21548586295E+04  0.25500000920E-02 0. -1.
       -2    1    3    3    0  502 -0.15551606368E+04  0.68350316518E+03 -0.15024761029E+04  0.22678482363E+04  0.25500000920E-02 0.  1.
</event>
<event>
 5   0  0.4973409E-08  0.3399983E+04  0.7818609E-02  0.8137911E-01
       -2   -1    0    0    0  501  0.00000000000E+00  0.00000000000E+00  0.20407501558E+04  0.20407501558E+04  0.25500000920E-02 0. -1.
        2   -1    0    0  501    0  0.00000000000E+00  0.00000000000E+00 -0.14161315905E+04  0.14161315905E+04  0.25500000920E-02 0.  1.
    10030    2    1    2    0    0  0.00000000000E+00  0.00000000000E+00  0.62461856528E+03  0.34568817463E+04  0.33999828023E+04 0.  0.
        1    1    3    3  502    0  0.49572361806E+03  0.15021287636E+04 -0.32087919398E+03  0.16140310359E+04  0.50400001928E-02 0.  1.
       -1    1    3    3    0  502 -0.49572361806E+03 -0.15021287636E+04  0.94549775927E+03  0.18428507103E+04  0.50400001928E-02 0. -1.
</event>
<event>
 5   0  0.1579536E-08  0.3405189E+04  0.7818609E-02  0.8136634E-01
       -1   -1    0    0    0  501  0.00000000000E+00  0.00000000000E+00  0.15679612227E+04  0.15679612227E+04  0.50400001928E-02 0.  1.
        1   -1    0    0  501    0  0.00000000000E+00  0.00000000000E+00 -0.18487877766E+04  0.18487877767E+04  0.50400001928E-02 0. -1.
    10030    2    1    2    0    0  0.00000000000E+00  0.00000000000E+00 -0.28082655399E+03  0.34167489993E+04  0.34051887130E+04 0.  0.
        5    1    3    3  502    0  0.47086502887E+03 -0.60981802961E+03  0.13830341526E+04  0.15831605925E+04  0.46999998093E+01 0.  1.
       -5    1    3    3    0  502 -0.47086502887E+03  0.60981802961E+03 -0.16638607065E+04  0.18335884068E+04  0.46999998093E+01 0. -1.
</event>
<event>
 5   0  0.5001197E-08  0.3407327E+04  0.7818609E-02  0.8136110E-01
        2   -1    0    0  501    0  0.00000000000E+00  0.00000000000E+00  0.28969517871E+04  0.28969517871E+04  0.25500000920E-02 0. -1.
       -2   -1    0    0    0  501  0.00000000000E+00  0.00000000000E+00 -0.10019045586E+04  0.10019045586E+04  0.25500000920E-02 0.  1.
    10030    2    1    2    0    0  0.00000000000E+00  0.00000000000E+00  0.18950472285E+04  0.38988563457E+04  0.34073269298E+04 0.  0.
        5    1    3    3  502    0 -0.42544833121E+03  0.16465961623E+04  0.83217535530E+03  0.18933629119E+04  0.46999998093E+01 0.  1.
       -5    1    3    3    0  502  0.42544833121E+03 -0.16465961623E+04  0.10628718732E+04  0.20054934338E+04  0.46999998093E+01 0. -1.
</event>
<event>
 5   0  0.1630571E-08  0.3400240E+04  0.7818609E-02  0.8137847E-01
       -1   -1    0    0    0  501  0.00000000000E+00  0.00000000000E+00  0.13820426394E+04  0.13820426394E+04  0.50400001928E-02 0.  1.
        1   -1    0    0  501    0  0.00000000000E+00  0.00000000000E+00 -0.20914034046E+04  0.20914034046E+04  0.50400001928E-02 0. -1.
    10030    2    1    2    0    0  0.00000000000E+00  0.00000000000E+00 -0.70936076521E+03  0.34734460440E+04  0.34002403923E+04 0.  0.
        3    1    3    3  502    0  0.98050973215E+03 -0.12260715471E+04  0.31186893968E+03  0.16005977069E+04  0.10100000352E+00 0.  1.
       -3    1    3    3    0  502 -0.98050973215E+03  0.12260715471E+04 -0.10212297049E+04  0.18728483371E+04  0.10100000352E+00 0. -1.
</event>
<event>
 5   0  0.4764953E-08  0.3400898E+04  0.7818609E-02  0.8137686E-01
       -2   -1    0    0    0  501  0.00000000000E+00  0.00000000000E+00  0.15559219216E+04  0.15559219216E+04  0.25500000920E-02 0. -1.
        2   -1    0    0  501    0  0.00000000000E+00  0.00000000000E+00 -0.18584009434E+04  0.18584009434E+04  0.25500000920E-02 0.  1.
    10030    2    1    2    0    0  0.00000000000E+00  0.00000000000E+00 -0.30247902184E+03  0.34143228650E+04  0.34008979796E+04 0.  0.
        2    1    3    3  502    0 -0.21208982415E+03 -0.16501145685E+04  0.20181126082E+03  0.16758842346E+04  0.25500000920E-02 0. -1.
       -2    1    3    3    0  502  0.21208982415E+03  0.16501145685E+04 -0.50429028266E+03  0.17384386305E+04  0.25500000920E-02 0.  1.
</event>
<event>
 5   0  0.1645631E-08  0.3403163E+04  0.7818609E-02  0.8137131E-01
       -1   -1    0    0    0  501  0.00000000000E+00  0.00000000000E+00  0.21740925127E+04  0.21740925127E+04  0.50400001928E-02 0. -1.
        1   -1    0    0  501    0  0.00000000000E+00  0.00000000000E+00 -0.13317643803E+04  0.13317643803E+04  0.50400001928E-02 0.  1.
    10030    2    1    2    0    0  0.00000000000E+00  0.00000000000E+00  0.84232813244E+03  0.35058568930E+04  0.34031626278E+04 0.  0.
        4    1    3    3  502    0 -0.45489708237E+03  0.13629095501E+04  0.13602212017E+04  0.19785492483E+04  0.12699999809E+01 0. -1.
       -4    1    3    3    0  502  0.45489708237E+03 -0.13629095501E+04 -0.51789306926E+03  0.15273076447E+04  0.12699999809E+01 0.  1.
</event>
<event>
 5   0  0.1579536E-08  0.3400003E+04  0.7818609E-02  0.8137906E-01
       -1   -1    0    0    0  501  0.00000000000E+00  0.00000000000E+00  0.11952387865E+04  0.11952387865E+04  0.50400001928E-02 0.  1.
        1   -1    0    0  501    0  0.00000000000E+00  0.00000000000E+00 -0.24179313781E+04  0.24179313781E+04  0.50400001928E-02 0. -1.
    10030    2    1    2    0    0  0.00000000000E+00  0.00000000000E+00 -0.12226925916E+04  0.36131701646E+04  0.34000031566E+04 0.  0.
        5    1    3    3  502    0  0.13431267014E+04  0.79395424390E+03  0.10597799289E+03  0.15638433752E+04  0.46999998093E+01 0.  1.
       -5    1    3    3    0  502 -0.13431267014E+04 -0.79395424390E+03 -0.13286705845E+04  0.20493267893E+04  0.46999998093E+01 0. -1.
</event>
<event>
 5   0  0.1625282E-08  0.3399627E+04  0.7818609E-02  0.8137998E-01
       -1   -1    0    0    0  501  0.00000000000E+00  0.00000000000E+00  0.11476196844E+04  0.11476196844E+04  0.50400001928E-02 0. -1.
        1   -1    0    0  501    0  0.00000000000E+00  0.00000000000E+00 -0.25177035931E+04  0.25177035931E+04  0.50400001928E-02 0.  1.
    10030    2    1    2    0    0  0.00000000000E+00  0.00000000000E+00 -0.13700839087E+04  0.36653232775E+04  0.33996271577E+04 0.  0.
        1    1    3    3  502    0  0.10774367085E+04 -0.14552451939E+03  0.72372230906E+03  0.13060709120E+04  0.50400001928E-02 0. -1.
       -1    1    3    3    0  502 -0.10774367085E+04  0.14552451939E+03 -0.20938062177E+04  0.23592523655E+04  0.50400001928E-02 0.  1.
</event>
<event>
 5   0  0.1595851E-08  0.3398785E+04  0.7818609E-02  0.8138205E-01
       -1   -1    0    0    0  501  0.00000000000E+00  0.00000000000E+00  0.16602094095E+04  0.16602094095E+04  0.50400001928E-02 0.  1.
        1   -1    0    0  501    0  0.00000000000E+00  0.00000000000E+00 -0.17395005563E+04  0.17395005563E+04  0.50400001928E-02 0. -1.
    10030    2    1    2    0    0  0.00000000000E+00  0.00000000000E+00 -0.79291146778E+02  0.33997099658E+04  0.33987851897E+04 0.  0.
        2    1    3    3  502    0 -0.11629558204E+04 -0.11778843797E+04 -0.42453246609E+03  0.17088316672E+04  0.25500000920E-02 0. -1.
       -2    1    3    3    0  502  0.11629558204E+04  0.11778843797E+04  0.34524131932E+03  0.16908782986E+04  0.25500000920E-02 0.  1.
</event>
<event>
 5   0  0.4946315E-08  0.3403688E+04  0.7818609E-02  0.8137002E-01
        2   -1    0    0  501    0  0.00000000000E+00  0.00000000000E+00  0.20266759117E+04  0.20266759117E+04  0.25500000920E-02 0.  1.
       -2   -1    0    0    0  501  0.00000000000E+00  0.00000000000E+00 -0.14290755711E+04  0.14290755711E+04  0.25500000920E-02 0. -1.
    10030    2    1    2    0    0  0.00000000000E+00  0.00000000000E+00  0.59760034066E+03  0.34557514828E+04  0.34036880209E+04 0.  0.
        3    1    3    3  502    0 -0.28632568328E+03  0.16078647235E+04 -0.18712451079E+03  0.16438451748E+04  0.10100000352E+00 0. -1.
       -3    1    3    3    0  502  0.28632568328E+03 -0.16078647235E+04  0.78472485145E+03  0.18119063079E+04  0.10100000352E+00 0.  1.
</event>
<event>
 5   0  0.4973409E-08  0.3405058E+04  0.7818609E-02  0.8136666E-01
       -2   -1    0    0    0  501  0.00000000000E+00  0.00000000000E+00  0.25409872880E+04  0.25409872880E+04  0.25500000920E-02 0.  1.
        2   -1    0    0  501    0  0.00000000000E+00  0.00000000000E+00 -0.11407397864E+04  0.11407397864E+04  0.25500000920E-02 0. -1.
    10030    2    1    2    0    0  0.00000000000E+00  0.00000000000E+00  0.14002475016E+04  0.36817270744E+04  0.34050581764E+04 0.  0.
        1    1    3    3  502    0 -0.47448691345E+03  0.18463529002E+03  0.24567436225E+04  0.25089474383E+04  0.50400001928E-02 0.  1.
       -1    1    3    3    0  502  0.47448691345E+03 -0.18463529002E+03 -0.10564961209E+04  0.11727796361E+04  0.50400001928E-02 0. -1.
</event>
<event>
 5   0  0.1595851E-08  0.3399445E+04  0.7818609E-02  0.8138042E-01
       -1   -1    0    0    0  501  0.00000000000E+00  0.00000000000E+00  0.11227836091E+04  0.11227836091E+04  0.50400001928E-02 0.  1.
        1   -1    0    0  501    0  0.00000000000E+00  0.00000000000E+00 -0.25731204076E+04  0.25731204076E+04  0.50400001928E-02 0. -1.
    10030    2    1    2    0    0  0.00000000000E+00  0.00000000000E+00 -0.14503367986E+04  0.36959040167E+04  0.33994454947E+04 0.  0.
        2    1    3    3  502    0 -0.14318156027E+04 -0.50992196190E+03 -0.15524050910E+04  0.21725740250E+04  0.25500000920E-02 0. -1.
       -2    1    3    3    0  502  0.14318156027E+04  0.50992196190E+03  0.10206829247E+03  0.15233299917E+04  0.25500000920E-02 0.  1.
</event>
<event>
 5   0  0.1645631E-08  0.3401275E+04  0.7818609E-02  0.8137593E-01
        1   -1    0    0  501    0  0.00000000000E+00  0.00000000000E+00  0.23388288875E+04  0.23388288875E+04  0.50400001928E-02 0.  1.
       -1   -1    0    0    0  501  0.00000000000E+00  0.00000000000E+00 -0.12365882912E+04  0.12365882912E+04  0.50400001928E-02 0. -1.
    10030    2    1    2    0    0  0.00000000000E+00  0.00000000000E+00  0.11022405962E+04  0.35754171787E+04  0.34012753005E+04 0.  0.
        4    1    3    3  502    0 -0.27930402429E+03 -0.16653492935E+04  0.76336827563E+03  0.18531410482E+04  0.12699999809E+01 0.  1.
       -4    1    3    3    0  502  0.27930402429E+03  0.16653492935E+04  0.33887232059E+03  0.17222761305E+04  0.12699999809E+01 0. -1.
</event>
<event>
 5   0  0.1630571E-08  0.3398731E+04  0.7818609E-02  0.8138218E-01
       -1   -1    0    0    0  501  0.00000000000E+00  0.00000000000E+00  0.16496937799E+04  0.16496937799E+04  0.50400001928E-02 0.  1.
        1   -1    0    0  501    0  0.00000000000E+00  0.00000000000E+00 -0.17505331856E+04  0.17505331856E+04  0.50400001928E-02 0. -1.
    10030    2    1    2    0    0  0.00000000000E+00  0.00000000000E+00 -0.10083940568E+03  0.34002269655E+04  0.33987313561E+04 0.  0.
        3    1    3    3  502    0  0.14092057572E+04 -0.92532415883E+03 -0.26442510705E+03  0.17064601702E+04  0.10100000352E+00 0. -1.
       -3    1    3    3    0  502 -0.14092057572E+04  0.92532415883E+03  0.16358570138E+03  0.16937667953E+04  0.10100000352E+00 0.  1.
</event>
<event>
 5   0  0.1645631E-08  0.3400905E+04  0.7818609E-02  0.8137684E-01
        1   -1    0    0  501    0  0.00000000000E+00  0.00000000000E+00  0.18816952126E+04  0.18816952126E+04  0.50400001928E-02 0. -1.
       -1   -1    0    0    0  501  0.00000000000E+00  0.00000000000E+00 -0.15366666873E+04  0.15366666873E+04  0.50400001928E-02 0.  1.
    10030    2    1    2    0    0  0.00000000000E+00  0.00000000000E+00  0.34502852531E+03  0.34183619000E+04  0.34009047908E+04 0.  0.
        4    1    3    3  502    0  0.39936867086E+03  0.16468726329E+04  0.30894144736E+02  0.16948866822E+04  0.12699999809E+01 0.  1.
       -4    1    3    3    0  502 -0.39936867086E+03 -0.16468726329E+04  0.31413438058E+03  0.17234752178E+04  0.12699999809E+01 0. -1.
</event>
<event>
 5   0  0.4764953E-08  0.3400416E+04  0.7818609E-02  0.8137804E-01
        2   -1    0    0  501    0  0.00000000000E+00  0.00000000000E+00  0.19124828164E+04  0.19124828164E+04  0.25500000920E-02 0. -1.
       -2   -1    0    0    0  501  0.00000000000E+00  0.00000000000E+00 -0.15114945053E+04  0.15114945053E+04  0.25500000920E-02 0.  1.
    10030    2    1    2    0    0  0.00000000000E+00  0.00000000000E+00  0.40098831114E+03  0.34239773217E+04  0.34004160148E+04 0.  0.
        2    1    3    3  502    0 -0.10434502104E+04  0.12361976572E+04 -0.32632725880E+03  0.16502916315E+04  0.25500000920E-02 0. -1.
       -2    1    3    3    0  502  0.10434502104E+04 -0.12361976572E+04  0.72731556994E+03  0.17736856902E+04  0.25500000920E-02 0.  1.
</event>
<event>
 5   0  0.4973409E-08  0.3400065E+04  0.7818609E-02  0.8137890E-01
        2   -1    0    0  501    0  0.00000000000E+00  0.00000000000E+00  0.18061089434E+04  0.18061089434E+04  0.25500000920E-02 0.  1.
       -2   -1    0    0    0  501  0.00000000000E+00  0.00000000000E+00 -0.16001863389E+04  0.16001863389E+04  0.25500000920E-02 0. -1.
    10030    2    1    2    0    0  0.00000000000E+00  0.00000000000E+00  0.20592260458E+03  0.34062952823E+04  0.34000652098E+04 0.  0.
        1    1    3    3  502    0  0.97251347513E+03 -0.12883905154E+04  0.63720973502E+03  0.17354448496E+04  0.50400001928E-02 0.  1.
       -1    1    3    3    0  502 -0.97251347513E+03  0.12883905154E+04 -0.43128713044E+03  0.16708504327E+04  0.50400001928E-02 0. -1.
</event>
<event>
 5   0  0.1625282E-08  0.3403312E+04  0.7818609E-02  0.8137094E-01
        1   -1    0    0  501    0  0.00000000000E+00  0.00000000000E+00  0.91515096966E+03  0.91515096968E+03  0.50400001928E-02 0. -1.
       -1   -1    0    0    0  501  0.00000000000E+00  0.00000000000E+00 -0.31641038771E+04  0.31641038771E+04  0.50400001928E-02 0.  1.
    10030    2    1    2    0    0  0.00000000000E+00  0.00000000000E+00 -0.22489529075E+04  0.40792548468E+04  0.34033117585E+04 0.  0.
        1    1    3    3  502    0  0.29900210728E+03  0.10316274405E+04  0.45750030826E+03  0.11674604782E+04  0.50400001928E-02 0. -1.
       -1    1    3    3    0  502 -0.29900210728E+03 -0.10316274405E+04 -0.27064532157E+04  0.29117943686E+04  0.50400001928E-02 0.  1.
</event>
<event>
 5   0  0.4764953E-08  0.3398712E+04  0.7818609E-02  0.8138222E-01
        2   -1    0    0  501    0  0.00000000000E+00  0.00000000000E+00  0.18915688607E+04  0.18915688607E+04  0.25500000920E-02 0.  1.
       -2   -1    0    0    0  501  0.00000000000E+00  0.00000000000E+00 -0.15266752790E+04  0.15266752790E+04  0.25500000920E-02 0. -1.
    10030    2    1    2    0    0  0.00000000000E+00  0.00000000000E+00  0.36489358172E+03  0.34182441398E+04  0.33987123552E+04 0.  0.
        2    1    3    3  502    0  0.13160844241E+04  0.10747957341E+04  0.15891711149E+03  0.17066103040E+04  0.25500000920E-02 0.  1.
       -2    1    3    3    0  502 -0.13160844241E+04 -0.10747957341E+04  0.20597647023E+03  0.17116338358E+04  0.25500000920E-02 0. -1.
</event>
<event>
 5   0  0.1630571E-08  0.3407621E+04  0.7818609E-02  0.8136038E-01
        1   -1    0    0  501    0  0.00000000000E+00  0.00000000000E+00  0.13834635250E+04  0.13834635250E+04  0.50400001928E-02 0.  1.
       -1   -1    0    0    0  501  0.00000000000E+00  0.00000000000E+00 -0.20983354715E+04  0.20983354715E+04  0.50400001928E-02 0. -1.
    10030    2    1    2    0    0  0.00000000000E+00  0.00000000000E+00 -0.71487194650E+03  0.34817989965E+04  0.34076212161E+04 0.  0.
        3    1    3    3  502    0 -0.58584490559E+03  0.50903781353E+03  0.11923667373E+04  0.14226989124E+04  0.10100000352E+00 0.  1.
       -3    1    3    3    0  502  0.58584490559E+03 -0.50903781353E+03 -0.19072386838E+04  0.20591000841E+04  0.10100000352E+00 0. -1.
</event>
<event>
 5   0  0.4973409E-08  0.3390453E+04  0.7818609E-02  0.8140253E-01
        2   -1    0    0  501    0  0.00000000000E+00  0.00000000000E+00  0.20298372272E+04  0.20298372272E+04  0.25500000920E-02 0.  1.
       -2   -1    0    0    0  501  0.00000000000E+00  0.00000000000E+00 -0.14157752938E+04  0.14157752938E+04  0.25500000920E-02 0. -1.
    10030    2    1    2    0    0  0.00000000000E+00  0.00000000000E+00  0.61406193345E+03  0.34456125210E+04  0.33904533011E+04 0.  0.
        1    1    3    3  502    0 -0.87509360537E+03 -0.11739924455E+04  0.11751806791E+04  0.18775240901E+04  0.50400001928E-02 0. -1.
       -1    1    3    3    0  502  0.87509360537E+03  0.11739924455E+04 -0.56111874570E+03  0.15680884309E+04  0.50400001928E-02 0.  1.
</event>
<event>
 5   0  0.1630571E-08  0.3400532E+04  0.7818609E-02  0.8137776E-01
       -1   -1    0    0    0  501  0.00000000000E+00  0.00000000000E+00  0.11923847678E+04  0.11923847678E+04  0.50400001928E-02 0.  1.
        1   -1    0    0  501    0  0.00000000000E+00  0.00000000000E+00 -0.24244726366E+04  0.24244726366E+04  0.50400001928E-02 0. -1.
    10030    2    1    2    0    0  0.00000000000E+00  0.00000000000E+00 -0.12320878687E+04  0.36168574044E+04  0.34005318654E+04 0.  0.
        3    1    3    3  502    0  0.75163698334E+03 -0.77628892609E+03  0.78022058197E+03  0.13327891124E+04  0.10100000352E+00 0.  1.
       -3    1    3    3    0  502 -0.75163698334E+03  0.77628892609E+03 -0.20123084507E+04  0.22840682920E+04  0.10100000352E+00 0. -1.
</event>
<event>
 5   0  0.5001197E-08  0.3394187E+04  0.7818609E-02  0.8139334E-01
       -2   -1    0    0    0  501  0.00000000000E+00  0.00000000000E+00  0.14242781468E+04  0.14242781468E+04  0.25500000920E-02 0.  1.
        2   -1    0    0  501    0  0.00000000000E+00  0.00000000000E+00 -0.20221656148E+04  0.20221656148E+04  0.25500000920E-02 0. -1.
    10030    2    1    2    0    0  0.00000000000E+00  0.00000000000E+00 -0.59788746799E+03  0.34464437617E+04  0.33941869686E+04 0.  0.
        5    1    3    3  502    0 -0.27022690330E+03  0.62356028405E+03 -0.18779592936E+04  0.19971487690E+04  0.46999998093E+01 0. -1.
       -5    1    3    3    0  502  0.27022690330E+03 -0.62356028405E+03  0.12800718256E+04  0.14492949927E+04  0.46999998093E+01 0.  1.
</event>
<event>
 5   0  0.4973409E-08  0.3399302E+04  0.7818609E-02  0.8138078E-01
       -2   -1    0    0    0  501  0.00000000000E+00  0.00000000000E+00  0.14067147210E+04  0.14067147210E+04  0.25500000920E-02 0. -1.
        2   -1    0    0  501    0  0.00000000000E+00  0.00000000000E+00 -0.20535888004E+04  0.20535888004E+04  0.25500000920E-02 0.  1.
    10030    2    1    2    0    0  0.00000000000E+00  0.00000000000E+00 -0.64687407936E+03  0.34603035214E+04  0.33993020439E+04 0.  0.
        1    1    3    3  502    0  0.14397689024E+04 -0.17122697185E+03 -0.12262348269E+04  0.18989220676E+04  0.50400001928E-02 0.  1.
       -1    1    3    3    0  502 -0.14397689024E+04  0.17122697185E+03  0.57936074749E+03  0.15613814537E+04  0.50400001928E-02 0. -1.
</event>
<event>
 5   0  0.1595851E-08  0.3398501E+04  0.7818609E-02  0.8138274E-01
       -1   -1    0    0    0  501  0.00000000000E+00  0.00000000000E+00  0.11775994123E+04  0.11775994123E+04  0.50400001928E-02 0.  1.
        1   -1    0    0  501    0  0.00000000000E+00  0.00000000000E+00 -0.24519811835E+04  0.24519811835E+04  0.50400001928E-02 0. -1.
    10030    2    1    2    0    0  0.00000000000E+00  0.00000000000E+00 -0.12743817712E+04  0.36295805958E+04  0.33985006110E+04 0.  0.
        2    1    3    3  502    0 -0.16966850585E+04 -0.25705560952E+01 -0.73683430495E+03  0.18497760914E+04  0.25500000920E-02 0.  1.
       -2    1    3    3    0  502  0.16966850585E+04  0.25705560952E+01 -0.53754746626E+03  0.17798045044E+04  0.25500000920E-02 0. -1.
</event>
<event>
 5   0  0.4764953E-08  0.3401055E+04  0.7818609E-02  0.8137647E-01
       -2   -1    0    0    0  501  0.00000000000E+00  0.00000000000E+00  0.22027678698E+04  0.22027678698E+04  0.25500000920E-02 0.  1.
        2   -1    0    0  501    0  0.00000000000E+00  0.00000000000E+00 -0.13128001075E+04  0.13128001075E+04  0.25500000920E-02 0. -1.
    10030    2    1    2    0    0  0.00000000000E+00  0.00000000000E+00  0.88996776230E+03  0.35155679772E+04  0.34010550693E+04 0.  0.
        2    1    3    3  502    0  0.62218764211E+03 -0.26690500054E+03  0.20574551776E+04  0.21659818903E+04  0.25500000920E-02 0.  1.
       -2    1    3    3    0  502 -0.62218764211E+03  0.26690500054E+03 -0.11674874153E+04  0.13495860870E+04  0.25500000920E-02 0. -1.
</event>
<event>
 5   0  0.4973409E-08  0.3401331E+04  0.7818609E-02  0.8137580E-01
        2   -1    0    0  501    0  0.00000000000E+00  0.00000000000E+00  0.13285217808E+04  0.13285217808E+04  0.25500000920E-02 0.  1.
       -2   -1    0    0    0  501  0.00000000000E+00  0.00000000000E+00 -0.21770538269E+04  0.21770538269E+04  0.25500000920E-02 0. -1.
    10030    2    1    2    0    0  0.00000000000E+00  0.00000000000E+00 -0.84853204608E+03  0.35055756077E+04  0.34013311671E+04 0.  0.
        1    1    3    3  502    0 -0.13930459372E+04  0.91866318534E+03 -0.76257051533E+03  0.18346751271E+04  0.50400001928E-02 0. -1.
       -1    1    3    3    0  502  0.13930459372E+04 -0.91866318534E+03 -0.85961530745E+02  0.16709004806E+04  0.50400001928E-02 0.  1.
</event>
<event>
 5   0  0.1595851E-08  0.3396089E+04  0.7818609E-02  0.8138867E-01
       -1   -1    0    0    0  501  0.00000000000E+00  0.00000000000E+00  0.11156528210E+04  0.11156528210E+04  0.50400001928E-02 0. -1.
        1   -1    0    0  501    0  0.00000000000E+00  0.00000000000E+00 -0.25844559403E+04  0.25844559403E+04  0.50400001928E-02 0.  1.
    10030    2    1    2    0    0  0.00000000000E+00  0.00000000000E+00 -0.14688031193E+04  0.37001087613E+04  0.33960892571E+04 0.  0.
        2    1    3    3  502    0 -0.68796787773E+03  0.14540679705E+04 -0.14189663026E+03  0.16148523516E+04  0.25500000920E-02 0. -1.
       -2    1    3    3    0  502  0.68796787773E+03 -0.14540679705E+04 -0.13269064891E+04  0.20852564098E+04  0.25500000920E-02 0.  1.
</event>
<event>
 5   0  0.1645631E-08  0.3401483E+04  0.7818609E-02  0.8137542E-01
        1   -1    0    0  501    0  0.00000000000E+00  0.00000000000E+00  0.14961241496E+04  0.14961241496E+04  0.50400001928E-02 0. -1.
       -1   -1    0    0    0  501  0.00000000000E+00  0.00000000000E+00 -0.19333433155E+04  0.19333433155E+04  0.50400001928E-02 0.  1.
    10030    2    1    2    0    0  0.00000000000E+00  0.00000000000E+00 -0.43721916589E+03  0.34294674651E+04  0.34014829846E+04 0.  0.
        4    1    3    3  502    0  0.69381401045E+03 -0.10428421686E+04  0.94134351396E+03  0.15668525438E+04  0.12699999809E+01 0. -1.
       -4    1    3    3    0  502 -0.69381401045E+03  0.10428421686E+04 -0.13785626799E+04  0.18626149213E+04  0.12699999809E+01 0.  1.
</event>
<event>
 5   0  0.5001197E-08  0.3393609E+04  0.7818609E-02  0.8139477E-01
       -2   -1    0    0    0  501  0.00000000000E+00  0.00000000000E+00  0.16708989526E+04  0.16708989526E+04  0.25500000920E-02 0. -1.
        2   -1    0    0  501    0  0.00000000000E+00  0.00000000000E+00 -0.17231118495E+04  0.17231118495E+04  0.25500000920E-02 0.  1.
    10030    2    1    2    0    0  0.00000000000E+00  0.00000000000E+00 -0.52212896912E+02  0.33940108021E+04  0.33936091611E+04 0.  0.
        5    1    3    3  502    0  0.15542989733E+03  0.14916995964E+04 -0.81979822764E+03  0.17092154232E+04  0.46999998093E+01 0.  1.
       -5    1    3    3    0  502 -0.15542989733E+03 -0.14916995964E+04  0.76758533073E+03  0.16847953789E+04  0.46999998093E+01 0. -1.
</event>
<event>
 5   0  0.1579536E-08  0.3399424E+04  0.7818609E-02  0.8138048E-01
       -1   -1    0    0    0  501  0.00000000000E+00  0.00000000000E+00  0.13609847430E+04  0.13609847430E+04  0.50400001928E-02 0. -1.
        1   -1    0    0  501    0  0.00000000000E+00  0.00000000000E+00 -0.21227425248E+04  0.21227425248E+04  0.50400001928E-02 0.  1.
    10030    2    1    2    0    0  0.00000000000E+00  0.00000000000E+00 -0.76175778176E+03  0.34837272678E+04  0.33994235921E+04 0.  0.
        5    1    3    3  502    0 -0.10498168901E+04 -0.24359585316E+03 -0.17278347985E+04  0.20363913238E+04  0.46999998093E+01 0.  1.
       -5    1    3    3    0  502  0.10498168901E+04  0.24359585316E+03  0.96607701676E+03  0.14473359440E+04  0.46999998093E+01 0. -1.
</event>
<event>
 5   0  0.1630571E-08  0.3405370E+04  0.7818609E-02  0.8136590E-01
       -1   -1    0    0    0  501  0.00000000000E+00  0.00000000000E+00  0.18016946823E+04  0.18016946823E+04  0.50400001928E-02 0.  1.
        1   -1    0    0  501    0  0.00000000000E+00  0.00000000000E+00 -0.16091158805E+04  0.16091158805E+04  0.50400001928E-02 0. -1.
    10030    2    1    2    0    0  0.00000000000E+00  0.00000000000E+00  0.19257880181E+03  0.34108105628E+04  0.34053695982E+04 0.  0.
        3    1    3    3  502    0  0.98283772447E+03 -0.90647603831E+03 -0.95965627317E+03  0.16457852149E+04  0.10100000352E+00 0.  1.
       -3    1    3    3    0  502 -0.98283772447E+03  0.90647603831E+03  0.11522350750E+04  0.17650253479E+04  0.10100000352E+00 0. -1.
</event>
<event>
 5   0  0.4946315E-08  0.3400566E+04  0.7818609E-02  0.8137767E-01
        2   -1    0    0  501    0  0.00000000000E+00  0.00000000000E+00  0.24290133510E+04  0.24290133510E+04  0.25500000920E-02 0.  1.
       -2   -1    0    0    0  501  0.00000000000E+00  0.00000000000E+00 -0.11901798135E+04  0.11901798135E+04  0.25500000920E-02 0. -1.
    10030    2    1    2    0    0  0.00000000000E+00  0.00000000000E+00  0.12388335375E+04  0.36191931646E+04  0.34005662218E+04 0.  0.
        3    1    3    3  502    0 -0.10220780096E+04  0.89134310527E+03 -0.47210553212E+03  0.14359734094E+04  0.10100000352E+00 0. -1.
       -3    1    3    3    0  502  0.10220780096E+04 -0.89134310527E+03  0.17109390696E+04  0.21832197551E+04  0.10100000352E+00 0.  1.
</event>
<event>
 5   0  0.5001197E-08  0.3400762E+04  0.7818609E-02  0.8137719E-01
        2   -1    0    0  501    0  0.00000000000E+00  0.00000000000E+00  0.19413029207E+04  0.19413029207E+04  0.25500000920E-02 0. -1.
       -2   -1    0    0    0  501  0.00000000000E+00  0.00000000000E+00 -0.14893579687E+04  0.14893579687E+04  0.25500000920E-02 0.  1.
    10030    2    1    2    0    0  0.00000000000E+00  0.00000000000E+00  0.45194495207E+03  0.34306608894E+04  0.34007616645E+04 0.  0.
        5    1    3    3  502    0  0.15866831362E+04 -0.53660492968E+03  0.52140328148E+03  0.17542496109E+04  0.46999998093E+01 0. -1.
       -5    1    3    3    0  502 -0.15866831362E+04  0.53660492968E+03 -0.69458329405E+02  0.16764112785E+04  0.46999998093E+01 0.  1.
</event>
<event>
 5   0  0.1579536E-08  0.3399485E+04  0.7818609E-02  0.8138033E-01
       -1   -1    0    0    0  501  0.00000000000E+00  0.00000000000E+00  0.15939891637E+04  0.15939891637E+04  0.50400001928E-02 0.  1.
        1   -1    0    0  501    0  0.00000000000E+00  0.00000000000E+00 -0.18125117324E+04  0.18125117324E+04  0.50400001928E-02 0. -1.
    10030    2    1    2    0    0  0.00000000000E+00  0.00000000000E+00 -0.21852256866E+03  0.34065008961E+04  0.33994847024E+04 0.  0.
        5    1    3    3  502    0  0.94480852010E+03  0.23828207057E+03 -0.15048526555E+04  0.17927758057E+04  0.46999998093E+01 0. -1.
       -5    1    3    3    0  502 -0.94480852010E+03 -0.23828207057E+03  0.12863300869E+04  0.16137250903E+04  0.46999998093E+01 0.  1.
</event>
<event>
 5   0  0.1595851E-08  0.3410715E+04  0.7818609E-02  0.8135282E-01
       -1   -1    0    0    0  501  0.00000000000E+00  0.00000000000E+00  0.18881029650E+04  0.18881029650E+04  0.50400001928E-02 0. -1.
        1   -1    0    0  501    0  0.00000000000E+00  0.00000000000E+00 -0.15402992395E+04  0.15402992395E+04  0.50400001928E-02 0.  1.
    10030    2    1    2    0    0  0.00000000000E+00  0.00000000000E+00  0.34780372552E+03  0.34284022045E+04  0.34107146237E+04 0.  0.
        2    1    3    3  502    0 -0.15569412330E+04  0.30384910387E+03 -0.45532626127E+03  0.16503673183E+04  0.25500000920E-02 0.  1.
       -2    1    3    3    0  502  0.15569412330E+04 -0.30384910387E+03  0.80312998678E+03  0.17780348862E+04  0.25500000920E-02 0. -1.
</event>
<event>
 5   0  0.4775023E-08  0.3400121E+04  0.7818609E-02  0.8137877E-01
       -2   -1    0    0    0  501  0.00000000000E+00  0.00000000000E+00  0.11866503224E+04  0.11866503224E+04  0.25500000920E-02 0. -1.
        2   -1    0    0  501    0  0.00000000000E+00  0.00000000000E+00 -0.24356002192E+04  0.24356002192E+04  0.25500000920E-02 0.  1.
    10030    2    1    2    0    0  0.00000000000E+00  0.00000000000E+00 -0.12489498969E+04  0.36222505416E+04  0.34001210481E+04 0.  0.
        4    1    3    3  502    0  0.65088327446E+03 -0.12457839242E+04  0.39433781154E+03  0.14598392190E+04  0.12699999809E+01 0. -1.
       -4    1    3    3    0  502 -0.65088327446E+03  0.12457839242E+04 -0.16432877084E+04  0.21624113226E+04  0.12699999809E+01 0.  1.
</event>
<event>
 5   0  0.5001197E-08  0.3399486E+04  0.7818609E-02  0.8138033E-01
        2   -1    0    0  501    0  0.00000000000E+00  0.00000000000E+00  0.18150958369E+04  0.18150958369E+04  0.25500000920E-02 0. -1.
       -2   -1    0    0    0  501  0.00000000000E+00  0.00000000000E+00 -0.15917209261E+04  0.15917209261E+04  0.25500000920E-02 0.  1.
    10030    2    1    2    0    0  0.00000000000E+00  0.00000000000E+00  0.22337491071E+03  0.34068167630E+04  0.33994858591E+04 0.  0.
        5    1    3    3  502    0 -0.35029159005E+03 -0.88293681889E+03  0.15242739534E+04  0.17960275051E+04  0.46999998093E+01 0. -1.
       -5    1    3    3    0  502  0.35029159005E+03  0.88293681889E+03 -0.13008990426E+04  0.16107892579E+04  0.46999998093E+01 0.  1.
</event>
<event>
 5   0  0.1625282E-08  0.3398172E+04  0.7818609E-02  0.8138355E-01
       -1   -1    0    0    0  501  0.00000000000E+00  0.00000000000E+00  0.11244522698E+04  0.11244522698E+04  0.50400001928E-02 0. -1.
        1   -1    0    0  501    0  0.00000000000E+00  0.00000000000E+00 -0.25673766395E+04  0.25673766396E+04  0.50400001928E-02 0.  1.
    10030    2    1    2    0    0  0.00000000000E+00  0.00000000000E+00 -0.14429243698E+04  0.36918289093E+04  0.33981715611E+04 0.  0.
        1    1    3    3  502    0  0.90743947316E+03  0.98690661255E+03  0.41250946014E+03  0.14027099180E+04  0.50400001928E-02 0. -1.
       -1    1    3    3    0  502 -0.90743947316E+03 -0.98690661255E+03 -0.18554338299E+04  0.22891189913E+04  0.50400001928E-02 0.  1.
</event>
<event>
 5   0  0.4764953E-08  0.3393673E+04  0.7818609E-02  0.8139461E-01
        2   -1    0    0  501    0  0.00000000000E+00  0.00000000000E+00  0.30346215945E+04  0.30346215945E+04  0.25500000920E-02 0. -1.
       -2   -1    0    0    0  501  0.00000000000E+00  0.00000000000E+00 -0.94880173295E+03  0.94880173295E+03  0.25500000920E-02 0.  1.
    10030    2    1    2    0    0  0.00000000000E+00  0.00000000000E+00  0.20858198616E+04  0.39834233274E+04  0.33936730707E+04 0.  0.
        2    1    3    3  502    0 -0.10555441494E+04 -0.12697792178E+04  0.58417162502E+03  0.17515048389E+04  0.25500000920E-02 0.  1.
       -2    1    3    3    0  502  0.10555441494E+04  0.12697792178E+04  0.15016482365E+04  0.22319184885E+04  0.25500000920E-02 0. -1.
</event>
<event>
 5   0  0.1595851E-08  0.3398653E+04  0.7818609E-02  0.8138237E-01
       -1   -1    0    0    0  501  0.00000000000E+00  0.00000000000E+00  0.17563350019E+04  0.17563350020E+04  0.50400001928E-02 0. -1.
        1   -1    0    0  501    0  0.00000000000E+00  0.00000000000E+00 -0.16441685615E+04  0.16441685615E+04  0.50400001928E-02 0.  1.
    10030    2    1    2    0    0  0.00000000000E+00  0.00000000000E+00  0.11216644042E+03  0.34005035635E+04  0.33986531413E+04 0.  0.
        2    1    3    3  502    0  0.15902516839E+04 -0.58150937674E+03  0.19988767255E+03  0.17049952067E+04  0.25500000920E-02 0.  1.
       -2    1    3    3    0  502 -0.15902516839E+04  0.58150937674E+03 -0.87721232125E+02  0.16955083568E+04  0.25500000920E-02 0. -1.
</event>
<event>
 5   0  0.4973409E-08  0.3398779E+04  0.7818609E-02  0.8138206E-01
       -2   -1    0    0    0  501  0.00000000000E+00  0.00000000000E+00  0.20999637902E+04  0.20999637902E+04  0.25500000920E-02 0.  1.
        2   -1    0    0  501    0  0.00000000000E+00  0.00000000000E+00 -0.13752257281E+04  0.13752257281E+04  0.25500000920E-02 0. -1.
    10030    2    1    2    0    0  0.00000000000E+00  0.00000000000E+00  0.72473806213E+03  0.34751895183E+04  0.33987787409E+04 0.  0.
        1    1    3    3  502    0 -0.12246884185E+04  0.45864265178E+03  0.14719900544E+04  0.19690021647E+04  0.50400001928E-02 0.  1.
       -1    1    3    3    0  502  0.12246884185E+04 -0.45864265178E+03 -0.74725199222E+03  0.15061873536E+04  0.50400001928E-02 0. -1.
</event>
<event>
 5   0  0.1630571E-08  0.3399844E+04  0.7818609E-02  0.8137945E-01
        1   -1    0    0  501    0  0.00000000000E+00  0.00000000000E+00  0.26133352113E+04  0.26133352113E+04  0.50400001928E-02 0.  1.
       -1   -1    0    0    0  501  0.00000000000E+00  0.00000000000E+00 -0.11057648886E+04  0.11057648886E+04  0.50400001928E-02 0. -1.
    10030    2    1    2    0    0  0.00000000000E+00  0.00000000000E+00  0.15075703227E+04  0.37191000999E+04  0.33998437134E+04 0.  0.
        3    1    3    3  502    0 -0.26478069235E+03  0.13055358296E+04 -0.40141069862E+03  0.13912811278E+04  0.10100000352E+00 0. -1.
       -3    1    3    3    0  502  0.26478069235E+03 -0.13055358296E+04  0.19089810213E+04  0.23278189722E+04  0.10100000352E+00 0.  1.
</event>
<event>
 5   0  0.1630571E-08  0.3406062E+04  0.7818609E-02  0.8136420E-01
        1   -1    0    0  501    0  0.00000000000E+00  0.00000000000E+00  0.21398621159E+04  0.21398621159E+04  0.50400001928E-02 0.  1.
       -1   -1    0    0    0  501  0.00000000000E+00  0.00000000000E+00 -0.13553747508E+04  0.13553747508E+04  0.50400001928E-02 0. -1.
    10030    2    1    2    0    0  0.00000000000E+00  0.00000000000E+00  0.78448736507E+03  0.34952368668E+04  0.34060622908E+04 0.  0.
        3    1    3    3  502    0 -0.11669332958E+04 -0.18143094347E+03  0.16514246236E+04  0.20302349130E+04  0.10100000352E+00 0.  1.
       -3    1    3    3    0  502  0.11669332958E+04  0.18143094347E+03 -0.86693725857E+03  0.14650019538E+04  0.10100000352E+00 0. -1.
</event>
<event>
 5   0  0.4775023E-08  0.3398227E+04  0.7818609E-02  0.8138342E-01
        2   -1    0    0  501    0  0.00000000000E+00  0.00000000000E+00  0.23096381040E+04  0.23096381040E+04  0.25500000920E-02 0.  1.
       -2   -1    0    0    0  501  0.00000000000E+00  0.00000000000E+00 -0.12499735327E+04  0.12499735327E+04  0.25500000920E-02 0. -1.
    10030    2    1    2    0    0  0.00000000000E+00  0.00000000000E+00  0.10596645713E+04  0.35596116367E+04  0.33982268907E+04 0.  0.
        4    1    3    3  502    0  0.98189218823E+02  0.14159724329E+04  0.15081942711E+04  0.20710554376E+04  0.12699999809E+01 0.  1.
       -4    1    3    3    0  502 -0.98189218823E+02 -0.14159724329E+04 -0.44852969985E+03  0.14885561991E+04  0.12699999809E+01 0. -1.
</event>
<event>
 5   0  0.4973409E-08  0.3400450E+04  0.7818609E-02  0.8137796E-01
       -2   -1    0    0    0  501  0.00000000000E+00  0.00000000000E+00  0.17879360664E+04  0.17879360664E+04  0.25500000920E-02 0.  1.
        2   -1    0    0  501    0  0.00000000000E+00  0.00000000000E+00 -0.16168163340E+04  0.16168163340E+04  0.25500000920E-02 0. -1.
    10030    2    1    2    0    0  0.00000000000E+00  0.00000000000E+00  0.17111973235E+03  0.34047524004E+04  0.34004495211E+04 0.  0.
        1    1    3    3  502    0  0.19861157667E+03 -0.15682003520E+04  0.71250339580E+03  0.17338858069E+04  0.50400001928E-02 0.  1.
       -1    1    3    3    0  502 -0.19861157667E+03  0.15682003520E+04 -0.54138366345E+03  0.16708665935E+04  0.50400001928E-02 0. -1.
</event>
<event>
 5   0  0.1573625E-08  0.3399704E+04  0.7818609E-02  0.8137979E-01
       -4   -1    0    0    0  501  0.00000000000E+00  0.00000000000E+00  0.19197079429E+04  0.19197083630E+04  0.12699999809E+01 0.  1.
        4   -1    0    0  501    0  0.00000000000E+00  0.00000000000E+00 -0.15051745831E+04  0.15051751189E+04  0.12699999809E+01 0. -1.
    10030    2    1    2    0    0  0.00000000000E+00  0.00000000000E+00  0.41453335987E+03  0.34248834819E+04  0.33997042457E+04 0.  0.
        5    1    3    3  502    0 -0.99399460074E+03  0.12546791582E+04 -0.36901031300E+03  0.16426916197E+04  0.46999998093E+01 0. -1.
       -5    1    3    3    0  502  0.99399460074E+03 -0.12546791582E+04  0.78354367288E+03  0.17821918622E+04  0.46999998093E+01 0.  1.
</event>
<event>
 5   0  0.1645631E-08  0.3399285E+04  0.7818609E-02  0.8138082E-01
       -1   -1    0    0    0  501  0.00000000000E+00  0.00000000000E+00  0.14657984906E+04  0.14657984906E+04  0.50400001928E-02 0.  1.
        1   -1    0    0  501    0  0.00000000000E+00  0.00000000000E+00 -0.19707929385E+04  0.19707929385E+04  0.50400001928E-02 0. -1.
    10030    2    1    2    0    0  0.00000000000E+00  0.00000000000E+00 -0.50499444787E+03  0.34365914291E+04  0.33992854040E+04 0.  0.
        4    1    3    3  502    0  0.18629759970E+03 -0.16816385541E+04 -0.41603992838E+03  0.17423277124E+04  0.12699999809E+01 0. -1.
       -4    1    3    3    0  502 -0.18629759970E+03  0.16816385541E+04 -0.88954519492E+02  0.16942637167E+04  0.12699999809E+01 0.  1.
</event>
<event>
 5   0  0.1579536E-08  0.3399544E+04  0.7818609E-02  0.8138018E-01
        1   -1    0    0  501    0  0.00000000000E+00  0.00000000000E+00  0.15468360516E+04  0.15468360516E+04  0.50400001928E-02 0.  1.
       -1   -1    0    0    0  501  0.00000000000E+00  0.00000000000E+00 -0.18678291961E+04  0.18678291961E+04  0.50400001928E-02 0. -1.
    10030    2    1    2    0    0  0.00000000000E+00  0.00000000000E+00 -0.32099314451E+03  0.34146652478E+04  0.33995444041E+04 0.  0.
        5    1    3    3  502    0 -0.35268965087E+03 -0.95381298970E+03  0.12075652474E+04  0.15787289590E+04  0.46999998093E+01 0.  1.
       -5    1    3    3    0  502  0.35268965087E+03  0.95381298970E+03 -0.15285583919E+04  0.18359362888E+04  0.46999998093E+01 0. -1.
</event>
<event>
 5   0  0.4764953E-08  0.3398492E+04  0.7818609E-02  0.8138276E-01
       -2   -1    0    0    0  501  0.00000000000E+00  0.00000000000E+00  0.21775247301E+04  0.21775247301E+04  0.25500000920E-02 0.  1.
        2   -1    0    0  501    0  0.00000000000E+00  0.00000000000E+00 -0.13260182072E+04  0.13260182072E+04  0.25500000920E-02 0. -1.
    10030    2    1    2    0    0  0.00000000000E+00  0.00000000000E+00  0.85150652289E+03  0.35035429374E+04  0.33984922768E+04 0.  0.
        2    1    3    3  502    0  0.92544183614E+03  0.71224955965E+01 -0.10434102847E+04  0.13947036761E+04  0.25500000920E-02 0. -1.
       -2    1    3    3    0  502 -0.92544183614E+03 -0.71224955965E+01  0.18949168076E+04  0.21088392612E+04  0.25500000920E-02 0.  1.
</event>
<event>
 5   0  0.1645631E-08  0.3422952E+04  0.7818609E-02  0.8132296E-01
       -1   -1    0    0    0  501  0.00000000000E+00  0.00000000000E+00  0.10408940704E+04  0.10408940705E+04  0.50400001928E-02 0.  1.
        1   -1    0    0  501    0  0.00000000000E+00  0.00000000000E+00 -0.28140712660E+04  0.28140712660E+04  0.50400001928E-02 0. -1.
    10030    2    1    2    0    0  0.00000000000E+00  0.00000000000E+00 -0.17731771956E+04  0.38549653365E+04  0.34229519977E+04 0.  0.
        4    1    3    3  502    0  0.98434605506E+03 -0.11237865138E+03 -0.24582811136E+04  0.26504176584E+04  0.12699999809E+01 0. -1.
       -4    1    3    3    0  502 -0.98434605506E+03  0.11237865138E+03  0.68510391804E+03  0.12045476781E+04  0.12699999809E+01 0.  1.
</event>
<event>
 5   0  0.5001197E-08  0.3399508E+04  0.7818609E-02  0.8138027E-01
       -2   -1    0    0    0  501  0.00000000000E+00  0.00000000000E+00  0.14830655510E+04  0.14830655510E+04  0.25500000920E-02 0.  1.
        2   -1    0    0  501    0  0.00000000000E+00  0.00000000000E+00 -0.19481023596E+04  0.19481023596E+04  0.25500000920E-02 0. -1.
    10030    2    1    2    0    0  0.00000000000E+00  0.00000000000E+00 -0.46503680860E+03  0.34311679105E+04  0.33995079051E+04 0.  0.
        5    1    3    3  502    0  0.16398392983E+04  0.12286744160E+02  0.21876705960E+03  0.16544198393E+04  0.46999998093E+01 0. -1.
       -5    1    3    3    0  502 -0.16398392983E+04 -0.12286744160E+02 -0.68380386820E+03  0.17767480712E+04  0.46999998093E+01 0.  1.
</event>
<event>
 5   0  0.1579536E-08  0.3399566E+04  0.7818609E-02  0.8138013E-01
       -1   -1    0    0    0  501  0.00000000000E+00  0.00000000000E+00  0.17003763970E+04  0.17003763970E+04  0.50400001928E-02 0.  1.
        1   -1    0    0  501    0  0.00000000000E+00  0.00000000000E+00 -0.16991894123E+04  0.16991894123E+04  0.50400001928E-02 0. -1.
    10030    2    1    2    0    0  0.00000000000E+00  0.00000000000E+00  0.11869847194E+01  0.33995658093E+04  0.33995656021E+04 0.  0.
        5    1    3    3  502    0 -0.52497945699E+03  0.24321262021E+03 -0.15976818229E+04  0.16992248545E+04  0.46999998093E+01 0. -1.
       -5    1    3    3    0  502  0.52497945699E+03 -0.24321262021E+03  0.15988688076E+04  0.17003409549E+04  0.46999998093E+01 0.  1.
</event>
<event>
 5   0  0.1625282E-08  0.3392655E+04  0.7818609E-02  0.8139711E-01
        1   -1    0    0  501    0  0.00000000000E+00  0.00000000000E+00  0.25685184432E+04  0.25685184432E+04  0.50400001928E-02 0.  1.
       -1   -1    0    0    0  501  0.00000000000E+00  0.00000000000E+00 -0.11203061173E+04  0.11203061173E+04  0.50400001928E-02 0. -1.
    10030    2    1    2    0    0  0.00000000000E+00  0.00000000000E+00  0.14482123259E+04  0.36888245605E+04  0.33926549629E+04 0.  0.
        1    1    3    3  502    0  0.11579118839E+04 -0.12045590752E+04  0.10426015573E+04  0.19694518283E+04  0.50400001928E-02 0.  1.
       -1    1    3    3    0  502 -0.11579118839E+04  0.12045590752E+04  0.40561076851E+03  0.17193727322E+04  0.50400001928E-02 0. -1.
</event>
<event>
 5   0  0.4764953E-08  0.3401700E+04  0.7818609E-02  0.8137489E-01
        2   -1    0    0  501    0  0.00000000000E+00  0.00000000000E+00  0.24001886640E+04  0.24001886640E+04  0.25500000920E-02 0. -1.
       -2   -1    0    0    0  501  0.00000000000E+00  0.00000000000E+00 -0.12052762327E+04  0.12052762327E+04  0.25500000920E-02 0.  1.
    10030    2    1    2    0    0  0.00000000000E+00  0.00000000000E+00  0.11949124313E+04  0.36054648967E+04  0.34016997814E+04 0.  0.
        2    1    3    3  502    0 -0.74124630805E+02  0.16991472462E+04  0.61564596699E+03  0.18087608415E+04  0.25500000920E-02 0.  1.
       -2    1    3    3    0  502  0.74124630805E+02 -0.16991472462E+04  0.57926646427E+03  0.17967040552E+04  0.25500000920E-02 0. -1.
</event>
<event>
 5   0  0.1579536E-08  0.3418410E+04  0.7818609E-02  0.8133403E-01
        1   -1    0    0  501    0  0.00000000000E+00  0.00000000000E+00  0.28976446602E+04  0.28976446602E+04  0.50400001928E-02 0. -1.
       -1   -1    0    0    0  501  0.00000000000E+00  0.00000000000E+00 -0.10081919123E+04  0.10081919123E+04  0.50400001928E-02 0.  1.
    10030    2    1    2    0    0  0.00000000000E+00  0.00000000000E+00  0.18894527479E+04  0.39058365726E+04  0.34184101049E+04 0.  0.
        5    1    3    3  502    0 -0.10816583263E+04  0.80527053740E+03 -0.25521717992E+03  0.13724442692E+04  0.46999998093E+01 0.  1.
       -5    1    3    3    0  502  0.10816583263E+04 -0.80527053740E+03  0.21446699278E+04  0.25333923033E+04  0.46999998093E+01 0. -1.
</event>
<event>
 5   0  0.4973409E-08  0.3399197E+04  0.7818609E-02  0.8138103E-01
        2   -1    0    0  501    0  0.00000000000E+00  0.00000000000E+00  0.25613445533E+04  0.25613445533E+04  0.25500000920E-02 0.  1.
       -2   -1    0    0    0  501  0.00000000000E+00  0.00000000000E+00 -0.11277806518E+04  0.11277806518E+04  0.25500000920E-02 0. -1.
    10030    2    1    2    0    0  0.00000000000E+00  0.00000000000E+00  0.14335639015E+04  0.36891252052E+04  0.33991968639E+04 0.  0.
        1    1    3    3  502    0 -0.38118366323E+03 -0.33285696345E+03  0.24776814669E+04  0.25288337618E+04  0.50400001928E-02 0.  1.
       -1    1    3    3    0  502  0.38118366323E+03  0.33285696345E+03 -0.10441175654E+04  0.11602914434E+04  0.50400001928E-02 0. -1.
</event>
<event>
 5   0  0.1625282E-08  0.3400512E+04  0.7818609E-02  0.8137781E-01
       -1   -1    0    0    0  501  0.00000000000E+00  0.00000000000E+00  0.14192082633E+04  0.14192082634E+04  0.50400001928E-02 0. -1.
        1   -1    0    0  501    0  0.00000000000E+00  0.00000000000E+00 -0.20369595631E+04  0.20369595631E+04  0.50400001928E-02 0.  1.
    10030    2    1    2    0    0  0.00000000000E+00  0.00000000000E+00 -0.61775129976E+03  0.34561678265E+04  0.34005116345E+04 0.  0.
        1    1    3    3  502    0 -0.26940501054E+03 -0.48142822306E+03 -0.19434635551E+04  0.20202481986E+04  0.50400001928E-02 0.  1.
       -1    1    3    3    0  502  0.26940501054E+03  0.48142822306E+03  0.13257122554E+04  0.14359196279E+04  0.50400001928E-02 0. -1.
</event>
<event>
 5   0  0.1595851E-08  0.3400409E+04  0.7818609E-02  0.8137806E-01
        1   -1    0    0  501    0  0.00000000000E+00  0.00000000000E+00  0.22563984121E+04  0.22563984121E+04  0.50400001928E-02 0. -1.
       -1   -1    0    0    0  501  0.00000000000E+00  0.00000000000E+00 -0.12811105984E+04  0.12811105984E+04  0.50400001928E-02 0.  1.
    10030    2    1    2    0    0  0.00000000000E+00  0.00000000000E+00  0.97528781369E+03  0.35375090104E+04  0.34004093400E+04 0.  0.
        2    1    3    3  502    0 -0.30336689621E+02  0.95525064097E+03  0.19504930530E+04  0.21720606004E+04  0.25500000920E-02 0. -1.
       -2    1    3    3    0  502  0.30336689621E+02 -0.95525064097E+03 -0.97520523932E+03  0.13654484101E+04  0.25500000920E-02 0.  1.
</event>
<event>
 5   0  0.4775023E-08  0.3399150E+04  0.7818609E-02  0.8138115E-01
        2   -1    0    0  501    0  0.00000000000E+00  0.00000000000E+00  0.16175920262E+04  0.16175920262E+04  0.25500000920E-02 0. -1.
       -2   -1    0    0    0  501  0.00000000000E+00  0.00000000000E+00 -0.17857130628E+04  0.17857130628E+04  0.25500000920E-02 0.  1.
    10030    2    1    2    0    0  0.00000000000E+00  0.00000000000E+00 -0.16812103661E+03  0.34033050889E+04  0.33991500181E+04 0.  0.
        4    1    3    3  502    0 -0.10570181575E+04 -0.13267196352E+04  0.21335545315E+02  0.16964460481E+04  0.12699999809E+01 0.  1.
       -4    1    3    3    0  502  0.10570181575E+04  0.13267196352E+04 -0.18945658193E+03  0.17068590408E+04  0.12699999809E+01 0. -1.
</event>
<event>
 5   0  0.4764953E-08  0.3421878E+04  0.7818609E-02  0.8132557E-01
       -2   -1    0    0    0  501  0.00000000000E+00  0.00000000000E+00  0.21970342355E+04  0.21970342355E+04  0.25500000920E-02 0.  1.
        2   -1    0    0  501    0  0.00000000000E+00  0.00000000000E+00 -0.13323928029E+04  0.13323928029E+04  0.25500000920E-02 0. -1.
    10030    2    1    2    0    0  0.00000000000E+00  0.00000000000E+00  0.86464143264E+03  0.35294270384E+04  0.34218781995E+04 0.  0.
        2    1    3    3  502    0 -0.62715855134E+03 -0.84403676307E+03  0.18244019680E+04  0.21057465296E+04  0.25500000920E-02 0.  1.
       -2    1    3    3    0  502  0.62715855134E+03  0.84403676307E+03 -0.95976053535E+03  0.14236805088E+04  0.25500000920E-02 0. -1.
</event>
<event>
 5   0  0.4775023E-08  0.3403422E+04  0.7818609E-02  0.8137067E-01
        2   -1    0    0  501    0  0.00000000000E+00  0.00000000000E+00  0.17616652573E+04  0.17616652573E+04  0.25500000920E-02 0. -1.
       -2   -1    0    0    0  501  0.00000000000E+00  0.00000000000E+00 -0.16437970199E+04  0.16437970199E+04  0.25500000920E-02 0.  1.
    10030    2    1    2    0    0  0.00000000000E+00  0.00000000000E+00  0.11786823746E+03  0.34054622772E+04  0.34034218663E+04 0.  0.
        4    1    3    3  502    0 -0.11359482591E+04 -0.88663994579E+03 -0.84676578831E+03  0.16713834850E+04  0.12699999809E+01 0.  1.
       -4    1    3    3    0  502  0.11359482591E+04  0.88663994579E+03  0.96463402577E+03  0.17340787922E+04  0.12699999809E+01 0. -1.
</event>
<event>
 5   0  0.1595851E-08  0.3400532E+04  0.7818609E-02  0.8137776E-01
       -1   -1    0    0    0  501  0.00000000000E+00  0.00000000000E+00  0.15153019555E+04  0.15153019555E+04  0.50400001928E-02 0.  1.
        1   -1    0    0  501    0  0.00000000000E+00  0.00000000000E+00 -0.19078074403E+04  0.19078074403E+04  0.50400001928E-02 0. -1.
    10030    2    1    2    0    0  0.00000000000E+00  0.00000000000E+00 -0.39250548482E+03  0.34231093958E+04  0.34005319260E+04 0.  0.
        2    1    3    3  502    0  0.30830179728E+03 -0.10296679540E+04 -0.15224359619E+04  0.18636194225E+04  0.25500000920E-02 0. -1.
       -2    1    3    3    0  502 -0.30830179728E+03  0.10296679540E+04  0.11299304771E+04  0.15594899733E+04  0.25500000920E-02 0.  1.
</event>
<event>
 5   0  0.4973409E-08  0.3398645E+04  0.7818609E-02  0.8138239E-01
       -2   -1    0    0    0  501  0.00000000000E+00  0.00000000000E+00  0.13577744834E+04  0.13577744834E+04  0.25500000920E-02 0. -1.
        2   -1    0    0  501    0  0.00000000000E+00  0.00000000000E+00 -0.21267864037E+04  0.21267864037E+04  0.25500000920E-02 0.  1.
    10030    2    1    2    0    0  0.00000000000E+00  0.00000000000E+00 -0.76901192034E+03  0.34845608871E+04  0.33986446184E+04 0.  0.
        1    1    3    3  502    0  0.16543525493E+04 -0.27152636240E+03 -0.66917089070E+03  0.18051034884E+04  0.50400001928E-02 0. -1.
       -1    1    3    3    0  502 -0.16543525493E+04  0.27152636240E+03 -0.99841029640E+02  0.16794573987E+04  0.50400001928E-02 0.  1.
</event>
<event>
 5   0  0.1645631E-08  0.3401154E+04  0.7818609E-02  0.8137623E-01
        1   -1    0    0  501    0  0.00000000000E+00  0.00000000000E+00  0.18570354511E+04  0.18570354511E+04  0.50400001928E-02 0. -1.
       -1   -1    0    0    0  501  0.00000000000E+00  0.00000000000E+00 -0.15573004747E+04  0.15573004747E+04  0.50400001928E-02 0.  1.
    10030    2    1    2    0    0  0.00000000000E+00  0.00000000000E+00  0.29973497632E+03  0.34143359258E+04  0.34011540333E+04 0.  0.
        4    1    3    3  502    0  0.86764492201E+03 -0.51802714972E+03 -0.12232057831E+04  0.15866297108E+04  0.12699999809E+01 0.  1.
       -4    1    3    3    0  502 -0.86764492201E+03  0.51802714972E+03  0.15229407594E+04  0.18277062150E+04  0.12699999809E+01 0. -1.
</event>
<event>
 5   0  0.1595851E-08  0.3401126E+04  0.7818609E-02  0.8137630E-01
        1   -1    0    0  501    0  0.00000000000E+00  0.00000000000E+00  0.22707436586E+04  0.22707436586E+04  0.50400001928E-02 0.  1.
       -1   -1    0    0    0  501  0.00000000000E+00  0.00000000000E+00 -0.12735537368E+04  0.12735537368E+04  0.50400001928E-02 0. -1.
    10030    2    1    2    0    0  0.00000000000E+00  0.00000000000E+00  0.99718992175E+03  0.35442973954E+04  0.34011257382E+04 0.  0.
        2    1    3    3  502    0 -0.25726986843E+03  0.16740575672E+04  0.33967098108E+03  0.17274353531E+04  0.25500000920E-02 0.  1.
       -2    1    3    3    0  502  0.25726986843E+03 -0.16740575672E+04  0.65751894067E+03  0.18168620424E+04  0.25500000920E-02 0. -1.
</event>
<event>
 5   0  0.1625282E-08  0.3399743E+04  0.7818609E-02  0.8137970E-01
        1   -1    0    0  501    0  0.00000000000E+00  0.00000000000E+00  0.12443474115E+04  0.12443474116E+04  0.50400001928E-02 0. -1.
       -1   -1    0    0    0  501  0.00000000000E+00  0.00000000000E+00 -0.23221507893E+04  0.23221507893E+04  0.50400001928E-02 0.  1.
    10030    2    1    2    0    0  0.00000000000E+00  0.00000000000E+00 -0.10778033777E+04  0.35664982008E+04  0.33997425337E+04 0.  0.
        1    1    3    3  502    0  0.71061046114E+03 -0.69296579124E+03  0.90878415205E+03  0.13457553457E+04  0.50400001928E-02 0. -1.
       -1    1    3    3    0  502 -0.71061046114E+03  0.69296579124E+03 -0.19865875298E+04  0.22207428552E+04  0.50400001928E-02 0.  1.
</event>
<event>
 5   0  0.4775023E-08  0.3400248E+04  0.7818609E-02  0.8137846E-01
       -2   -1    0    0    0  501  0.00000000000E+00  0.00000000000E+00  0.15310371134E+04  0.15310371134E+04  0.25500000920E-02 0. -1.
        2   -1    0    0  501    0  0.00000000000E+00  0.00000000000E+00 -0.18878844574E+04  0.18878844574E+04  0.25500000920E-02 0.  1.
    10030    2    1    2    0    0  0.00000000000E+00  0.00000000000E+00 -0.35684734397E+03  0.34189215708E+04  0.34002477380E+04 0.  0.
        4    1    3    3  502    0  0.15602908716E+04 -0.56326271570E+03 -0.55282201678E+03  0.17485383284E+04  0.12699999809E+01 0. -1.
       -4    1    3    3    0  502 -0.15602908716E+04  0.56326271570E+03  0.19597467281E+03  0.16703832423E+04  0.12699999809E+01 0.  1.
</event>
<event>
 5   0  0.1630571E-08  0.3401161E+04  0.7818609E-02  0.8137621E-01
        1   -1    0    0  501    0  0.00000000000E+00  0.00000000000E+00  0.16257020391E+04  0.16257020391E+04  0.50400001928E-02 0.  1.
       -1   -1    0    0    0  501  0.00000000000E+00  0.00000000000E+00 -0.17789076021E+04  0.17789076021E+04  0.50400001928E-02 0. -1.
    10030    2    1    2    0    0  0.00000000000E+00  0.00000000000E+00 -0.15320556301E+03  0.34046096413E+04  0.34011608114E+04 0.  0.
        3    1    3    3  502    0 -0.16520874124E+04 -0.25626310006E+03  0.23501677447E+03  0.16882821118E+04  0.10100000352E+00 0.  1.
       -3    1    3    3    0  502  0.16520874124E+04  0.25626310006E+03 -0.38822233747E+03  0.17163275294E+04  0.10100000352E+00 0. -1.
</event>
<event>
 5   0  0.1579536E-08  0.3399039E+04  0.7818609E-02  0.8138142E-01
       -1   -1    0    0    0  501  0.00000000000E+00  0.00000000000E+00  0.22001441104E+04  0.22001441104E+04  0.50400001928E-02 0.  1.
        1   -1    0    0  501    0  0.00000000000E+00  0.00000000000E+00 -0.13128077140E+04  0.13128077140E+04  0.50400001928E-02 0. -1.
    10030    2    1    2    0    0  0.00000000000E+00  0.00000000000E+00  0.88733639642E+03  0.35129518244E+04  0.33990387818E+04 0.  0.
        5    1    3    3  502    0  0.10605466873E+04  0.90274236297E+03 -0.56295520757E+03  0.15022129362E+04  0.46999998093E+01 0.  1.
       -5    1    3    3    0  502 -0.10605466873E+04 -0.90274236297E+03  0.14502916040E+04  0.20107388882E+04  0.46999998093E+01 0. -1.
</event>
<event>
 5   0  0.1630571E-08  0.3399596E+04  0.7818609E-02  0.8138006E-01
       -1   -1    0    0    0  501  0.00000000000E+00  0.00000000000E+00  0.11728497156E+04  0.11728497156E+04  0.50400001928E-02 0.  1.
        1   -1    0    0  501    0  0.00000000000E+00  0.00000000000E+00 -0.24634979522E+04  0.24634979522E+04  0.50400001928E-02 0. -1.
    10030    2    1    2    0    0  0.00000000000E+00  0.00000000000E+00 -0.12906482366E+04  0.36363476678E+04  0.33995957834E+04 0.  0.
        3    1    3    3  502    0  0.46785805677E+03 -0.14739892950E+04  0.10934337460E+03  0.15503198337E+04  0.10100000352E+00 0.  1.
       -3    1    3    3    0  502 -0.46785805677E+03  0.14739892950E+04 -0.13999916112E+04  0.20860278341E+04  0.10100000352E+00 0. -1.
</event>
<event>
 5   0  0.4764953E-08  0.3399687E+04  0.7818609E-02  0.8137983E-01
        2   -1    0    0  501    0  0.00000000000E+00  0.00000000000E+00  0.22452329368E+04  0.22452329368E+04  0.25500000920E-02 0. -1.
       -2   -1    0    0    0  501  0.00000000000E+00  0.00000000000E+00 -0.12869343547E+04  0.12869343547E+04  0.25500000920E-02 0.  1.
    10030    2    1    2    0    0  0.00000000000E+00  0.00000000000E+00  0.95829858206E+03  0.35321672915E+04  0.33996866919E+04 0.  0.
        2    1    3    3  502    0 -0.96996982699E+03  0.50865347372E+03 -0.87146879574E+03  0.13996527010E+04  0.25500000920E-02 0.  1.
       -2    1    3    3    0  502  0.96996982699E+03 -0.50865347372E+03  0.18297673778E+04  0.21325145905E+04  0.25500000920E-02 0. -1.
</event>
<event>
 5   0  0.4764953E-08  0.3401705E+04  0.7818609E-02  0.8137488E-01
       -2   -1    0    0    0  501  0.00000000000E+00  0.00000000000E+00  0.15658073600E+04  0.15658073600E+04  0.25500000920E-02 0. -1.
        2   -1    0    0  501    0  0.00000000000E+00  0.00000000000E+00 -0.18475442799E+04  0.18475442799E+04  0.25500000920E-02 0.  1.
    10030    2    1    2    0    0  0.00000000000E+00  0.00000000000E+00 -0.28173691986E+03  0.34133516398E+04  0.34017045323E+04 0.  0.
        2    1    3    3  502    0 -0.10888963890E+04 -0.64296978583E+02  0.11686166436E+04  0.15985913509E+04  0.25500000920E-02 0. -1.
       -2    1    3    3    0  502  0.10888963890E+04  0.64296978583E+02 -0.14503535634E+04  0.18147602890E+04  0.25500000920E-02 0.  1.
</event>
<event>
 5   0  0.4775023E-08  0.3397796E+04  0.7818609E-02  0.8138447E-01
        2   -1    0    0  501    0  0.00000000000E+00  0.00000000000E+00  0.92380726742E+03  0.92380726742E+03  0.25500000920E-02 0.  1.
       -2   -1    0    0    0  501  0.00000000000E+00  0.00000000000E+00 -0.31243038337E+04  0.31243038337E+04  0.25500000920E-02 0. -1.
    10030    2    1    2    0    0  0.00000000000E+00  0.00000000000E+00 -0.22004965662E+04  0.40481111011E+04  0.33977961017E+04 0.  0.
        4    1    3    3  502    0 -0.25597261955E+03 -0.14952770623E+04 -0.20113934304E+04  0.25193413068E+04  0.12699999809E+01 0. -1.
       -4    1    3    3    0  502  0.25597261955E+03  0.14952770623E+04 -0.18910313583E+03  0.15287697943E+04  0.12699999809E+01 0.  1.
</event>
<event>
 5   0  0.1573625E-08  0.3399609E+04  0.7818609E-02  0.8138002E-01
       -3   -1    0    0    0  501  0.00000000000E+00  0.00000000000E+00  0.10291936978E+04  0.10291937027E+04  0.10100000352E+00 0. -1.
        3   -1    0    0  501    0  0.00000000000E+00  0.00000000000E+00 -0.28073780503E+04  0.28073780521E+04  0.10100000352E+00 0.  1.
    10030    2    1    2    0    0  0.00000000000E+00  0.00000000000E+00 -0.17781843525E+04  0.38365717548E+04  0.33996092773E+04 0.  0.
        3    1    3    3  502    0 -0.34731978757E+03  0.92870740192E+03 -0.24472067388E+04  0.26404449068E+04  0.10100000352E+00 0.  1.
       -3    1    3    3    0  502  0.34731978757E+03 -0.92870740192E+03  0.66902238622E+03  0.11961268481E+04  0.10100000352E+00 0. -1.
</event>
<event>
 5   0  0.1630571E-08  0.3383278E+04  0.7818609E-02  0.8142023E-01
       -1   -1    0    0    0  501  0.00000000000E+00  0.00000000000E+00  0.16742157011E+04  0.16742157011E+04  0.50400001928E-02 0.  1.
        1   -1    0    0  501    0  0.00000000000E+00  0.00000000000E+00 -0.17092437653E+04  0.17092437653E+04  0.50400001928E-02 0. -1.
    10030    2    1    2    0    0  0.00000000000E+00  0.00000000000E+00 -0.35028064225E+02  0.33834594664E+04  0.33832781433E+04 0.  0.
        3    1    3    3  502    0  0.12955658533E+04 -0.35777963630E+03  0.10097438186E+04  0.16810948034E+04  0.10100000352E+00 0.  1.
       -3    1    3    3    0  502 -0.12955658533E+04  0.35777963630E+03 -0.10447718828E+04  0.17023646630E+04  0.10100000352E+00 0. -1.
</event>
<event>
 5   0  0.1645631E-08  0.3399387E+04  0.7818609E-02  0.8138057E-01
       -1   -1    0    0    0  501  0.00000000000E+00  0.00000000000E+00  0.10980462120E+04  0.10980462121E+04  0.50400001928E-02 0.  1.
        1   -1    0    0  501    0  0.00000000000E+00  0.00000000000E+00 -0.26309992545E+04  0.26309992545E+04  0.50400001928E-02 0. -1.
    10030    2    1    2    0    0  0.00000000000E+00  0.00000000000E+00 -0.15329530424E+04  0.37290454665E+04  0.33993874538E+04 0.  0.
        4    1    3    3  502    0 -0.12881445355E+04  0.46510297656E+02 -0.19818333321E+04  0.23641371621E+04  0.12699999809E+01 0. -1.
       -4    1    3    3    0  502  0.12881445355E+04 -0.46510297656E+02  0.44888028969E+03  0.13649083044E+04  0.12699999809E+01 0.  1.
</event>
<event>
 5   0  0.5001197E-08  0.3397951E+04  0.7818609E-02  0.8138409E-01
       -2   -1    0    0    0  501  0.00000000000E+00  0.00000000000E+00  0.27233212330E+04  0.27233212330E+04  0.25500000920E-02 0. -1.
        2   -1    0    0  501    0  0.00000000000E+00  0.00000000000E+00 -0.10599257782E+04  0.10599257782E+04  0.25500000920E-02 0.  1.
    10030    2    1    2    0    0  0.00000000000E+00  0.00000000000E+00  0.16633954548E+04  0.37832470111E+04  0.33979513693E+04 0.  0.
        5    1    3    3  502    0  0.92003051500E+03 -0.12261799725E+04  0.16472309079E+04  0.22501922646E+04  0.46999998093E+01 0. -1.
       -5    1    3    3    0  502 -0.92003051500E+03  0.12261799725E+04  0.16164546875E+02  0.15330547466E+04  0.46999998093E+01 0.  1.
</event>
<event>
 5   0  0.1579536E-08  0.3408565E+04  0.7818609E-02  0.8135807E-01
       -1   -1    0    0    0  501  0.00000000000E+00  0.00000000000E+00  0.12325785140E+04  0.12325785140E+04  0.50400001928E-02 0.  1.
        1   -1    0    0  501    0  0.00000000000E+00  0.00000000000E+00 -0.23565066498E+04  0.23565066498E+04  0.50400001928E-02 0. -1.
    10030    2    1    2    0    0  0.00000000000E+00  0.00000000000E+00 -0.11239281358E+04  0.35890851638E+04  0.34085653667E+04 0.  0.
        5    1    3    3  502    0 -0.36321941011E+03  0.69574139184E+03 -0.21548860920E+04  0.22933688285E+04  0.46999998093E+01 0. -1.
       -5    1    3    3    0  502  0.36321941011E+03 -0.69574139184E+03  0.10309579562E+04  0.12957163353E+04  0.46999998093E+01 0.  1.
</event>
<event>
 5   0  0.1595851E-08  0.3399081E+04  0.7818609E-02  0.8138132E-01
        1   -1    0    0  501    0  0.00000000000E+00  0.00000000000E+00  0.16969769056E+04  0.16969769056E+04  0.50400001928E-02 0. -1.
       -1   -1    0    0    0  501  0.00000000000E+00  0.00000000000E+00 -0.17021076520E+04  0.17021076520E+04  0.50400001928E-02 0.  1.
    10030    2    1    2    0    0  0.00000000000E+00  0.00000000000E+00 -0.51307464271E+01  0.33990845577E+04  0.33990806854E+04 0.  0.
        2    1    3    3  502    0 -0.15577973432E+04 -0.65504174104E+03 -0.18318986165E+03  0.16998149224E+04  0.25500000920E-02 0.  1.
       -2    1    3    3    0  502  0.15577973432E+04  0.65504174104E+03  0.17805911523E+03  0.16992696353E+04  0.25500000920E-02 0. -1.
</event>
<event>
 5   0  0.4946315E-08  0.3399592E+04  0.7818609E-02  0.8138007E-01
       -2   -1    0    0    0  501  0.00000000000E+00  0.00000000000E+00  0.14269689875E+04  0.14269689875E+04  0.25500000920E-02 0.  1.
        2   -1    0    0  501    0  0.00000000000E+00  0.00000000000E+00 -0.20247854071E+04  0.20247854071E+04  0.25500000920E-02 0. -1.
    10030    2    1    2    0    0  0.00000000000E+00  0.00000000000E+00 -0.59781641960E+03  0.34517543946E+04  0.33995917298E+04 0.  0.
        3    1    3    3  502    0 -0.94017674826E+03 -0.79905424672E+03  0.88816981256E+03  0.15202847211E+04  0.10100000352E+00 0.  1.
       -3    1    3    3    0  502  0.94017674826E+03  0.79905424672E+03 -0.14859862322E+04  0.19314696735E+04  0.10100000352E+00 0. -1.
</event>
<event>
 5   0  0.1630571E-08  0.3399928E+04  0.7818609E-02  0.8137924E-01
       -1   -1    0    0    0  501  0.00000000000E+00  0.00000000000E+00  0.12065875613E+04  0.12065875613E+04  0.50400001928E-02 0.  1.
        1   -1    0    0  501    0  0.00000000000E+00  0.00000000000E+00 -0.23950826500E+04  0.23950826500E+04  0.50400001928E-02 0. -1.
    10030    2    1    2    0    0  0.00000000000E+00  0.00000000000E+00 -0.11884950887E+04  0.36016702113E+04  0.33999276074E+04 0.  0.
        3    1    3    3  502    0  0.12159002142E+04  0.28741737166E+03  0.62691379460E+03  0.13978708783E+04  0.10100000352E+00 0.  1.
       -3    1    3    3    0  502 -0.12159002142E+04 -0.28741737166E+03 -0.18154088833E+04  0.22037993330E+04  0.10100000352E+00 0. -1.
</event>
<event>
 5   0  0.1630571E-08  0.3398252E+04  0.7818609E-02  0.8138335E-01
        1   -1    0    0  501    0  0.00000000000E+00  0.00000000000E+00  0.25205967259E+04  0.25205967259E+04  0.50400001928E-02 0.  1.
       -1   -1    0    0    0  501  0.00000000000E+00  0.00000000000E+00 -0.11453755473E+04  0.11453755474E+04  0.50400001928E-02 0. -1.
    10030    2    1    2    0    0  0.00000000000E+00  0.00000000000E+00  0.13752211786E+04  0.36659722733E+04  0.33982524065E+04 0.  0.
        3    1    3    3  502    0 -0.10206304937E+04  0.81074448183E+02  0.21504520743E+04  0.23817438580E+04  0.10100000352E+00 0.  1.
       -3    1    3    3    0  502  0.10206304937E+04 -0.81074448183E+02 -0.77523089572E+03  0.12842284153E+04  0.10100000352E+00 0. -1.
</event>
<event>
 5   0  0.1630571E-08  0.3400553E+04  0.7818609E-02  0.8137771E-01
       -1   -1    0    0    0  501  0.00000000000E+00  0.00000000000E+00  0.10524533855E+04  0.10524533855E+04  0.50400001928E-02 0.  1.
        1   -1    0    0  501    0  0.00000000000E+00  0.00000000000E+00 -0.27468576752E+04  0.27468576752E+04  0.50400001928E-02 0. -1.
    10030    2    1    2    0    0  0.00000000000E+00  0.00000000000E+00 -0.16944042897E+04  0.37993110607E+04  0.34005526961E+04 0.  0.
        3    1    3    3  502    0  0.16548265149E+04 -0.19235674358E+03 -0.12268870059E+04  0.20689861398E+04  0.10100000352E+00 0. -1.
       -3    1    3    3    0  502 -0.16548265149E+04  0.19235674358E+03 -0.46751728375E+03  0.17303249209E+04  0.10100000352E+00 0.  1.
</event>
<event>
 5   0  0.1595851E-08  0.3402142E+04  0.7818609E-02  0.8137381E-01
       -1   -1    0    0    0  501  0.00000000000E+00  0.00000000000E+00  0.14407080393E+04  0.14407080393E+04  0.50400001928E-02 0. -1.
        1   -1    0    0  501    0  0.00000000000E+00  0.00000000000E+00 -0.20084860428E+04  0.20084860428E+04  0.50400001928E-02 0.  1.
    10030    2    1    2    0    0  0.00000000000E+00  0.00000000000E+00 -0.56777800342E+03  0.34491940821E+04  0.34021416718E+04 0.  0.
        2    1    3    3  502    0 -0.11492313237E+04 -0.12426046685E+04 -0.11170793799E+03  0.16962540084E+04  0.25500000920E-02 0.  1.
       -2    1    3    3    0  502  0.11492313237E+04  0.12426046685E+04 -0.45607006543E+03  0.17529400737E+04  0.25500000920E-02 0. -1.
</event>
<event>
 5   0  0.1645631E-08  0.3397617E+04  0.7818609E-02  0.8138491E-01
        1   -1    0    0  501    0  0.00000000000E+00  0.00000000000E+00  0.22634200506E+04  0.22634200506E+04  0.50400001928E-02 0.  1.
       -1   -1    0    0    0  501  0.00000000000E+00  0.00000000000E+00 -0.12750396484E+04  0.12750396484E+04  0.50400001928E-02 0. -1.
    10030    2    1    2    0    0  0.00000000000E+00  0.00000000000E+00  0.98838040228E+03  0.35384596990E+04  0.33976169917E+04 0.  0.
        4    1    3    3  502    0  0.63528146057E+03  0.81704145278E+03  0.18971826916E+04  0.21611207851E+04  0.12699999809E+01 0.  1.
       -4    1    3    3    0  502 -0.63528146057E+03 -0.81704145278E+03 -0.90880228933E+03  0.13773389139E+04  0.12699999809E+01 0. -1.
</event>
<event>
 5   0  0.1645631E-08  0.3401363E+04  0.7818609E-02  0.8137572E-01
        1   -1    0    0  501    0  0.00000000000E+00  0.00000000000E+00  0.16088879451E+04  0.16088879451E+04  0.50400001928E-02 0.  1.
       -1   -1    0    0    0  501  0.00000000000E+00  0.00000000000E+00 -0.17977127069E+04  0.17977127070E+04  0.50400001928E-02 0. -1.
    10030    2    1    2    0    0  0.00000000000E+00  0.00000000000E+00 -0.18882476184E+03  0.34066006521E+04  0.34013634343E+04 0.  0.
        4    1    3    3  502    0  0.62376671454E+02  0.22042407772E+03  0.15933645686E+04  0.16097483917E+04  0.12699999809E+01 0.  1.
       -4    1    3    3    0  502 -0.62376671454E+02 -0.22042407772E+03 -0.17821893304E+04  0.17968522604E+04  0.12699999809E+01 0. -1.
</event>
<event>
 5   0  0.4946315E-08  0.3400075E+04  0.7818609E-02  0.8137888E-01
        2   -1    0    0  501    0  0.00000000000E+00  0.00000000000E+00  0.23258763688E+04  0.23258763688E+04  0.25500000920E-02 0. -1.
       -2   -1    0    0    0  501  0.00000000000E+00  0.00000000000E+00 -0.12425969911E+04  0.12425969911E+04  0.25500000920E-02 0.  1.
    10030    2    1    2    0    0  0.00000000000E+00  0.00000000000E+00  0.10832793777E+04  0.35684733600E+04  0.34000746919E+04 0.  0.
        3    1    3    3  502    0  0.12673149501E+04  0.53544870818E+03  0.15897679110E+04  0.21024163534E+04  0.10100000352E+00 0. -1.
       -3    1    3    3    0  502 -0.12673149501E+04 -0.53544870818E+03 -0.50648853328E+03  0.14660570066E+04  0.10100000352E+00 0.  1.
</event>
<event>
 5   0  0.4775023E-08  0.3400834E+04  0.7818609E-02  0.8137702E-01
       -2   -1    0    0    0  501  0.00000000000E+00  0.00000000000E+00  0.17507332546E+04  0.17507332546E+04  0.25500000920E-02 0.  1.
        2   -1    0    0  501    0  0.00000000000E+00  0.00000000000E+00 -0.16515470239E+04  0.16515470239E+04  0.25500000920E-02 0. -1.
    10030    2    1    2    0    0  0.00000000000E+00  0.00000000000E+00  0.99186230625E+02  0.34022802785E+04  0.34008341896E+04 0.  0.
        4    1    3    3  502    0 -0.12007852679E+04  0.85808884444E+03 -0.79528653795E+03  0.16765094736E+04  0.12699999809E+01 0.  1.
       -4    1    3    3    0  502  0.12007852679E+04 -0.85808884444E+03  0.89447276857E+03  0.17257708050E+04  0.12699999809E+01 0. -1.
</event>
<event>
 5   0  0.4775023E-08  0.3396015E+04  0.7818609E-02  0.8138885E-01
        2   -1    0    0  501    0  0.00000000000E+00  0.00000000000E+00  0.17725823509E+04  0.17725823509E+04  0.25500000920E-02 0.  1.
       -2   -1    0    0    0  501  0.00000000000E+00  0.00000000000E+00 -0.16265704189E+04  0.16265704189E+04  0.25500000920E-02 0. -1.
    10030    2    1    2    0    0  0.00000000000E+00  0.00000000000E+00  0.14601193194E+03  0.33991527698E+04  0.33960153222E+04 0.  0.
        4    1    3    3  502    0  0.61552875343E+03  0.15540244453E+04  0.37221487562E+03  0.17124290202E+04  0.12699999809E+01 0. -1.
       -4    1    3    3    0  502 -0.61552875343E+03 -0.15540244453E+04 -0.22620294368E+03  0.16867237496E+04  0.12699999809E+01 0.  1.
</event>
<event>
 5   0  0.1579536E-08  0.3402271E+04  0.7818609E-02  0.8137349E-01
        1   -1    0    0  501    0  0.00000000000E+00  0.00000000000E+00  0.94571196746E+03  0.94571196747E+03  0.50400001928E-02 0.  1.
       -1   -1    0    0    0  501  0.00000000000E+00  0.00000000000E+00 -0.30599829616E+04  0.30599829616E+04  0.50400001928E-02 0. -1.
    10030    2    1    2    0    0  0.00000000000E+00  0.00000000000E+00 -0.21142709941E+04  0.40056949291E+04  0.34022713043E+04 0.  0.
        5    1    3    3  502    0  0.52912006879E+02  0.10239620162E+04 -0.26552860468E+04  0.28463773417E+04  0.46999998093E+01 0. -1.
       -5    1    3    3    0  502 -0.52912006879E+02 -0.10239620162E+04  0.54101505265E+03  0.11593175874E+04  0.46999998093E+01 0.  1.
</event>
<event>
 5   0  0.1630571E-08  0.3398626E+04  0.7818609E-02  0.8138244E-01
       -1   -1    0    0    0  501  0.00000000000E+00  0.00000000000E+00  0.12129017238E+04  0.12129017238E+04  0.50400001928E-02 0. -1.
        1   -1    0    0  501    0  0.00000000000E+00  0.00000000000E+00 -0.23807904700E+04  0.23807904700E+04  0.50400001928E-02 0.  1.
    10030    2    1    2    0    0  0.00000000000E+00  0.00000000000E+00 -0.11678887463E+04  0.35936921938E+04  0.33986261136E+04 0.  0.
        3    1    3    3  502    0 -0.37899421036E+03 -0.12266348301E+04  0.59323433313E+03  0.14142830700E+04  0.10100000352E+00 0.  1.
       -3    1    3    3    0  502  0.37899421036E+03  0.12266348301E+04 -0.17611230794E+04  0.21794091238E+04  0.10100000352E+00 0. -1.
</event>
<event>
 5   0  0.4775023E-08  0.3401522E+04  0.7818609E-02  0.8137533E-01
       -2   -1    0    0    0  501  0.00000000000E+00  0.00000000000E+00  0.13106166791E+04  0.13106166791E+04  0.25500000920E-02 0. -1.
        2   -1    0    0  501    0  0.00000000000E+00  0.00000000000E+00 -0.22070432323E+04  0.22070432323E+04  0.25500000920E-02 0.  1.
    10030    2    1    2    0    0  0.00000000000E+00  0.00000000000E+00 -0.89642655317E+03  0.35176599115E+04  0.34015218194E+04 0.  0.
        4    1    3    3  502    0 -0.92895286187E+03 -0.12248723672E+04  0.30417128045E+03  0.15670952480E+04  0.12699999809E+01 0. -1.
       -4    1    3    3    0  502  0.92895286187E+03  0.12248723672E+04 -0.12005978336E+04  0.19505646635E+04  0.12699999809E+01 0.  1.
</event>
<event>
 5   0  0.5001197E-08  0.3396913E+04  0.7818609E-02  0.8138664E-01
       -2   -1    0    0    0  501  0.00000000000E+00  0.00000000000E+00  0.15303096910E+04  0.15303096910E+04  0.25500000920E-02 0. -1.
        2   -1    0    0  501    0  0.00000000000E+00  0.00000000000E+00 -0.18850789558E+04  0.18850789558E+04  0.25500000920E-02 0.  1.
    10030    2    1    2    0    0  0.00000000000E+00  0.00000000000E+00 -0.35476926477E+03  0.34153886468E+04  0.33969130659E+04 0.  0.
        5    1    3    3  502    0  0.95485384070E+03  0.49547363777E+03 -0.14988743428E+04  0.18449624300E+04  0.46999998093E+01 0.  1.
       -5    1    3    3    0  502 -0.95485384070E+03 -0.49547363777E+03  0.11441050780E+04  0.15704262168E+04  0.46999998093E+01 0. -1.
</event>
<event>
 5   0  0.1579536E-08  0.3399998E+04  0.7818609E-02  0.8137907E-01
        1   -1    0    0  501    0  0.00000000000E+00  0.00000000000E+00  0.20805866222E+04  0.20805866222E+04  0.50400001928E-02 0. -1.
       -1   -1    0    0    0  501  0.00000000000E+00  0.00000000000E+00 -0.13890295527E+04  0.13890295527E+04  0.50400001928E-02 0.  1.
    10030    2    1    2    0    0  0.00000000000E+00  0.00000000000E+00  0.69155706954E+03  0.34696161749E+04  0.33999978266E+04 0.  0.
        5    1    3    3  502    0 -0.10918983794E+04  0.44176894272E+03 -0.90511540961E+03  0.14854823676E+04  0.46999998093E+01 0.  1.
       -5    1    3    3    0  502  0.10918983794E+04 -0.44176894272E+03  0.15966724792E+04  0.19841338073E+04  0.46999998093E+01 0. -1.
</event>
<event>
 5   0  0.1630571E-08  0.3401311E+04  0.7818609E-02  0.8137585E-01
        1   -1    0    0  501    0  0.00000000000E+00  0.00000000000E+00  0.27032591236E+04  0.27032591236E+04  0.50400001928E-02 0. -1.
       -1   -1    0    0    0  501  0.00000000000E+00  0.00000000000E+00 -0.10699042957E+04  0.10699042957E+04  0.50400001928E-02 0.  1.
    10030    2    1    2    0    0  0.00000000000E+00  0.00000000000E+00  0.16333548279E+04  0.37731634193E+04  0.34013106585E+04 0.  0.
        3    1    3    3  502    0  0.64780119356E+03  0.14925816485E+04  0.26783304881E+03  0.16489939103E+04  0.10100000352E+00 0. -1.
       -3    1    3    3    0  502 -0.64780119356E+03 -0.14925816485E+04  0.13655217791E+04  0.21241695091E+04  0.10100000352E+00 0.  1.
</event>
<event>
 5   0  0.4764953E-08  0.3397425E+04  0.7818609E-02  0.8138539E-01
       -2   -1    0    0    0  501  0.00000000000E+00  0.00000000000E+00  0.11135762276E+04  0.11135762276E+04  0.25500000920E-02 0. -1.
        2   -1    0    0  501    0  0.00000000000E+00  0.00000000000E+00 -0.25913125348E+04  0.25913125348E+04  0.25500000920E-02 0.  1.
    10030    2    1    2    0    0  0.00000000000E+00  0.00000000000E+00 -0.14777363072E+04  0.37048887624E+04  0.33974249290E+04 0.  0.
        2    1    3    3  502    0 -0.38029356609E+03 -0.14566527258E+04  0.11921235928E+03  0.15101893745E+04  0.25500000920E-02 0. -1.
       -2    1    3    3    0  502  0.38029356609E+03  0.14566527258E+04 -0.15969486664E+04  0.21946993879E+04  0.25500000920E-02 0.  1.
</event>
<event>
 5   0  0.5001197E-08  0.3401080E+04  0.7818609E-02  0.8137641E-01
       -2   -1    0    0    0  501  0.00000000000E+00  0.00000000000E+00  0.11175200432E+04  0.11175200432E+04  0.25500000920E-02 0.  1.
        2   -1    0    0  501    0  0.00000000000E+00  0.00000000000E+00 -0.25877258136E+04  0.25877258136E+04  0.25500000920E-02 0. -1.
    10030    2    1    2    0    0  0.00000000000E+00  0.00000000000E+00 -0.14702057704E+04  0.37052458567E+04  0.34010795127E+04 0.  0.
        5    1    3    3  502    0  0.70298608290E+03  0.91741709414E+03  0.62383882571E+03  0.13134079822E+04  0.46999998093E+01 0.  1.
       -5    1    3    3    0  502 -0.70298608290E+03 -0.91741709414E+03 -0.20940445961E+04  0.23918378745E+04  0.46999998093E+01 0. -1.
</event>
<event>
 5   0  0.4973409E-08  0.3401782E+04  0.7818609E-02  0.8137469E-01
       -2   -1    0    0    0  501  0.00000000000E+00  0.00000000000E+00  0.15548640139E+04  0.15548640139E+04  0.25500000920E-02 0.  1.
        2   -1    0    0  501    0  0.00000000000E+00  0.00000000000E+00 -0.18606319817E+04  0.18606319817E+04  0.25500000920E-02 0. -1.
    10030    2    1    2    0    0  0.00000000000E+00  0.00000000000E+00 -0.30576796774E+03  0.34154959956E+04  0.34017817164E+04 0.  0.
        1    1    3    3  502    0  0.75788541155E+03  0.11575336890E+04  0.84042502232E+03  0.16188232629E+04  0.50400001928E-02 0.  1.
       -1    1    3    3    0  502 -0.75788541155E+03 -0.11575336890E+04 -0.11461929901E+04  0.17966727328E+04  0.50400001928E-02 0. -1.
</event>
<event>
 5   0  0.4775023E-08  0.3400002E+04  0.7818609E-02  0.8137906E-01
        2   -1    0    0  501    0  0.00000000000E+00  0.00000000000E+00  0.19244927170E+04  0.19244927170E+04  0.25500000920E-02 0.  1.
       -2   -1    0    0    0  501  0.00000000000E+00  0.00000000000E+00 -0.15016958043E+04  0.15016958043E+04  0.25500000920E-02 0. -1.
    10030    2    1    2    0    0  0.00000000000E+00  0.00000000000E+00  0.42279691272E+03  0.34261885214E+04  0.34000015521E+04 0.  0.
        4    1    3    3  502    0  0.11405782867E+04  0.65260989749E+03  0.12982145826E+04  0.18472090357E+04  0.12699999809E+01 0.  1.
       -4    1    3    3    0  502 -0.11405782867E+04 -0.65260989749E+03 -0.87541766987E+03  0.15789794856E+04  0.12699999809E+01 0. -1.
</event>
<event>
 5   0  0.5001197E-08  0.3398795E+04  0.7818609E-02  0.8138202E-01
        2   -1    0    0  501    0  0.00000000000E+00  0.00000000000E+00  0.20621239730E+04  0.20621239730E+04  0.25500000920E-02 0. -1.
       -2   -1    0    0    0  501  0.00000000000E+00  0.00000000000E+00 -0.14004745603E+04  0.14004745603E+04  0.25500000920E-02 0.  1.
    10030    2    1    2    0    0  0.00000000000E+00  0.00000000000E+00  0.66164941268E+03  0.34625985332E+04  0.33987951773E+04 0.  0.
        5    1    3    3  502    0 -0.12218300363E+04 -0.46883064953E+03  0.14352694383E+04  0.19423416965E+04  0.46999998093E+01 0.  1.
       -5    1    3    3    0  502  0.12218300363E+04  0.46883064953E+03 -0.77362002564E+03  0.15202568367E+04  0.46999998093E+01 0. -1.
</event>
<event>
 5   0  0.4946315E-08  0.3400113E+04  0.7818609E-02  0.8137879E-01
        2   -1    0    0  501    0  0.00000000000E+00  0.00000000000E+00  0.98799899107E+03  0.98799899108E+03  0.25500000920E-02 0. -1.
       -2   -1    0    0    0  501  0.00000000000E+00  0.00000000000E+00 -0.29252988919E+04  0.29252988919E+04  0.25500000920E-02 0.  1.
    10030    2    1    2    0    0  0.00000000000E+00  0.00000000000E+00 -0.19372999008E+04  0.39132978830E+04  0.34001131474E+04 0.  0.
        3    1    3    3  502    0  0.13101405451E+04 -0.90213949458E+03 -0.16590827453E+04  0.22984515400E+04  0.10100000352E+00 0.  1.
       -3    1    3    3    0  502 -0.13101405451E+04  0.90213949458E+03 -0.27821715552E+03  0.16148463430E+04  0.10100000352E+00 0. -1.
</event>
<event>
 5   0  0.1645631E-08  0.3400987E+04  0.7818609E-02  0.8137664E-01
        1   -1    0    0  501    0  0.00000000000E+00  0.00000000000E+00  0.13943430739E+04  0.13943430740E+04  0.50400001928E-02 0. -1.
       -1   -1    0    0    0  501  0.00000000000E+00  0.00000000000E+00 -0.20738638359E+04  0.20738638359E+04  0.50400001928E-02 0.  1.
    10030    2    1    2    0    0  0.00000000000E+00  0.00000000000E+00 -0.67952076199E+03  0.34682069099E+04  0.34009867250E+04 0.  0.
        4    1    3    3  502    0 -0.80322576675E+03  0.30010544562E+03  0.11577466424E+04  0.14406990705E+04  0.12699999809E+01 0. -1.
       -4    1    3    3    0  502  0.80322576675E+03 -0.30010544562E+03 -0.18372674044E+04  0.20275078394E+04  0.12699999809E+01 0.  1.
</event>
<event>
 5   0  0.5001197E-08  0.3400606E+04  0.7818609E-02  0.8137758E-01
       -2   -1    0    0    0  501  0.00000000000E+00  0.00000000000E+00  0.10303019558E+04  0.10303019558E+04  0.25500000920E-02 0. -1.
        2   -1    0    0  501    0  0.00000000000E+00  0.00000000000E+00 -0.28060028004E+04  0.28060028004E+04  0.25500000920E-02 0.  1.
    10030    2    1    2    0    0  0.00000000000E+00  0.00000000000E+00 -0.17757008446E+04  0.38363047561E+04  0.34006059302E+04 0.  0.
        5    1    3    3  502    0  0.13310250824E+04 -0.69835948010E+03 -0.17844600818E+04  0.23331638620E+04  0.46999998093E+01 0.  1.
       -5    1    3    3    0  502 -0.13310250824E+04  0.69835948010E+03  0.87592372066E+01  0.15031408941E+04  0.46999998093E+01 0. -1.
</event>
<event>
 5   0  0.1579536E-08  0.3401587E+04  0.7818609E-02  0.8137517E-01
        1   -1    0    0  501    0  0.00000000000E+00  0.00000000000E+00  0.22875789976E+04  0.22875789976E+04  0.50400001928E-02 0. -1.
       -1   -1    0    0    0  501  0.00000000000E+00  0.00000000000E+00 -0.12645238936E+04  0.12645238936E+04  0.50400001928E-02 0.  1.
    10030    2    1    2    0    0  0.00000000000E+00  0.00000000000E+00  0.10230551040E+04  0.35521028912E+04  0.34015868655E+04 0.  0.
        5    1    3    3  502    0  0.14648956824E+03 -0.11580906445E+04  0.18032101251E+04  0.21480740163E+04  0.46999998093E+01 0. -1.
       -5    1    3    3    0  502 -0.14648956824E+03  0.11580906445E+04 -0.78015502109E+03  0.14040288748E+04  0.46999998093E+01 0.  1.
</event>
<event>
 5   0  0.1579536E-08  0.3401140E+04  0.7818609E-02  0.8137627E-01
       -1   -1    0    0    0  501  0.00000000000E+00  0.00000000000E+00  0.18162264252E+04  0.18162264252E+04  0.50400001928E-02 0. -1.
        1   -1    0    0  501    0  0.00000000000E+00  0.00000000000E+00 -0.15922786303E+04  0.15922786303E+04  0.50400001928E-02 0.  1.
    10030    2    1    2    0    0  0.00000000000E+00  0.00000000000E+00  0.22394779492E+03  0.34085050555E+04  0.34011401174E+04 0.  0.
        5    1    3    3  502    0  0.43801956718E+03 -0.96442150712E+03  0.14452481180E+04  0.17918521695E+04  0.46999998093E+01 0. -1.
       -5    1    3    3    0  502 -0.43801956718E+03  0.96442150712E+03 -0.12213003231E+04  0.16166528860E+04  0.46999998093E+01 0.  1.
</event>
<event>
 5   0  0.1579536E-08  0.3400461E+04  0.7818609E-02  0.8137793E-01
       -1   -1    0    0    0  501  0.00000000000E+00  0.00000000000E+00  0.16140076555E+04  0.16140076555E+04  0.50400001928E-02 0.  1.
        1   -1    0    0  501    0  0.00000000000E+00  0.00000000000E+00 -0.17910591060E+04  0.17910591060E+04  0.50400001928E-02 0. -1.
    10030    2    1    2    0    0  0.00000000000E+00  0.00000000000E+00 -0.17705145049E+03  0.34050667614E+04  0.34004606208E+04 0.  0.
        5    1    3    3  502    0  0.12153351726E+04 -0.11797170843E+04  0.59962150374E+02  0.16948125354E+04  0.46999998093E+01 0. -1.
       -5    1    3    3    0  502 -0.12153351726E+04  0.11797170843E+04 -0.23701360086E+03  0.17102542260E+04  0.46999998093E+01 0.  1.
</event>
<event>
 5   0  0.1625282E-08  0.3401017E+04  0.7818609E-02  0.8137657E-01
       -1   -1    0    0    0  501  0.00000000000E+00  0.00000000000E+00  0.18300953512E+04  0.18300953512E+04  0.50400001928E-02 0. -1.
        1   -1    0    0  501    0  0.00000000000E+00  0.00000000000E+00 -0.15800971672E+04  0.15800971672E+04  0.50400001928E-02 0.  1.
    10030    2    1    2    0    0  0.00000000000E+00  0.00000000000E+00  0.24999818405E+03  0.34101925184E+04  0.34010166010E+04 0.  0.
        1    1    3    3  502    0  0.15104675797E+04 -0.24563568849E+03  0.86853821161E+03  0.17596044515E+04  0.50400001928E-02 0.  1.
       -1    1    3    3    0  502 -0.15104675797E+04  0.24563568849E+03 -0.61854002756E+03  0.16505880669E+04  0.50400001928E-02 0. -1.
</event>
<event>
 5   0  0.4946315E-08  0.3393776E+04  0.7818609E-02  0.8139436E-01
       -2   -1    0    0    0  501  0.00000000000E+00  0.00000000000E+00  0.13355272399E+04  0.13355272399E+04  0.25500000920E-02 0.  1.
        2   -1    0    0  501    0  0.00000000000E+00  0.00000000000E+00 -0.21560239905E+04  0.21560239905E+04  0.25500000920E-02 0. -1.
    10030    2    1    2    0    0  0.00000000000E+00  0.00000000000E+00 -0.82049675060E+03  0.34915512305E+04  0.33937759321E+04 0.  0.
        3    1    3    3  502    0 -0.13603806088E+04 -0.37595388970E+03 -0.13794356363E+04  0.19735296838E+04  0.10100000352E+00 0. -1.
       -3    1    3    3    0  502  0.13603806088E+04  0.37595388970E+03  0.55893888574E+03  0.15180215466E+04  0.10100000352E+00 0.  1.
</event>
<event>
 5   0  0.5001197E-08  0.3394138E+04  0.7818609E-02  0.8139347E-01
       -2   -1    0    0    0  501  0.00000000000E+00  0.00000000000E+00  0.17048786590E+04  0.17048786590E+04  0.25500000920E-02 0.  1.
        2   -1    0    0  501    0  0.00000000000E+00  0.00000000000E+00 -0.16892948329E+04  0.16892948329E+04  0.25500000920E-02 0. -1.
    10030    2    1    2    0    0  0.00000000000E+00  0.00000000000E+00  0.15583826123E+02  0.33941734918E+04  0.33941377163E+04 0.  0.
        5    1    3    3  502    0 -0.35661257967E+03 -0.26842948285E+03  0.16451221221E+04  0.17046042960E+04  0.46999998093E+01 0.  1.
       -5    1    3    3    0  502  0.35661257967E+03  0.26842948285E+03 -0.16295382960E+04  0.16895691958E+04  0.46999998093E+01 0. -1.
</event>
<event>
 5   0  0.1645631E-08  0.3400030E+04  0.7818609E-02  0.8137899E-01
        1   -1    0    0  501    0  0.00000000000E+00  0.00000000000E+00  0.26641760029E+04  0.26641760029E+04  0.50400001928E-02 0.  1.
       -1   -1    0    0    0  501  0.00000000000E+00  0.00000000000E+00 -0.10847825830E+04  0.10847825830E+04  0.50400001928E-02 0. -1.
    10030    2    1    2    0    0  0.00000000000E+00  0.00000000000E+00  0.15793934199E+04  0.37489585859E+04  0.34000304269E+04 0.  0.
        4    1    3    3  502    0 -0.72654483788E+03  0.63230117110E+03  0.23343078614E+04  0.25252063237E+04  0.12699999809E+01 0.  1.
       -4    1    3    3    0  502  0.72654483788E+03 -0.63230117110E+03 -0.75491444152E+03  0.12237522622E+04  0.12699999809E+01 0. -1.
</event>
<event>
 5   0  0.4764953E-08  0.3400148E+04  0.7818609E-02  0.8137870E-01
       -2   -1    0    0    0  501  0.00000000000E+00  0.00000000000E+00  0.24774292100E+04  0.24774292100E+04  0.25500000920E-02 0. -1.
        2   -1    0    0  501    0  0.00000000000E+00  0.00000000000E+00 -0.11666336955E+04  0.11666336955E+04  0.25500000920E-02 0.  1.
    10030    2    1    2    0    0  0.00000000000E+00  0.00000000000E+00  0.13107955145E+04  0.36440629055E+04  0.34001484641E+04 0.  0.
        2    1    3    3  502    0 -0.14291955382E+04 -0.91334268761E+03  0.77972677133E+03  0.18667534892E+04  0.25500000920E-02 0. -1.
       -2    1    3    3    0  502  0.14291955382E+04  0.91334268761E+03  0.53106874313E+03  0.17773094163E+04  0.25500000920E-02 0.  1.
</event>
<event>
 5   0  0.4764953E-08  0.3400124E+04  0.7818609E-02  0.8137876E-01
        2   -1    0    0  501    0  0.00000000000E+00  0.00000000000E+00  0.18565711496E+04  0.18565711496E+04  0.25500000920E-02 0.  1.
       -2   -1    0    0    0  501  0.00000000000E+00  0.00000000000E+00 -0.15567464401E+04  0.15567464401E+04  0.25500000920E-02 0. -1.
    10030    2    1    2    0    0  0.00000000000E+00  0.00000000000E+00  0.29982470949E+03  0.34133175897E+04  0.34001238377E+04 0.  0.
        2    1    3    3  502    0 -0.13377193469E+04 -0.38964044058E+02 -0.90258298477E+03  0.16142079458E+04  0.25500000920E-02 0. -1.
       -2    1    3    3    0  502  0.13377193469E+04  0.38964044058E+02  0.12024076943E+04  0.17991096439E+04  0.25500000920E-02 0.  1.
</event>
<event>
 5   0  0.1625282E-08  0.3400795E+04  0.7818609E-02  0.8137711E-01
       -1   -1    0    0    0  501  0.00000000000E+00  0.00000000000E+00  0.31945556636E+04  0.31945556636E+04  0.50400001928E-02 0.  1.
        1   -1    0    0  501    0  0.00000000000E+00  0.00000000000E+00 -0.90508740756E+03  0.90508740757E+03  0.50400001928E-02 0. -1.
    10030    2    1    2    0    0  0.00000000000E+00  0.00000000000E+00  0.22894682561E+04  0.40996430712E+04  0.34007952622E+04 0.  0.
        1    1    3    3  502    0  0.13713651119E+04  0.69867799018E+03  0.27330276822E+03  0.15631658924E+04  0.50400001928E-02 0. -1.
       -1    1    3    3    0  502 -0.13713651119E+04 -0.69867799018E+03  0.20161654878E+04  0.25364771788E+04  0.50400001928E-02 0.  1.
</event>
<event>
 5   0  0.5001197E-08  0.3400996E+04  0.7818609E-02  0.8137662E-01
       -2   -1    0    0    0  501  0.00000000000E+00  0.00000000000E+00  0.16450894518E+04  0.16450894518E+04  0.25500000920E-02 0.  1.
        2   -1    0    0  501    0  0.00000000000E+00  0.00000000000E+00 -0.17577723764E+04  0.17577723764E+04  0.25500000920E-02 0. -1.
    10030    2    1    2    0    0  0.00000000000E+00  0.00000000000E+00 -0.11268292458E+03  0.34028618282E+04  0.34009956160E+04 0.  0.
        5    1    3    3  502    0  0.16870295911E+04  0.87111108354E+01  0.15714379840E+03  0.16943615282E+04  0.46999998093E+01 0.  1.
       -5    1    3    3    0  502 -0.16870295911E+04 -0.87111108354E+01 -0.26982672298E+03  0.17085003000E+04  0.46999998093E+01 0. -1.
</event>
<event>
 5   0  0.1630571E-08  0.3400311E+04  0.7818609E-02  0.8137830E-01
        1   -1    0    0  501    0  0.00000000000E+00  0.00000000000E+00  0.23366034758E+04  0.23366034758E+04  0.50400001928E-02 0.  1.
       -1   -1    0    0    0  501  0.00000000000E+00  0.00000000000E+00 -0.12370644588E+04  0.12370644588E+04  0.50400001928E-02 0. -1.
    10030    2    1    2    0    0  0.00000000000E+00  0.00000000000E+00  0.10995390170E+04  0.35736679346E+04  0.34003112294E+04 0.  0.
        3    1    3    3  502    0 -0.20777026620E+03  0.11825180005E+04 -0.71534980740E+03  0.13975845814E+04  0.10100000352E+00 0. -1.
       -3    1    3    3    0  502  0.20777026620E+03 -0.11825180005E+04  0.18148888244E+04  0.21760833532E+04  0.10100000352E+00 0.  1.
</event>
<event>
 5   0  0.4775023E-08  0.3400201E+04  0.7818609E-02  0.8137857E-01
       -2   -1    0    0    0  501  0.00000000000E+00  0.00000000000E+00  0.14315902960E+04  0.14315902960E+04  0.25500000920E-02 0. -1.
        2   -1    0    0  501    0  0.00000000000E+00  0.00000000000E+00 -0.20189724397E+04  0.20189724397E+04  0.25500000920E-02 0.  1.
    10030    2    1    2    0    0  0.00000000000E+00  0.00000000000E+00 -0.58738214363E+03  0.34505627357E+04  0.34002007897E+04 0.  0.
        4    1    3    3  502    0 -0.27335638784E+02  0.93409674107E+03  0.11475755145E+04  0.14799375437E+04  0.12699999809E+01 0. -1.
       -4    1    3    3    0  502  0.27335638784E+02 -0.93409674107E+03 -0.17349576581E+04  0.19706251920E+04  0.12699999809E+01 0.  1.
</event>
<event>
 5   0  0.1573625E-08  0.3399596E+04  0.7818609E-02  0.8138005E-01
        4   -1    0    0  501    0  0.00000000000E+00  0.00000000000E+00  0.14637494133E+04  0.14637499642E+04  0.12699999809E+01 0.  1.
       -4   -1    0    0    0  501  0.00000000000E+00  0.00000000000E+00 -0.19739117366E+04  0.19739121452E+04  0.12699999809E+01 0. -1.
    10030    2    1    2    0    0  0.00000000000E+00  0.00000000000E+00 -0.51016232336E+03  0.34376621094E+04  0.33995963264E+04 0.  0.
        2    1    3    3  502    0 -0.11364825623E+04 -0.48472246534E+03 -0.14355278316E+04  0.18940138960E+04  0.25500000920E-02 0. -1.
       -2    1    3    3    0  502  0.11364825623E+04  0.48472246534E+03  0.92536550829E+03  0.15436482134E+04  0.25500000920E-02 0.  1.
</event>
<event>
 5   0  0.1625282E-08  0.3399843E+04  0.7818609E-02  0.8137945E-01
       -1   -1    0    0    0  501  0.00000000000E+00  0.00000000000E+00  0.12031641562E+04  0.12031641562E+04  0.50400001928E-02 0. -1.
        1   -1    0    0  501    0  0.00000000000E+00  0.00000000000E+00 -0.24017773481E+04  0.24017773481E+04  0.50400001928E-02 0.  1.
    10030    2    1    2    0    0  0.00000000000E+00  0.00000000000E+00 -0.11986131919E+04  0.36049415043E+04  0.33998425943E+04 0.  0.
        1    1    3    3  502    0 -0.11794701634E+04 -0.76067830002E+03  0.41769533341E+03  0.14643260341E+04  0.50400001928E-02 0. -1.
       -1    1    3    3    0  502  0.11794701634E+04  0.76067830002E+03 -0.16163085253E+04  0.21406154702E+04  0.50400001928E-02 0.  1.
</event>
<event>
 5   0  0.1625282E-08  0.3398686E+04  0.7818609E-02  0.8138229E-01
        1   -1    0    0  501    0  0.00000000000E+00  0.00000000000E+00  0.20470592554E+04  0.20470592554E+04  0.50400001928E-02 0.  1.
       -1   -1    0    0    0  501  0.00000000000E+00  0.00000000000E+00 -0.14106901639E+04  0.14106901639E+04  0.50400001928E-02 0. -1.
    10030    2    1    2    0    0  0.00000000000E+00  0.00000000000E+00  0.63636909150E+03  0.34577494194E+04  0.33986858382E+04 0.  0.
        1    1    3    3  502    0 -0.11033341993E+04  0.94526142049E+03 -0.57855287452E+03  0.15638378871E+04  0.50400001928E-02 0. -1.
       -1    1    3    3    0  502  0.11033341993E+04 -0.94526142049E+03  0.12149219660E+04  0.18939115323E+04  0.50400001928E-02 0.  1.
</event>
<event>
 5   0  0.1630571E-08  0.3398959E+04  0.7818609E-02  0.8138162E-01
        1   -1    0    0  501    0  0.00000000000E+00  0.00000000000E+00  0.26182696198E+04  0.26182696198E+04  0.50400001928E-02 0.  1.
       -1   -1    0    0    0  501  0.00000000000E+00  0.00000000000E+00 -0.11031068115E+04  0.11031068115E+04  0.50400001928E-02 0. -1.
    10030    2    1    2    0    0  0.00000000000E+00  0.00000000000E+00  0.15151628083E+04  0.37213764314E+04  0.33989592831E+04 0.  0.
        3    1    3    3  502    0  0.16459370538E+04 -0.20867838736E+03  0.35444836909E+03  0.16965521244E+04  0.10100000352E+00 0.  1.
       -3    1    3    3    0  502 -0.16459370538E+04  0.20867838736E+03  0.11607144393E+04  0.20248243069E+04  0.10100000352E+00 0. -1.
</event>
<event>
 5   0  0.4775023E-08  0.3403510E+04  0.7818609E-02  0.8137045E-01
       -2   -1    0    0    0  501  0.00000000000E+00  0.00000000000E+00  0.19159591161E+04  0.19159591161E+04  0.25500000920E-02 0.  1.
        2   -1    0    0  501    0  0.00000000000E+00  0.00000000000E+00 -0.15114992159E+04  0.15114992159E+04  0.25500000920E-02 0. -1.
    10030    2    1    2    0    0  0.00000000000E+00  0.00000000000E+00  0.40445990012E+03  0.34274583320E+04  0.34035103653E+04 0.  0.
        4    1    3    3  502    0  0.41066850874E+03  0.10276407557E+04  0.15041042597E+04  0.18673578617E+04  0.12699999809E+01 0.  1.
       -4    1    3    3    0  502 -0.41066850874E+03 -0.10276407557E+04 -0.10996443596E+04  0.15601004703E+04  0.12699999809E+01 0. -1.
</event>
<event>
 5   0  0.4973409E-08  0.3400176E+04  0.7818609E-02  0.8137863E-01
       -2   -1    0    0    0  501  0.00000000000E+00  0.00000000000E+00  0.13701807894E+04  0.13701807895E+04  0.25500000920E-02 0. -1.
        2   -1    0    0  501    0  0.00000000000E+00  0.00000000000E+00 -0.21094291615E+04  0.21094291615E+04  0.25500000920E-02 0.  1.
    10030    2    1    2    0    0  0.00000000000E+00  0.00000000000E+00 -0.73924837203E+03  0.34796099509E+04  0.34001760624E+04 0.  0.
        1    1    3    3  502    0 -0.92709187914E+03 -0.13395674537E+04 -0.86714955332E+03  0.18455049887E+04  0.50400001928E-02 0.  1.
       -1    1    3    3    0  502  0.92709187914E+03  0.13395674537E+04  0.12790118129E+03  0.16341049622E+04  0.50400001928E-02 0. -1.
</event>
<event>
 5   0  0.1573625E-08  0.3400123E+04  0.7818609E-02  0.8137876E-01
       -4   -1    0    0    0  501  0.00000000000E+00  0.00000000000E+00  0.19127190193E+04  0.19127194409E+04  0.12699999809E+01 0.  1.
        4   -1    0    0  501    0  0.00000000000E+00  0.00000000000E+00 -0.15110468028E+04  0.15110473365E+04  0.12699999809E+01 0. -1.
    10030    2    1    2    0    0  0.00000000000E+00  0.00000000000E+00  0.40167221644E+03  0.34237667775E+04  0.34001232885E+04 0.  0.
        4    1    3    3  502    0  0.13731817465E+04 -0.62541466536E+03  0.98950419712E+03  0.18044089840E+04  0.12699999809E+01 0.  1.
       -4    1    3    3    0  502 -0.13731817465E+04  0.62541466536E+03 -0.58783198068E+03  0.16193577934E+04  0.12699999809E+01 0. -1.
</event>
<event>
 5   0  0.1595851E-08  0.3397413E+04  0.7818609E-02  0.8138541E-01
       -1   -1    0    0    0  501  0.00000000000E+00  0.00000000000E+00  0.28109529048E+04  0.28109529048E+04  0.50400001928E-02 0.  1.
        1   -1    0    0  501    0  0.00000000000E+00  0.00000000000E+00 -0.10265573200E+04  0.10265573200E+04  0.50400001928E-02 0. -1.
    10030    2    1    2    0    0  0.00000000000E+00  0.00000000000E+00  0.17843955847E+04  0.38375102248E+04  0.33974132987E+04 0.  0.
        2    1    3    3  502    0  0.14226483579E+04  0.63554256547E+03  0.16564220732E+04  0.22741101089E+04  0.25500000920E-02 0.  1.
       -2    1    3    3    0  502 -0.14226483579E+04 -0.63554256547E+03  0.12797351153E+03  0.15634001159E+04  0.25500000920E-02 0. -1.
</event>
<event>
 5   0  0.1573625E-08  0.3400445E+04  0.7818609E-02  0.8137797E-01
       -3   -1    0    0    0  501  0.00000000000E+00  0.00000000000E+00  0.23296469857E+04  0.23296469878E+04  0.10100000352E+00 0. -1.
        3   -1    0    0  501    0  0.00000000000E+00  0.00000000000E+00 -0.12408558549E+04  0.12408558591E+04  0.10100000352E+00 0.  1.
    10030    2    1    2    0    0  0.00000000000E+00  0.00000000000E+00  0.10887911307E+04  0.35705028469E+04  0.34004447435E+04 0.  0.
        2    1    3    3  502    0 -0.95643075773E+03 -0.12683980782E+04 -0.91847263247E+02  0.15912351802E+04  0.25500000920E-02 0.  1.
       -2    1    3    3    0  502  0.95643075773E+03  0.12683980782E+04  0.11806383940E+04  0.19792676667E+04  0.25500000920E-02 0. -1.
</event>
<event>
 5   0  0.4775023E-08  0.3391221E+04  0.7818609E-02  0.8140064E-01
       -2   -1    0    0    0  501  0.00000000000E+00  0.00000000000E+00  0.14430178344E+04  0.14430178344E+04  0.25500000920E-02 0. -1.
        2   -1    0    0  501    0  0.00000000000E+00  0.00000000000E+00 -0.19924182256E+04  0.19924182256E+04  0.25500000920E-02 0.  1.
    10030    2    1    2    0    0  0.00000000000E+00  0.00000000000E+00 -0.54940039117E+03  0.34354360599E+04  0.33912210385E+04 0.  0.
        4    1    3    3  502    0  0.14047671053E+04 -0.57152001761E+02 -0.12349280218E+04  0.18712791891E+04  0.12699999809E+01 0.  1.
       -4    1    3    3    0  502 -0.14047671053E+04  0.57152001761E+02  0.68552763058E+03  0.15641568709E+04  0.12699999809E+01 0. -1.
</event>
<event>
 5   0  0.1630571E-08  0.3400248E+04  0.7818609E-02  0.8137845E-01
       -1   -1    0    0    0  501  0.00000000000E+00  0.00000000000E+00  0.21338402973E+04  0.21338402973E+04  0.50400001928E-02 0.  1.
        1   -1    0    0  501    0  0.00000000000E+00  0.00000000000E+00 -0.13545632030E+04  0.13545632030E+04  0.50400001928E-02 0. -1.
    10030    2    1    2    0    0  0.00000000000E+00  0.00000000000E+00  0.77927709427E+03  0.34884035003E+04  0.34002479603E+04 0.  0.
        3    1    3    3  502    0  0.72433606813E+03  0.75178531685E+03  0.17662838289E+04  0.20517315800E+04  0.10100000352E+00 0.  1.
       -3    1    3    3    0  502 -0.72433606813E+03 -0.75178531685E+03 -0.98700673460E+03  0.14366719203E+04  0.10100000352E+00 0. -1.
</event>
<event>
 5   0  0.4775023E-08  0.3399672E+04  0.7818609E-02  0.8137987E-01
       -2   -1    0    0    0  501  0.00000000000E+00  0.00000000000E+00  0.18498697745E+04  0.18498697745E+04  0.25500000920E-02 0. -1.
        2   -1    0    0  501    0  0.00000000000E+00  0.00000000000E+00 -0.15619708526E+04  0.15619708526E+04  0.25500000920E-02 0.  1.
    10030    2    1    2    0    0  0.00000000000E+00  0.00000000000E+00  0.28789892199E+03  0.34118406271E+04  0.33996721423E+04 0.  0.
        4    1    3    3  502    0  0.83018730927E+01  0.63784994451E+03 -0.14372914468E+04  0.15724915862E+04  0.12699999809E+01 0.  1.
       -4    1    3    3    0  502 -0.83018730927E+01 -0.63784994451E+03  0.17251903688E+04  0.18393490409E+04  0.12699999809E+01 0. -1.
</event>
<event>
 5   0  0.1630571E-08  0.3389560E+04  0.7818609E-02  0.8140473E-01
        1   -1    0    0  501    0  0.00000000000E+00  0.00000000000E+00  0.28929482541E+04  0.28929482541E+04  0.50400001928E-02 0. -1.
       -1   -1    0    0    0  501  0.00000000000E+00  0.00000000000E+00 -0.99285522829E+03  0.99285522831E+03  0.50400001928E-02 0.  1.
    10030    2    1    2    0    0  0.00000000000E+00  0.00000000000E+00  0.19000930258E+04  0.38858034824E+04  0.33895597350E+04 0.  0.
        3    1    3    3  502    0  0.37220660433E+03 -0.82928660945E+03 -0.68976141917E+03  0.11410630405E+04  0.10100000352E+00 0.  1.
       -3    1    3    3    0  502 -0.37220660433E+03  0.82928660945E+03  0.25898544450E+04  0.27447404419E+04  0.10100000352E+00 0. -1.
</event>
<event>
 5   0  0.1630571E-08  0.3399584E+04  0.7818609E-02  0.8138008E-01
        1   -1    0    0  501    0  0.00000000000E+00  0.00000000000E+00  0.10972240995E+04  0.10972240995E+04  0.50400001928E-02 0.  1.
       -1   -1    0    0    0  501  0.00000000000E+00  0.00000000000E+00 -0.26332755564E+04  0.26332755564E+04  0.50400001928E-02 0. -1.
    10030    2    1    2    0    0  0.00000000000E+00  0.00000000000E+00 -0.15360514569E+04  0.37304996559E+04  0.33995843282E+04 0.  0.
        3    1    3    3  502    0 -0.12432368808E+04  0.10650725882E+04 -0.26602918885E+03  0.16585503005E+04  0.10100000352E+00 0.  1.
       -3    1    3    3    0  502  0.12432368808E+04 -0.10650725882E+04 -0.12700222681E+04  0.20719493554E+04  0.10100000352E+00 0. -1.
</event>
<event>
 5   0  0.4775023E-08  0.3398592E+04  0.7818609E-02  0.8138252E-01
        2   -1    0    0  501    0  0.00000000000E+00  0.00000000000E+00  0.15771732589E+04  0.15771732589E+04  0.25500000920E-02 0.  1.
       -2   -1    0    0    0  501  0.00000000000E+00  0.00000000000E+00 -0.18308749292E+04  0.18308749292E+04  0.25500000920E-02 0. -1.
    10030    2    1    2    0    0  0.00000000000E+00  0.00000000000E+00 -0.25370167026E+03  0.34080481881E+04  0.33985920489E+04 0.  0.
        4    1    3    3  502    0  0.33886891765E+03 -0.11641276097E+04 -0.13207853261E+04  0.17929028768E+04  0.12699999809E+01 0. -1.
       -4    1    3    3    0  502 -0.33886891765E+03  0.11641276097E+04  0.10670836559E+04  0.16151453113E+04  0.12699999809E+01 0.  1.
</event>
<event>
 5   0  0.4973409E-08  0.3394956E+04  0.7818609E-02  0.8139145E-01
       -2   -1    0    0    0  501  0.00000000000E+00  0.00000000000E+00  0.11357007372E+04  0.11357007372E+04  0.25500000920E-02 0.  1.
        2   -1    0    0  501    0  0.00000000000E+00  0.00000000000E+00 -0.25371403239E+04  0.25371403239E+04  0.25500000920E-02 0. -1.
    10030    2    1    2    0    0  0.00000000000E+00  0.00000000000E+00 -0.14014395867E+04  0.36728410612E+04  0.33949563392E+04 0.  0.
        1    1    3    3  502    0  0.25969232572E+03 -0.16591461862E+04 -0.43302756572E+03  0.17342776721E+04  0.50400001928E-02 0. -1.
       -1    1    3    3    0  502 -0.25969232572E+03  0.16591461862E+04 -0.96841202100E+03  0.19385633891E+04  0.50400001928E-02 0.  1.
</event>
<event>
 5   0  0.4764953E-08  0.3399086E+04  0.7818609E-02  0.8138131E-01
        2   -1    0    0  501    0  0.00000000000E+00  0.00000000000E+00  0.33691603176E+04  0.33691603176E+04  0.25500000920E-02 0.  1.
       -2   -1    0    0    0  501  0.00000000000E+00  0.00000000000E+00 -0.85731938633E+03  0.85731938633E+03  0.25500000920E-02 0. -1.
    10030    2    1    2    0    0  0.00000000000E+00  0.00000000000E+00  0.25118409312E+04  0.42264797039E+04  0.33990860277E+04 0.  0.
        2    1    3    3  502    0  0.33059916795E+03 -0.13715609322E+03 -0.80992499681E+03  0.88548636591E+03  0.25500000920E-02 0. -1.
       -2    1    3    3    0  502 -0.33059916795E+03  0.13715609322E+03  0.33217659280E+04  0.33409933380E+04  0.25500000920E-02 0.  1.
</event>
<event>
 5   0  0.4775023E-08  0.3386368E+04  0.7818609E-02  0.8141260E-01
        2   -1    0    0  501    0  0.00000000000E+00  0.00000000000E+00  0.10652767113E+04  0.10652767113E+04  0.25500000920E-02 0. -1.
       -2   -1    0    0    0  501  0.00000000000E+00  0.00000000000E+00 -0.26911997101E+04  0.26911997101E+04  0.25500000920E-02 0.  1.
    10030    2    1    2    0    0  0.00000000000E+00  0.00000000000E+00 -0.16259229988E+04  0.37564764214E+04  0.33863681883E+04 0.  0.
        4    1    3    3  502    0 -0.12266726553E+04 -0.74984310719E+03  0.17914657719E+03  0.14488221415E+04  0.12699999809E+01 0. -1.
       -4    1    3    3    0  502  0.12266726553E+04  0.74984310719E+03 -0.18050695760E+04  0.23076542799E+04  0.12699999809E+01 0.  1.
</event>
<event>
 5   0  0.1625282E-08  0.3399724E+04  0.7818609E-02  0.8137974E-01
       -1   -1    0    0    0  501  0.00000000000E+00  0.00000000000E+00  0.22850716955E+04  0.22850716955E+04  0.50400001928E-02 0.  1.
        1   -1    0    0  501    0  0.00000000000E+00  0.00000000000E+00 -0.12645254115E+04  0.12645254115E+04  0.50400001928E-02 0. -1.
    10030    2    1    2    0    0  0.00000000000E+00  0.00000000000E+00  0.10205462840E+04  0.35495971070E+04  0.33997242394E+04 0.  0.
        1    1    3    3  502    0  0.76995224872E+03  0.63965707604E+03 -0.92417173719E+03  0.13623806517E+04  0.50400001928E-02 0. -1.
       -1    1    3    3    0  502 -0.76995224872E+03 -0.63965707604E+03  0.19447180212E+04  0.21872164553E+04  0.50400001928E-02 0.  1.
</event>
<event>
 5   0  0.1630571E-08  0.3406771E+04  0.7818609E-02  0.8136247E-01
        1   -1    0    0  501    0  0.00000000000E+00  0.00000000000E+00  0.23263253792E+04  0.23263253792E+04  0.50400001928E-02 0. -1.
       -1   -1    0    0    0  501  0.00000000000E+00  0.00000000000E+00 -0.12472551934E+04  0.12472551934E+04  0.50400001928E-02 0.  1.
    10030    2    1    2    0    0  0.00000000000E+00  0.00000000000E+00  0.10790701858E+04  0.35735805726E+04  0.34067705592E+04 0.  0.
        3    1    3    3  502    0  0.11889281022E+04  0.12030716395E+04  0.75086950063E+03  0.18506043389E+04  0.10100000352E+00 0. -1.
       -3    1    3    3    0  502 -0.11889281022E+04 -0.12030716395E+04  0.32820068513E+03  0.17229762337E+04  0.10100000352E+00 0.  1.
</event>
<event>
 5   0  0.4764953E-08  0.3400795E+04  0.7818609E-02  0.8137711E-01
       -2   -1    0    0    0  501  0.00000000000E+00  0.00000000000E+00  0.18013075852E+04  0.18013075852E+04  0.25500000920E-02 0.  1.
        2   -1    0    0  501    0  0.00000000000E+00  0.00000000000E+00 -0.16051403103E+04  0.16051403103E+04  0.25500000920E-02 0. -1.
    10030    2    1    2    0    0  0.00000000000E+00  0.00000000000E+00  0.19616727486E+03  0.34064478955E+04  0.34007948578E+04 0.  0.
        2    1    3    3  502    0  0.11977875989E+04  0.10449174697E+03 -0.11063034123E+04  0.16338668542E+04  0.25500000920E-02 0. -1.
       -2    1    3    3    0  502 -0.11977875989E+04 -0.10449174697E+03  0.13024706872E+04  0.17725810413E+04  0.25500000920E-02 0.  1.
</event>
<event>
 5   0  0.1595851E-08  0.3399449E+04  0.7818609E-02  0.8138041E-01
       -1   -1    0    0    0  501  0.00000000000E+00  0.00000000000E+00  0.15195512588E+04  0.15195512588E+04  0.50400001928E-02 0.  1.
        1   -1    0    0  501    0  0.00000000000E+00  0.00000000000E+00 -0.19012612513E+04  0.19012612513E+04  0.50400001928E-02 0. -1.
    10030    2    1    2    0    0  0.00000000000E+00  0.00000000000E+00 -0.38170999253E+03  0.34208125101E+04  0.33994493247E+04 0.  0.
        2    1    3    3  502    0 -0.27772442132E+03  0.15178784038E+04 -0.90805989662E+03  0.17904352763E+04  0.25500000920E-02 0. -1.
       -2    1    3    3    0  502  0.27772442132E+03 -0.15178784038E+04  0.52634990409E+03  0.16303772338E+04  0.25500000920E-02 0.  1.
</event>
<event>
 5   0  0.1645631E-08  0.3396497E+04  0.7818609E-02  0.8138767E-01
        1   -1    0    0  501    0  0.00000000000E+00  0.00000000000E+00  0.23493666852E+04  0.23493666852E+04  0.50400001928E-02 0. -1.
       -1   -1    0    0    0  501  0.00000000000E+00  0.00000000000E+00 -0.12275855611E+04  0.12275855611E+04  0.50400001928E-02 0.  1.
    10030    2    1    2    0    0  0.00000000000E+00  0.00000000000E+00  0.11217811240E+04  0.35769522463E+04  0.33964973844E+04 0.  0.
        4    1    3    3  502    0  0.84675893354E+03  0.10316400972E+04  0.16668096392E+04  0.21353074645E+04  0.12699999809E+01 0. -1.
       -4    1    3    3    0  502 -0.84675893354E+03 -0.10316400972E+04 -0.54502851520E+03  0.14416447818E+04  0.12699999809E+01 0.  1.
</event>
<event>
 5   0  0.1645631E-08  0.3402573E+04  0.7818609E-02  0.8137275E-01
       -1   -1    0    0    0  501  0.00000000000E+00  0.00000000000E+00  0.16994570078E+04  0.16994570078E+04  0.50400001928E-02 0.  1.
        1   -1    0    0  501    0  0.00000000000E+00  0.00000000000E+00 -0.17031179428E+04  0.17031179428E+04  0.50400001928E-02 0. -1.
    10030    2    1    2    0    0  0.00000000000E+00  0.00000000000E+00 -0.36609350262E+01  0.34025749507E+04  0.34025729812E+04 0.  0.
        4    1    3    3  502    0 -0.11594150652E+03 -0.82487626310E+03 -0.14852432136E+04  0.17028835247E+04  0.12699999809E+01 0. -1.
       -4    1    3    3    0  502  0.11594150652E+03  0.82487626310E+03  0.14815822786E+04  0.16996914259E+04  0.12699999809E+01 0.  1.
</event>
<event>
 5   0  0.4764953E-08  0.3401881E+04  0.7818609E-02  0.8137445E-01
       -2   -1    0    0    0  501  0.00000000000E+00  0.00000000000E+00  0.28980377663E+04  0.28980377663E+04  0.25500000920E-02 0.  1.
        2   -1    0    0  501    0  0.00000000000E+00  0.00000000000E+00 -0.99833018389E+03  0.99833018389E+03  0.25500000920E-02 0. -1.
    10030    2    1    2    0    0  0.00000000000E+00  0.00000000000E+00  0.18997075824E+04  0.38963679502E+04  0.34018809951E+04 0.  0.
        2    1    3    3  502    0 -0.70989665150E+03 -0.86901081690E+03 -0.51426251837E+03  0.12343415222E+04  0.25500000920E-02 0. -1.
       -2    1    3    3    0  502  0.70989665150E+03  0.86901081690E+03  0.24139701008E+04  0.26620264279E+04  0.25500000920E-02 0.  1.
</event>
<event>
 5   0  0.1625282E-08  0.3396904E+04  0.7818609E-02  0.8138667E-01
       -1   -1    0    0    0  501  0.00000000000E+00  0.00000000000E+00  0.16115253327E+04  0.16115253327E+04  0.50400001928E-02 0.  1.
        1   -1    0    0  501    0  0.00000000000E+00  0.00000000000E+00 -0.17900673566E+04  0.17900673566E+04  0.50400001928E-02 0. -1.
    10030    2    1    2    0    0  0.00000000000E+00  0.00000000000E+00 -0.17854202393E+03  0.34015926893E+04  0.33969038210E+04 0.  0.
        1    1    3    3  502    0  0.61472319749E+03  0.14294239086E+04 -0.77109379498E+03  0.17365837039E+04  0.50400001928E-02 0. -1.
       -1    1    3    3    0  502 -0.61472319749E+03 -0.14294239086E+04  0.59255177105E+03  0.16650089854E+04  0.50400001928E-02 0.  1.
</event>
<event>
 5   0  0.4764953E-08  0.3400074E+04  0.7818609E-02  0.8137888E-01
       -2   -1    0    0    0  501  0.00000000000E+00  0.00000000000E+00  0.18583590313E+04  0.18583590313E+04  0.25500000920E-02 0. -1.
        2   -1    0    0  501    0  0.00000000000E+00  0.00000000000E+00 -0.15552029481E+04  0.15552029481E+04  0.25500000920E-02 0.  1.
    10030    2    1    2    0    0  0.00000000000E+00  0.00000000000E+00  0.30315608317E+03  0.34135619794E+04  0.34000737898E+04 0.  0.
        2    1    3    3  502    0 -0.36395277299E+03 -0.47993239900E+03 -0.14444860106E+04  0.15650356429E+04  0.25500000920E-02 0.  1.
       -2    1    3    3    0  502  0.36395277299E+03  0.47993239900E+03  0.17476420938E+04  0.18485263365E+04  0.25500000920E-02 0. -1.
</event>
<event>
 5   0  0.4764953E-08  0.3399102E+04  0.7818609E-02  0.8138127E-01
       -2   -1    0    0    0  501  0.00000000000E+00  0.00000000000E+00  0.11419847472E+04  0.11419847472E+04  0.25500000920E-02 0.  1.
        2   -1    0    0  501    0  0.00000000000E+00  0.00000000000E+00 -0.25293451800E+04  0.25293451800E+04  0.25500000920E-02 0. -1.
    10030    2    1    2    0    0  0.00000000000E+00  0.00000000000E+00 -0.13873604328E+04  0.36713299272E+04  0.33991020085E+04 0.  0.
        2    1    3    3  502    0 -0.63266237951E+03 -0.93522207813E+03  0.67831733496E+03  0.13172002235E+04  0.25500000920E-02 0.  1.
       -2    1    3    3    0  502  0.63266237951E+03  0.93522207813E+03 -0.20656777677E+04  0.23541297037E+04  0.25500000920E-02 0. -1.
</event>
<event>
 5   0  0.4764953E-08  0.3400159E+04  0.7818609E-02  0.8137867E-01
        2   -1    0    0  501    0  0.00000000000E+00  0.00000000000E+00  0.23557610651E+04  0.23557610651E+04  0.25500000920E-02 0.  1.
       -2   -1    0    0    0  501  0.00000000000E+00  0.00000000000E+00 -0.12268944542E+04  0.12268944542E+04  0.25500000920E-02 0. -1.
    10030    2    1    2    0    0  0.00000000000E+00  0.00000000000E+00  0.11288666109E+04  0.35826555194E+04  0.34001589294E+04 0.  0.
        2    1    3    3  502    0  0.70270355453E+02  0.10950795706E+04  0.19326401174E+04  0.22224389783E+04  0.25500000920E-02 0.  1.
       -2    1    3    3    0  502 -0.70270355453E+02 -0.10950795706E+04 -0.80377350647E+03  0.13602165411E+04  0.25500000920E-02 0. -1.
</event>
<event>
 5   0  0.4973409E-08  0.3400063E+04  0.7818609E-02  0.8137891E-01
        2   -1    0    0  501    0  0.00000000000E+00  0.00000000000E+00  0.99023430292E+03  0.99023430293E+03  0.25500000920E-02 0. -1.
       -2   -1    0    0    0  501  0.00000000000E+00  0.00000000000E+00 -0.29186094595E+04  0.29186094595E+04  0.25500000920E-02 0.  1.
    10030    2    1    2    0    0  0.00000000000E+00  0.00000000000E+00 -0.19283751565E+04  0.39088437624E+04  0.34000630604E+04 0.  0.
        1    1    3    3  502    0  0.96014564548E+03 -0.69513879625E+03  0.43677317856E+03  0.12632768565E+04  0.50400001928E-02 0. -1.
       -1    1    3    3    0  502 -0.96014564548E+03  0.69513879625E+03 -0.23651483351E+04  0.26455669059E+04  0.50400001928E-02 0.  1.
</event>
<event>
 5   0  0.1595851E-08  0.3399740E+04  0.7818609E-02  0.8137970E-01
        1   -1    0    0  501    0  0.00000000000E+00  0.00000000000E+00  0.16635887247E+04  0.16635887247E+04  0.50400001928E-02 0. -1.
       -1   -1    0    0    0  501  0.00000000000E+00  0.00000000000E+00 -0.17369429994E+04  0.17369429994E+04  0.50400001928E-02 0.  1.
    10030    2    1    2    0    0  0.00000000000E+00  0.00000000000E+00 -0.73354274688E+02  0.34005317241E+04  0.33997404543E+04 0.  0.
        2    1    3    3  502    0 -0.97005288615E+03  0.12722407944E+04  0.53787761082E+03  0.16878719042E+04  0.25500000920E-02 0.  1.
       -2    1    3    3    0  502  0.97005288615E+03 -0.12722407944E+04 -0.61123188551E+03  0.17126598199E+04  0.25500000920E-02 0. -1.
</event>
<event>
 5   0  0.4775023E-08  0.3398936E+04  0.7818609E-02  0.8138167E-01
        2   -1    0    0  501    0  0.00000000000E+00  0.00000000000E+00  0.16867857327E+04  0.16867857327E+04  0.25500000920E-02 0. -1.
       -2   -1    0    0    0  501  0.00000000000E+00  0.00000000000E+00 -0.17122456949E+04  0.17122456949E+04  0.25500000920E-02 0.  1.
    10030    2    1    2    0    0  0.00000000000E+00  0.00000000000E+00 -0.25459962201E+02  0.33990314276E+04  0.33989360742E+04 0.  0.
        4    1    3    3  502    0 -0.58693426724E+03 -0.15320314580E+04  0.43065337858E+03  0.16961946137E+04  0.12699999809E+01 0. -1.
       -4    1    3    3    0  502  0.58693426724E+03  0.15320314580E+04 -0.45611334078E+03  0.17028368139E+04  0.12699999809E+01 0.  1.
</event>
<event>
 5   0  0.5001197E-08  0.3399708E+04  0.7818609E-02  0.8137978E-01
        2   -1    0    0  501    0  0.00000000000E+00  0.00000000000E+00  0.20450651358E+04  0.20450651358E+04  0.25500000920E-02 0.  1.
       -2   -1    0    0    0  501  0.00000000000E+00  0.00000000000E+00 -0.14129150284E+04  0.14129150284E+04  0.25500000920E-02 0. -1.
    10030    2    1    2    0    0  0.00000000000E+00  0.00000000000E+00  0.63215010740E+03  0.34579801642E+04  0.33997077900E+04 0.  0.
        5    1    3    3  502    0 -0.45405243515E+03  0.21375848967E+03 -0.13358389004E+04  0.14270052430E+04  0.46999998093E+01 0. -1.
       -5    1    3    3    0  502  0.45405243515E+03 -0.21375848967E+03  0.19679890078E+04  0.20309749212E+04  0.46999998093E+01 0.  1.
</event>
<event>
 5   0  0.1630571E-08  0.3400344E+04  0.7818609E-02  0.8137822E-01
        1   -1    0    0  501    0  0.00000000000E+00  0.00000000000E+00  0.21980331334E+04  0.21980331334E+04  0.50400001928E-02 0.  1.
       -1   -1    0    0    0  501  0.00000000000E+00  0.00000000000E+00 -0.13150779152E+04  0.13150779152E+04  0.50400001928E-02 0. -1.
    10030    2    1    2    0    0  0.00000000000E+00  0.00000000000E+00  0.88295521818E+03  0.35131110485E+04  0.34003440006E+04 0.  0.
        3    1    3    3  502    0 -0.81584768857E+03  0.57541815061E+03  0.18632964225E+04  0.21139032777E+04  0.10100000352E+00 0.  1.
       -3    1    3    3    0  502  0.81584768857E+03 -0.57541815061E+03 -0.98034120433E+03  0.13992077709E+04  0.10100000352E+00 0. -1.
</event>
<event>
 5   0  0.5001197E-08  0.3409289E+04  0.7818609E-02  0.8135630E-01
        2   -1    0    0  501    0  0.00000000000E+00  0.00000000000E+00  0.24383715043E+04  0.24383715043E+04  0.25500000920E-02 0.  1.
       -2   -1    0    0    0  501  0.00000000000E+00  0.00000000000E+00 -0.11917020981E+04  0.11917020981E+04  0.25500000920E-02 0. -1.
    10030    2    1    2    0    0  0.00000000000E+00  0.00000000000E+00  0.12466694062E+04  0.36300736024E+04  0.34092887456E+04 0.  0.
        5    1    3    3  502    0  0.14789740311E+04  0.36641585242E+03  0.14371383471E+04  0.20945198687E+04  0.46999998093E+01 0.  1.
       -5    1    3    3    0  502 -0.14789740311E+04 -0.36641585242E+03 -0.19046894092E+03  0.15355537337E+04  0.46999998093E+01 0. -1.
</event>
<event>
 5   0  0.1579536E-08  0.3398754E+04  0.7818609E-02  0.8138212E-01
        1   -1    0    0  501    0  0.00000000000E+00  0.00000000000E+00  0.16788499888E+04  0.16788499889E+04  0.50400001928E-02 0. -1.
       -1   -1    0    0    0  501  0.00000000000E+00  0.00000000000E+00 -0.17201553571E+04  0.17201553571E+04  0.50400001928E-02 0.  1.
    10030    2    1    2    0    0  0.00000000000E+00  0.00000000000E+00 -0.41305368239E+02  0.33990053459E+04  0.33987543613E+04 0.  0.
        5    1    3    3  502    0 -0.80264290698E+03  0.14963032588E+04 -0.89226208134E+02  0.17003359917E+04  0.46999998093E+01 0. -1.
       -5    1    3    3    0  502  0.80264290698E+03 -0.14963032588E+04  0.47920839895E+02  0.16986693543E+04  0.46999998093E+01 0.  1.
</event>
<event>
 5   0  0.5001197E-08  0.3402685E+04  0.7818609E-02  0.8137248E-01
        2   -1    0    0  501    0  0.00000000000E+00  0.00000000000E+00  0.20051124165E+04  0.20051124165E+04  0.25500000920E-02 0.  1.
       -2   -1    0    0    0  501  0.00000000000E+00  0.00000000000E+00 -0.14435930995E+04  0.14435930995E+04  0.25500000920E-02 0. -1.
    10030    2    1    2    0    0  0.00000000000E+00  0.00000000000E+00  0.56151931697E+03  0.34487055160E+04  0.34026850857E+04 0.  0.
        5    1    3    3  502    0  0.15060715216E+04  0.82933411612E+02  0.10784332349E+04  0.18542302206E+04  0.46999998093E+01 0.  1.
       -5    1    3    3    0  502 -0.15060715216E+04 -0.82933411612E+02 -0.51691391789E+03  0.15944752954E+04  0.46999998093E+01 0. -1.
</event>
<event>
 5   0  0.4764953E-08  0.3399472E+04  0.7818609E-02  0.8138036E-01
       -2   -1    0    0    0  501  0.00000000000E+00  0.00000000000E+00  0.97108925369E+03  0.97108925369E+03  0.25500000920E-02 0. -1.
        2   -1    0    0  501    0  0.00000000000E+00  0.00000000000E+00 -0.29751155925E+04  0.29751155925E+04  0.25500000920E-02 0.  1.
    10030    2    1    2    0    0  0.00000000000E+00  0.00000000000E+00 -0.20040263389E+04  0.39462048462E+04  0.33994721828E+04 0.  0.
        2    1    3    3  502    0  0.15877813348E+04 -0.41593621320E+03 -0.48933901638E+03  0.17127478430E+04  0.25500000920E-02 0. -1.
       -2    1    3    3    0  502 -0.15877813348E+04  0.41593621320E+03 -0.15146873225E+04  0.22334570033E+04  0.25500000920E-02 0.  1.
</event>
<event>
 5   0  0.1625282E-08  0.3399432E+04  0.7818609E-02  0.8138046E-01
        1   -1    0    0  501    0  0.00000000000E+00  0.00000000000E+00  0.15161107190E+04  0.15161107190E+04  0.50400001928E-02 0.  1.
       -1   -1    0    0    0  501  0.00000000000E+00  0.00000000000E+00 -0.19055569490E+04  0.19055569490E+04  0.50400001928E-02 0. -1.
    10030    2    1    2    0    0  0.00000000000E+00  0.00000000000E+00 -0.38944622994E+03  0.34216676680E+04  0.33994324915E+04 0.  0.
        1    1    3    3  502    0  0.15975295503E+03 -0.16880807776E+04 -0.76063954432E+02  0.16973283252E+04  0.50400001928E-02 0.  1.
       -1    1    3    3    0  502 -0.15975295503E+03  0.16880807776E+04 -0.31338227551E+03  0.17243393428E+04  0.50400001928E-02 0. -1.
</event>
<event>
 5   0  0.1630571E-08  0.3394672E+04  0.7818609E-02  0.8139215E-01
        1   -1    0    0  501    0  0.00000000000E+00  0.00000000000E+00  0.23236892880E+04  0.23236892880E+04  0.50400001928E-02 0.  1.
       -1   -1    0    0    0  501  0.00000000000E+00  0.00000000000E+00 -0.12398169747E+04  0.12398169748E+04  0.50400001928E-02 0. -1.
    10030    2    1    2    0    0  0.00000000000E+00  0.00000000000E+00  0.10838723133E+04  0.35635062627E+04  0.33946719566E+04 0.  0.
        3    1    3    3  502    0  0.26760022739E+03 -0.35776122275E+03  0.22608581907E+04  0.23045786476E+04  0.10100000352E+00 0.  1.
       -3    1    3    3    0  502 -0.26760022739E+03  0.35776122275E+03 -0.11769858775E+04  0.12589276151E+04  0.10100000352E+00 0. -1.
</event>
<event>
 5   0  0.4775023E-08  0.3399487E+04  0.7818609E-02  0.8138032E-01
       -2   -1    0    0    0  501  0.00000000000E+00  0.00000000000E+00  0.15798019342E+04  0.15798019342E+04  0.25500000920E-02 0. -1.
        2   -1    0    0  501    0  0.00000000000E+00  0.00000000000E+00 -0.18287915325E+04  0.18287915325E+04  0.25500000920E-02 0.  1.
    10030    2    1    2    0    0  0.00000000000E+00  0.00000000000E+00 -0.24898959832E+03  0.34085934666E+04  0.33994872556E+04 0.  0.
        4    1    3    3  502    0  0.10886606834E+04  0.11551847358E+04 -0.73398237384E+03  0.17488183426E+04  0.12699999809E+01 0.  1.
       -4    1    3    3    0  502 -0.10886606834E+04 -0.11551847358E+04  0.48499277552E+03  0.16597751241E+04  0.12699999809E+01 0. -1.
</event>
<event>
 5   0  0.4775023E-08  0.3404162E+04  0.7818609E-02  0.8136886E-01
       -2   -1    0    0    0  501  0.00000000000E+00  0.00000000000E+00  0.19247496224E+04  0.19247496224E+04  0.25500000920E-02 0. -1.
        2   -1    0    0  501    0  0.00000000000E+00  0.00000000000E+00 -0.15051724074E+04  0.15051724074E+04  0.25500000920E-02 0.  1.
    10030    2    1    2    0    0  0.00000000000E+00  0.00000000000E+00  0.41957721498E+03  0.34299220298E+04  0.34041621717E+04 0.  0.
        4    1    3    3  502    0  0.48116889687E+03  0.10068793421E+04 -0.10851405757E+04  0.15565542711E+04  0.12699999809E+01 0.  1.
       -4    1    3    3    0  502 -0.48116889687E+03 -0.10068793421E+04  0.15047177907E+04  0.18733677587E+04  0.12699999809E+01 0. -1.
</event>
<event>
 5   0  0.4973409E-08  0.3399058E+04  0.7818609E-02  0.8138138E-01
       -2   -1    0    0    0  501  0.00000000000E+00  0.00000000000E+00  0.19380813935E+04  0.19380813935E+04  0.25500000920E-02 0.  1.
        2   -1    0    0  501    0  0.00000000000E+00  0.00000000000E+00 -0.14903393605E+04  0.14903393605E+04  0.25500000920E-02 0. -1.
    10030    2    1    2    0    0  0.00000000000E+00  0.00000000000E+00  0.44774203304E+03  0.34284207540E+04  0.33990580958E+04 0.  0.
        1    1    3    3  502    0  0.68511060531E+03  0.71078329136E+03  0.16192265768E+04  0.18964398582E+04  0.50400001928E-02 0.  1.
       -1    1    3    3    0  502 -0.68511060531E+03 -0.71078329136E+03 -0.11714845437E+04  0.15319808958E+04  0.50400001928E-02 0. -1.
</event>
<event>
 5   0  0.5001197E-08  0.3399961E+04  0.7818609E-02  0.8137916E-01
        2   -1    0    0  501    0  0.00000000000E+00  0.00000000000E+00  0.17376362317E+04  0.17376362318E+04  0.25500000920E-02 0.  1.
       -2   -1    0    0    0  501  0.00000000000E+00  0.00000000000E+00 -0.16631406154E+04  0.16631406154E+04  0.25500000920E-02 0. -1.
    10030    2    1    2    0    0  0.00000000000E+00  0.00000000000E+00  0.74495616397E+02  0.34007768471E+04  0.33999608184E+04 0.  0.
        5    1    3    3  502    0 -0.59061374143E+03 -0.12689412277E+04  0.10022979443E+04  0.17215283007E+04  0.46999998093E+01 0. -1.
       -5    1    3    3    0  502  0.59061374143E+03  0.12689412277E+04 -0.92780232790E+03  0.16792485464E+04  0.46999998093E+01 0.  1.
</event>
<event>
 5   0  0.1630571E-08  0.3401821E+04  0.7818609E-02  0.8137460E-01
        1   -1    0    0  501    0  0.00000000000E+00  0.00000000000E+00  0.20490861495E+04  0.20490861495E+04  0.50400001928E-02 0.  1.
       -1   -1    0    0    0  501  0.00000000000E+00  0.00000000000E+00 -0.14118957539E+04  0.14118957539E+04  0.50400001928E-02 0. -1.
    10030    2    1    2    0    0  0.00000000000E+00  0.00000000000E+00  0.63719039563E+03  0.34609819034E+04  0.34018207089E+04 0.  0.
        3    1    3    3  502    0  0.11773393135E+04  0.86724474406E+01 -0.93030895245E+03  0.15005591717E+04  0.10100000352E+00 0. -1.
       -3    1    3    3    0  502 -0.11773393135E+04 -0.86724474406E+01  0.15674993481E+04  0.19604227317E+04  0.10100000352E+00 0.  1.
</event>
<event>
 5   0  0.1625282E-08  0.3399120E+04  0.7818609E-02  0.8138122E-01
        1   -1    0    0  501    0  0.00000000000E+00  0.00000000000E+00  0.15971904958E+04  0.15971904958E+04  0.50400001928E-02 0. -1.
       -1   -1    0    0    0  501  0.00000000000E+00  0.00000000000E+00 -0.18084908742E+04  0.18084908742E+04  0.50400001928E-02 0.  1.
    10030    2    1    2    0    0  0.00000000000E+00  0.00000000000E+00 -0.21130037844E+03  0.34056813700E+04  0.33991201427E+04 0.  0.
        1    1    3    3  502    0 -0.13002681978E+04 -0.61768389012E+02  0.98915829765E+03  0.16349149390E+04  0.50400001928E-02 0. -1.
       -1    1    3    3    0  502  0.13002681978E+04  0.61768389012E+02 -0.12004586761E+04  0.17707664310E+04  0.50400001928E-02 0.  1.
</event>
<event>
 5   0  0.4764953E-08  0.3399960E+04  0.7818609E-02  0.8137916E-01
       -2   -1    0    0    0  501  0.00000000000E+00  0.00000000000E+00  0.12765463014E+04  0.12765463014E+04  0.25500000920E-02 0. -1.
        2   -1    0    0  501    0  0.00000000000E+00  0.00000000000E+00 -0.22638671438E+04  0.22638671438E+04  0.25500000920E-02 0.  1.
    10030    2    1    2    0    0  0.00000000000E+00  0.00000000000E+00 -0.98732084244E+03  0.35404134452E+04  0.33999595464E+04 0.  0.
        2    1    3    3  502    0 -0.13974673469E+04  0.72876701219E+03  0.16977357245E+03  0.15851938082E+04  0.25500000920E-02 0. -1.
       -2    1    3    3    0  502  0.13974673469E+04 -0.72876701219E+03 -0.11570944149E+04  0.19552196369E+04  0.25500000920E-02 0.  1.
</event>
<event>
 5   0  0.1579536E-08  0.3399227E+04  0.7818609E-02  0.8138096E-01
       -1   -1    0    0    0  501  0.00000000000E+00  0.00000000000E+00  0.11898767586E+04  0.11898767586E+04  0.50400001928E-02 0. -1.
        1   -1    0    0  501    0  0.00000000000E+00  0.00000000000E+00 -0.24277193765E+04  0.24277193765E+04  0.50400001928E-02 0.  1.
    10030    2    1    2    0    0  0.00000000000E+00  0.00000000000E+00 -0.12378426178E+04  0.36175961351E+04  0.33992274785E+04 0.  0.
        5    1    3    3  502    0  0.73169499860E+03 -0.74553017876E+03 -0.20457469773E+04  0.22970188513E+04  0.46999998093E+01 0.  1.
       -5    1    3    3    0  502 -0.73169499860E+03  0.74553017876E+03  0.80790435944E+03  0.13205772838E+04  0.46999998093E+01 0. -1.
</event>
<event>
 5   0  0.1630571E-08  0.3399804E+04  0.7818609E-02  0.8137954E-01
        1   -1    0    0  501    0  0.00000000000E+00  0.00000000000E+00  0.14067977968E+04  0.14067977968E+04  0.50400001928E-02 0. -1.
       -1   -1    0    0    0  501  0.00000000000E+00  0.00000000000E+00 -0.20540745556E+04  0.20540745556E+04  0.50400001928E-02 0.  1.
    10030    2    1    2    0    0  0.00000000000E+00  0.00000000000E+00 -0.64727675874E+03  0.34608723524E+04  0.33998044411E+04 0.  0.
        3    1    3    3  502    0 -0.11811631399E+04  0.10432604712E+04  0.32509093860E+03  0.16091062433E+04  0.10100000352E+00 0. -1.
       -3    1    3    3    0  502  0.11811631399E+04 -0.10432604712E+04 -0.97236769734E+03  0.18517661091E+04  0.10100000352E+00 0.  1.
</event>
<event>
 5   0  0.1595851E-08  0.3399677E+04  0.7818609E-02  0.8137986E-01
       -1   -1    0    0    0  501  0.00000000000E+00  0.00000000000E+00  0.15466512436E+04  0.15466512436E+04  0.50400001928E-02 0. -1.
        1   -1    0    0  501    0  0.00000000000E+00  0.00000000000E+00 -0.18681979490E+04  0.18681979490E+04  0.50400001928E-02 0.  1.
    10030    2    1    2    0    0  0.00000000000E+00  0.00000000000E+00 -0.32154670537E+03  0.34148491926E+04  0.33996768559E+04 0.  0.
        2    1    3    3  502    0 -0.19006131339E+03 -0.14450953026E+04 -0.10393350312E+04  0.17901511231E+04  0.25500000920E-02 0.  1.
       -2    1    3    3    0  502  0.19006131339E+03  0.14450953026E+04  0.71778832578E+03  0.16246980695E+04  0.25500000920E-02 0. -1.
</event>
<event>
 5   0  0.4764953E-08  0.3399296E+04  0.7818609E-02  0.8138079E-01
       -2   -1    0    0    0  501  0.00000000000E+00  0.00000000000E+00  0.13141594964E+04  0.13141594964E+04  0.25500000920E-02 0.  1.
        2   -1    0    0  501    0  0.00000000000E+00  0.00000000000E+00 -0.21982137910E+04  0.21982137910E+04  0.25500000920E-02 0. -1.
    10030    2    1    2    0    0  0.00000000000E+00  0.00000000000E+00 -0.88405429469E+03  0.35123732874E+04  0.33992961204E+04 0.  0.
        2    1    3    3  502    0 -0.15086676268E+03 -0.75962369779E+03  0.11212498840E+04  0.13627142932E+04  0.25500000920E-02 0.  1.
       -2    1    3    3    0  502  0.15086676268E+03  0.75962369779E+03 -0.20053041787E+04  0.21496589942E+04  0.25500000920E-02 0. -1.
</event>
<event>
 5   0  0.4946315E-08  0.3399683E+04  0.7818609E-02  0.8137984E-01
       -2   -1    0    0    0  501  0.00000000000E+00  0.00000000000E+00  0.24498458493E+04  0.24498458493E+04  0.25500000920E-02 0. -1.
        2   -1    0    0  501    0  0.00000000000E+00  0.00000000000E+00 -0.11794460685E+04  0.11794460685E+04  0.25500000920E-02 0.  1.
    10030    2    1    2    0    0  0.00000000000E+00  0.00000000000E+00  0.12703997808E+04  0.36292919178E+04  0.33996829590E+04 0.  0.
        3    1    3    3  502    0  0.57787529542E+03  0.15912031201E+04  0.47122301673E+03  0.17572473839E+04  0.10100000352E+00 0.  1.
       -3    1    3    3    0  502 -0.57787529542E+03 -0.15912031201E+04  0.79917676403E+03  0.18720445339E+04  0.10100000352E+00 0. -1.
</event>
<event>
 5   0  0.1579536E-08  0.3400693E+04  0.7818609E-02  0.8137736E-01
        1   -1    0    0  501    0  0.00000000000E+00  0.00000000000E+00  0.16730153697E+04  0.16730153697E+04  0.50400001928E-02 0. -1.
       -1   -1    0    0    0  501  0.00000000000E+00  0.00000000000E+00 -0.17281239388E+04  0.17281239388E+04  0.50400001928E-02 0.  1.
    10030    2    1    2    0    0  0.00000000000E+00  0.00000000000E+00 -0.55108569049E+02  0.34011393085E+04  0.34006928178E+04 0.  0.
        5    1    3    3  502    0  0.11069587594E+04  0.97169683458E+03 -0.87713823209E+03  0.17143354402E+04  0.46999998093E+01 0.  1.
       -5    1    3    3    0  502 -0.11069587594E+04 -0.97169683458E+03  0.82202966304E+03  0.16868038683E+04  0.46999998093E+01 0. -1.
</event>
<event>
 5   0  0.1625282E-08  0.3401063E+04  0.7818609E-02  0.8137645E-01
       -1   -1    0    0    0  501  0.00000000000E+00  0.00000000000E+00  0.14082138202E+04  0.14082138202E+04  0.50400001928E-02 0. -1.
        1   -1    0    0  501    0  0.00000000000E+00  0.00000000000E+00 -0.20535287667E+04  0.20535287667E+04  0.50400001928E-02 0.  1.
    10030    2    1    2    0    0  0.00000000000E+00  0.00000000000E+00 -0.64531494649E+03  0.34617425869E+04  0.34010631217E+04 0.  0.
        1    1    3    3  502    0 -0.13655955449E+04 -0.87660221862E+03 -0.84018244203E+03  0.18273448438E+04  0.50400001928E-02 0.  1.
       -1    1    3    3    0  502  0.13655955449E+04  0.87660221862E+03  0.19486749554E+03  0.16343977432E+04  0.50400001928E-02 0. -1.
</event>
<event>
 5   0  0.1579536E-08  0.3397932E+04  0.7818609E-02  0.8138414E-01
       -1   -1    0    0    0  501  0.00000000000E+00  0.00000000000E+00  0.15522187043E+04  0.15522187043E+04  0.50400001928E-02 0. -1.
        1   -1    0    0  501    0  0.00000000000E+00  0.00000000000E+00 -0.18595864088E+04  0.18595864088E+04  0.50400001928E-02 0.  1.
    10030    2    1    2    0    0  0.00000000000E+00  0.00000000000E+00 -0.30736770455E+03  0.34118051131E+04  0.33979316096E+04 0.  0.
        5    1    3    3  502    0 -0.19623957466E+03  0.29410741401E+03 -0.18222308938E+04  0.18562210704E+04  0.46999998093E+01 0.  1.
       -5    1    3    3    0  502  0.19623957466E+03 -0.29410741401E+03  0.15148631893E+04  0.15555840427E+04  0.46999998093E+01 0. -1.
</event>
<event>
 5   0  0.5001197E-08  0.3399004E+04  0.7818609E-02  0.8138151E-01
       -2   -1    0    0    0  501  0.00000000000E+00  0.00000000000E+00  0.21206430161E+04  0.21206430161E+04  0.25500000920E-02 0. -1.
        2   -1    0    0  501    0  0.00000000000E+00  0.00000000000E+00 -0.13619959586E+04  0.13619959587E+04  0.25500000920E-02 0.  1.
    10030    2    1    2    0    0  0.00000000000E+00  0.00000000000E+00  0.75864705750E+03  0.34826389748E+04  0.33990040999E+04 0.  0.
        5    1    3    3  502    0  0.27354868183E+03 -0.16372713640E+04  0.75270582598E+03  0.18226559059E+04  0.46999998093E+01 0. -1.
       -5    1    3    3    0  502 -0.27354868183E+03  0.16372713640E+04  0.59412315210E+01  0.16599830689E+04  0.46999998093E+01 0.  1.
</event>
<event>
 5   0  0.1573625E-08  0.3401161E+04  0.7818609E-02  0.8137622E-01
        3   -1    0    0  501    0  0.00000000000E+00  0.00000000000E+00  0.18232805126E+04  0.18232805154E+04  0.10100000352E+00 0. -1.
       -3   -1    0    0    0  501  0.00000000000E+00  0.00000000000E+00 -0.15861372741E+04  0.15861372773E+04  0.10100000352E+00 0.  1.
    10030    2    1    2    0    0  0.00000000000E+00  0.00000000000E+00  0.23714323854E+03  0.34094177927E+04  0.34011605034E+04 0.  0.
        3    1    3    3  502    0 -0.87626062188E+03 -0.11196812483E+04  0.10538181596E+04  0.17697602943E+04  0.10100000352E+00 0. -1.
       -3    1    3    3    0  502  0.87626062188E+03  0.11196812483E+04 -0.81667492110E+03  0.16396574985E+04  0.10100000352E+00 0.  1.
</event>
<event>
 5   0  0.4764953E-08  0.3400473E+04  0.7818609E-02  0.8137790E-01
       -2   -1    0    0    0  501  0.00000000000E+00  0.00000000000E+00  0.94410864805E+03  0.94410864805E+03  0.25500000920E-02 0.  1.
        2   -1    0    0  501    0  0.00000000000E+00  0.00000000000E+00 -0.30619397328E+04  0.30619397328E+04  0.25500000920E-02 0. -1.
    10030    2    1    2    0    0  0.00000000000E+00  0.00000000000E+00 -0.21178310847E+04  0.40060483808E+04  0.34004727798E+04 0.  0.
        2    1    3    3  502    0 -0.14416570992E+04 -0.44023552590E+03 -0.19855091758E+04  0.24928756882E+04  0.25500000920E-02 0. -1.
       -2    1    3    3    0  502  0.14416570992E+04  0.44023552590E+03 -0.13232190899E+03  0.15131726926E+04  0.25500000920E-02 0.  1.
</event>
<event>
 5   0  0.4764953E-08  0.3399260E+04  0.7818609E-02  0.8138088E-01
       -2   -1    0    0    0  501  0.00000000000E+00  0.00000000000E+00  0.19253462838E+04  0.19253462838E+04  0.25500000920E-02 0. -1.
        2   -1    0    0  501    0  0.00000000000E+00  0.00000000000E+00 -0.15003749298E+04  0.15003749298E+04  0.25500000920E-02 0.  1.
    10030    2    1    2    0    0  0.00000000000E+00  0.00000000000E+00  0.42497135394E+03  0.34257212136E+04  0.33992595049E+04 0.  0.
        2    1    3    3  502    0  0.12665357059E+04 -0.11004698673E+04  0.48588087634E+03  0.17467761302E+04  0.25500000920E-02 0. -1.
       -2    1    3    3    0  502 -0.12665357059E+04  0.11004698673E+04 -0.60909522398E+02  0.16789450834E+04  0.25500000920E-02 0.  1.
</event>
<event>
 5   0  0.5001197E-08  0.3400415E+04  0.7818609E-02  0.8137805E-01
       -2   -1    0    0    0  501  0.00000000000E+00  0.00000000000E+00  0.25536971752E+04  0.25536971753E+04  0.25500000920E-02 0. -1.
        2   -1    0    0  501    0  0.00000000000E+00  0.00000000000E+00 -0.11319686032E+04  0.11319686032E+04  0.25500000920E-02 0.  1.
    10030    2    1    2    0    0  0.00000000000E+00  0.00000000000E+00  0.14217285721E+04  0.36856657784E+04  0.34004146949E+04 0.  0.
        5    1    3    3  502    0  0.15918007296E+04  0.16337623235E+03  0.88066110088E+02  0.16025913658E+04  0.46999998093E+01 0.  1.
       -5    1    3    3    0  502 -0.15918007296E+04 -0.16337623235E+03  0.13336624620E+04  0.20830744126E+04  0.46999998093E+01 0. -1.
</event>
<event>
 5   0  0.4973409E-08  0.3400569E+04  0.7818609E-02  0.8137767E-01
        2   -1    0    0  501    0  0.00000000000E+00  0.00000000000E+00  0.13705330905E+04  0.13705330905E+04  0.25500000920E-02 0. -1.
       -2   -1    0    0    0  501  0.00000000000E+00  0.00000000000E+00 -0.21093743991E+04  0.21093743991E+04  0.25500000920E-02 0.  1.
    10030    2    1    2    0    0  0.00000000000E+00  0.00000000000E+00 -0.73884130859E+03  0.34799074897E+04  0.34005690196E+04 0.  0.
        1    1    3    3  502    0  0.56738637554E+03 -0.15295800403E+04 -0.85957909946E+03  0.18440224042E+04  0.50400001928E-02 0.  1.
       -1    1    3    3    0  502 -0.56738637554E+03  0.15295800403E+04  0.12073779087E+03  0.16358850855E+04  0.50400001928E-02 0. -1.
</event>
<event>
 5   0  0.4764953E-08  0.3400167E+04  0.7818609E-02  0.8137865E-01
        2   -1    0    0  501    0  0.00000000000E+00  0.00000000000E+00  0.18474959217E+04  0.18474959217E+04  0.25500000920E-02 0.  1.
       -2   -1    0    0    0  501  0.00000000000E+00  0.00000000000E+00 -0.15644335929E+04  0.15644335929E+04  0.25500000920E-02 0. -1.
    10030    2    1    2    0    0  0.00000000000E+00  0.00000000000E+00  0.28306232878E+03  0.34119295146E+04  0.34001674562E+04 0.  0.
        2    1    3    3  502    0 -0.12008212044E+03  0.14169922943E+04 -0.79335570016E+03  0.16284041712E+04  0.25500000920E-02 0. -1.
       -2    1    3    3    0  502  0.12008212044E+03 -0.14169922943E+04  0.10764180289E+04  0.17835253434E+04  0.25500000920E-02 0.  1.
</event>
<event>
 5   0  0.4973409E-08  0.3398073E+04  0.7818609E-02  0.8138379E-01
        2   -1    0    0  501    0  0.00000000000E+00  0.00000000000E+00  0.28658216490E+04  0.28658216490E+04  0.25500000920E-02 0. -1.
       -2   -1    0    0    0  501  0.00000000000E+00  0.00000000000E+00 -0.10072942206E+04  0.10072942206E+04  0.25500000920E-02 0.  1.
    10030    2    1    2    0    0  0.00000000000E+00  0.00000000000E+00  0.18585274284E+04  0.38731158696E+04  0.33980733273E+04 0.  0.
        1    1    3    3  502    0 -0.10751750573E+03 -0.78509355413E+03  0.26422978825E+04  0.27585630322E+04  0.50400001928E-02 0. -1.
       -1    1    3    3    0  502  0.10751750573E+03  0.78509355413E+03 -0.78377045405E+03  0.11145528374E+04  0.50400001928E-02 0.  1.
</event>
<event>
 5   0  0.1645631E-08  0.3400665E+04  0.7818609E-02  0.8137743E-01
       -1   -1    0    0    0  501  0.00000000000E+00  0.00000000000E+00  0.12415701662E+04  0.12415701662E+04  0.50400001928E-02 0.  1.
        1   -1    0    0  501    0  0.00000000000E+00  0.00000000000E+00 -0.23286086069E+04  0.23286086069E+04  0.50400001928E-02 0. -1.
    10030    2    1    2    0    0  0.00000000000E+00  0.00000000000E+00 -0.10870384407E+04  0.35701787731E+04  0.34006652144E+04 0.  0.
        4    1    3    3  502    0  0.16841264481E+04 -0.17396049377E+03 -0.37890661181E+03  0.17349685818E+04  0.12699999809E+01 0.  1.
       -4    1    3    3    0  502 -0.16841264481E+04  0.17396049377E+03 -0.70813182884E+03  0.18352101913E+04  0.12699999809E+01 0. -1.
</event>
<event>
 5   0  0.1645631E-08  0.3400297E+04  0.7818609E-02  0.8137833E-01
       -1   -1    0    0    0  501  0.00000000000E+00  0.00000000000E+00  0.34028812552E+04  0.34028812552E+04  0.50400001928E-02 0.  1.
        1   -1    0    0  501    0  0.00000000000E+00  0.00000000000E+00 -0.84942857734E+03  0.84942857735E+03  0.50400001928E-02 0. -1.
    10030    2    1    2    0    0  0.00000000000E+00  0.00000000000E+00  0.25534526779E+04  0.42523098326E+04  0.34002968009E+04 0.  0.
        4    1    3    3  502    0  0.23255009404E+03 -0.16284733834E+03 -0.81957556178E+03  0.86735489634E+03  0.12699999809E+01 0. -1.
       -4    1    3    3    0  502 -0.23255009404E+03  0.16284733834E+03  0.33730282397E+04  0.33849549362E+04  0.12699999809E+01 0.  1.
</event>
<event>
 5   0  0.1645631E-08  0.3387360E+04  0.7818609E-02  0.8141016E-01
       -1   -1    0    0    0  501  0.00000000000E+00  0.00000000000E+00  0.14336841748E+04  0.14336841748E+04  0.50400001928E-02 0. -1.
        1   -1    0    0  501    0  0.00000000000E+00  0.00000000000E+00 -0.20008255186E+04  0.20008255186E+04  0.50400001928E-02 0.  1.
    10030    2    1    2    0    0  0.00000000000E+00  0.00000000000E+00 -0.56714134384E+03  0.34345096935E+04  0.33873599647E+04 0.  0.
        4    1    3    3  502    0 -0.15913345558E+04 -0.53760221820E+03 -0.63317951789E+02  0.16808844664E+04  0.12699999809E+01 0. -1.
       -4    1    3    3    0  502  0.15913345558E+04  0.53760221820E+03 -0.50382339205E+03  0.17536252270E+04  0.12699999809E+01 0.  1.
</event>
<event>
 5   0  0.4775023E-08  0.3401519E+04  0.7818609E-02  0.8137534E-01
       -2   -1    0    0    0  501  0.00000000000E+00  0.00000000000E+00  0.17123607518E+04  0.17123607518E+04  0.25500000920E-02 0. -1.
        2   -1    0    0  501    0  0.00000000000E+00  0.00000000000E+00 -0.16892371449E+04  0.16892371449E+04  0.25500000920E-02 0.  1.
    10030    2    1    2    0    0  0.00000000000E+00  0.00000000000E+00  0.23123606914E+02  0.34015978967E+04  0.34015193002E+04 0.  0.
        4    1    3    3  502    0 -0.10811814653E+04  0.37085472960E+03  0.12709936124E+04  0.17093603971E+04  0.12699999809E+01 0. -1.
       -4    1    3    3    0  502  0.10811814653E+04 -0.37085472960E+03 -0.12478700055E+04  0.16922374996E+04  0.12699999809E+01 0.  1.
</event>
<event>
 5   0  0.1579536E-08  0.3402441E+04  0.7818609E-02  0.8137307E-01
        1   -1    0    0  501    0  0.00000000000E+00  0.00000000000E+00  0.26080109357E+04  0.26080109357E+04  0.50400001928E-02 0. -1.
       -1   -1    0    0    0  501  0.00000000000E+00  0.00000000000E+00 -0.11097161545E+04  0.11097161545E+04  0.50400001928E-02 0.  1.
    10030    2    1    2    0    0  0.00000000000E+00  0.00000000000E+00  0.14982947812E+04  0.37177270903E+04  0.34024413979E+04 0.  0.
        5    1    3    3  502    0 -0.86773999651E+03  0.87180481442E+03  0.20332553209E+04  0.23763765749E+04  0.46999998093E+01 0. -1.
       -5    1    3    3    0  502  0.86773999651E+03 -0.87180481442E+03 -0.53496053967E+03  0.13413505153E+04  0.46999998093E+01 0.  1.
</event>
<event>
 5   0  0.1595851E-08  0.3400260E+04  0.7818609E-02  0.8137843E-01
        1   -1    0    0  501    0  0.00000000000E+00  0.00000000000E+00  0.23278977958E+04  0.23278977958E+04  0.50400001928E-02 0.  1.
       -1   -1    0    0    0  501  0.00000000000E+00  0.00000000000E+00 -0.12416530585E+04  0.12416530585E+04  0.50400001928E-02 0. -1.
    10030    2    1    2    0    0  0.00000000000E+00  0.00000000000E+00  0.10862447373E+04  0.35695508543E+04  0.34002596477E+04 0.  0.
        2    1    3    3  502    0 -0.18486656831E+03  0.13592818080E+04  0.15974243139E+04  0.21056084917E+04  0.25500000920E-02 0.  1.
       -2    1    3    3    0  502  0.18486656831E+03 -0.13592818080E+04 -0.51117957658E+03  0.14639423626E+04  0.25500000920E-02 0. -1.
</event>
<event>
 5   0  0.1645631E-08  0.3396967E+04  0.7818609E-02  0.8138651E-01
        1   -1    0    0  501    0  0.00000000000E+00  0.00000000000E+00  0.19830491920E+04  0.19830491920E+04  0.50400001928E-02 0. -1.
       -1   -1    0    0    0  501  0.00000000000E+00  0.00000000000E+00 -0.14547524780E+04  0.14547524780E+04  0.50400001928E-02 0.  1.
    10030    2    1    2    0    0  0.00000000000E+00  0.00000000000E+00  0.52829671407E+03  0.34378016700E+04  0.33969667211E+04 0.  0.
        4    1    3    3  502    0 -0.19720966404E+03  0.74917379302E+03  0.17938378016E+04  0.19539725421E+04  0.12699999809E+01 0. -1.
       -4    1    3    3    0  502  0.19720966404E+03 -0.74917379302E+03 -0.12655410876E+04  0.14838291279E+04  0.12699999809E+01 0.  1.
</event>
<event>
 5   0  0.1645631E-08  0.3400180E+04  0.7818609E-02  0.8137862E-01
       -1   -1    0    0    0  501  0.00000000000E+00  0.00000000000E+00  0.14484149971E+04  0.14484149971E+04  0.50400001928E-02 0.  1.
        1   -1    0    0  501    0  0.00000000000E+00  0.00000000000E+00 -0.19954952545E+04  0.19954952545E+04  0.50400001928E-02 0. -1.
    10030    2    1    2    0    0  0.00000000000E+00  0.00000000000E+00 -0.54708025739E+03  0.34439102515E+04  0.34001795559E+04 0.  0.
        4    1    3    3  502    0 -0.15655563978E+03 -0.23975081327E+02  0.14409259517E+04  0.14496046648E+04  0.12699999809E+01 0.  1.
       -4    1    3    3    0  502  0.15655563978E+03  0.23975081327E+02 -0.19880062091E+04  0.19943055867E+04  0.12699999809E+01 0. -1.
</event>
<event>
 5   0  0.4946315E-08  0.3399524E+04  0.7818609E-02  0.8138023E-01
        2   -1    0    0  501    0  0.00000000000E+00  0.00000000000E+00  0.16074071847E+04  0.16074071847E+04  0.25500000920E-02 0.  1.
       -2   -1    0    0    0  501  0.00000000000E+00  0.00000000000E+00 -0.17974233426E+04  0.17974233426E+04  0.25500000920E-02 0. -1.
    10030    2    1    2    0    0  0.00000000000E+00  0.00000000000E+00 -0.19001615792E+03  0.34048305273E+04  0.33995241989E+04 0.  0.
        3    1    3    3  502    0 -0.93888796893E+03  0.60105074490E+02 -0.15128688413E+04  0.17815429771E+04  0.10100000352E+00 0. -1.
       -3    1    3    3    0  502  0.93888796893E+03 -0.60105074490E+02  0.13228526834E+04  0.16232875501E+04  0.10100000352E+00 0.  1.
</event>
<event>
 5   0  0.1595851E-08  0.3401322E+04  0.7818609E-02  0.8137582E-01
        1   -1    0    0  501    0  0.00000000000E+00  0.00000000000E+00  0.17351076353E+04  0.17351076353E+04  0.50400001928E-02 0. -1.
       -1   -1    0    0    0  501  0.00000000000E+00  0.00000000000E+00 -0.16668982749E+04  0.16668982749E+04  0.50400001928E-02 0.  1.
    10030    2    1    2    0    0  0.00000000000E+00  0.00000000000E+00  0.68209360394E+02  0.34020059103E+04  0.34013220513E+04 0.  0.
        2    1    3    3  502    0  0.45737342589E+03 -0.10603511061E+04  0.12828399796E+04  0.17260397829E+04  0.25500000920E-02 0. -1.
       -2    1    3    3    0  502 -0.45737342589E+03  0.10603511061E+04 -0.12146306192E+04  0.16759661274E+04  0.25500000920E-02 0.  1.
</event>
<event>
 5   0  0.4946315E-08  0.3400279E+04  0.7818609E-02  0.8137838E-01
       -2   -1    0    0    0  501  0.00000000000E+00  0.00000000000E+00  0.11442676962E+04  0.11442676962E+04  0.25500000920E-02 0. -1.
        2   -1    0    0  501    0  0.00000000000E+00  0.00000000000E+00 -0.25260475498E+04  0.25260475498E+04  0.25500000920E-02 0.  1.
    10030    2    1    2    0    0  0.00000000000E+00  0.00000000000E+00 -0.13817798537E+04  0.36703152460E+04  0.34002791711E+04 0.  0.
        3    1    3    3  502    0 -0.76881770890E+03  0.63523786291E+03  0.79536292831E+03  0.12756214211E+04  0.10100000352E+00 0. -1.
       -3    1    3    3    0  502  0.76881770890E+03 -0.63523786291E+03 -0.21771427820E+04  0.23946938250E+04  0.10100000352E+00 0.  1.
</event>
<event>
 5   0  0.1579536E-08  0.3399505E+04  0.7818609E-02  0.8138028E-01
       -1   -1    0    0    0  501  0.00000000000E+00  0.00000000000E+00  0.11224027040E+04  0.11224027040E+04  0.50400001928E-02 0.  1.
        1   -1    0    0  501    0  0.00000000000E+00  0.00000000000E+00 -0.25740840566E+04  0.25740840567E+04  0.50400001928E-02 0. -1.
    10030    2    1    2    0    0  0.00000000000E+00  0.00000000000E+00 -0.14516813527E+04  0.36964867606E+04  0.33995052025E+04 0.  0.
        5    1    3    3  502    0  0.10778677356E+04 -0.12235211831E+04 -0.12476986833E+04  0.20531870434E+04  0.46999998093E+01 0. -1.
       -5    1    3    3    0  502 -0.10778677356E+04  0.12235211831E+04 -0.20398266940E+03  0.16432997172E+04  0.46999998093E+01 0.  1.
</event>
<event>
 5   0  0.4946315E-08  0.3394951E+04  0.7818609E-02  0.8139146E-01
       -2   -1    0    0    0  501  0.00000000000E+00  0.00000000000E+00  0.19218150050E+04  0.19218150050E+04  0.25500000920E-02 0.  1.
        2   -1    0    0  501    0  0.00000000000E+00  0.00000000000E+00 -0.14993242905E+04  0.14993242905E+04  0.25500000920E-02 0. -1.
    10030    2    1    2    0    0  0.00000000000E+00  0.00000000000E+00  0.42249071454E+03  0.34211392955E+04  0.33949514982E+04 0.  0.
        3    1    3    3  502    0 -0.23513436054E+03  0.20203078651E+03  0.18930466332E+04  0.19182622792E+04  0.10100000352E+00 0.  1.
       -3    1    3    3    0  502  0.23513436054E+03 -0.20203078651E+03 -0.14705559186E+04  0.15028770163E+04  0.10100000352E+00 0. -1.
</event>
<event>
 5   0  0.1630571E-08  0.3399697E+04  0.7818609E-02  0.8137981E-01
       -1   -1    0    0    0  501  0.00000000000E+00  0.00000000000E+00  0.13188796769E+04  0.13188796769E+04  0.50400001928E-02 0.  1.
        1   -1    0    0  501    0  0.00000000000E+00  0.00000000000E+00 -0.21908635765E+04  0.21908635765E+04  0.50400001928E-02 0. -1.
    10030    2    1    2    0    0  0.00000000000E+00  0.00000000000E+00 -0.87198389956E+03  0.35097432534E+04  0.33996973077E+04 0.  0.
        3    1    3    3  502    0  0.10590454327E+04 -0.24903623097E+03  0.91238246016E+03  0.14198725424E+04  0.10100000352E+00 0.  1.
       -3    1    3    3    0  502 -0.10590454327E+04  0.24903623097E+03 -0.17843663597E+04  0.20898707110E+04  0.10100000352E+00 0. -1.
</event>
<event>
 5   0  0.1579536E-08  0.3399445E+04  0.7818609E-02  0.8138043E-01
       -1   -1    0    0    0  501  0.00000000000E+00  0.00000000000E+00  0.16320438318E+04  0.16320438318E+04  0.50400001928E-02 0.  1.
        1   -1    0    0  501    0  0.00000000000E+00  0.00000000000E+00 -0.17702077464E+04  0.17702077464E+04  0.50400001928E-02 0. -1.
    10030    2    1    2    0    0  0.00000000000E+00  0.00000000000E+00 -0.13816391459E+03  0.34022515782E+04  0.33994450332E+04 0.  0.
        5    1    3    3  502    0  0.57328272563E+03 -0.12720304837E+04  0.90245110395E+03  0.16616722661E+04  0.46999998093E+01 0.  1.
       -5    1    3    3    0  502 -0.57328272563E+03  0.12720304837E+04 -0.10406150185E+04  0.17405793121E+04  0.46999998093E+01 0. -1.
</event>
<event>
 5   0  0.5001197E-08  0.3400374E+04  0.7818609E-02  0.8137815E-01
       -2   -1    0    0    0  501  0.00000000000E+00  0.00000000000E+00  0.17969639632E+04  0.17969639632E+04  0.25500000920E-02 0. -1.
        2   -1    0    0  501    0  0.00000000000E+00  0.00000000000E+00 -0.16086221501E+04  0.16086221501E+04  0.25500000920E-02 0.  1.
    10030    2    1    2    0    0  0.00000000000E+00  0.00000000000E+00  0.18834181310E+03  0.34055861132E+04  0.34003741171E+04 0.  0.
        5    1    3    3  502    0 -0.80388167990E+03  0.63635390838E+02 -0.14048994198E+04  0.16198887888E+04  0.46999998093E+01 0.  1.
       -5    1    3    3    0  502  0.80388167990E+03 -0.63635390838E+02  0.15932412329E+04  0.17856973244E+04  0.46999998093E+01 0. -1.
</event>
<event>
 5   0  0.1630571E-08  0.3400834E+04  0.7818609E-02  0.8137702E-01
        1   -1    0    0  501    0  0.00000000000E+00  0.00000000000E+00  0.27547920385E+04  0.27547920385E+04  0.50400001928E-02 0.  1.
       -1   -1    0    0    0  501  0.00000000000E+00  0.00000000000E+00 -0.10495959165E+04  0.10495959165E+04  0.50400001928E-02 0. -1.
    10030    2    1    2    0    0  0.00000000000E+00  0.00000000000E+00  0.17051961220E+04  0.38043879550E+04  0.34008342944E+04 0.  0.
        3    1    3    3  502    0  0.14322302054E+04  0.86714676978E+03  0.11848082089E+04  0.20510966295E+04  0.10100000352E+00 0. -1.
       -3    1    3    3    0  502 -0.14322302054E+04 -0.86714676978E+03  0.52038791310E+03  0.17532913255E+04  0.10100000352E+00 0.  1.
</event>
<event>
 5   0  0.1595851E-08  0.3397536E+04  0.7818609E-02  0.8138511E-01
       -1   -1    0    0    0  501  0.00000000000E+00  0.00000000000E+00  0.22848771088E+04  0.22848771088E+04  0.50400001928E-02 0.  1.
        1   -1    0    0  501    0  0.00000000000E+00  0.00000000000E+00 -0.12630059668E+04  0.12630059668E+04  0.50400001928E-02 0. -1.
    10030    2    1    2    0    0  0.00000000000E+00  0.00000000000E+00  0.10218711420E+04  0.35478830756E+04  0.33975364144E+04 0.  0.
        2    1    3    3  502    0 -0.71733089383E+03 -0.14747370796E+03 -0.10897020672E+04  0.13129214375E+04  0.25500000920E-02 0. -1.
       -2    1    3    3    0  502  0.71733089383E+03  0.14747370796E+03  0.21115732092E+04  0.22349616381E+04  0.25500000920E-02 0.  1.
</event>
<event>
 5   0  0.4764953E-08  0.3400424E+04  0.7818609E-02  0.8137802E-01
       -2   -1    0    0    0  501  0.00000000000E+00  0.00000000000E+00  0.13410195261E+04  0.13410195261E+04  0.25500000920E-02 0.  1.
        2   -1    0    0  501    0  0.00000000000E+00  0.00000000000E+00 -0.21556143187E+04  0.21556143187E+04  0.25500000920E-02 0. -1.
    10030    2    1    2    0    0  0.00000000000E+00  0.00000000000E+00 -0.81459479260E+03  0.34966338448E+04  0.34004240277E+04 0.  0.
        2    1    3    3  502    0  0.56618862499E+03 -0.10984353770E+03 -0.20519517088E+04  0.21314645146E+04  0.25500000920E-02 0. -1.
       -2    1    3    3    0  502 -0.56618862499E+03  0.10984353770E+03  0.12373569162E+04  0.13651693301E+04  0.25500000920E-02 0.  1.
</event>
<event>
 5   0  0.4764953E-08  0.3399592E+04  0.7818609E-02  0.8138007E-01
        2   -1    0    0  501    0  0.00000000000E+00  0.00000000000E+00  0.16269704637E+04  0.16269704638E+04  0.25500000920E-02 0.  1.
       -2   -1    0    0    0  501  0.00000000000E+00  0.00000000000E+00 -0.17758811031E+04  0.17758811031E+04  0.25500000920E-02 0. -1.
    10030    2    1    2    0    0  0.00000000000E+00  0.00000000000E+00 -0.14891063930E+03  0.34028515668E+04  0.33995918001E+04 0.  0.
        2    1    3    3  502    0 -0.12378044075E+04  0.50133113040E+03 -0.11270402938E+04  0.17474874756E+04  0.25500000920E-02 0. -1.
       -2    1    3    3    0  502  0.12378044075E+04 -0.50133113040E+03  0.97812965446E+03  0.16553640912E+04  0.25500000920E-02 0.  1.
</event>
<event>
 5   0  0.4775023E-08  0.3399991E+04  0.7818609E-02  0.8137908E-01
        2   -1    0    0  501    0  0.00000000000E+00  0.00000000000E+00  0.21069115671E+04  0.21069115671E+04  0.25500000920E-02 0.  1.
       -2   -1    0    0    0  501  0.00000000000E+00  0.00000000000E+00 -0.13716689886E+04  0.13716689886E+04  0.25500000920E-02 0. -1.
    10030    2    1    2    0    0  0.00000000000E+00  0.00000000000E+00  0.73524257850E+03  0.34785805556E+04  0.33999913283E+04 0.  0.
        4    1    3    3  502    0  0.20904333415E+03  0.12401176417E+04 -0.80266824863E+03  0.14919345867E+04  0.12699999809E+01 0. -1.
       -4    1    3    3    0  502 -0.20904333415E+03 -0.12401176417E+04  0.15379108271E+04  0.19866459689E+04  0.12699999809E+01 0.  1.
</event>
<event>
 5   0  0.4973409E-08  0.3400136E+04  0.7818609E-02  0.8137873E-01
       -2   -1    0    0    0  501  0.00000000000E+00  0.00000000000E+00  0.16442085741E+04  0.16442085741E+04  0.25500000920E-02 0.  1.
        2   -1    0    0  501    0  0.00000000000E+00  0.00000000000E+00 -0.17578255955E+04  0.17578255956E+04  0.25500000920E-02 0. -1.
    10030    2    1    2    0    0  0.00000000000E+00  0.00000000000E+00 -0.11361702141E+03  0.34020341697E+04  0.34001364185E+04 0.  0.
        1    1    3    3  502    0 -0.13900579289E+04  0.50407024106E+03 -0.89625476450E+03  0.17290518953E+04  0.50400001928E-02 0. -1.
       -1    1    3    3    0  502  0.13900579289E+04 -0.50407024106E+03  0.78263774309E+03  0.16729822744E+04  0.50400001928E-02 0.  1.
</event>
<event>
 5   0  0.1573625E-08  0.3400098E+04  0.7818609E-02  0.8137882E-01
       -4   -1    0    0    0  501  0.00000000000E+00  0.00000000000E+00  0.11443778116E+04  0.11443785163E+04  0.12699999809E+01 0. -1.
        4   -1    0    0  501    0  0.00000000000E+00  0.00000000000E+00 -0.25255339751E+04  0.25255342944E+04  0.12699999809E+01 0.  1.
    10030    2    1    2    0    0  0.00000000000E+00  0.00000000000E+00 -0.13811561635E+04  0.36699128107E+04  0.34000981883E+04 0.  0.
        1    1    3    3  502    0  0.13583377904E+04  0.74806087223E+03  0.61485513959E+02  0.15519204521E+04  0.50400001928E-02 0. -1.
       -1    1    3    3    0  502 -0.13583377904E+04 -0.74806087223E+03 -0.14426416775E+04  0.21179923586E+04  0.50400001928E-02 0.  1.
</event>
<event>
 5   0  0.4764953E-08  0.3400075E+04  0.7818609E-02  0.8137888E-01
       -2   -1    0    0    0  501  0.00000000000E+00  0.00000000000E+00  0.16448985351E+04  0.16448985351E+04  0.25500000920E-02 0. -1.
        2   -1    0    0  501    0  0.00000000000E+00  0.00000000000E+00 -0.17570244792E+04  0.17570244792E+04  0.25500000920E-02 0.  1.
    10030    2    1    2    0    0  0.00000000000E+00  0.00000000000E+00 -0.11212594401E+03  0.34019230143E+04  0.34000747003E+04 0.  0.
        2    1    3    3  502    0  0.14312318463E+04  0.53707185698E+03 -0.80027926379E+03  0.17254905614E+04  0.25500000920E-02 0. -1.
       -2    1    3    3    0  502 -0.14312318463E+04 -0.53707185698E+03  0.68815331978E+03  0.16764324529E+04  0.25500000920E-02 0.  1.
</event>
<event>
 5   0  0.4973409E-08  0.3398690E+04  0.7818609E-02  0.8138228E-01
        2   -1    0    0  501    0  0.00000000000E+00  0.00000000000E+00  0.13002317168E+04  0.13002317168E+04  0.25500000920E-02 0. -1.
       -2   -1    0    0    0  501  0.00000000000E+00  0.00000000000E+00 -0.22209686018E+04  0.22209686018E+04  0.25500000920E-02 0.  1.
    10030    2    1    2    0    0  0.00000000000E+00  0.00000000000E+00 -0.92073688502E+03  0.35212003187E+04  0.33986902290E+04 0.  0.
        1    1    3    3  502    0 -0.30679546266E+03  0.85069972084E+03 -0.19509651670E+04  0.21503670742E+04  0.50400001928E-02 0.  1.
       -1    1    3    3    0  502  0.30679546266E+03 -0.85069972084E+03  0.10302282820E+04  0.13708332444E+04  0.50400001928E-02 0. -1.
</event>
<event>
 5   0  0.1573625E-08  0.3399615E+04  0.7818609E-02  0.8138001E-01
       -3   -1    0    0    0  501  0.00000000000E+00  0.00000000000E+00  0.20475857962E+04  0.20475857987E+04  0.10100000352E+00 0.  1.
        3   -1    0    0  501    0  0.00000000000E+00  0.00000000000E+00 -0.14110986152E+04  0.14110986188E+04  0.10100000352E+00 0. -1.
    10030    2    1    2    0    0  0.00000000000E+00  0.00000000000E+00  0.63648718100E+03  0.34586844176E+04  0.33996149736E+04 0.  0.
        5    1    3    3  502    0 -0.93373126181E+03 -0.11466740459E+03  0.17585828943E+04  0.19944018073E+04  0.46999998093E+01 0.  1.
       -5    1    3    3    0  502  0.93373126181E+03  0.11466740459E+03 -0.11220957133E+04  0.14642826103E+04  0.46999998093E+01 0. -1.
</event>
<event>
 5   0  0.1630571E-08  0.3400827E+04  0.7818609E-02  0.8137703E-01
       -1   -1    0    0    0  501  0.00000000000E+00  0.00000000000E+00  0.15463361940E+04  0.15463361940E+04  0.50400001928E-02 0. -1.
        1   -1    0    0  501    0  0.00000000000E+00  0.00000000000E+00 -0.18698433544E+04  0.18698433544E+04  0.50400001928E-02 0.  1.
    10030    2    1    2    0    0  0.00000000000E+00  0.00000000000E+00 -0.32350716047E+03  0.34161795484E+04  0.34008272264E+04 0.  0.
        3    1    3    3  502    0  0.16264073082E+04 -0.47496419405E+03 -0.17527126624E+02  0.16944317419E+04  0.10100000352E+00 0. -1.
       -3    1    3    3    0  502 -0.16264073082E+04  0.47496419405E+03 -0.30598003385E+03  0.17217478065E+04  0.10100000352E+00 0.  1.
</event>
<event>
 5   0  0.5001197E-08  0.3398381E+04  0.7818609E-02  0.8138304E-01
        2   -1    0    0  501    0  0.00000000000E+00  0.00000000000E+00  0.21297499880E+04  0.21297499880E+04  0.25500000920E-02 0.  1.
       -2   -1    0    0    0  501  0.00000000000E+00  0.00000000000E+00 -0.13556745826E+04  0.13556745826E+04  0.25500000920E-02 0. -1.
    10030    2    1    2    0    0  0.00000000000E+00  0.00000000000E+00  0.77407540540E+03  0.34854245707E+04  0.33983807474E+04 0.  0.
        5    1    3    3  502    0 -0.43091874738E+03  0.15480709737E+04 -0.17938610249E+03  0.16169156348E+04  0.46999998093E+01 0.  1.
       -5    1    3    3    0  502  0.43091874738E+03 -0.15480709737E+04  0.95346150788E+03  0.18685089359E+04  0.46999998093E+01 0. -1.
</event>
<event>
 5   0  0.1645631E-08  0.3399498E+04  0.7818609E-02  0.8138030E-01
       -1   -1    0    0    0  501  0.00000000000E+00  0.00000000000E+00  0.12488056033E+04  0.12488056033E+04  0.50400001928E-02 0. -1.
        1   -1    0    0  501    0  0.00000000000E+00  0.00000000000E+00 -0.23135279366E+04  0.23135279366E+04  0.50400001928E-02 0.  1.
    10030    2    1    2    0    0  0.00000000000E+00  0.00000000000E+00 -0.10647223333E+04  0.35623335399E+04  0.33994979927E+04 0.  0.
        4    1    3    3  502    0 -0.69248900877E+03 -0.85780241844E+03  0.82335523706E+03  0.13759656521E+04  0.12699999809E+01 0. -1.
       -4    1    3    3    0  502  0.69248900877E+03  0.85780241844E+03 -0.18880775704E+04  0.21863678878E+04  0.12699999809E+01 0.  1.
</event>
<event>
 5   0  0.4973409E-08  0.3400135E+04  0.7818609E-02  0.8137873E-01
       -2   -1    0    0    0  501  0.00000000000E+00  0.00000000000E+00  0.14306267029E+04  0.14306267029E+04  0.25500000920E-02 0. -1.
        2   -1    0    0  501    0  0.00000000000E+00  0.00000000000E+00 -0.20202540323E+04  0.20202540323E+04  0.25500000920E-02 0.  1.
    10030    2    1    2    0    0  0.00000000000E+00  0.00000000000E+00 -0.58962732944E+03  0.34508807352E+04  0.34001349180E+04 0.  0.
        1    1    3    3  502    0  0.13366435580E+04 -0.10441626416E+04 -0.17760088863E+03  0.17054130582E+04  0.50400001928E-02 0. -1.
       -1    1    3    3    0  502 -0.13366435580E+04  0.10441626416E+04 -0.41202644081E+03  0.17454676770E+04  0.50400001928E-02 0.  1.
</event>
<event>
 5   0  0.4764953E-08  0.3396913E+04  0.7818609E-02  0.8138664E-01
       -2   -1    0    0    0  501  0.00000000000E+00  0.00000000000E+00  0.14028499411E+04  0.14028499411E+04  0.25500000920E-02 0.  1.
        2   -1    0    0  501    0  0.00000000000E+00  0.00000000000E+00 -0.20563533385E+04  0.20563533385E+04  0.25500000920E-02 0. -1.
    10030    2    1    2    0    0  0.00000000000E+00  0.00000000000E+00 -0.65350339737E+03  0.34592032796E+04  0.33969133988E+04 0.  0.
        2    1    3    3  502    0  0.98475523352E+03 -0.10807556908E+04  0.55337648697E+03  0.15633301857E+04  0.25500000920E-02 0.  1.
       -2    1    3    3    0  502 -0.98475523352E+03  0.10807556908E+04 -0.12068798843E+04  0.18958730939E+04  0.25500000920E-02 0. -1.
</event>
<event>
 5   0  0.1579536E-08  0.3400766E+04  0.7818609E-02  0.8137718E-01
       -1   -1    0    0    0  501  0.00000000000E+00  0.00000000000E+00  0.15098600951E+04  0.15098600951E+04  0.50400001928E-02 0. -1.
        1   -1    0    0  501    0  0.00000000000E+00  0.00000000000E+00 -0.19149474971E+04  0.19149474971E+04  0.50400001928E-02 0.  1.
    10030    2    1    2    0    0  0.00000000000E+00  0.00000000000E+00 -0.40508740195E+03  0.34248075922E+04  0.34007662725E+04 0.  0.
        5    1    3    3  502    0  0.27642994721E+03 -0.50837521116E+03 -0.18127282432E+04  0.19028569691E+04  0.46999998093E+01 0.  1.
       -5    1    3    3    0  502 -0.27642994721E+03  0.50837521116E+03  0.14076408413E+04  0.15219506231E+04  0.46999998093E+01 0. -1.
</event>
<event>
 5   0  0.4775023E-08  0.3400246E+04  0.7818609E-02  0.8137846E-01
        2   -1    0    0  501    0  0.00000000000E+00  0.00000000000E+00  0.13269944692E+04  0.13269944692E+04  0.25500000920E-02 0.  1.
       -2   -1    0    0    0  501  0.00000000000E+00  0.00000000000E+00 -0.21781693310E+04  0.21781693311E+04  0.25500000920E-02 0. -1.
    10030    2    1    2    0    0  0.00000000000E+00  0.00000000000E+00 -0.85117486182E+03  0.35051638003E+04  0.34002462589E+04 0.  0.
        4    1    3    3  502    0 -0.91628928965E+03  0.75007000121E+03 -0.16831580616E+04  0.20579634939E+04  0.12699999809E+01 0. -1.
       -4    1    3    3    0  502  0.91628928965E+03 -0.75007000121E+03  0.83198319980E+03  0.14472003063E+04  0.12699999809E+01 0.  1.
</event>
<event>
 5   0  0.5001197E-08  0.3398750E+04  0.7818609E-02  0.8138213E-01
       -2   -1    0    0    0  501  0.00000000000E+00  0.00000000000E+00  0.24447125461E+04  0.24447125461E+04  0.25500000920E-02 0. -1.
        2   -1    0    0  501    0  0.00000000000E+00  0.00000000000E+00 -0.11812741333E+04  0.11812741333E+04  0.25500000920E-02 0.  1.
    10030    2    1    2    0    0  0.00000000000E+00  0.00000000000E+00  0.12634384128E+04  0.36259866795E+04  0.33987501786E+04 0.  0.
        5    1    3    3  502    0  0.51732267088E+03  0.12439741940E+04  0.17367084668E+04  0.21980156801E+04  0.46999998093E+01 0. -1.
       -5    1    3    3    0  502 -0.51732267088E+03 -0.12439741940E+04 -0.47327005404E+03  0.14279709994E+04  0.46999998093E+01 0.  1.
</event>
<event>
 5   0  0.1645631E-08  0.3400645E+04  0.7818609E-02  0.8137748E-01
       -1   -1    0    0    0  501  0.00000000000E+00  0.00000000000E+00  0.14259509751E+04  0.14259509751E+04  0.50400001928E-02 0. -1.
        1   -1    0    0  501    0  0.00000000000E+00  0.00000000000E+00 -0.20274866081E+04  0.20274866082E+04  0.50400001928E-02 0.  1.
    10030    2    1    2    0    0  0.00000000000E+00  0.00000000000E+00 -0.60153563305E+03  0.34534375833E+04  0.34006449423E+04 0.  0.
        4    1    3    3  502    0 -0.14155046759E+04  0.76840735466E+03  0.25266175628E+03  0.16303198846E+04  0.12699999809E+01 0.  1.
       -4    1    3    3    0  502  0.14155046759E+04 -0.76840735466E+03 -0.85419738933E+03  0.18231176986E+04  0.12699999809E+01 0. -1.
</event>
<event>
 5   0  0.4973409E-08  0.3407804E+04  0.7818609E-02  0.8135994E-01
       -2   -1    0    0    0  501  0.00000000000E+00  0.00000000000E+00  0.10139840229E+04  0.10139840229E+04  0.25500000920E-02 0.  1.
        2   -1    0    0  501    0  0.00000000000E+00  0.00000000000E+00 -0.28632417743E+04  0.28632417743E+04  0.25500000920E-02 0. -1.
    10030    2    1    2    0    0  0.00000000000E+00  0.00000000000E+00 -0.18492577514E+04  0.38772257972E+04  0.34078036404E+04 0.  0.
        1    1    3    3  502    0 -0.80714826069E+03 -0.24019736075E+03 -0.26099186055E+04  0.27424183149E+04  0.50400001928E-02 0. -1.
       -1    1    3    3    0  502  0.80714826069E+03  0.24019736075E+03  0.76066085412E+03  0.11348074823E+04  0.50400001928E-02 0.  1.
</event>
<event>
 5   0  0.1579536E-08  0.3400759E+04  0.7818609E-02  0.8137720E-01
       -1   -1    0    0    0  501  0.00000000000E+00  0.00000000000E+00  0.12033107828E+04  0.12033107828E+04  0.50400001928E-02 0. -1.
        1   -1    0    0  501    0  0.00000000000E+00  0.00000000000E+00 -0.24027792613E+04  0.24027792613E+04  0.50400001928E-02 0.  1.
    10030    2    1    2    0    0  0.00000000000E+00  0.00000000000E+00 -0.11994684785E+04  0.36060900441E+04  0.34007588529E+04 0.  0.
        5    1    3    3  502    0 -0.98386925917E+03 -0.94481882713E+03  0.47673843705E+03  0.14449854541E+04  0.46999998093E+01 0. -1.
       -5    1    3    3    0  502  0.98386925917E+03  0.94481882713E+03 -0.16762069156E+04  0.21611045900E+04  0.46999998093E+01 0.  1.
</event>
<event>
 5   0  0.1630571E-08  0.3398259E+04  0.7818609E-02  0.8138334E-01
        1   -1    0    0  501    0  0.00000000000E+00  0.00000000000E+00  0.15636888456E+04  0.15636888456E+04  0.50400001928E-02 0. -1.
       -1   -1    0    0    0  501  0.00000000000E+00  0.00000000000E+00 -0.18463011295E+04  0.18463011295E+04  0.50400001928E-02 0.  1.
    10030    2    1    2    0    0  0.00000000000E+00  0.00000000000E+00 -0.28261228394E+03  0.34099899751E+04  0.33982586611E+04 0.  0.
        3    1    3    3  502    0 -0.39608452652E+03 -0.91827134394E+03 -0.15197058409E+04  0.18192336481E+04  0.10100000352E+00 0.  1.
       -3    1    3    3    0  502  0.39608452652E+03  0.91827134394E+03  0.12370935569E+04  0.15907563271E+04  0.10100000352E+00 0. -1.
</event>
<event>
 5   0  0.1630571E-08  0.3394062E+04  0.7818609E-02  0.8139365E-01
        1   -1    0    0  501    0  0.00000000000E+00  0.00000000000E+00  0.25276003105E+04  0.25276003105E+04  0.50400001928E-02 0. -1.
       -1   -1    0    0    0  501  0.00000000000E+00  0.00000000000E+00 -0.11393870195E+04  0.11393870195E+04  0.50400001928E-02 0.  1.
    10030    2    1    2    0    0  0.00000000000E+00  0.00000000000E+00  0.13882132910E+04  0.36669873301E+04  0.33940624534E+04 0.  0.
        3    1    3    3  502    0  0.10608333361E+04  0.12329200109E+04  0.12172492864E+04  0.20315400453E+04  0.10100000352E+00 0. -1.
       -3    1    3    3    0  502 -0.10608333361E+04 -0.12329200109E+04  0.17096400460E+03  0.16354472848E+04  0.10100000352E+00 0.  1.
</event>
<event>
 5   0  0.1625282E-08  0.3400459E+04  0.7818609E-02  0.8137794E-01
        1   -1    0    0  501    0  0.00000000000E+00  0.00000000000E+00  0.16738406447E+04  0.16738406447E+04  0.50400001928E-02 0. -1.
       -1   -1    0    0    0  501  0.00000000000E+00  0.00000000000E+00 -0.17270347632E+04  0.17270347632E+04  0.50400001928E-02 0.  1.
    10030    2    1    2    0    0  0.00000000000E+00  0.00000000000E+00 -0.53194118526E+02  0.34008754079E+04  0.34004593698E+04 0.  0.
        1    1    3    3  502    0 -0.19503505712E+03  0.16857807118E+04  0.77750262343E+02  0.16988055760E+04  0.50400001928E-02 0. -1.
       -1    1    3    3    0  502  0.19503505712E+03 -0.16857807118E+04 -0.13094438087E+03  0.17020698319E+04  0.50400001928E-02 0.  1.
</event>
<event>
 5   0  0.4946315E-08  0.3400456E+04  0.7818609E-02  0.8137794E-01
       -2   -1    0    0    0  501  0.00000000000E+00  0.00000000000E+00  0.31136715799E+04  0.31136715799E+04  0.25500000920E-02 0. -1.
        2   -1    0    0  501    0  0.00000000000E+00  0.00000000000E+00 -0.92841376259E+03  0.92841376260E+03  0.25500000920E-02 0.  1.
    10030    2    1    2    0    0  0.00000000000E+00  0.00000000000E+00  0.21852578173E+04  0.40420853425E+04  0.34004561735E+04 0.  0.
        3    1    3    3  502    0  0.14394422028E+04  0.38368160151E+03  0.11850550808E+03  0.14944058994E+04  0.10100000352E+00 0.  1.
       -3    1    3    3    0  502 -0.14394422028E+04 -0.38368160151E+03  0.20667523092E+04  0.25476794430E+04  0.10100000352E+00 0. -1.
</event>
<event>
 5   0  0.1573625E-08  0.3399721E+04  0.7818609E-02  0.8137975E-01
        3   -1    0    0  501    0  0.00000000000E+00  0.00000000000E+00  0.14366511944E+04  0.14366511979E+04  0.10100000352E+00 0.  1.
       -3   -1    0    0    0  501  0.00000000000E+00  0.00000000000E+00 -0.20112930168E+04  0.20112930193E+04  0.10100000352E+00 0. -1.
    10030    2    1    2    0    0  0.00000000000E+00  0.00000000000E+00 -0.57464182242E+03  0.34479442173E+04  0.33997214741E+04 0.  0.
        1    1    3    3  502    0 -0.93154521330E+03 -0.14163426339E+04 -0.41449325327E+03  0.17451669256E+04  0.50400001928E-02 0. -1.
       -1    1    3    3    0  502  0.93154521330E+03  0.14163426339E+04 -0.16014856915E+03  0.17027772917E+04  0.50400001928E-02 0.  1.
</event>
<event>
 5   0  0.4946315E-08  0.3399260E+04  0.7818609E-02  0.8138088E-01
       -2   -1    0    0    0  501  0.00000000000E+00  0.00000000000E+00  0.18653497391E+04  0.18653497391E+04  0.25500000920E-02 0.  1.
        2   -1    0    0  501    0  0.00000000000E+00  0.00000000000E+00 -0.15486330823E+04  0.15486330824E+04  0.25500000920E-02 0. -1.
    10030    2    1    2    0    0  0.00000000000E+00  0.00000000000E+00  0.31671665679E+03  0.34139828215E+04  0.33992601055E+04 0.  0.
        3    1    3    3  502    0 -0.10270170821E+04  0.85280377823E+03 -0.89819801362E+03  0.16089742238E+04  0.10100000352E+00 0. -1.
       -3    1    3    3    0  502  0.10270170821E+04 -0.85280377823E+03  0.12149146704E+04  0.18050085977E+04  0.10100000352E+00 0.  1.
</event>
<event>
 5   0  0.5001197E-08  0.3396218E+04  0.7818609E-02  0.8138835E-01
       -2   -1    0    0    0  501  0.00000000000E+00  0.00000000000E+00  0.10082441011E+04  0.10082441011E+04  0.25500000920E-02 0.  1.
        2   -1    0    0  501    0  0.00000000000E+00  0.00000000000E+00 -0.28599953115E+04  0.28599953115E+04  0.25500000920E-02 0. -1.
    10030    2    1    2    0    0  0.00000000000E+00  0.00000000000E+00 -0.18517512103E+04  0.38682394126E+04  0.33962175443E+04 0.  0.
        5    1    3    3  502    0  0.93084867129E+03  0.13178871406E+04 -0.15288338044E+04  0.22227596937E+04  0.46999998093E+01 0. -1.
       -5    1    3    3    0  502 -0.93084867129E+03 -0.13178871406E+04 -0.32291740588E+03  0.16454797189E+04  0.46999998093E+01 0.  1.
</event>
<event>
 5   0  0.1595851E-08  0.3400593E+04  0.7818609E-02  0.8137761E-01
        1   -1    0    0  501    0  0.00000000000E+00  0.00000000000E+00  0.19754416203E+04  0.19754416203E+04  0.50400001928E-02 0. -1.
       -1   -1    0    0    0  501  0.00000000000E+00  0.00000000000E+00 -0.14634746004E+04  0.14634746004E+04  0.50400001928E-02 0.  1.
    10030    2    1    2    0    0  0.00000000000E+00  0.00000000000E+00  0.51196701987E+03  0.34389162207E+04  0.34005932634E+04 0.  0.
        2    1    3    3  502    0  0.10441160602E+04 -0.13279138553E+04  0.45174992965E+03  0.17486027431E+04  0.25500000920E-02 0.  1.
       -2    1    3    3    0  502 -0.10441160602E+04  0.13279138553E+04  0.60217090219E+02  0.16903134775E+04  0.25500000920E-02 0. -1.
</event>
<event>
 5   0  0.1645631E-08  0.3400588E+04  0.7818609E-02  0.8137762E-01
       -1   -1    0    0    0  501  0.00000000000E+00  0.00000000000E+00  0.18582955812E+04  0.18582955812E+04  0.50400001928E-02 0. -1.
        1   -1    0    0  501    0  0.00000000000E+00  0.00000000000E+00 -0.15557263216E+04  0.15557263216E+04  0.50400001928E-02 0.  1.
    10030    2    1    2    0    0  0.00000000000E+00  0.00000000000E+00  0.30256925955E+03  0.34140219028E+04  0.34005878016E+04 0.  0.
        4    1    3    3  502    0  0.15684669710E+04  0.15238547329E+03 -0.48974211484E+03  0.16501996617E+04  0.12699999809E+01 0.  1.
       -4    1    3    3    0  502 -0.15684669710E+04 -0.15238547329E+03  0.79231137439E+03  0.17638222411E+04  0.12699999809E+01 0. -1.
</event>
<event>
 5   0  0.4764953E-08  0.3399838E+04  0.7818609E-02  0.8137946E-01
       -2   -1    0    0    0  501  0.00000000000E+00  0.00000000000E+00  0.13212622170E+04  0.13212622170E+04  0.25500000920E-02 0. -1.
        2   -1    0    0  501    0  0.00000000000E+00  0.00000000000E+00 -0.21870935866E+04  0.21870935866E+04  0.25500000920E-02 0.  1.
    10030    2    1    2    0    0  0.00000000000E+00  0.00000000000E+00 -0.86583136962E+03  0.35083558036E+04  0.33998377143E+04 0.  0.
        2    1    3    3  502    0 -0.88295579488E+03 -0.10246161574E+04  0.62964731134E+03  0.14919466955E+04  0.25500000920E-02 0. -1.
       -2    1    3    3    0  502  0.88295579488E+03  0.10246161574E+04 -0.14954786810E+04  0.20164091080E+04  0.25500000920E-02 0.  1.
</event>
<event>
 5   0  0.4946315E-08  0.3401208E+04  0.7818609E-02  0.8137610E-01
        2   -1    0    0  501    0  0.00000000000E+00  0.00000000000E+00  0.14931196854E+04  0.14931196854E+04  0.25500000920E-02 0.  1.
       -2   -1    0    0    0  501  0.00000000000E+00  0.00000000000E+00 -0.19369200136E+04  0.19369200136E+04  0.25500000920E-02 0. -1.
    10030    2    1    2    0    0  0.00000000000E+00  0.00000000000E+00 -0.44380032821E+03  0.34300396990E+04  0.34012076687E+04 0.  0.
        3    1    3    3  502    0 -0.10171779001E+04  0.66274874913E+03 -0.14228631551E+04  0.18704080713E+04  0.10100000352E+00 0. -1.
       -3    1    3    3    0  502  0.10171779001E+04 -0.66274874913E+03  0.97906282687E+03  0.15596316277E+04  0.10100000352E+00 0.  1.
</event>
<event>
 5   0  0.1625282E-08  0.3402438E+04  0.7818609E-02  0.8137308E-01
       -1   -1    0    0    0  501  0.00000000000E+00  0.00000000000E+00  0.19619243159E+04  0.19619243159E+04  0.50400001928E-02 0.  1.
        1   -1    0    0  501    0  0.00000000000E+00  0.00000000000E+00 -0.14751567872E+04  0.14751567873E+04  0.50400001928E-02 0. -1.
    10030    2    1    2    0    0  0.00000000000E+00  0.00000000000E+00  0.48676752866E+03  0.34370811032E+04  0.34024379322E+04 0.  0.
        1    1    3    3  502    0 -0.14477958160E+04  0.61036105129E+03  0.90232333872E+03  0.18118611275E+04  0.50400001928E-02 0.  1.
       -1    1    3    3    0  502  0.14477958160E+04 -0.61036105129E+03 -0.41555581005E+03  0.16252199756E+04  0.50400001928E-02 0. -1.
</event>
<event>
 5   0  0.5001197E-08  0.3407725E+04  0.7818609E-02  0.8136013E-01
       -2   -1    0    0    0  501  0.00000000000E+00  0.00000000000E+00  0.16894261605E+04  0.16894261605E+04  0.25500000920E-02 0. -1.
        2   -1    0    0  501    0  0.00000000000E+00  0.00000000000E+00 -0.17184220247E+04  0.17184220247E+04  0.25500000920E-02 0.  1.
    10030    2    1    2    0    0  0.00000000000E+00  0.00000000000E+00 -0.28995864231E+02  0.34078481852E+04  0.34077248265E+04 0.  0.
        5    1    3    3  502    0 -0.11379720270E+04  0.11253050493E+04  0.57018830331E+03  0.16989492575E+04  0.46999998093E+01 0. -1.
       -5    1    3    3    0  502  0.11379720270E+04 -0.11253050493E+04 -0.59918416754E+03  0.17088989277E+04  0.46999998093E+01 0.  1.
</event>
<event>
 5   0  0.1645631E-08  0.3426785E+04  0.7818609E-02  0.8131363E-01
        1   -1    0    0  501    0  0.00000000000E+00  0.00000000000E+00  0.12270635980E+04  0.12270635980E+04  0.50400001928E-02 0.  1.
       -1   -1    0    0    0  501  0.00000000000E+00  0.00000000000E+00 -0.23924711136E+04  0.23924711136E+04  0.50400001928E-02 0. -1.
    10030    2    1    2    0    0  0.00000000000E+00  0.00000000000E+00 -0.11654075156E+04  0.36195347116E+04  0.34267852065E+04 0.  0.
        4    1    3    3  502    0 -0.57386923168E+02 -0.50656519741E+03  0.11450966942E+04  0.12534550691E+04  0.12699999809E+01 0.  1.
       -4    1    3    3    0  502  0.57386923168E+02  0.50656519741E+03 -0.23105042099E+04  0.23660796426E+04  0.12699999809E+01 0. -1.
</event>
<event>
 5   0  0.1579536E-08  0.3401056E+04  0.7818609E-02  0.8137647E-01
       -1   -1    0    0    0  501  0.00000000000E+00  0.00000000000E+00  0.13011237292E+04  0.13011237292E+04  0.50400001928E-02 0.  1.
        1   -1    0    0  501    0  0.00000000000E+00  0.00000000000E+00 -0.22225372953E+04  0.22225372953E+04  0.50400001928E-02 0. -1.
    10030    2    1    2    0    0  0.00000000000E+00  0.00000000000E+00 -0.92141356613E+03  0.35236610245E+04  0.34010563147E+04 0.  0.
        5    1    3    3  502    0  0.82710011800E+03 -0.59495167794E+03 -0.18712987595E+04  0.21306907898E+04  0.46999998093E+01 0. -1.
       -5    1    3    3    0  502 -0.82710011800E+03  0.59495167794E+03  0.94988519337E+03  0.13929702347E+04  0.46999998093E+01 0.  1.
</event>
<event>
 5   0  0.4764953E-08  0.3400615E+04  0.7818609E-02  0.8137755E-01
       -2   -1    0    0    0  501  0.00000000000E+00  0.00000000000E+00  0.16186199587E+04  0.16186199587E+04  0.25500000920E-02 0. -1.
        2   -1    0    0  501    0  0.00000000000E+00  0.00000000000E+00 -0.17861181116E+04  0.17861181116E+04  0.25500000920E-02 0.  1.
    10030    2    1    2    0    0  0.00000000000E+00  0.00000000000E+00 -0.16749815285E+03  0.34047380703E+04  0.34006154878E+04 0.  0.
        2    1    3    3  502    0  0.51711700124E+03 -0.59741024306E+03  0.14236449388E+04  0.16282118730E+04  0.25500000920E-02 0. -1.
       -2    1    3    3    0  502 -0.51711700124E+03  0.59741024306E+03 -0.15911430917E+04  0.17765261973E+04  0.25500000920E-02 0.  1.
</event>
<event>
 5   0  0.1625282E-08  0.3396097E+04  0.7818609E-02  0.8138865E-01
        1   -1    0    0  501    0  0.00000000000E+00  0.00000000000E+00  0.16741477480E+04  0.16741477480E+04  0.50400001928E-02 0.  1.
       -1   -1    0    0    0  501  0.00000000000E+00  0.00000000000E+00 -0.17222902714E+04  0.17222902714E+04  0.50400001928E-02 0. -1.
    10030    2    1    2    0    0  0.00000000000E+00  0.00000000000E+00 -0.48142523405E+02  0.33964380194E+04  0.33960968062E+04 0.  0.
        1    1    3    3  502    0  0.14874249665E+04  0.46461751598E+03  0.65058224896E+03  0.16886561906E+04  0.50400001928E-02 0.  1.
       -1    1    3    3    0  502 -0.14874249665E+04 -0.46461751598E+03 -0.69872477237E+03  0.17077818288E+04  0.50400001928E-02 0. -1.
</event>
<event>
 5   0  0.1595851E-08  0.3399556E+04  0.7818609E-02  0.8138015E-01
        1   -1    0    0  501    0  0.00000000000E+00  0.00000000000E+00  0.22684926080E+04  0.22684926080E+04  0.50400001928E-02 0.  1.
       -1   -1    0    0    0  501  0.00000000000E+00  0.00000000000E+00 -0.12736410891E+04  0.12736410891E+04  0.50400001928E-02 0. -1.
    10030    2    1    2    0    0  0.00000000000E+00  0.00000000000E+00  0.99485151890E+03  0.35421336972E+04  0.33995560863E+04 0.  0.
        2    1    3    3  502    0  0.42637509409E+03  0.84261098687E+03 -0.97516270165E+03  0.13574723904E+04  0.25500000920E-02 0. -1.
       -2    1    3    3    0  502 -0.42637509409E+03 -0.84261098687E+03  0.19700142205E+04  0.21846613068E+04  0.25500000920E-02 0.  1.
</event>
<event>
 5   0  0.5001197E-08  0.3401642E+04  0.7818609E-02  0.8137503E-01
       -2   -1    0    0    0  501  0.00000000000E+00  0.00000000000E+00  0.17687458947E+04  0.17687458947E+04  0.25500000920E-02 0. -1.
        2   -1    0    0  501    0  0.00000000000E+00  0.00000000000E+00 -0.16355049183E+04  0.16355049183E+04  0.25500000920E-02 0.  1.
    10030    2    1    2    0    0  0.00000000000E+00  0.00000000000E+00  0.13324097646E+03  0.34042508130E+04  0.34016423151E+04 0.  0.
        5    1    3    3  502    0  0.18802935470E+02  0.70248736137E+03  0.16166556657E+04  0.17627931457E+04  0.46999998093E+01 0. -1.
       -5    1    3    3    0  502 -0.18802935470E+02 -0.70248736137E+03 -0.14834146892E+04  0.16414576673E+04  0.46999998093E+01 0.  1.
</event>
<event>
 5   0  0.4775023E-08  0.3400535E+04  0.7818609E-02  0.8137775E-01
       -2   -1    0    0    0  501  0.00000000000E+00  0.00000000000E+00  0.20345335930E+04  0.20345335930E+04  0.25500000920E-02 0. -1.
        2   -1    0    0  501    0  0.00000000000E+00  0.00000000000E+00 -0.14209203393E+04  0.14209203393E+04  0.25500000920E-02 0.  1.
    10030    2    1    2    0    0  0.00000000000E+00  0.00000000000E+00  0.61361325375E+03  0.34554539323E+04  0.34005353480E+04 0.  0.
        4    1    3    3  502    0 -0.36042440394E+03  0.89841333822E+03  0.17271852273E+04  0.19799552266E+04  0.12699999809E+01 0. -1.
       -4    1    3    3    0  502  0.36042440394E+03 -0.89841333822E+03 -0.11135719735E+04  0.14754987056E+04  0.12699999809E+01 0.  1.
</event>
<event>
 5   0  0.1595851E-08  0.3397445E+04  0.7818609E-02  0.8138534E-01
       -1   -1    0    0    0  501  0.00000000000E+00  0.00000000000E+00  0.17777897690E+04  0.17777897690E+04  0.50400001928E-02 0. -1.
        1   -1    0    0  501    0  0.00000000000E+00  0.00000000000E+00 -0.16231716637E+04  0.16231716637E+04  0.50400001928E-02 0.  1.
    10030    2    1    2    0    0  0.00000000000E+00  0.00000000000E+00  0.15461810532E+03  0.34009614327E+04  0.33974449088E+04 0.  0.
        2    1    3    3  502    0 -0.13373954712E+03 -0.15630710273E+04 -0.57496393698E+03  0.16708263919E+04  0.25500000920E-02 0.  1.
       -2    1    3    3    0  502  0.13373954712E+03  0.15630710273E+04  0.72958204230E+03  0.17301350408E+04  0.25500000920E-02 0. -1.
</event>
<event>
 5   0  0.1630571E-08  0.3401018E+04  0.7818609E-02  0.8137657E-01
        1   -1    0    0  501    0  0.00000000000E+00  0.00000000000E+00  0.96079977620E+03  0.96079977621E+03  0.50400001928E-02 0. -1.
       -1   -1    0    0    0  501  0.00000000000E+00  0.00000000000E+00 -0.30097115883E+04  0.30097115883E+04  0.50400001928E-02 0.  1.
    10030    2    1    2    0    0  0.00000000000E+00  0.00000000000E+00 -0.20489118121E+04  0.39705113645E+04  0.34010176245E+04 0.  0.
        3    1    3    3  502    0  0.81172457673E+03 -0.75175199467E+03 -0.25320930636E+04  0.27632450385E+04  0.10100000352E+00 0.  1.
       -3    1    3    3    0  502 -0.81172457673E+03  0.75175199467E+03  0.48318125147E+03  0.12072663260E+04  0.10100000352E+00 0. -1.
</event>
<event>
 5   0  0.1595851E-08  0.3419143E+04  0.7818609E-02  0.8133224E-01
        1   -1    0    0  501    0  0.00000000000E+00  0.00000000000E+00  0.27878108151E+04  0.27878108151E+04  0.50400001928E-02 0.  1.
       -1   -1    0    0    0  501  0.00000000000E+00  0.00000000000E+00 -0.10483620412E+04  0.10483620413E+04  0.50400001928E-02 0. -1.
    10030    2    1    2    0    0  0.00000000000E+00  0.00000000000E+00  0.17394487738E+04  0.38361728563E+04  0.34191431890E+04 0.  0.
        2    1    3    3  502    0 -0.64507330337E+03 -0.15501549076E+04  0.50870962474E+03  0.17543902891E+04  0.25500000920E-02 0. -1.
       -2    1    3    3    0  502  0.64507330337E+03  0.15501549076E+04  0.12307391491E+04  0.20817825672E+04  0.25500000920E-02 0.  1.
</event>
<event>
 5   0  0.4946315E-08  0.3399344E+04  0.7818609E-02  0.8138067E-01
        2   -1    0    0  501    0  0.00000000000E+00  0.00000000000E+00  0.20628959362E+04  0.20628959362E+04  0.25500000920E-02 0.  1.
       -2   -1    0    0    0  501  0.00000000000E+00  0.00000000000E+00 -0.14004027330E+04  0.14004027330E+04  0.25500000920E-02 0. -1.
    10030    2    1    2    0    0  0.00000000000E+00  0.00000000000E+00  0.66249320320E+03  0.34632986691E+04  0.33993441172E+04 0.  0.
        3    1    3    3  502    0 -0.47827705303E+03  0.33902881652E+03 -0.12941352222E+04  0.14207306083E+04  0.10100000352E+00 0. -1.
       -3    1    3    3    0  502  0.47827705303E+03 -0.33902881652E+03  0.19566284254E+04  0.20425680608E+04  0.10100000352E+00 0.  1.
</event>
<event>
 5   0  0.1573625E-08  0.3399565E+04  0.7818609E-02  0.8138013E-01
       -3   -1    0    0    0  501  0.00000000000E+00  0.00000000000E+00  0.12760467222E+04  0.12760467262E+04  0.10100000352E+00 0.  1.
        3   -1    0    0  501    0  0.00000000000E+00  0.00000000000E+00 -0.22642282185E+04  0.22642282208E+04  0.10100000352E+00 0. -1.
    10030    2    1    2    0    0  0.00000000000E+00  0.00000000000E+00 -0.98818149636E+03  0.35402749469E+04  0.33995652707E+04 0.  0.
        2    1    3    3  502    0  0.14210177435E+04  0.65218706937E+03  0.20030793675E+03  0.15763129989E+04  0.25500000920E-02 0. -1.
       -2    1    3    3    0  502 -0.14210177435E+04 -0.65218706937E+03 -0.11884894331E+04  0.19639619481E+04  0.25500000920E-02 0.  1.
</event>
<event>
 5   0  0.1645631E-08  0.3399340E+04  0.7818609E-02  0.8138068E-01
        1   -1    0    0  501    0  0.00000000000E+00  0.00000000000E+00  0.16359026752E+04  0.16359026752E+04  0.50400001928E-02 0.  1.
       -1   -1    0    0    0  501  0.00000000000E+00  0.00000000000E+00 -0.17659234193E+04  0.17659234193E+04  0.50400001928E-02 0. -1.
    10030    2    1    2    0    0  0.00000000000E+00  0.00000000000E+00 -0.13002074411E+03  0.34018260945E+04  0.33993404336E+04 0.  0.
        4    1    3    3  502    0  0.21245822423E+03  0.82675351995E+02  0.16205322208E+04  0.16364901473E+04  0.12699999809E+01 0.  1.
       -4    1    3    3    0  502 -0.21245822423E+03 -0.82675351995E+02 -0.17505529649E+04  0.17653359472E+04  0.12699999809E+01 0. -1.
</event>
<event>
 5   0  0.1630571E-08  0.3399299E+04  0.7818609E-02  0.8138078E-01
       -1   -1    0    0    0  501  0.00000000000E+00  0.00000000000E+00  0.10010077936E+04  0.10010077936E+04  0.50400001928E-02 0.  1.
        1   -1    0    0  501    0  0.00000000000E+00  0.00000000000E+00 -0.28859003204E+04  0.28859003204E+04  0.50400001928E-02 0. -1.
    10030    2    1    2    0    0  0.00000000000E+00  0.00000000000E+00 -0.18848925268E+04  0.38869081140E+04  0.33992991702E+04 0.  0.
        3    1    3    3  502    0  0.34259049997E+03  0.11471980105E+04  0.43699326187E+03  0.12745174173E+04  0.10100000352E+00 0.  1.
       -3    1    3    3    0  502 -0.34259049997E+03 -0.11471980105E+04 -0.23218857887E+04  0.26123906966E+04  0.10100000352E+00 0. -1.
</event>
<event>
 5   0  0.4973409E-08  0.3399715E+04  0.7818609E-02  0.8137976E-01
        2   -1    0    0  501    0  0.00000000000E+00  0.00000000000E+00  0.13017190707E+04  0.13017190707E+04  0.25500000920E-02 0. -1.
       -2   -1    0    0    0  501  0.00000000000E+00  0.00000000000E+00 -0.22197685997E+04  0.22197685997E+04  0.25500000920E-02 0.  1.
    10030    2    1    2    0    0  0.00000000000E+00  0.00000000000E+00 -0.91804952894E+03  0.35214876704E+04  0.33997147638E+04 0.  0.
        1    1    3    3  502    0 -0.67779488533E+03  0.15578903872E+04 -0.51657335421E+03  0.17757467148E+04  0.50400001928E-02 0. -1.
       -1    1    3    3    0  502  0.67779488533E+03 -0.15578903872E+04 -0.40147617472E+03  0.17457409555E+04  0.50400001928E-02 0.  1.
</event>
<event>
 5   0  0.1625282E-08  0.3400036E+04  0.7818609E-02  0.8137898E-01
       -1   -1    0    0    0  501  0.00000000000E+00  0.00000000000E+00  0.14321714812E+04  0.14321714812E+04  0.50400001928E-02 0. -1.
        1   -1    0    0  501    0  0.00000000000E+00  0.00000000000E+00 -0.20179573045E+04  0.20179573045E+04  0.50400001928E-02 0.  1.
    10030    2    1    2    0    0  0.00000000000E+00  0.00000000000E+00 -0.58578582330E+03  0.34501287858E+04  0.34000358245E+04 0.  0.
        1    1    3    3  502    0  0.19641811865E+02 -0.84365877244E+02  0.14299306523E+04  0.14325519441E+04  0.50400001928E-02 0. -1.
       -1    1    3    3    0  502 -0.19641811865E+02  0.84365877244E+02 -0.20157164756E+04  0.20175768417E+04  0.50400001928E-02 0.  1.
</event>
<event>
 5   0  0.4946315E-08  0.3400683E+04  0.7818609E-02  0.8137739E-01
       -2   -1    0    0    0  501  0.00000000000E+00  0.00000000000E+00  0.12456293583E+04  0.12456293583E+04  0.25500000920E-02 0.  1.
        2   -1    0    0  501    0  0.00000000000E+00  0.00000000000E+00 -0.23210440686E+04  0.23210440686E+04  0.25500000920E-02 0. -1.
    10030    2    1    2    0    0  0.00000000000E+00  0.00000000000E+00 -0.10754147102E+04  0.35666734269E+04  0.34006826572E+04 0.  0.
        3    1    3    3  502    0 -0.16751302550E+04  0.25377832930E+03 -0.68858971752E+03  0.18288303970E+04  0.10100000352E+00 0.  1.
       -3    1    3    3    0  502  0.16751302550E+04 -0.25377832930E+03 -0.38682499271E+03  0.17378430299E+04  0.10100000352E+00 0. -1.
</event>
<event>
 5   0  0.4946315E-08  0.3400093E+04  0.7818609E-02  0.8137884E-01
        2   -1    0    0  501    0  0.00000000000E+00  0.00000000000E+00  0.17274389892E+04  0.17274389892E+04  0.25500000920E-02 0. -1.
       -2   -1    0    0    0  501  0.00000000000E+00  0.00000000000E+00 -0.16730882029E+04  0.16730882029E+04  0.25500000920E-02 0.  1.
    10030    2    1    2    0    0  0.00000000000E+00  0.00000000000E+00  0.54350786356E+02  0.34005271921E+04  0.34000928188E+04 0.  0.
        3    1    3    3  502    0 -0.74830570301E+03  0.11039448134E+04  0.10815881312E+04  0.17171163245E+04  0.10100000352E+00 0. -1.
       -3    1    3    3    0  502  0.74830570301E+03 -0.11039448134E+04 -0.10272373449E+04  0.16834108676E+04  0.10100000352E+00 0.  1.
</event>
<event>
 5   0  0.4775023E-08  0.3400317E+04  0.7818609E-02  0.8137828E-01
       -2   -1    0    0    0  501  0.00000000000E+00  0.00000000000E+00  0.17651008463E+04  0.17651008463E+04  0.25500000920E-02 0.  1.
        2   -1    0    0  501    0  0.00000000000E+00  0.00000000000E+00 -0.16376057076E+04  0.16376057076E+04  0.25500000920E-02 0. -1.
    10030    2    1    2    0    0  0.00000000000E+00  0.00000000000E+00  0.12749513873E+03  0.34027065539E+04  0.34003171736E+04 0.  0.
        4    1    3    3  502    0  0.10578081849E+04  0.58067971062E+03 -0.11347544568E+04  0.16564469121E+04  0.12699999809E+01 0. -1.
       -4    1    3    3    0  502 -0.10578081849E+04 -0.58067971062E+03  0.12622495955E+04  0.17462596418E+04  0.12699999809E+01 0.  1.
</event>
<event>
 5   0  0.1630571E-08  0.3400160E+04  0.7818609E-02  0.8137867E-01
       -1   -1    0    0    0  501  0.00000000000E+00  0.00000000000E+00  0.18501953556E+04  0.18501953556E+04  0.50400001928E-02 0.  1.
        1   -1    0    0  501    0  0.00000000000E+00  0.00000000000E+00 -0.15621445465E+04  0.15621445465E+04  0.50400001928E-02 0. -1.
    10030    2    1    2    0    0  0.00000000000E+00  0.00000000000E+00  0.28805080906E+03  0.34123399021E+04  0.34001603401E+04 0.  0.
        3    1    3    3  502    0 -0.63396831887E+03 -0.15466614046E+04 -0.16723916518E+03  0.16798947224E+04  0.10100000352E+00 0. -1.
       -3    1    3    3    0  502  0.63396831887E+03  0.15466614046E+04  0.45528997424E+03  0.17324451797E+04  0.10100000352E+00 0.  1.
</event>
<event>
 5   0  0.4775023E-08  0.3403397E+04  0.7818609E-02  0.8137073E-01
       -2   -1    0    0    0  501  0.00000000000E+00  0.00000000000E+00  0.14975727133E+04  0.14975727133E+04  0.25500000920E-02 0. -1.
        2   -1    0    0  501    0  0.00000000000E+00  0.00000000000E+00 -0.19336474723E+04  0.19336474724E+04  0.25500000920E-02 0.  1.
    10030    2    1    2    0    0  0.00000000000E+00  0.00000000000E+00 -0.43607475907E+03  0.34312201856E+04  0.34033969452E+04 0.  0.
        4    1    3    3  502    0 -0.11827534531E+04 -0.11298282846E+04  0.25522369346E+03  0.16554632071E+04  0.12699999809E+01 0.  1.
       -4    1    3    3    0  502  0.11827534531E+04  0.11298282846E+04 -0.69129845253E+03  0.17757569785E+04  0.12699999809E+01 0. -1.
</event>
<event>
 5   0  0.1579536E-08  0.3400439E+04  0.7818609E-02  0.8137799E-01
       -1   -1    0    0    0  501  0.00000000000E+00  0.00000000000E+00  0.12038280261E+04  0.12038280261E+04  0.50400001928E-02 0. -1.
        1   -1    0    0  501    0  0.00000000000E+00  0.00000000000E+00 -0.24012946973E+04  0.24012946973E+04  0.50400001928E-02 0.  1.
    10030    2    1    2    0    0  0.00000000000E+00  0.00000000000E+00 -0.11974666712E+04  0.36051227234E+04  0.34004387102E+04 0.  0.
        5    1    3    3  502    0 -0.10026829437E+04 -0.13379589753E+04 -0.27158770974E+03  0.16938976591E+04  0.46999998093E+01 0. -1.
       -5    1    3    3    0  502  0.10026829437E+04  0.13379589753E+04 -0.92587896149E+03  0.19112250644E+04  0.46999998093E+01 0.  1.
</event>
<event>
 5   0  0.4973409E-08  0.3401183E+04  0.7818609E-02  0.8137616E-01
        2   -1    0    0  501    0  0.00000000000E+00  0.00000000000E+00  0.26831166996E+04  0.26831166996E+04  0.25500000920E-02 0.  1.
       -2   -1    0    0    0  501  0.00000000000E+00  0.00000000000E+00 -0.10778552379E+04  0.10778552379E+04  0.25500000920E-02 0. -1.
    10030    2    1    2    0    0  0.00000000000E+00  0.00000000000E+00  0.16052614617E+04  0.37609719375E+04  0.34011829639E+04 0.  0.
        1    1    3    3  502    0 -0.11046576085E+04 -0.99777521139E+03 -0.10666194704E+03  0.14923808413E+04  0.50400001928E-02 0.  1.
       -1    1    3    3    0  502  0.11046576085E+04  0.99777521139E+03  0.17119234088E+04  0.22685910962E+04  0.50400001928E-02 0. -1.
</event>
<event>
 5   0  0.1595851E-08  0.3399102E+04  0.7818609E-02  0.8138127E-01
        1   -1    0    0  501    0  0.00000000000E+00  0.00000000000E+00  0.25922903641E+04  0.25922903641E+04  0.50400001928E-02 0.  1.
       -1   -1    0    0    0  501  0.00000000000E+00  0.00000000000E+00 -0.11142553966E+04  0.11142553966E+04  0.50400001928E-02 0. -1.
    10030    2    1    2    0    0  0.00000000000E+00  0.00000000000E+00  0.14780349675E+04  0.37065457608E+04  0.33991019566E+04 0.  0.
        2    1    3    3  502    0  0.10676999973E+04  0.11480236542E+04  0.14545145532E+04  0.21385869588E+04  0.25500000920E-02 0.  1.
       -2    1    3    3    0  502 -0.10676999973E+04 -0.11480236542E+04  0.23520414246E+02  0.15679588020E+04  0.25500000920E-02 0. -1.
</event>
<event>
 5   0  0.5001197E-08  0.3399601E+04  0.7818609E-02  0.8138004E-01
       -2   -1    0    0    0  501  0.00000000000E+00  0.00000000000E+00  0.14822729616E+04  0.14822729616E+04  0.25500000920E-02 0.  1.
        2   -1    0    0  501    0  0.00000000000E+00  0.00000000000E+00 -0.19492507668E+04  0.19492507668E+04  0.25500000920E-02 0. -1.
    10030    2    1    2    0    0  0.00000000000E+00  0.00000000000E+00 -0.46697780515E+03  0.34315237284E+04  0.33996009807E+04 0.  0.
        5    1    3    3  502    0  0.47251085246E+03  0.10788192941E+04  0.10036553543E+04  0.15474054851E+04  0.46999998093E+01 0.  1.
       -5    1    3    3    0  502 -0.47251085246E+03 -0.10788192941E+04 -0.14706331595E+04  0.18841182433E+04  0.46999998093E+01 0. -1.
</event>
<event>
 5   0  0.1630571E-08  0.3402629E+04  0.7818609E-02  0.8137261E-01
       -1   -1    0    0    0  501  0.00000000000E+00  0.00000000000E+00  0.16335237880E+04  0.16335237880E+04  0.50400001928E-02 0.  1.
        1   -1    0    0  501    0  0.00000000000E+00  0.00000000000E+00 -0.17719185601E+04  0.17719185601E+04  0.50400001928E-02 0. -1.
    10030    2    1    2    0    0  0.00000000000E+00  0.00000000000E+00 -0.13839477212E+03  0.34054423482E+04  0.34026290532E+04 0.  0.
        3    1    3    3  502    0  0.44675992199E+03 -0.15451955646E+04  0.48555987799E+03  0.16801762306E+04  0.10100000352E+00 0.  1.
       -3    1    3    3    0  502 -0.44675992199E+03  0.15451955646E+04 -0.62395465011E+03  0.17252661175E+04  0.10100000352E+00 0. -1.
</event>
<event>
 5   0  0.1630571E-08  0.3399970E+04  0.7818609E-02  0.8137914E-01
        1   -1    0    0  501    0  0.00000000000E+00  0.00000000000E+00  0.24165976343E+04  0.24165976343E+04  0.50400001928E-02 0. -1.
       -1   -1    0    0    0  501  0.00000000000E+00  0.00000000000E+00 -0.11958751679E+04  0.11958751679E+04  0.50400001928E-02 0.  1.
    10030    2    1    2    0    0  0.00000000000E+00  0.00000000000E+00  0.12207224664E+04  0.36124728023E+04  0.33999700597E+04 0.  0.
        3    1    3    3  502    0  0.15400008700E+03 -0.44986946116E+03  0.23445022878E+04  0.23922352615E+04  0.10100000352E+00 0. -1.
       -3    1    3    3    0  502 -0.15400008700E+03  0.44986946116E+03 -0.11237798213E+04  0.12202375408E+04  0.10100000352E+00 0.  1.
</event>
<event>
 5   0  0.1573625E-08  0.3403356E+04  0.7818609E-02  0.8137083E-01
        3   -1    0    0  501    0  0.00000000000E+00  0.00000000000E+00  0.18016613073E+04  0.18016613101E+04  0.10100000352E+00 0.  1.
       -3   -1    0    0    0  501  0.00000000000E+00  0.00000000000E+00 -0.16072428054E+04  0.16072428085E+04  0.10100000352E+00 0. -1.
    10030    2    1    2    0    0  0.00000000000E+00  0.00000000000E+00  0.19441850194E+03  0.34089041186E+04  0.34033555113E+04 0.  0.
        5    1    3    3  502    0  0.87686580928E+03  0.11747988090E+04  0.96270086416E+03  0.17538132549E+04  0.46999998093E+01 0.  1.
       -5    1    3    3    0  502 -0.87686580928E+03 -0.11747988090E+04 -0.76828236222E+03  0.16550908638E+04  0.46999998093E+01 0. -1.
</event>
<event>
 5   0  0.1630571E-08  0.3400338E+04  0.7818609E-02  0.8137823E-01
       -1   -1    0    0    0  501  0.00000000000E+00  0.00000000000E+00  0.10976140091E+04  0.10976140091E+04  0.50400001928E-02 0. -1.
        1   -1    0    0  501    0  0.00000000000E+00  0.00000000000E+00 -0.26335068471E+04  0.26335068471E+04  0.50400001928E-02 0.  1.
    10030    2    1    2    0    0  0.00000000000E+00  0.00000000000E+00 -0.15358928380E+04  0.37311208563E+04  0.34003376353E+04 0.  0.
        3    1    3    3  502    0 -0.21394580106E+03  0.49815666392E+03  0.10002204161E+04  0.11377054797E+04  0.10100000352E+00 0. -1.
       -3    1    3    3    0  502  0.21394580106E+03 -0.49815666392E+03 -0.25361132541E+04  0.25934153766E+04  0.10100000352E+00 0.  1.
</event>
<event>
 5   0  0.1595851E-08  0.3389027E+04  0.7818609E-02  0.8140605E-01
        1   -1    0    0  501    0  0.00000000000E+00  0.00000000000E+00  0.99692160437E+03  0.99692160438E+03  0.50400001928E-02 0.  1.
       -1   -1    0    0    0  501  0.00000000000E+00  0.00000000000E+00 -0.28802428802E+04  0.28802428802E+04  0.50400001928E-02 0. -1.
    10030    2    1    2    0    0  0.00000000000E+00  0.00000000000E+00 -0.18833212759E+04  0.38771644846E+04  0.33890272074E+04 0.  0.
        2    1    3    3  502    0  0.13701052201E+04 -0.48502607916E+03  0.54988386045E+02  0.14544629023E+04  0.25500000920E-02 0.  1.
       -2    1    3    3    0  502 -0.13701052201E+04  0.48502607916E+03 -0.19383096619E+04  0.24227015823E+04  0.25500000920E-02 0. -1.
</event>
<event>
 5   0  0.1579536E-08  0.3400064E+04  0.7818609E-02  0.8137891E-01
        1   -1    0    0  501    0  0.00000000000E+00  0.00000000000E+00  0.18874555721E+04  0.18874555721E+04  0.50400001928E-02 0.  1.
       -1   -1    0    0    0  501  0.00000000000E+00  0.00000000000E+00 -0.15312195067E+04  0.15312195067E+04  0.50400001928E-02 0. -1.
    10030    2    1    2    0    0  0.00000000000E+00  0.00000000000E+00  0.35623606542E+03  0.34186750788E+04  0.34000639935E+04 0.  0.
        5    1    3    3  502    0 -0.14220500987E+04 -0.80065120846E+03 -0.30074284660E+03  0.16594388179E+04  0.46999998093E+01 0. -1.
       -5    1    3    3    0  502  0.14220500987E+04  0.80065120846E+03  0.65697891203E+03  0.17592362609E+04  0.46999998093E+01 0.  1.
</event>
<event>
 5   0  0.5001197E-08  0.3399522E+04  0.7818609E-02  0.8138024E-01
       -2   -1    0    0    0  501  0.00000000000E+00  0.00000000000E+00  0.13636268164E+04  0.13636268164E+04  0.25500000920E-02 0.  1.
        2   -1    0    0  501    0  0.00000000000E+00  0.00000000000E+00 -0.21187527938E+04  0.21187527938E+04  0.25500000920E-02 0. -1.
    10030    2    1    2    0    0  0.00000000000E+00  0.00000000000E+00 -0.75512597734E+03  0.34823796102E+04  0.33995223941E+04 0.  0.
        5    1    3    3  502    0  0.11423941466E+04  0.11644810422E+04  0.11166026749E+03  0.16351056814E+04  0.46999998093E+01 0.  1.
       -5    1    3    3    0  502 -0.11423941466E+04 -0.11644810422E+04 -0.86678624482E+03  0.18472739288E+04  0.46999998093E+01 0. -1.
</event>
<event>
 5   0  0.1579536E-08  0.3400037E+04  0.7818609E-02  0.8137897E-01
        1   -1    0    0  501    0  0.00000000000E+00  0.00000000000E+00  0.20033196230E+04  0.20033196230E+04  0.50400001928E-02 0.  1.
       -1   -1    0    0    0  501  0.00000000000E+00  0.00000000000E+00 -0.14426371595E+04  0.14426371595E+04  0.50400001928E-02 0. -1.
    10030    2    1    2    0    0  0.00000000000E+00  0.00000000000E+00  0.56068246347E+03  0.34459567825E+04  0.34000372530E+04 0.  0.
        5    1    3    3  502    0  0.10784166804E+04 -0.33180777954E+03  0.15691132505E+04  0.19326710589E+04  0.46999998093E+01 0.  1.
       -5    1    3    3    0  502 -0.10784166804E+04  0.33180777954E+03 -0.10084307870E+04  0.15132857236E+04  0.46999998093E+01 0. -1.
</event>
<event>
 5   0  0.4973409E-08  0.3399835E+04  0.7818609E-02  0.8137947E-01
        2   -1    0    0  501    0  0.00000000000E+00  0.00000000000E+00  0.30521320476E+04  0.30521320476E+04  0.25500000920E-02 0. -1.
       -2   -1    0    0    0  501  0.00000000000E+00  0.00000000000E+00 -0.94678702690E+03  0.94678702690E+03  0.25500000920E-02 0.  1.
    10030    2    1    2    0    0  0.00000000000E+00  0.00000000000E+00  0.21053450207E+04  0.39989190745E+04  0.33998347178E+04 0.  0.
        1    1    3    3  502    0  0.43616702161E+03 -0.12074241395E+04  0.23632913778E+04  0.26894722270E+04  0.50400001928E-02 0. -1.
       -1    1    3    3    0  502 -0.43616702161E+03  0.12074241395E+04 -0.25794635709E+03  0.13094468475E+04  0.50400001928E-02 0.  1.
</event>
<event>
 5   0  0.1625282E-08  0.3398045E+04  0.7818609E-02  0.8138386E-01
        1   -1    0    0  501    0  0.00000000000E+00  0.00000000000E+00  0.15439026531E+04  0.15439026532E+04  0.50400001928E-02 0.  1.
       -1   -1    0    0    0  501  0.00000000000E+00  0.00000000000E+00 -0.18697275382E+04  0.18697275382E+04  0.50400001928E-02 0. -1.
    10030    2    1    2    0    0  0.00000000000E+00  0.00000000000E+00 -0.32582488510E+03  0.34136301914E+04  0.33980449126E+04 0.  0.
        1    1    3    3  502    0 -0.14995735728E+04 -0.76806855850E+03  0.57243554376E+02  0.16858016003E+04  0.50400001928E-02 0.  1.
       -1    1    3    3    0  502  0.14995735728E+04  0.76806855850E+03 -0.38306843947E+03  0.17278285911E+04  0.50400001928E-02 0. -1.
</event>
<event>
 5   0  0.4775023E-08  0.3403032E+04  0.7818609E-02  0.8137163E-01
       -2   -1    0    0    0  501  0.00000000000E+00  0.00000000000E+00  0.15813100180E+04  0.15813100180E+04  0.25500000920E-02 0. -1.
        2   -1    0    0  501    0  0.00000000000E+00  0.00000000000E+00 -0.18308593847E+04  0.18308593847E+04  0.25500000920E-02 0.  1.
    10030    2    1    2    0    0  0.00000000000E+00  0.00000000000E+00 -0.24954936669E+03  0.34121694026E+04  0.34030317580E+04 0.  0.
        4    1    3    3  502    0 -0.11317551463E+04  0.24612330156E+03  0.11250506481E+04  0.16146785948E+04  0.12699999809E+01 0. -1.
       -4    1    3    3    0  502  0.11317551463E+04 -0.24612330156E+03 -0.13746000148E+04  0.17974908079E+04  0.12699999809E+01 0.  1.
</event>
<event>
 5   0  0.4946315E-08  0.3399412E+04  0.7818609E-02  0.8138051E-01
       -2   -1    0    0    0  501  0.00000000000E+00  0.00000000000E+00  0.23110323254E+04  0.23110323254E+04  0.25500000920E-02 0. -1.
        2   -1    0    0  501    0  0.00000000000E+00  0.00000000000E+00 -0.12500906170E+04  0.12500906170E+04  0.25500000920E-02 0.  1.
    10030    2    1    2    0    0  0.00000000000E+00  0.00000000000E+00  0.10609417085E+04  0.35611229424E+04  0.33994116112E+04 0.  0.
        3    1    3    3  502    0  0.13774731253E+04 -0.47074685108E+03 -0.38874754290E+03  0.15067048388E+04  0.10100000352E+00 0.  1.
       -3    1    3    3    0  502 -0.13774731253E+04  0.47074685108E+03  0.14496892514E+04  0.20544181036E+04  0.10100000352E+00 0. -1.
</event>
<event>
 5   0  0.1630571E-08  0.3399391E+04  0.7818609E-02  0.8138056E-01
       -1   -1    0    0    0  501  0.00000000000E+00  0.00000000000E+00  0.13241568097E+04  0.13241568097E+04  0.50400001928E-02 0.  1.
        1   -1    0    0  501    0  0.00000000000E+00  0.00000000000E+00 -0.21817394583E+04  0.21817394583E+04  0.50400001928E-02 0. -1.
    10030    2    1    2    0    0  0.00000000000E+00  0.00000000000E+00 -0.85758264861E+03  0.35058962681E+04  0.33993912166E+04 0.  0.
        3    1    3    3  502    0  0.55361584772E+03  0.18647775496E+03 -0.20749515973E+04  0.21556179163E+04  0.10100000352E+00 0. -1.
       -3    1    3    3    0  502 -0.55361584772E+03 -0.18647775496E+03  0.12173689487E+04  0.13502783518E+04  0.10100000352E+00 0.  1.
</event>
<event>
 5   0  0.1579536E-08  0.3402177E+04  0.7818609E-02  0.8137372E-01
        1   -1    0    0  501    0  0.00000000000E+00  0.00000000000E+00  0.11465523656E+04  0.11465523656E+04  0.50400001928E-02 0. -1.
       -1   -1    0    0    0  501  0.00000000000E+00  0.00000000000E+00 -0.25238294201E+04  0.25238294201E+04  0.50400001928E-02 0.  1.
    10030    2    1    2    0    0  0.00000000000E+00  0.00000000000E+00 -0.13772770544E+04  0.36703817857E+04  0.34021772982E+04 0.  0.
        5    1    3    3  502    0 -0.56816753892E+03  0.34490559840E+03  0.10006593314E+04  0.12012973868E+04  0.46999998093E+01 0. -1.
       -5    1    3    3    0  502  0.56816753892E+03 -0.34490559840E+03 -0.23779363858E+04  0.24690843989E+04  0.46999998093E+01 0.  1.
</event>
<event>
 5   0  0.1645631E-08  0.3400101E+04  0.7818609E-02  0.8137881E-01
        1   -1    0    0  501    0  0.00000000000E+00  0.00000000000E+00  0.95822648676E+03  0.95822648677E+03  0.50400001928E-02 0.  1.
       -1   -1    0    0    0  501  0.00000000000E+00  0.00000000000E+00 -0.30161679855E+04  0.30161679855E+04  0.50400001928E-02 0. -1.
    10030    2    1    2    0    0  0.00000000000E+00  0.00000000000E+00 -0.20579414987E+04  0.39743944723E+04  0.34001012057E+04 0.  0.
        4    1    3    3  502    0  0.41501326956E+03  0.14545037213E+04 -0.19361744037E+04  0.24569472977E+04  0.12699999809E+01 0. -1.
       -4    1    3    3    0  502 -0.41501326956E+03 -0.14545037213E+04 -0.12176709503E+03  0.15174471746E+04  0.12699999809E+01 0.  1.
</event>
<event>
 5   0  0.4946315E-08  0.3399327E+04  0.7818609E-02  0.8138071E-01
        2   -1    0    0  501    0  0.00000000000E+00  0.00000000000E+00  0.14280137044E+04  0.14280137044E+04  0.25500000920E-02 0. -1.
       -2   -1    0    0    0  501  0.00000000000E+00  0.00000000000E+00 -0.20229893304E+04  0.20229893304E+04  0.25500000920E-02 0.  1.
    10030    2    1    2    0    0  0.00000000000E+00  0.00000000000E+00 -0.59497562593E+03  0.34510030348E+04  0.33993272792E+04 0.  0.
        3    1    3    3  502    0  0.58815929770E+02 -0.15952256322E+04 -0.89001468907E+03  0.18276570488E+04  0.10100000352E+00 0.  1.
       -3    1    3    3    0  502 -0.58815929770E+02  0.15952256322E+04  0.29503906314E+03  0.16233459860E+04  0.10100000352E+00 0. -1.
</event>
<event>
 5   0  0.4764953E-08  0.3401182E+04  0.7818609E-02  0.8137616E-01
       -2   -1    0    0    0  501  0.00000000000E+00  0.00000000000E+00  0.17897118440E+04  0.17897118440E+04  0.25500000920E-02 0.  1.
        2   -1    0    0  501    0  0.00000000000E+00  0.00000000000E+00 -0.16159076503E+04  0.16159076503E+04  0.25500000920E-02 0. -1.
    10030    2    1    2    0    0  0.00000000000E+00  0.00000000000E+00  0.17380419368E+03  0.34056194944E+04  0.34011815951E+04 0.  0.
        2    1    3    3  502    0 -0.47552695265E+03 -0.64993361373E+03 -0.14128738540E+04  0.16262693849E+04  0.25500000920E-02 0. -1.
       -2    1    3    3    0  502  0.47552695265E+03  0.64993361373E+03  0.15866780477E+04  0.17793501095E+04  0.25500000920E-02 0.  1.
</event>
<event>
 5   0  0.4946315E-08  0.3402454E+04  0.7818609E-02  0.8137304E-01
        2   -1    0    0  501    0  0.00000000000E+00  0.00000000000E+00  0.20834228885E+04  0.20834228885E+04  0.25500000920E-02 0.  1.
       -2   -1    0    0    0  501  0.00000000000E+00  0.00000000000E+00 -0.13891432173E+04  0.13891432173E+04  0.25500000920E-02 0. -1.
    10030    2    1    2    0    0  0.00000000000E+00  0.00000000000E+00  0.69427967123E+03  0.34725661058E+04  0.34024536878E+04 0.  0.
        3    1    3    3  502    0  0.12218337664E+04  0.11242761591E+04 -0.31033243925E+02  0.16606738713E+04  0.10100000352E+00 0.  1.
       -3    1    3    3    0  502 -0.12218337664E+04 -0.11242761591E+04  0.72531291515E+03  0.18118922345E+04  0.10100000352E+00 0. -1.
</event>
<event>
 5   0  0.4764953E-08  0.3397994E+04  0.7818609E-02  0.8138399E-01
        2   -1    0    0  501    0  0.00000000000E+00  0.00000000000E+00  0.21135161571E+04  0.21135161571E+04  0.25500000920E-02 0. -1.
       -2   -1    0    0    0  501  0.00000000000E+00  0.00000000000E+00 -0.13657762171E+04  0.13657762171E+04  0.25500000920E-02 0.  1.
    10030    2    1    2    0    0  0.00000000000E+00  0.00000000000E+00  0.74773994001E+03  0.34792923742E+04  0.33979935855E+04 0.  0.
        2    1    3    3  502    0  0.13239792922E+04 -0.48233710459E+03 -0.59806129053E+03  0.15307669829E+04  0.25500000920E-02 0.  1.
       -2    1    3    3    0  502 -0.13239792922E+04  0.48233710459E+03  0.13458012305E+04  0.19485253913E+04  0.25500000920E-02 0. -1.
</event>
<event>
 5   0  0.4946315E-08  0.3401123E+04  0.7818609E-02  0.8137631E-01
       -2   -1    0    0    0  501  0.00000000000E+00  0.00000000000E+00  0.14239286058E+04  0.14239286058E+04  0.25500000920E-02 0.  1.
        2   -1    0    0  501    0  0.00000000000E+00  0.00000000000E+00 -0.20309371779E+04  0.20309371779E+04  0.25500000920E-02 0. -1.
    10030    2    1    2    0    0  0.00000000000E+00  0.00000000000E+00 -0.60700857206E+03  0.34548657836E+04  0.34011230758E+04 0.  0.
        3    1    3    3  502    0 -0.79908122820E+03 -0.12107924396E+03  0.12163731953E+04  0.14603954098E+04  0.10100000352E+00 0.  1.
       -3    1    3    3    0  502  0.79908122820E+03  0.12107924396E+03 -0.18233817673E+04  0.19944703739E+04  0.10100000352E+00 0. -1.
</event>
<event>
 5   0  0.5001197E-08  0.3399694E+04  0.7818609E-02  0.8137981E-01
        2   -1    0    0  501    0  0.00000000000E+00  0.00000000000E+00  0.19102681156E+04  0.19102681156E+04  0.25500000920E-02 0.  1.
       -2   -1    0    0    0  501  0.00000000000E+00  0.00000000000E+00 -0.15126046610E+04  0.15126046610E+04  0.25500000920E-02 0. -1.
    10030    2    1    2    0    0  0.00000000000E+00  0.00000000000E+00  0.39766345452E+03  0.34228727766E+04  0.33996943718E+04 0.  0.
        5    1    3    3  502    0 -0.10858826045E+04  0.11060766205E+04 -0.50371635170E+03  0.16298155644E+04  0.46999998093E+01 0.  1.
       -5    1    3    3    0  502  0.10858826045E+04 -0.11060766205E+04  0.90137980622E+03  0.17930572122E+04  0.46999998093E+01 0. -1.
</event>
<event>
 5   0  0.4775023E-08  0.3399723E+04  0.7818609E-02  0.8137974E-01
        2   -1    0    0  501    0  0.00000000000E+00  0.00000000000E+00  0.22115070421E+04  0.22115070421E+04  0.25500000920E-02 0. -1.
       -2   -1    0    0    0  501  0.00000000000E+00  0.00000000000E+00 -0.13065885626E+04  0.13065885626E+04  0.25500000920E-02 0.  1.
    10030    2    1    2    0    0  0.00000000000E+00  0.00000000000E+00  0.90491847953E+03  0.35180956047E+04  0.33997234048E+04 0.  0.
        4    1    3    3  502    0 -0.10454071909E+04 -0.17186018824E+03  0.18280732522E+04  0.21128808644E+04  0.12699999809E+01 0. -1.
       -4    1    3    3    0  502  0.10454071909E+04  0.17186018824E+03 -0.92315477262E+03  0.14052147403E+04  0.12699999809E+01 0.  1.
</event>
<event>
 5   0  0.4775023E-08  0.3396288E+04  0.7818609E-02  0.8138818E-01
       -2   -1    0    0    0  501  0.00000000000E+00  0.00000000000E+00  0.11566608189E+04  0.11566608189E+04  0.25500000920E-02 0. -1.
        2   -1    0    0  501    0  0.00000000000E+00  0.00000000000E+00 -0.24931191675E+04  0.24931191675E+04  0.25500000920E-02 0.  1.
    10030    2    1    2    0    0  0.00000000000E+00  0.00000000000E+00 -0.13364583486E+04  0.36497799864E+04  0.33962881255E+04 0.  0.
        4    1    3    3  502    0 -0.90148825693E+03 -0.13654342023E+04 -0.17977106466E+03  0.16460288232E+04  0.12699999809E+01 0. -1.
       -4    1    3    3    0  502  0.90148825693E+03  0.13654342023E+04 -0.11566872839E+04  0.20037511632E+04  0.12699999809E+01 0.  1.
</event>
<event>
 5   0  0.1625282E-08  0.3398409E+04  0.7818609E-02  0.8138297E-01
       -1   -1    0    0    0  501  0.00000000000E+00  0.00000000000E+00  0.13137463258E+04  0.13137463258E+04  0.50400001928E-02 0. -1.
        1   -1    0    0  501    0  0.00000000000E+00  0.00000000000E+00 -0.21977579944E+04  0.21977579944E+04  0.50400001928E-02 0.  1.
    10030    2    1    2    0    0  0.00000000000E+00  0.00000000000E+00 -0.88401166854E+03  0.35115043202E+04  0.33984093280E+04 0.  0.
        1    1    3    3  502    0 -0.11297780097E+04  0.59596558684E+03 -0.15998882853E+04  0.20472459201E+04  0.50400001928E-02 0.  1.
       -1    1    3    3    0  502  0.11297780097E+04 -0.59596558684E+03  0.71587661672E+03  0.14642584001E+04  0.50400001928E-02 0. -1.
</event>
<event>
 5   0  0.4764953E-08  0.3400180E+04  0.7818609E-02  0.8137862E-01
       -2   -1    0    0    0  501  0.00000000000E+00  0.00000000000E+00  0.15277487905E+04  0.15277487905E+04  0.25500000920E-02 0. -1.
        2   -1    0    0  501    0  0.00000000000E+00  0.00000000000E+00 -0.18918721753E+04  0.18918721753E+04  0.25500000920E-02 0.  1.
    10030    2    1    2    0    0  0.00000000000E+00  0.00000000000E+00 -0.36412338482E+03  0.34196209658E+04  0.34001796585E+04 0.  0.
        2    1    3    3  502    0 -0.16008174434E+04 -0.10044319843E+03  0.38472079711E+03  0.16494591280E+04  0.25500000920E-02 0. -1.
       -2    1    3    3    0  502  0.16008174434E+04  0.10044319843E+03 -0.74884418193E+03  0.17701618378E+04  0.25500000920E-02 0.  1.
</event>
<event>
 5   0  0.1579536E-08  0.3399405E+04  0.7818609E-02  0.8138052E-01
        1   -1    0    0  501    0  0.00000000000E+00  0.00000000000E+00  0.25092269053E+04  0.25092269053E+04  0.50400001928E-02 0.  1.
       -1   -1    0    0    0  501  0.00000000000E+00  0.00000000000E+00 -0.11513459068E+04  0.11513459068E+04  0.50400001928E-02 0. -1.
    10030    2    1    2    0    0  0.00000000000E+00  0.00000000000E+00  0.13578809985E+04  0.36605728121E+04  0.33994047283E+04 0.  0.
        5    1    3    3  502    0 -0.12597666686E+03 -0.10282529475E+04 -0.77209888397E+03  0.12920267107E+04  0.46999998093E+01 0. -1.
       -5    1    3    3    0  502  0.12597666686E+03  0.10282529475E+04  0.21299798824E+04  0.23685461013E+04  0.46999998093E+01 0.  1.
</event>
<event>
 5   0  0.1625282E-08  0.3400332E+04  0.7818609E-02  0.8137825E-01
        1   -1    0    0  501    0  0.00000000000E+00  0.00000000000E+00  0.21470813698E+04  0.21470813698E+04  0.50400001928E-02 0.  1.
       -1   -1    0    0    0  501  0.00000000000E+00  0.00000000000E+00 -0.13462762899E+04  0.13462762899E+04  0.50400001928E-02 0. -1.
    10030    2    1    2    0    0  0.00000000000E+00  0.00000000000E+00  0.80080507989E+03  0.34933576597E+04  0.34003321841E+04 0.  0.
        1    1    3    3  502    0 -0.16861738141E+04 -0.21709279655E+03  0.38405085558E+03  0.17429304270E+04  0.50400001928E-02 0.  1.
       -1    1    3    3    0  502  0.16861738141E+04  0.21709279655E+03  0.41675422431E+03  0.17504272327E+04  0.50400001928E-02 0. -1.
</event>
<event>
 5   0  0.1579536E-08  0.3389401E+04  0.7818609E-02  0.8140513E-01
        1   -1    0    0  501    0  0.00000000000E+00  0.00000000000E+00  0.16159063785E+04  0.16159063785E+04  0.50400001928E-02 0.  1.
       -1   -1    0    0    0  501  0.00000000000E+00  0.00000000000E+00 -0.17773368939E+04  0.17773368939E+04  0.50400001928E-02 0. -1.
    10030    2    1    2    0    0  0.00000000000E+00  0.00000000000E+00 -0.16143051540E+03  0.33932432725E+04  0.33894011410E+04 0.  0.
        5    1    3    3  502    0  0.60690770583E+03 -0.45931280813E+03  0.14351618825E+04  0.16245051364E+04  0.46999998093E+01 0.  1.
       -5    1    3    3    0  502 -0.60690770583E+03  0.45931280813E+03 -0.15965923979E+04  0.17687381361E+04  0.46999998093E+01 0. -1.
</event>
<event>
 5   0  0.4973409E-08  0.3400775E+04  0.7818609E-02  0.8137716E-01
       -2   -1    0    0    0  501  0.00000000000E+00  0.00000000000E+00  0.10425006712E+04  0.10425006712E+04  0.25500000920E-02 0. -1.
        2   -1    0    0  501    0  0.00000000000E+00  0.00000000000E+00 -0.27734452056E+04  0.27734452056E+04  0.25500000920E-02 0.  1.
    10030    2    1    2    0    0  0.00000000000E+00  0.00000000000E+00 -0.17309445343E+04  0.38159458768E+04  0.34007754930E+04 0.  0.
        1    1    3    3  502    0  0.16786382748E+03 -0.10637190814E+04  0.61109518760E+03  0.12381897581E+04  0.50400001928E-02 0. -1.
       -1    1    3    3    0  502 -0.16786382748E+03  0.10637190814E+04 -0.23420397219E+04  0.25777561188E+04  0.50400001928E-02 0.  1.
</event>
<event>
 5   0  0.4946315E-08  0.3397897E+04  0.7818609E-02  0.8138423E-01
       -2   -1    0    0    0  501  0.00000000000E+00  0.00000000000E+00  0.14589021786E+04  0.14589021786E+04  0.25500000920E-02 0. -1.
        2   -1    0    0  501    0  0.00000000000E+00  0.00000000000E+00 -0.19784915595E+04  0.19784915595E+04  0.25500000920E-02 0.  1.
    10030    2    1    2    0    0  0.00000000000E+00  0.00000000000E+00 -0.51958938090E+03  0.34373937381E+04  0.33978967886E+04 0.  0.
        3    1    3    3  502    0 -0.15848488686E+04  0.46033534758E+02 -0.87726711674E+03  0.18120327334E+04  0.10100000352E+00 0. -1.
       -3    1    3    3    0  502  0.15848488686E+04 -0.46033534758E+02  0.35767773584E+03  0.16253610047E+04  0.10100000352E+00 0.  1.
</event>
<event>
 5   0  0.5001197E-08  0.3400292E+04  0.7818609E-02  0.8137835E-01
        2   -1    0    0  501    0  0.00000000000E+00  0.00000000000E+00  0.20357940804E+04  0.20357940804E+04  0.25500000920E-02 0.  1.
       -2   -1    0    0    0  501  0.00000000000E+00  0.00000000000E+00 -0.14198369959E+04  0.14198369959E+04  0.25500000920E-02 0. -1.
    10030    2    1    2    0    0  0.00000000000E+00  0.00000000000E+00  0.61595708454E+03  0.34556310763E+04  0.34002916060E+04 0.  0.
        5    1    3    3  502    0 -0.62198566325E+03  0.24258979098E+03  0.18969976442E+04  0.20110539834E+04  0.46999998093E+01 0.  1.
       -5    1    3    3    0  502  0.62198566325E+03 -0.24258979098E+03 -0.12810405597E+04  0.14445770930E+04  0.46999998093E+01 0. -1.
</event>
<event>
 5   0  0.1579536E-08  0.3398853E+04  0.7818609E-02  0.8138188E-01
       -1   -1    0    0    0  501  0.00000000000E+00  0.00000000000E+00  0.15471115096E+04  0.15471115096E+04  0.50400001928E-02 0. -1.
        1   -1    0    0  501    0  0.00000000000E+00  0.00000000000E+00 -0.18667366439E+04  0.18667366439E+04  0.50400001928E-02 0.  1.
    10030    2    1    2    0    0  0.00000000000E+00  0.00000000000E+00 -0.31962513428E+03  0.34138481535E+04  0.33988525988E+04 0.  0.
        5    1    3    3  502    0  0.13937409525E+04  0.59312768089E+03  0.61411494135E+03  0.16344642974E+04  0.46999998093E+01 0. -1.
       -5    1    3    3    0  502 -0.13937409525E+04 -0.59312768089E+03 -0.93374007563E+03  0.17793838561E+04  0.46999998093E+01 0.  1.
</event>
<event>
 5   0  0.4946315E-08  0.3400889E+04  0.7818609E-02  0.8137688E-01
       -2   -1    0    0    0  501  0.00000000000E+00  0.00000000000E+00  0.14773270107E+04  0.14773270107E+04  0.25500000920E-02 0.  1.
        2   -1    0    0  501    0  0.00000000000E+00  0.00000000000E+00 -0.19572592928E+04  0.19572592928E+04  0.25500000920E-02 0. -1.
    10030    2    1    2    0    0  0.00000000000E+00  0.00000000000E+00 -0.47993228215E+03  0.34345863035E+04  0.34008893073E+04 0.  0.
        3    1    3    3  502    0 -0.25633870632E+03 -0.97333008769E+01 -0.19376059772E+04  0.19545130347E+04  0.10100000352E+00 0. -1.
       -3    1    3    3    0  502  0.25633870632E+03  0.97333008769E+01  0.14576736951E+04  0.14800732688E+04  0.10100000352E+00 0.  1.
</event>
<event>
 5   0  0.4775023E-08  0.3407437E+04  0.7818609E-02  0.8136083E-01
        2   -1    0    0  501    0  0.00000000000E+00  0.00000000000E+00  0.25239694498E+04  0.25239694498E+04  0.25500000920E-02 0.  1.
       -2   -1    0    0    0  501  0.00000000000E+00  0.00000000000E+00 -0.11500365185E+04  0.11500365185E+04  0.25500000920E-02 0. -1.
    10030    2    1    2    0    0  0.00000000000E+00  0.00000000000E+00  0.13739329313E+04  0.36740059684E+04  0.34074371830E+04 0.  0.
        4    1    3    3  502    0 -0.85218717791E+03 -0.32804884183E+03  0.22378278203E+04  0.24169637968E+04  0.12699999809E+01 0.  1.
       -4    1    3    3    0  502  0.85218717791E+03  0.32804884183E+03 -0.86389488905E+03  0.12570421715E+04  0.12699999809E+01 0. -1.
</event>
<event>
 5   0  0.5001197E-08  0.3403744E+04  0.7818609E-02  0.8136988E-01
       -2   -1    0    0    0  501  0.00000000000E+00  0.00000000000E+00  0.23463990325E+04  0.23463990325E+04  0.25500000920E-02 0.  1.
        2   -1    0    0  501    0  0.00000000000E+00  0.00000000000E+00 -0.12343882928E+04  0.12343882928E+04  0.25500000920E-02 0. -1.
    10030    2    1    2    0    0  0.00000000000E+00  0.00000000000E+00  0.11120107397E+04  0.35807873253E+04  0.34037435249E+04 0.  0.
        5    1    3    3  502    0  0.90549619712E+03  0.26736305312E+03  0.20456143635E+04  0.22529905857E+04  0.46999998093E+01 0.  1.
       -5    1    3    3    0  502 -0.90549619712E+03 -0.26736305312E+03 -0.93360362379E+03  0.13277967395E+04  0.46999998093E+01 0. -1.
</event>
<event>
 5   0  0.1579536E-08  0.3402134E+04  0.7818609E-02  0.8137383E-01
       -1   -1    0    0    0  501  0.00000000000E+00  0.00000000000E+00  0.10228378041E+04  0.10228378041E+04  0.50400001928E-02 0.  1.
        1   -1    0    0  501    0  0.00000000000E+00  0.00000000000E+00 -0.28290204552E+04  0.28290204552E+04  0.50400001928E-02 0. -1.
    10030    2    1    2    0    0  0.00000000000E+00  0.00000000000E+00 -0.18061826511E+04  0.38518582593E+04  0.34021340774E+04 0.  0.
        5    1    3    3  502    0 -0.46553727276E+03  0.16035655110E+04 -0.53541802285E+03  0.17535226972E+04  0.46999998093E+01 0.  1.
       -5    1    3    3    0  502  0.46553727276E+03 -0.16035655110E+04 -0.12707646283E+04  0.20983355621E+04  0.46999998093E+01 0. -1.
</event>
<event>
 5   0  0.4946315E-08  0.3394963E+04  0.7818609E-02  0.8139144E-01
        2   -1    0    0  501    0  0.00000000000E+00  0.00000000000E+00  0.85688370603E+03  0.85688370604E+03  0.25500000920E-02 0. -1.
       -2   -1    0    0    0  501  0.00000000000E+00  0.00000000000E+00 -0.33627006929E+04  0.33627006929E+04  0.25500000920E-02 0.  1.
    10030    2    1    2    0    0  0.00000000000E+00  0.00000000000E+00 -0.25058169869E+04  0.42195843990E+04  0.33949629936E+04 0.  0.
        3    1    3    3  502    0  0.46583333546E+03  0.16298361495E+04 -0.11412078504E+04  0.20434583281E+04  0.10100000352E+00 0. -1.
       -3    1    3    3    0  502 -0.46583333546E+03 -0.16298361495E+04 -0.13646091365E+04  0.21761260709E+04  0.10100000352E+00 0.  1.
</event>
<event>
 5   0  0.4973409E-08  0.3399419E+04  0.7818609E-02  0.8138049E-01
       -2   -1    0    0    0  501  0.00000000000E+00  0.00000000000E+00  0.19377319066E+04  0.19377319066E+04  0.25500000920E-02 0. -1.
        2   -1    0    0  501    0  0.00000000000E+00  0.00000000000E+00 -0.14909248950E+04  0.14909248950E+04  0.25500000920E-02 0.  1.
    10030    2    1    2    0    0  0.00000000000E+00  0.00000000000E+00  0.44680701153E+03  0.34286568016E+04  0.33994192089E+04 0.  0.
        1    1    3    3  502    0  0.10518778927E+04 -0.65446024883E+03 -0.95032675116E+03  0.15613731945E+04  0.50400001928E-02 0.  1.
       -1    1    3    3    0  502 -0.10518778927E+04  0.65446024883E+03  0.13971337627E+04  0.18672836071E+04  0.50400001928E-02 0. -1.
</event>
<event>
 5   0  0.4775023E-08  0.3395128E+04  0.7818609E-02  0.8139103E-01
        2   -1    0    0  501    0  0.00000000000E+00  0.00000000000E+00  0.14164799981E+04  0.14164799981E+04  0.25500000920E-02 0.  1.
       -2   -1    0    0    0  501  0.00000000000E+00  0.00000000000E+00 -0.20344254913E+04  0.20344254913E+04  0.25500000920E-02 0. -1.
    10030    2    1    2    0    0  0.00000000000E+00  0.00000000000E+00 -0.61794549322E+03  0.34509054894E+04  0.33951276949E+04 0.  0.
        4    1    3    3  502    0  0.12743209374E+04 -0.10322336449E+04 -0.75472196767E+03  0.18052720046E+04  0.12699999809E+01 0. -1.
       -4    1    3    3    0  502 -0.12743209374E+04  0.10322336449E+04  0.13677647445E+03  0.16456334848E+04  0.12699999809E+01 0.  1.
</event>
<event>
 5   0  0.4973409E-08  0.3389085E+04  0.7818609E-02  0.8140590E-01
       -2   -1    0    0    0  501  0.00000000000E+00  0.00000000000E+00  0.13671223900E+04  0.13671223900E+04  0.25500000920E-02 0.  1.
        2   -1    0    0  501    0  0.00000000000E+00  0.00000000000E+00 -0.21003784814E+04  0.21003784814E+04  0.25500000920E-02 0. -1.
    10030    2    1    2    0    0  0.00000000000E+00  0.00000000000E+00 -0.73325609137E+03  0.34675008714E+04  0.33890850974E+04 0.  0.
        1    1    3    3  502    0  0.15192868355E+03 -0.15988056119E+04 -0.91970260014E+03  0.18507065090E+04  0.50400001928E-02 0. -1.
       -1    1    3    3    0  502 -0.15192868355E+03  0.15988056119E+04  0.18644650877E+03  0.16167943624E+04  0.50400001928E-02 0.  1.
</event>
<event>
 5   0  0.4946315E-08  0.3400021E+04  0.7818609E-02  0.8137901E-01
        2   -1    0    0  501    0  0.00000000000E+00  0.00000000000E+00  0.17293859024E+04  0.17293859024E+04  0.25500000920E-02 0.  1.
       -2   -1    0    0    0  501  0.00000000000E+00  0.00000000000E+00 -0.16711343607E+04  0.16711343608E+04  0.25500000920E-02 0. -1.
    10030    2    1    2    0    0  0.00000000000E+00  0.00000000000E+00  0.58251541669E+02  0.34005202632E+04  0.34000212967E+04 0.  0.
        3    1    3    3  502    0  0.24061808170E+03  0.74031446530E+03 -0.14824112179E+04  0.16743672231E+04  0.10100000352E+00 0. -1.
       -3    1    3    3    0  502 -0.24061808170E+03 -0.74031446530E+03  0.15406627596E+04  0.17261530400E+04  0.10100000352E+00 0.  1.
</event>
<event>
 5   0  0.4764953E-08  0.3397835E+04  0.7818609E-02  0.8138438E-01
        2   -1    0    0  501    0  0.00000000000E+00  0.00000000000E+00  0.15845921070E+04  0.15845921070E+04  0.25500000920E-02 0. -1.
       -2   -1    0    0    0  501  0.00000000000E+00  0.00000000000E+00 -0.18214913792E+04  0.18214913792E+04  0.25500000920E-02 0.  1.
    10030    2    1    2    0    0  0.00000000000E+00  0.00000000000E+00 -0.23689927223E+03  0.34060834863E+04  0.33978351123E+04 0.  0.
        2    1    3    3  502    0 -0.81861840579E+03  0.14469216817E+04 -0.46944590662E+03  0.17274541691E+04  0.25500000920E-02 0. -1.
       -2    1    3    3    0  502  0.81861840579E+03 -0.14469216817E+04  0.23254663439E+03  0.16786293171E+04  0.25500000920E-02 0.  1.
</event>
<event>
 5   0  0.4973409E-08  0.3399391E+04  0.7818609E-02  0.8138056E-01
       -2   -1    0    0    0  501  0.00000000000E+00  0.00000000000E+00  0.15039477819E+04  0.15039477819E+04  0.25500000920E-02 0. -1.
        2   -1    0    0  501    0  0.00000000000E+00  0.00000000000E+00 -0.19209204627E+04  0.19209204627E+04  0.25500000920E-02 0.  1.
    10030    2    1    2    0    0  0.00000000000E+00  0.00000000000E+00 -0.41697268081E+03  0.34248682447E+04  0.33993905743E+04 0.  0.
        1    1    3    3  502    0  0.53002105541E+03  0.15319581444E+04 -0.72334080943E+03  0.17751168981E+04  0.50400001928E-02 0.  1.
       -1    1    3    3    0  502 -0.53002105541E+03 -0.15319581444E+04  0.30636812862E+03  0.16497513466E+04  0.50400001928E-02 0. -1.
</event>
<event>
 5   0  0.4764953E-08  0.3401318E+04  0.7818609E-02  0.8137583E-01
        2   -1    0    0  501    0  0.00000000000E+00  0.00000000000E+00  0.17808846422E+04  0.17808846422E+04  0.25500000920E-02 0. -1.
       -2   -1    0    0    0  501  0.00000000000E+00  0.00000000000E+00 -0.16240478180E+04  0.16240478180E+04  0.25500000920E-02 0.  1.
    10030    2    1    2    0    0  0.00000000000E+00  0.00000000000E+00  0.15683682422E+03  0.34049324602E+04  0.34013184604E+04 0.  0.
        2    1    3    3  502    0  0.68946750154E+03  0.99209832891E+03  0.12766100912E+04  0.17576569218E+04  0.25500000920E-02 0. -1.
       -2    1    3    3    0  502 -0.68946750154E+03 -0.99209832891E+03 -0.11197732670E+04  0.16472755384E+04  0.25500000920E-02 0.  1.
</event>
<event>
 5   0  0.1625282E-08  0.3401613E+04  0.7818609E-02  0.8137511E-01
       -1   -1    0    0    0  501  0.00000000000E+00  0.00000000000E+00  0.15388289195E+04  0.15388289195E+04  0.50400001928E-02 0. -1.
        1   -1    0    0  501    0  0.00000000000E+00  0.00000000000E+00 -0.18798335421E+04  0.18798335421E+04  0.50400001928E-02 0.  1.
    10030    2    1    2    0    0  0.00000000000E+00  0.00000000000E+00 -0.34100462259E+03  0.34186624616E+04  0.34016126872E+04 0.  0.
        1    1    3    3  502    0  0.79955792129E+03 -0.50892234034E+03  0.12488253087E+04  0.15677561895E+04  0.50400001928E-02 0. -1.
       -1    1    3    3    0  502 -0.79955792129E+03  0.50892234034E+03 -0.15898299313E+04  0.18509062722E+04  0.50400001928E-02 0.  1.
</event>
<event>
 5   0  0.1595851E-08  0.3399106E+04  0.7818609E-02  0.8138126E-01
        1   -1    0    0  501    0  0.00000000000E+00  0.00000000000E+00  0.11570534114E+04  0.11570534114E+04  0.50400001928E-02 0.  1.
       -1   -1    0    0    0  501  0.00000000000E+00  0.00000000000E+00 -0.24964101155E+04  0.24964101155E+04  0.50400001928E-02 0. -1.
    10030    2    1    2    0    0  0.00000000000E+00  0.00000000000E+00 -0.13393567041E+04  0.36534635269E+04  0.33991056708E+04 0.  0.
        2    1    3    3  502    0 -0.77929276437E+03 -0.14303853534E+04 -0.14843486276E+03  0.16356443318E+04  0.25500000920E-02 0.  1.
       -2    1    3    3    0  502  0.77929276437E+03  0.14303853534E+04 -0.11909218414E+04  0.20178191951E+04  0.25500000920E-02 0. -1.
</event>
<event>
 5   0  0.1645631E-08  0.3399316E+04  0.7818609E-02  0.8138074E-01
       -1   -1    0    0    0  501  0.00000000000E+00  0.00000000000E+00  0.12084763439E+04  0.12084763439E+04  0.50400001928E-02 0. -1.
        1   -1    0    0  501    0  0.00000000000E+00  0.00000000000E+00 -0.23904794074E+04  0.23904794074E+04  0.50400001928E-02 0.  1.
    10030    2    1    2    0    0  0.00000000000E+00  0.00000000000E+00 -0.11820030635E+04  0.35989557513E+04  0.33993162927E+04 0.  0.
        4    1    3    3  502    0 -0.82539474715E+03 -0.14263330213E+04 -0.15047112174E+03  0.16547947147E+04  0.12699999809E+01 0. -1.
       -4    1    3    3    0  502  0.82539474715E+03  0.14263330213E+04 -0.10315319418E+04  0.19441610366E+04  0.12699999809E+01 0.  1.
</event>
<event>
 5   0  0.1579536E-08  0.3399944E+04  0.7818609E-02  0.8137920E-01
       -1   -1    0    0    0  501  0.00000000000E+00  0.00000000000E+00  0.16467720343E+04  0.16467720343E+04  0.50400001928E-02 0. -1.
        1   -1    0    0  501    0  0.00000000000E+00  0.00000000000E+00 -0.17548907132E+04  0.17548907132E+04  0.50400001928E-02 0.  1.
    10030    2    1    2    0    0  0.00000000000E+00  0.00000000000E+00 -0.10811867890E+03  0.34016627475E+04  0.33999440876E+04 0.  0.
        5    1    3    3  502    0 -0.52258777319E+03  0.15917877056E+04 -0.34229658515E+03  0.17099927259E+04  0.46999998093E+01 0.  1.
       -5    1    3    3    0  502  0.52258777319E+03 -0.15917877056E+04  0.23417790625E+03  0.16916700216E+04  0.46999998093E+01 0. -1.
</event>
<event>
 5   0  0.4946315E-08  0.3400227E+04  0.7818609E-02  0.8137851E-01
       -2   -1    0    0    0  501  0.00000000000E+00  0.00000000000E+00  0.14086992142E+04  0.14086992142E+04  0.25500000920E-02 0.  1.
        2   -1    0    0  501    0  0.00000000000E+00  0.00000000000E+00 -0.20518122854E+04  0.20518122854E+04  0.25500000920E-02 0. -1.
    10030    2    1    2    0    0  0.00000000000E+00  0.00000000000E+00 -0.64311307118E+03  0.34605114997E+04  0.34002272596E+04 0.  0.
        3    1    3    3  502    0 -0.23142343492E+03 -0.27310173999E+03  0.13699101491E+04  0.14159079043E+04  0.10100000352E+00 0.  1.
       -3    1    3    3    0  502  0.23142343492E+03  0.27310173999E+03 -0.20130232203E+04  0.20446035954E+04  0.10100000352E+00 0. -1.
</event>
<event>
 5   0  0.4946315E-08  0.3409257E+04  0.7818609E-02  0.8135638E-01
       -2   -1    0    0    0  501  0.00000000000E+00  0.00000000000E+00  0.18091234966E+04  0.18091234966E+04  0.25500000920E-02 0.  1.
        2   -1    0    0  501    0  0.00000000000E+00  0.00000000000E+00 -0.16061690390E+04  0.16061690390E+04  0.25500000920E-02 0. -1.
    10030    2    1    2    0    0  0.00000000000E+00  0.00000000000E+00  0.20295445759E+03  0.34152925355E+04  0.34092568972E+04 0.  0.
        3    1    3    3  502    0 -0.37617130012E+03  0.99128665069E+03 -0.12356532208E+04  0.16281870173E+04  0.10100000352E+00 0. -1.
       -3    1    3    3    0  502  0.37617130012E+03 -0.99128665069E+03  0.14386076784E+04  0.17871055183E+04  0.10100000352E+00 0.  1.
</event>
<event>
 5   0  0.1630571E-08  0.3398590E+04  0.7818609E-02  0.8138252E-01
       -1   -1    0    0    0  501  0.00000000000E+00  0.00000000000E+00  0.12413455761E+04  0.12413455761E+04  0.50400001928E-02 0. -1.
        1   -1    0    0  501    0  0.00000000000E+00  0.00000000000E+00 -0.23261884234E+04  0.23261884234E+04  0.50400001928E-02 0.  1.
    10030    2    1    2    0    0  0.00000000000E+00  0.00000000000E+00 -0.10848428473E+04  0.35675339994E+04  0.33985901244E+04 0.  0.
        3    1    3    3  502    0  0.61598341031E+03 -0.12825965787E+04  0.43280048345E+03  0.14872141118E+04  0.10100000352E+00 0. -1.
       -3    1    3    3    0  502 -0.61598341031E+03  0.12825965787E+04 -0.15176433307E+04  0.20803198877E+04  0.10100000352E+00 0.  1.
</event>
<event>
 5   0  0.1645631E-08  0.3401834E+04  0.7818609E-02  0.8137456E-01
       -1   -1    0    0    0  501  0.00000000000E+00  0.00000000000E+00  0.15051969926E+04  0.15051969927E+04  0.50400001928E-02 0. -1.
        1   -1    0    0  501    0  0.00000000000E+00  0.00000000000E+00 -0.19220868771E+04  0.19220868771E+04  0.50400001928E-02 0.  1.
    10030    2    1    2    0    0  0.00000000000E+00  0.00000000000E+00 -0.41688988442E+03  0.34272838697E+04  0.34018344386E+04 0.  0.
        4    1    3    3  502    0  0.85064172694E+03 -0.94281540873E+03 -0.13485581624E+04  0.18523236685E+04  0.12699999809E+01 0.  1.
       -4    1    3    3    0  502 -0.85064172694E+03  0.94281540873E+03  0.93166827795E+03  0.15749602013E+04  0.12699999809E+01 0. -1.
</event>
<event>
 5   0  0.1579536E-08  0.3403957E+04  0.7818609E-02  0.8136936E-01
        1   -1    0    0  501    0  0.00000000000E+00  0.00000000000E+00  0.99061602925E+03  0.99061602926E+03  0.50400001928E-02 0.  1.
       -1   -1    0    0    0  501  0.00000000000E+00  0.00000000000E+00 -0.29241705321E+04  0.29241705321E+04  0.50400001928E-02 0. -1.
    10030    2    1    2    0    0  0.00000000000E+00  0.00000000000E+00 -0.19335545029E+04  0.39147865614E+04  0.34039566398E+04 0.  0.
        5    1    3    3  502    0  0.12312356147E+04 -0.20924593060E+03 -0.22965794004E+04  0.26141966320E+04  0.46999998093E+01 0. -1.
       -5    1    3    3    0  502 -0.12312356147E+04  0.20924593060E+03  0.36302489748E+03  0.13005899294E+04  0.46999998093E+01 0.  1.
</event>
<event>
 5   0  0.4775023E-08  0.3398082E+04  0.7818609E-02  0.8138377E-01
        2   -1    0    0  501    0  0.00000000000E+00  0.00000000000E+00  0.27535636428E+04  0.27535636428E+04  0.25500000920E-02 0.  1.
       -2   -1    0    0    0  501  0.00000000000E+00  0.00000000000E+00 -0.10483649043E+04  0.10483649043E+04  0.25500000920E-02 0. -1.
    10030    2    1    2    0    0  0.00000000000E+00  0.00000000000E+00  0.17051987385E+04  0.38019285471E+04  0.33980815086E+04 0.  0.
        4    1    3    3  502    0  0.16955980613E+04  0.83117658783E+02  0.92992561392E+03  0.19356457814E+04  0.12699999809E+01 0.  1.
       -4    1    3    3    0  502 -0.16955980613E+04 -0.83117658783E+02  0.77527312459E+03  0.18662827657E+04  0.12699999809E+01 0. -1.
</event>
<event>
 5   0  0.4775023E-08  0.3402999E+04  0.7818609E-02  0.8137171E-01
        2   -1    0    0  501    0  0.00000000000E+00  0.00000000000E+00  0.19528607210E+04  0.19528607210E+04  0.25500000920E-02 0. -1.
       -2   -1    0    0    0  501  0.00000000000E+00  0.00000000000E+00 -0.14824924876E+04  0.14824924876E+04  0.25500000920E-02 0.  1.
    10030    2    1    2    0    0  0.00000000000E+00  0.00000000000E+00  0.47036823340E+03  0.34353532085E+04  0.34029994699E+04 0.  0.
        4    1    3    3  502    0  0.13184664798E+04 -0.19133360957E+03 -0.83324360888E+03  0.15713875821E+04  0.12699999809E+01 0.  1.
       -4    1    3    3    0  502 -0.13184664798E+04  0.19133360957E+03  0.13036118423E+04  0.18639656265E+04  0.12699999809E+01 0. -1.
</event>
<event>
 5   0  0.4946315E-08  0.3399323E+04  0.7818609E-02  0.8138073E-01
        2   -1    0    0  501    0  0.00000000000E+00  0.00000000000E+00  0.16672237216E+04  0.16672237216E+04  0.25500000920E-02 0.  1.
       -2   -1    0    0    0  501  0.00000000000E+00  0.00000000000E+00 -0.17327299089E+04  0.17327299090E+04  0.25500000920E-02 0. -1.
    10030    2    1    2    0    0  0.00000000000E+00  0.00000000000E+00 -0.65506187322E+02  0.33999536306E+04  0.33993225251E+04 0.  0.
        3    1    3    3  502    0 -0.78606917038E+03  0.48536718555E+03  0.13941730353E+04  0.16724845314E+04  0.10100000352E+00 0.  1.
       -3    1    3    3    0  502  0.78606917038E+03 -0.48536718555E+03 -0.14596792226E+04  0.17274690991E+04  0.10100000352E+00 0. -1.
</event>
<event>
 5   0  0.1625282E-08  0.3401198E+04  0.7818609E-02  0.8137612E-01
       -1   -1    0    0    0  501  0.00000000000E+00  0.00000000000E+00  0.17590309800E+04  0.17590309800E+04  0.50400001928E-02 0.  1.
        1   -1    0    0  501    0  0.00000000000E+00  0.00000000000E+00 -0.16441075951E+04  0.16441075951E+04  0.50400001928E-02 0. -1.
    10030    2    1    2    0    0  0.00000000000E+00  0.00000000000E+00  0.11492338491E+03  0.34031385752E+04  0.34011975505E+04 0.  0.
        1    1    3    3  502    0  0.83831150711E+03 -0.90772444717E+03  0.12265917595E+04  0.17410506022E+04  0.50400001928E-02 0.  1.
       -1    1    3    3    0  502 -0.83831150711E+03  0.90772444717E+03 -0.11116683746E+04  0.16620879730E+04  0.50400001928E-02 0. -1.
</event>
<event>
 5   0  0.4775023E-08  0.3400871E+04  0.7818609E-02  0.8137693E-01
        2   -1    0    0  501    0  0.00000000000E+00  0.00000000000E+00  0.30094143021E+04  0.30094143021E+04  0.25500000920E-02 0. -1.
       -2   -1    0    0    0  501  0.00000000000E+00  0.00000000000E+00 -0.96081199265E+03  0.96081199266E+03  0.25500000920E-02 0.  1.
    10030    2    1    2    0    0  0.00000000000E+00  0.00000000000E+00  0.20486023095E+04  0.39702262948E+04  0.34008712721E+04 0.  0.
        4    1    3    3  502    0  0.32445705892E+03 -0.28018603616E+03  0.29452933139E+04  0.29763284287E+04  0.12699999809E+01 0. -1.
       -4    1    3    3    0  502 -0.32445705892E+03  0.28018603616E+03 -0.89669100439E+03  0.99389786608E+03  0.12699999809E+01 0.  1.
</event>
<event>
 5   0  0.1645631E-08  0.3401159E+04  0.7818609E-02  0.8137622E-01
       -1   -1    0    0    0  501  0.00000000000E+00  0.00000000000E+00  0.21860665385E+04  0.21860665386E+04  0.50400001928E-02 0. -1.
        1   -1    0    0  501    0  0.00000000000E+00  0.00000000000E+00 -0.13229106275E+04  0.13229106275E+04  0.50400001928E-02 0.  1.
    10030    2    1    2    0    0  0.00000000000E+00  0.00000000000E+00  0.86315591106E+03  0.35089771660E+04  0.34011590120E+04 0.  0.
        4    1    3    3  502    0  0.12984587602E+04 -0.10741226067E+04  0.19578414668E+03  0.16964868320E+04  0.12699999809E+01 0.  1.
       -4    1    3    3    0  502 -0.12984587602E+04  0.10741226067E+04  0.66737176438E+03  0.18124903340E+04  0.12699999809E+01 0. -1.
</event>
<event>
 5   0  0.4973409E-08  0.3399998E+04  0.7818609E-02  0.8137907E-01
       -2   -1    0    0    0  501  0.00000000000E+00  0.00000000000E+00  0.13931727533E+04  0.13931727533E+04  0.25500000920E-02 0. -1.
        2   -1    0    0  501    0  0.00000000000E+00  0.00000000000E+00 -0.20743993258E+04  0.20743993258E+04  0.25500000920E-02 0.  1.
    10030    2    1    2    0    0  0.00000000000E+00  0.00000000000E+00 -0.68122657252E+03  0.34675720792E+04  0.33999980119E+04 0.  0.
        1    1    3    3  502    0 -0.31177944683E+03  0.14732068863E+04  0.46402306973E+03  0.15757101137E+04  0.50400001928E-02 0. -1.
       -1    1    3    3    0  502  0.31177944683E+03 -0.14732068863E+04 -0.11452496422E+04  0.18918619654E+04  0.50400001928E-02 0.  1.
</event>
<event>
 5   0  0.5001197E-08  0.3401310E+04  0.7818609E-02  0.8137585E-01
        2   -1    0    0  501    0  0.00000000000E+00  0.00000000000E+00  0.23261512161E+04  0.23261512161E+04  0.25500000920E-02 0.  1.
       -2   -1    0    0    0  501  0.00000000000E+00  0.00000000000E+00 -0.12433531758E+04  0.12433531758E+04  0.25500000920E-02 0. -1.
    10030    2    1    2    0    0  0.00000000000E+00  0.00000000000E+00  0.10827980402E+04  0.35695043919E+04  0.34013100429E+04 0.  0.
        5    1    3    3  502    0 -0.12432304712E+04  0.10961986156E+04  0.94092391491E+03  0.19059468285E+04  0.46999998093E+01 0.  1.
       -5    1    3    3    0  502  0.12432304712E+04 -0.10961986156E+04  0.14187412534E+03  0.16635575634E+04  0.46999998093E+01 0. -1.
</event>
<event>
 5   0  0.1625282E-08  0.3400421E+04  0.7818609E-02  0.8137803E-01
        1   -1    0    0  501    0  0.00000000000E+00  0.00000000000E+00  0.17131223837E+04  0.17131223837E+04  0.50400001928E-02 0.  1.
       -1   -1    0    0    0  501  0.00000000000E+00  0.00000000000E+00 -0.16873955478E+04  0.16873955478E+04  0.50400001928E-02 0. -1.
    10030    2    1    2    0    0  0.00000000000E+00  0.00000000000E+00  0.25726835893E+02  0.34005179315E+04  0.34004206111E+04 0.  0.
        1    1    3    3  502    0  0.13181718348E+04  0.44480904410E+03 -0.96455035966E+03  0.16928642793E+04  0.50400001928E-02 0. -1.
       -1    1    3    3    0  502 -0.13181718348E+04 -0.44480904410E+03  0.99027719555E+03  0.17076536522E+04  0.50400001928E-02 0.  1.
</event>
<event>
 5   0  0.1625282E-08  0.3400611E+04  0.7818609E-02  0.8137756E-01
       -1   -1    0    0    0  501  0.00000000000E+00  0.00000000000E+00  0.14605317778E+04  0.14605317778E+04  0.50400001928E-02 0.  1.
        1   -1    0    0  501    0  0.00000000000E+00  0.00000000000E+00 -0.19794430625E+04  0.19794430625E+04  0.50400001928E-02 0. -1.
    10030    2    1    2    0    0  0.00000000000E+00  0.00000000000E+00 -0.51891128463E+03  0.34399748403E+04  0.34006114128E+04 0.  0.
        1    1    3    3  502    0  0.16073585951E+03  0.14550479191E+04  0.61544832895E+03  0.15880104248E+04  0.50400001928E-02 0.  1.
       -1    1    3    3    0  502 -0.16073585951E+03 -0.14550479191E+04 -0.11343596136E+04  0.18519644156E+04  0.50400001928E-02 0. -1.
</event>
<event>
 5   0  0.1645631E-08  0.3399991E+04  0.7818609E-02  0.8137908E-01
       -1   -1    0    0    0  501  0.00000000000E+00  0.00000000000E+00  0.16783135419E+04  0.16783135419E+04  0.50400001928E-02 0. -1.
        1   -1    0    0  501    0  0.00000000000E+00  0.00000000000E+00 -0.17219580622E+04  0.17219580622E+04  0.50400001928E-02 0.  1.
    10030    2    1    2    0    0  0.00000000000E+00  0.00000000000E+00 -0.43644520250E+02  0.34002716041E+04  0.33999914908E+04 0.  0.
        4    1    3    3  502    0  0.34921744633E+03  0.11662853880E+04 -0.12084314919E+04  0.17153666414E+04  0.12699999809E+01 0.  1.
       -4    1    3    3    0  502 -0.34921744633E+03 -0.11662853880E+04  0.11647869717E+04  0.16849049627E+04  0.12699999809E+01 0. -1.
</event>
<event>
 5   0  0.4775023E-08  0.3397815E+04  0.7818609E-02  0.8138443E-01
        2   -1    0    0  501    0  0.00000000000E+00  0.00000000000E+00  0.35220859792E+04  0.35220859792E+04  0.25500000920E-02 0. -1.
       -2   -1    0    0    0  501  0.00000000000E+00  0.00000000000E+00 -0.81948240608E+03  0.81948240609E+03  0.25500000920E-02 0.  1.
    10030    2    1    2    0    0  0.00000000000E+00  0.00000000000E+00  0.27026035731E+04  0.43415683853E+04  0.33978154704E+04 0.  0.
        4    1    3    3  502    0  0.14815878204E+04  0.47227589233E+03  0.22255489223E+04  0.27149984542E+04  0.12699999809E+01 0. -1.
       -4    1    3    3    0  502 -0.14815878204E+04 -0.47227589233E+03  0.47705465081E+03  0.16265699311E+04  0.12699999809E+01 0.  1.
</event>
<event>
 5   0  0.1625282E-08  0.3392018E+04  0.7818609E-02  0.8139868E-01
       -1   -1    0    0    0  501  0.00000000000E+00  0.00000000000E+00  0.10395541715E+04  0.10395541715E+04  0.50400001928E-02 0.  1.
        1   -1    0    0  501    0  0.00000000000E+00  0.00000000000E+00 -0.27669999507E+04  0.27669999507E+04  0.50400001928E-02 0. -1.
    10030    2    1    2    0    0  0.00000000000E+00  0.00000000000E+00 -0.17274457792E+04  0.38065541221E+04  0.33920178898E+04 0.  0.
        1    1    3    3  502    0 -0.98418915042E+03 -0.52373457585E+03  0.57056431197E+03  0.12523856530E+04  0.50400001928E-02 0.  1.
       -1    1    3    3    0  502  0.98418915042E+03  0.52373457585E+03 -0.22980100911E+04  0.25541684691E+04  0.50400001928E-02 0. -1.
</event>
<event>
 5   0  0.4973409E-08  0.3400626E+04  0.7818609E-02  0.8137753E-01
       -2   -1    0    0    0  501  0.00000000000E+00  0.00000000000E+00  0.21072250153E+04  0.21072250153E+04  0.25500000920E-02 0. -1.
        2   -1    0    0  501    0  0.00000000000E+00  0.00000000000E+00 -0.13719768706E+04  0.13719768706E+04  0.25500000920E-02 0.  1.
    10030    2    1    2    0    0  0.00000000000E+00  0.00000000000E+00  0.73524814478E+03  0.34792018859E+04  0.34006258143E+04 0.  0.
        1    1    3    3  502    0  0.94494497314E+03 -0.60805782922E+03 -0.93795290764E+03  0.14636977089E+04  0.50400001928E-02 0.  1.
       -1    1    3    3    0  502 -0.94494497314E+03  0.60805782922E+03  0.16732010524E+04  0.20155041771E+04  0.50400001928E-02 0. -1.
</event>
<event>
 5   0  0.1579536E-08  0.3400889E+04  0.7818609E-02  0.8137688E-01
       -1   -1    0    0    0  501  0.00000000000E+00  0.00000000000E+00  0.10549706187E+04  0.10549706187E+04  0.50400001928E-02 0. -1.
        1   -1    0    0  501    0  0.00000000000E+00  0.00000000000E+00 -0.27408455825E+04  0.27408455826E+04  0.50400001928E-02 0.  1.
    10030    2    1    2    0    0  0.00000000000E+00  0.00000000000E+00 -0.16858749639E+04  0.37958162013E+04  0.34008890367E+04 0.  0.
        5    1    3    3  502    0 -0.85145831243E+03 -0.12794740842E+04 -0.30804880421E+02  0.15372072796E+04  0.46999998093E+01 0. -1.
       -5    1    3    3    0  502  0.85145831243E+03  0.12794740842E+04 -0.16550700834E+04  0.22586089216E+04  0.46999998093E+01 0.  1.
</event>
<event>
 5   0  0.4946315E-08  0.3402072E+04  0.7818609E-02  0.8137398E-01
       -2   -1    0    0    0  501  0.00000000000E+00  0.00000000000E+00  0.12785107746E+04  0.12785107746E+04  0.25500000920E-02 0. -1.
        2   -1    0    0  501    0  0.00000000000E+00  0.00000000000E+00 -0.22631979152E+04  0.22631979152E+04  0.25500000920E-02 0.  1.
    10030    2    1    2    0    0  0.00000000000E+00  0.00000000000E+00 -0.98468714063E+03  0.35417086898E+04  0.34020716745E+04 0.  0.
        3    1    3    3  502    0  0.12003149912E+04  0.37174643260E+03  0.70126374343E+03  0.14390004643E+04  0.10100000352E+00 0. -1.
       -3    1    3    3    0  502 -0.12003149912E+04 -0.37174643260E+03 -0.16859508841E+04  0.21027082256E+04  0.10100000352E+00 0.  1.
</event>
<event>
 5   0  0.1625282E-08  0.3400720E+04  0.7818609E-02  0.8137730E-01
       -1   -1    0    0    0  501  0.00000000000E+00  0.00000000000E+00  0.14871969827E+04  0.14871969827E+04  0.50400001928E-02 0.  1.
        1   -1    0    0  501    0  0.00000000000E+00  0.00000000000E+00 -0.19440756752E+04  0.19440756752E+04  0.50400001928E-02 0. -1.
    10030    2    1    2    0    0  0.00000000000E+00  0.00000000000E+00 -0.45687869246E+03  0.34312726579E+04  0.34007196170E+04 0.  0.
        1    1    3    3  502    0 -0.75462823118E+02 -0.59819674890E+03  0.13757154139E+04  0.15020409076E+04  0.50400001928E-02 0.  1.
       -1    1    3    3    0  502  0.75462823118E+02  0.59819674890E+03 -0.18325941063E+04  0.19292317504E+04  0.50400001928E-02 0. -1.
</event>
<event>
 5   0  0.1579536E-08  0.3399532E+04  0.7818609E-02  0.8138021E-01
        1   -1    0    0  501    0  0.00000000000E+00  0.00000000000E+00  0.21015936925E+04  0.21015936925E+04  0.50400001928E-02 0. -1.
       -1   -1    0    0    0  501  0.00000000000E+00  0.00000000000E+00 -0.13747680742E+04  0.13747680742E+04  0.50400001928E-02 0.  1.
    10030    2    1    2    0    0  0.00000000000E+00  0.00000000000E+00  0.72682561836E+03  0.34763617667E+04  0.33995316815E+04 0.  0.
        5    1    3    3  502    0 -0.14873080572E+03  0.16903287394E+04  0.26192406230E+03  0.17169619694E+04  0.46999998093E+01 0. -1.
       -5    1    3    3    0  502  0.14873080572E+03 -0.16903287394E+04  0.46490155606E+03  0.17593997973E+04  0.46999998093E+01 0.  1.
</event>
<event>
 5   0  0.5001197E-08  0.3398406E+04  0.7818609E-02  0.8138298E-01
        2   -1    0    0  501    0  0.00000000000E+00  0.00000000000E+00  0.22653809407E+04  0.22653809407E+04  0.25500000920E-02 0.  1.
       -2   -1    0    0    0  501  0.00000000000E+00  0.00000000000E+00 -0.12745277473E+04  0.12745277473E+04  0.25500000920E-02 0. -1.
    10030    2    1    2    0    0  0.00000000000E+00  0.00000000000E+00  0.99085319332E+03  0.35399086880E+04  0.33984060188E+04 0.  0.
        5    1    3    3  502    0  0.73052422707E+03 -0.57048469193E+03 -0.98800275680E+03  0.13547287431E+04  0.46999998093E+01 0. -1.
       -5    1    3    3    0  502 -0.73052422707E+03  0.57048469193E+03  0.19788559501E+04  0.21851799449E+04  0.46999998093E+01 0.  1.
</event>
<event>
 5   0  0.1625282E-08  0.3398345E+04  0.7818609E-02  0.8138313E-01
       -1   -1    0    0    0  501  0.00000000000E+00  0.00000000000E+00  0.10441179247E+04  0.10441179248E+04  0.50400001928E-02 0.  1.
        1   -1    0    0  501    0  0.00000000000E+00  0.00000000000E+00 -0.27651929030E+04  0.27651929030E+04  0.50400001928E-02 0. -1.
    10030    2    1    2    0    0  0.00000000000E+00  0.00000000000E+00 -0.17210749782E+04  0.38093108277E+04  0.33983451711E+04 0.  0.
        1    1    3    3  502    0  0.77457739875E+03  0.11651350803E+04 -0.19413369025E+04  0.23929686314E+04  0.50400001928E-02 0. -1.
       -1    1    3    3    0  502 -0.77457739875E+03 -0.11651350803E+04  0.22026192423E+03  0.14163421964E+04  0.50400001928E-02 0.  1.
</event>
<event>
 5   0  0.1579536E-08  0.3400180E+04  0.7818609E-02  0.8137862E-01
       -1   -1    0    0    0  501  0.00000000000E+00  0.00000000000E+00  0.11721327927E+04  0.11721327927E+04  0.50400001928E-02 0.  1.
        1   -1    0    0  501    0  0.00000000000E+00  0.00000000000E+00 -0.24658516938E+04  0.24658516938E+04  0.50400001928E-02 0. -1.
    10030    2    1    2    0    0  0.00000000000E+00  0.00000000000E+00 -0.12937189010E+04  0.36379844865E+04  0.34001797789E+04 0.  0.
        5    1    3    3  502    0 -0.77037076433E+03  0.91819226264E+03 -0.19368949012E+04  0.22777471532E+04  0.46999998093E+01 0. -1.
       -5    1    3    3    0  502  0.77037076433E+03 -0.91819226264E+03  0.64317600014E+03  0.13602373333E+04  0.46999998093E+01 0.  1.
</event>
<event>
 5   0  0.1630571E-08  0.3400612E+04  0.7818609E-02  0.8137756E-01
        1   -1    0    0  501    0  0.00000000000E+00  0.00000000000E+00  0.20288378728E+04  0.20288378728E+04  0.50400001928E-02 0. -1.
       -1   -1    0    0    0  501  0.00000000000E+00  0.00000000000E+00 -0.14249737617E+04  0.14249737618E+04  0.50400001928E-02 0.  1.
    10030    2    1    2    0    0  0.00000000000E+00  0.00000000000E+00  0.60386411104E+03  0.34538116345E+04  0.34006121423E+04 0.  0.
        3    1    3    3  502    0  0.11816617875E+04 -0.10276027742E+04 -0.37081136700E+03  0.16092834187E+04  0.10100000352E+00 0.  1.
       -3    1    3    3    0  502 -0.11816617875E+04  0.10276027742E+04  0.97467547803E+03  0.18445282159E+04  0.10100000352E+00 0. -1.
</event>
<event>
 5   0  0.4775023E-08  0.3404831E+04  0.7818609E-02  0.8136722E-01
       -2   -1    0    0    0  501  0.00000000000E+00  0.00000000000E+00  0.23945862847E+04  0.23945862847E+04  0.25500000920E-02 0.  1.
        2   -1    0    0  501    0  0.00000000000E+00  0.00000000000E+00 -0.12103208947E+04  0.12103208947E+04  0.25500000920E-02 0. -1.
    10030    2    1    2    0    0  0.00000000000E+00  0.00000000000E+00  0.11842653900E+04  0.36049071795E+04  0.34048305771E+04 0.  0.
        4    1    3    3  502    0 -0.39666196629E+03 -0.99613228010E+03  0.19921819554E+04  0.22623905037E+04  0.12699999809E+01 0.  1.
       -4    1    3    3    0  502  0.39666196629E+03  0.99613228010E+03 -0.80791656544E+03  0.13425166757E+04  0.12699999809E+01 0. -1.
</event>
<event>
 5   0  0.1595851E-08  0.3401880E+04  0.7818609E-02  0.8137445E-01
       -1   -1    0    0    0  501  0.00000000000E+00  0.00000000000E+00  0.11358608425E+04  0.11358608425E+04  0.50400001928E-02 0.  1.
        1   -1    0    0  501    0  0.00000000000E+00  0.00000000000E+00 -0.25471402063E+04  0.25471402063E+04  0.50400001928E-02 0. -1.
    10030    2    1    2    0    0  0.00000000000E+00  0.00000000000E+00 -0.14112793638E+04  0.36830010488E+04  0.34018799631E+04 0.  0.
        2    1    3    3  502    0 -0.14465025238E+04 -0.83410779809E+03 -0.10566068979E+04  0.19759867173E+04  0.25500000920E-02 0. -1.
       -2    1    3    3    0  502  0.14465025238E+04  0.83410779809E+03 -0.35467246593E+03  0.17070143316E+04  0.25500000920E-02 0.  1.
</event>
<event>
 5   0  0.1573625E-08  0.3400446E+04  0.7818609E-02  0.8137797E-01
        3   -1    0    0  501    0  0.00000000000E+00  0.00000000000E+00  0.10118934514E+04  0.10118934565E+04  0.10100000352E+00 0.  1.
       -3   -1    0    0    0  501  0.00000000000E+00  0.00000000000E+00 -0.28567814519E+04  0.28567814537E+04  0.10100000352E+00 0. -1.
    10030    2    1    2    0    0  0.00000000000E+00  0.00000000000E+00 -0.18448880005E+04  0.38686749101E+04  0.34004461216E+04 0.  0.
        3    1    3    3  502    0 -0.49090674992E+03 -0.13788336802E+04  0.61901113434E+02  0.14649244052E+04  0.10100000352E+00 0.  1.
       -3    1    3    3    0  502  0.49090674992E+03  0.13788336802E+04 -0.19067891139E+04  0.24037505049E+04  0.10100000352E+00 0. -1.
</event>
<event>
 5   0  0.4973409E-08  0.3400392E+04  0.7818609E-02  0.8137810E-01
       -2   -1    0    0    0  501  0.00000000000E+00  0.00000000000E+00  0.26349867477E+04  0.26349867477E+04  0.25500000920E-02 0. -1.
        2   -1    0    0  501    0  0.00000000000E+00  0.00000000000E+00 -0.10970325453E+04  0.10970325453E+04  0.25500000920E-02 0.  1.
    10030    2    1    2    0    0  0.00000000000E+00  0.00000000000E+00  0.15379542024E+04  0.37320192930E+04  0.34003918708E+04 0.  0.
        1    1    3    3  502    0  0.14682607111E+04 -0.80693122567E+02  0.17056534221E+04  0.22520112105E+04  0.50400001928E-02 0. -1.
       -1    1    3    3    0  502 -0.14682607111E+04  0.80693122567E+02 -0.16769921973E+03  0.14800080825E+04  0.50400001928E-02 0.  1.
</event>
<event>
 5   0  0.4775023E-08  0.3397465E+04  0.7818609E-02  0.8138529E-01
        2   -1    0    0  501    0  0.00000000000E+00  0.00000000000E+00  0.18917004911E+04  0.18917004911E+04  0.25500000920E-02 0.  1.
       -2   -1    0    0    0  501  0.00000000000E+00  0.00000000000E+00 -0.15254483038E+04  0.15254483038E+04  0.25500000920E-02 0. -1.
    10030    2    1    2    0    0  0.00000000000E+00  0.00000000000E+00  0.36625218732E+03  0.34171487949E+04  0.33974645284E+04 0.  0.
        4    1    3    3  502    0  0.10588026793E+04  0.74651529547E+03  0.12882832033E+04  0.18270258413E+04  0.12699999809E+01 0. -1.
       -4    1    3    3    0  502 -0.10588026793E+04 -0.74651529547E+03 -0.92203101595E+03  0.15901229535E+04  0.12699999809E+01 0.  1.
</event>
<event>
 5   0  0.4775023E-08  0.3399181E+04  0.7818609E-02  0.8138107E-01
       -2   -1    0    0    0  501  0.00000000000E+00  0.00000000000E+00  0.11365585342E+04  0.11365585342E+04  0.25500000920E-02 0.  1.
        2   -1    0    0  501    0  0.00000000000E+00  0.00000000000E+00 -0.25415395524E+04  0.25415395524E+04  0.25500000920E-02 0. -1.
    10030    2    1    2    0    0  0.00000000000E+00  0.00000000000E+00 -0.14049810182E+04  0.36780980866E+04  0.33991813534E+04 0.  0.
        4    1    3    3  502    0  0.72633060493E+03 -0.10079758633E+04 -0.19574098796E+04  0.23184103473E+04  0.12699999809E+01 0. -1.
       -4    1    3    3    0  502 -0.72633060493E+03  0.10079758633E+04  0.55242886139E+03  0.13596877393E+04  0.12699999809E+01 0.  1.
</event>
<event>
 5   0  0.4764953E-08  0.3399908E+04  0.7818609E-02  0.8137929E-01
        2   -1    0    0  501    0  0.00000000000E+00  0.00000000000E+00  0.11622164250E+04  0.11622164250E+04  0.25500000920E-02 0. -1.
       -2   -1    0    0    0  501  0.00000000000E+00  0.00000000000E+00 -0.24864933743E+04  0.24864933743E+04  0.25500000920E-02 0.  1.
    10030    2    1    2    0    0  0.00000000000E+00  0.00000000000E+00 -0.13242769493E+04  0.36487097994E+04  0.33999079049E+04 0.  0.
        2    1    3    3  502    0  0.15655643041E+04  0.63479758924E+03 -0.86543118749E+03  0.18981387489E+04  0.25500000920E-02 0.  1.
       -2    1    3    3    0  502 -0.15655643041E+04 -0.63479758924E+03 -0.45884576178E+03  0.17505710505E+04  0.25500000920E-02 0. -1.
</event>
<event>
 5   0  0.4946315E-08  0.3402594E+04  0.7818609E-02  0.8137270E-01
       -2   -1    0    0    0  501  0.00000000000E+00  0.00000000000E+00  0.93408010266E+03  0.93408010266E+03  0.25500000920E-02 0.  1.
        2   -1    0    0  501    0  0.00000000000E+00  0.00000000000E+00 -0.30986749784E+04  0.30986749784E+04  0.25500000920E-02 0. -1.
    10030    2    1    2    0    0  0.00000000000E+00  0.00000000000E+00 -0.21645948757E+04  0.40327550810E+04  0.34025935061E+04 0.  0.
        3    1    3    3  502    0 -0.27004905430E+01 -0.15856169498E+04 -0.18131176149E+04  0.24086477326E+04  0.10100000352E+00 0.  1.
       -3    1    3    3    0  502  0.27004905430E+01  0.15856169498E+04 -0.35147726086E+03  0.16241073485E+04  0.10100000352E+00 0. -1.
</event>
<event>
 5   0  0.1630571E-08  0.3395595E+04  0.7818609E-02  0.8138988E-01
        1   -1    0    0  501    0  0.00000000000E+00  0.00000000000E+00  0.10527643434E+04  0.10527643434E+04  0.50400001928E-02 0.  1.
       -1   -1    0    0    0  501  0.00000000000E+00  0.00000000000E+00 -0.27380459230E+04  0.27380459230E+04  0.50400001928E-02 0. -1.
    10030    2    1    2    0    0  0.00000000000E+00  0.00000000000E+00 -0.16852815796E+04  0.37908102664E+04  0.33955954520E+04 0.  0.
        3    1    3    3  502    0  0.30811315488E+03  0.16280407460E+04 -0.12559566939E+04  0.20791531002E+04  0.10100000352E+00 0. -1.
       -3    1    3    3    0  502 -0.30811315488E+03 -0.16280407460E+04 -0.42932488568E+03  0.17116571662E+04  0.10100000352E+00 0.  1.
</event>
<event>
 5   0  0.1645631E-08  0.3398839E+04  0.7818609E-02  0.8138191E-01
       -1   -1    0    0    0  501  0.00000000000E+00  0.00000000000E+00  0.15090739999E+04  0.15090739999E+04  0.50400001928E-02 0. -1.
        1   -1    0    0  501    0  0.00000000000E+00  0.00000000000E+00 -0.19137745162E+04  0.19137745162E+04  0.50400001928E-02 0.  1.
    10030    2    1    2    0    0  0.00000000000E+00  0.00000000000E+00 -0.40470051631E+03  0.34228485161E+04  0.33988394278E+04 0.  0.
        4    1    3    3  502    0 -0.13748336547E+04 -0.94472048501E+03 -0.52923733622E+03  0.17500737538E+04  0.12699999809E+01 0.  1.
       -4    1    3    3    0  502  0.13748336547E+04  0.94472048501E+03  0.12453681992E+03  0.16727747623E+04  0.12699999809E+01 0. -1.
</event>
<event>
 5   0  0.4946315E-08  0.3401155E+04  0.7818609E-02  0.8137623E-01
       -2   -1    0    0    0  501  0.00000000000E+00  0.00000000000E+00  0.11457084263E+04  0.11457084263E+04  0.25500000920E-02 0. -1.
        2   -1    0    0  501    0  0.00000000000E+00  0.00000000000E+00 -0.25241703792E+04  0.25241703792E+04  0.25500000920E-02 0.  1.
    10030    2    1    2    0    0  0.00000000000E+00  0.00000000000E+00 -0.13784619529E+04  0.36698788055E+04  0.34011546703E+04 0.  0.
        3    1    3    3  502    0 -0.29411977096E+03 -0.37061866182E+03  0.10732574749E+04  0.11729220988E+04  0.10100000352E+00 0. -1.
       -3    1    3    3    0  502  0.29411977096E+03  0.37061866182E+03 -0.24517194278E+04  0.24969567067E+04  0.10100000352E+00 0.  1.
</event>
<event>
 5   0  0.4764953E-08  0.3397638E+04  0.7818609E-02  0.8138486E-01
        2   -1    0    0  501    0  0.00000000000E+00  0.00000000000E+00  0.19812876462E+04  0.19812876462E+04  0.25500000920E-02 0.  1.
       -2   -1    0    0    0  501  0.00000000000E+00  0.00000000000E+00 -0.14566209967E+04  0.14566209967E+04  0.25500000920E-02 0. -1.
    10030    2    1    2    0    0  0.00000000000E+00  0.00000000000E+00  0.52466664952E+03  0.34379086429E+04  0.33976375239E+04 0.  0.
        2    1    3    3  502    0  0.59902793772E+03 -0.63454152407E+03  0.17371785594E+04  0.19440336322E+04  0.25500000920E-02 0.  1.
       -2    1    3    3    0  502 -0.59902793772E+03  0.63454152407E+03 -0.12125119099E+04  0.14938750107E+04  0.25500000920E-02 0. -1.
</event>
<event>
 5   0  0.1625282E-08  0.3402033E+04  0.7818609E-02  0.8137408E-01
       -1   -1    0    0    0  501  0.00000000000E+00  0.00000000000E+00  0.22522456893E+04  0.22522456893E+04  0.50400001928E-02 0.  1.
        1   -1    0    0  501    0  0.00000000000E+00  0.00000000000E+00 -0.12846984963E+04  0.12846984964E+04  0.50400001928E-02 0. -1.
    10030    2    1    2    0    0  0.00000000000E+00  0.00000000000E+00  0.96754719291E+03  0.35369441856E+04  0.34020327161E+04 0.  0.
        1    1    3    3  502    0  0.72594480581E+02  0.27140521999E+03  0.22279577859E+04  0.22456016227E+04  0.50400001928E-02 0.  1.
       -1    1    3    3    0  502 -0.72594480581E+02 -0.27140521999E+03 -0.12604105930E+04  0.12913425630E+04  0.50400001928E-02 0. -1.
</event>
<event>
 5   0  0.4973409E-08  0.3397737E+04  0.7818609E-02  0.8138462E-01
        2   -1    0    0  501    0  0.00000000000E+00  0.00000000000E+00  0.16151335148E+04  0.16151335148E+04  0.25500000920E-02 0.  1.
       -2   -1    0    0    0  501  0.00000000000E+00  0.00000000000E+00 -0.17869441553E+04  0.17869441553E+04  0.25500000920E-02 0. -1.
    10030    2    1    2    0    0  0.00000000000E+00  0.00000000000E+00 -0.17181064052E+03  0.34020776701E+04  0.33977365373E+04 0.  0.
        1    1    3    3  502    0  0.52478456606E+03 -0.65004813591E+03 -0.15670491527E+04  0.17758390881E+04  0.50400001928E-02 0. -1.
       -1    1    3    3    0  502 -0.52478456606E+03  0.65004813591E+03  0.13952385122E+04  0.16262385820E+04  0.50400001928E-02 0.  1.
</event>
<event>
 5   0  0.1595851E-08  0.3398840E+04  0.7818609E-02  0.8138191E-01
        1   -1    0    0  501    0  0.00000000000E+00  0.00000000000E+00  0.18171362048E+04  0.18171362048E+04  0.50400001928E-02 0.  1.
       -1   -1    0    0    0  501  0.00000000000E+00  0.00000000000E+00 -0.15893300501E+04  0.15893300501E+04  0.50400001928E-02 0. -1.
    10030    2    1    2    0    0  0.00000000000E+00  0.00000000000E+00  0.22780615466E+03  0.34064662549E+04  0.33988404937E+04 0.  0.
        2    1    3    3  502    0  0.88434078959E+03 -0.15515494101E+03 -0.13322124120E+04  0.16065246959E+04  0.25500000920E-02 0. -1.
       -2    1    3    3    0  502 -0.88434078959E+03  0.15515494101E+03  0.15600185666E+04  0.17999415591E+04  0.25500000920E-02 0.  1.
</event>
<event>
 5   0  0.5001197E-08  0.3395758E+04  0.7818609E-02  0.8138948E-01
        2   -1    0    0  501    0  0.00000000000E+00  0.00000000000E+00  0.21218412963E+04  0.21218412963E+04  0.25500000920E-02 0. -1.
       -2   -1    0    0    0  501  0.00000000000E+00  0.00000000000E+00 -0.13586279388E+04  0.13586279388E+04  0.25500000920E-02 0.  1.
    10030    2    1    2    0    0  0.00000000000E+00  0.00000000000E+00  0.76321335748E+03  0.34804692350E+04  0.33957578634E+04 0.  0.
        5    1    3    3  502    0 -0.12375859954E+04  0.26791608736E+03  0.15409167681E+04  0.19944534846E+04  0.46999998093E+01 0. -1.
       -5    1    3    3    0  502  0.12375859954E+04 -0.26791608736E+03 -0.77770341065E+03  0.14860157505E+04  0.46999998093E+01 0.  1.
</event>
<event>
 5   0  0.1595851E-08  0.3401255E+04  0.7818609E-02  0.8137598E-01
        1   -1    0    0  501    0  0.00000000000E+00  0.00000000000E+00  0.19063478961E+04  0.19063478961E+04  0.50400001928E-02 0. -1.
       -1   -1    0    0    0  501  0.00000000000E+00  0.00000000000E+00 -0.15171075090E+04  0.15171075090E+04  0.50400001928E-02 0.  1.
    10030    2    1    2    0    0  0.00000000000E+00  0.00000000000E+00  0.38924038708E+03  0.34234554051E+04  0.34012554787E+04 0.  0.
        2    1    3    3  502    0  0.18852708148E+03 -0.13470998568E+04 -0.83278416545E+03  0.15949137754E+04  0.25500000920E-02 0.  1.
       -2    1    3    3    0  502 -0.18852708148E+03  0.13470998568E+04  0.12220245525E+04  0.18285416297E+04  0.25500000920E-02 0. -1.
</event>
<event>
 5   0  0.1630571E-08  0.3399272E+04  0.7818609E-02  0.8138085E-01
       -1   -1    0    0    0  501  0.00000000000E+00  0.00000000000E+00  0.11167172217E+04  0.11167172217E+04  0.50400001928E-02 0.  1.
        1   -1    0    0  501    0  0.00000000000E+00  0.00000000000E+00 -0.25868343756E+04  0.25868343756E+04  0.50400001928E-02 0. -1.
    10030    2    1    2    0    0  0.00000000000E+00  0.00000000000E+00 -0.14701171539E+04  0.37035515973E+04  0.33992719790E+04 0.  0.
        3    1    3    3  502    0 -0.62814632812E+03  0.10433871437E+04  0.55661796564E+03  0.13390474641E+04  0.10100000352E+00 0.  1.
       -3    1    3    3    0  502  0.62814632812E+03 -0.10433871437E+04 -0.20267351195E+04  0.23645041332E+04  0.10100000352E+00 0. -1.
</event>
<event>
 5   0  0.1579536E-08  0.3399124E+04  0.7818609E-02  0.8138121E-01
        1   -1    0    0  501    0  0.00000000000E+00  0.00000000000E+00  0.28467645930E+04  0.28467645930E+04  0.50400001928E-02 0.  1.
       -1   -1    0    0    0  501  0.00000000000E+00  0.00000000000E+00 -0.10146644620E+04  0.10146644620E+04  0.50400001928E-02 0. -1.
    10030    2    1    2    0    0  0.00000000000E+00  0.00000000000E+00  0.18321001310E+04  0.38614290550E+04  0.33991239249E+04 0.  0.
        5    1    3    3  502    0 -0.16467591170E+04  0.27043406435E+03  0.12815877942E+04  0.21041481737E+04  0.46999998093E+01 0.  1.
       -5    1    3    3    0  502  0.16467591170E+04 -0.27043406435E+03  0.55051233688E+03  0.17572808813E+04  0.46999998093E+01 0. -1.
</event>
<event>
 5   0  0.4973409E-08  0.3403703E+04  0.7818609E-02  0.8136998E-01
       -2   -1    0    0    0  501  0.00000000000E+00  0.00000000000E+00  0.28756047306E+04  0.28756047306E+04  0.25500000920E-02 0.  1.
        2   -1    0    0  501    0  0.00000000000E+00  0.00000000000E+00 -0.10071964050E+04  0.10071964050E+04  0.25500000920E-02 0. -1.
    10030    2    1    2    0    0  0.00000000000E+00  0.00000000000E+00  0.18684083255E+04  0.38828011356E+04  0.34037031286E+04 0.  0.
        1    1    3    3  502    0 -0.10783744143E+04 -0.99849294024E+03  0.19131440646E+04  0.24124675627E+04  0.50400001928E-02 0.  1.
       -1    1    3    3    0  502  0.10783744143E+04  0.99849294024E+03 -0.44735739080E+02  0.14703335729E+04  0.50400001928E-02 0. -1.
</event>
<event>
 5   0  0.1630571E-08  0.3403814E+04  0.7818609E-02  0.8136971E-01
       -1   -1    0    0    0  501  0.00000000000E+00  0.00000000000E+00  0.17209630240E+04  0.17209630240E+04  0.50400001928E-02 0. -1.
        1   -1    0    0  501    0  0.00000000000E+00  0.00000000000E+00 -0.16830617481E+04  0.16830617481E+04  0.50400001928E-02 0.  1.
    10030    2    1    2    0    0  0.00000000000E+00  0.00000000000E+00  0.37901275867E+02  0.34040247721E+04  0.34038137643E+04 0.  0.
        3    1    3    3  502    0  0.14378071830E+04 -0.67008829645E+03  0.63557559854E+03  0.17088780449E+04  0.10100000352E+00 0. -1.
       -3    1    3    3    0  502 -0.14378071830E+04  0.67008829645E+03 -0.59767432267E+03  0.16951467272E+04  0.10100000352E+00 0.  1.
</event>
<event>
 5   0  0.4764953E-08  0.3395899E+04  0.7818609E-02  0.8138913E-01
        2   -1    0    0  501    0  0.00000000000E+00  0.00000000000E+00  0.19257508870E+04  0.19257508871E+04  0.25500000920E-02 0. -1.
       -2   -1    0    0    0  501  0.00000000000E+00  0.00000000000E+00 -0.14970955816E+04  0.14970955816E+04  0.25500000920E-02 0.  1.
    10030    2    1    2    0    0  0.00000000000E+00  0.00000000000E+00  0.42865530548E+03  0.34228464686E+04  0.33958993767E+04 0.  0.
        2    1    3    3  502    0  0.13156128933E+04 -0.10053904750E+04  0.59332448739E+03  0.17588863634E+04  0.25500000920E-02 0. -1.
       -2    1    3    3    0  502 -0.13156128933E+04  0.10053904750E+04 -0.16466918191E+03  0.16639601052E+04  0.25500000920E-02 0.  1.
</event>
<event>
 5   0  0.1645631E-08  0.3399896E+04  0.7818609E-02  0.8137932E-01
        1   -1    0    0  501    0  0.00000000000E+00  0.00000000000E+00  0.15935310403E+04  0.15935310403E+04  0.50400001928E-02 0.  1.
       -1   -1    0    0    0  501  0.00000000000E+00  0.00000000000E+00 -0.18134716614E+04  0.18134716614E+04  0.50400001928E-02 0. -1.
    10030    2    1    2    0    0  0.00000000000E+00  0.00000000000E+00 -0.21994062112E+03  0.34070027016E+04  0.33998961061E+04 0.  0.
        4    1    3    3  502    0 -0.10411163617E+04 -0.12854860407E+04 -0.50248296939E+03  0.17288401854E+04  0.12699999809E+01 0. -1.
       -4    1    3    3    0  502  0.10411163617E+04  0.12854860407E+04  0.28254234827E+03  0.16781625162E+04  0.12699999809E+01 0.  1.
</event>
<event>
 5   0  0.1579536E-08  0.3401865E+04  0.7818609E-02  0.8137449E-01
       -1   -1    0    0    0  501  0.00000000000E+00  0.00000000000E+00  0.13955276178E+04  0.13955276178E+04  0.50400001928E-02 0. -1.
        1   -1    0    0  501    0  0.00000000000E+00  0.00000000000E+00 -0.20731734138E+04  0.20731734138E+04  0.50400001928E-02 0.  1.
    10030    2    1    2    0    0  0.00000000000E+00  0.00000000000E+00 -0.67764579604E+03  0.34687010316E+04  0.34018646390E+04 0.  0.
        5    1    3    3  502    0 -0.12233684406E+03 -0.13249766321E+04 -0.14191769125E+04  0.19454085890E+04  0.46999998093E+01 0.  1.
       -5    1    3    3    0  502  0.12233684406E+03  0.13249766321E+04  0.74153111649E+03  0.15232924426E+04  0.46999998093E+01 0. -1.
</event>
<event>
 5   0  0.5001197E-08  0.3399781E+04  0.7818609E-02  0.8137960E-01
        2   -1    0    0  501    0  0.00000000000E+00  0.00000000000E+00  0.14211764703E+04  0.14211764703E+04  0.25500000920E-02 0. -1.
       -2   -1    0    0    0  501  0.00000000000E+00  0.00000000000E+00 -0.20332645304E+04  0.20332645304E+04  0.25500000920E-02 0.  1.
    10030    2    1    2    0    0  0.00000000000E+00  0.00000000000E+00 -0.61208806008E+03  0.34544410007E+04  0.33997809979E+04 0.  0.
        5    1    3    3  502    0 -0.12447112018E+04  0.11258569910E+04 -0.31993632683E+02  0.16786618548E+04  0.46999998093E+01 0. -1.
       -5    1    3    3    0  502  0.12447112018E+04 -0.11258569910E+04 -0.58009442740E+03  0.17757791459E+04  0.46999998093E+01 0.  1.
</event>
<event>
 5   0  0.1579536E-08  0.3401330E+04  0.7818609E-02  0.8137580E-01
       -1   -1    0    0    0  501  0.00000000000E+00  0.00000000000E+00  0.22466275311E+04  0.22466275312E+04  0.50400001928E-02 0.  1.
        1   -1    0    0  501    0  0.00000000000E+00  0.00000000000E+00 -0.12873790332E+04  0.12873790332E+04  0.50400001928E-02 0. -1.
    10030    2    1    2    0    0  0.00000000000E+00  0.00000000000E+00  0.95924849792E+03  0.35340065644E+04  0.34013298453E+04 0.  0.
        5    1    3    3  502    0  0.15698555335E+04  0.57225330713E+03  0.15053790199E+03  0.16776781555E+04  0.46999998093E+01 0. -1.
       -5    1    3    3    0  502 -0.15698555335E+04 -0.57225330713E+03  0.80871059593E+03  0.18563284089E+04  0.46999998093E+01 0.  1.
</event>
<event>
 5   0  0.1595851E-08  0.3399326E+04  0.7818609E-02  0.8138072E-01
        1   -1    0    0  501    0  0.00000000000E+00  0.00000000000E+00  0.19898482590E+04  0.19898482590E+04  0.50400001928E-02 0. -1.
       -1   -1    0    0    0  501  0.00000000000E+00  0.00000000000E+00 -0.14517965941E+04  0.14517965941E+04  0.50400001928E-02 0.  1.
    10030    2    1    2    0    0  0.00000000000E+00  0.00000000000E+00  0.53805166484E+03  0.34416448531E+04  0.33993263598E+04 0.  0.
        2    1    3    3  502    0  0.52980664707E+02 -0.10363303867E+04  0.16319144145E+04  0.19338904512E+04  0.25500000920E-02 0. -1.
       -2    1    3    3    0  502 -0.52980664707E+02  0.10363303867E+04 -0.10938627497E+04  0.15077544018E+04  0.25500000920E-02 0.  1.
</event>
<event>
 5   0  0.4973409E-08  0.3399269E+04  0.7818609E-02  0.8138086E-01
       -2   -1    0    0    0  501  0.00000000000E+00  0.00000000000E+00  0.12947417485E+04  0.12947417485E+04  0.25500000920E-02 0. -1.
        2   -1    0    0  501    0  0.00000000000E+00  0.00000000000E+00 -0.22311460503E+04  0.22311460503E+04  0.25500000920E-02 0.  1.
    10030    2    1    2    0    0  0.00000000000E+00  0.00000000000E+00 -0.93640430181E+03  0.35258877989E+04  0.33992692970E+04 0.  0.
        1    1    3    3  502    0 -0.13765691215E+04  0.63802120795E+03  0.32632248372E+03  0.15519342678E+04  0.50400001928E-02 0. -1.
       -1    1    3    3    0  502  0.13765691215E+04 -0.63802120795E+03 -0.12627267855E+04  0.19739535311E+04  0.50400001928E-02 0.  1.
</event>
<event>
 5   0  0.1645631E-08  0.3401109E+04  0.7818609E-02  0.8137634E-01
       -1   -1    0    0    0  501  0.00000000000E+00  0.00000000000E+00  0.15121908664E+04  0.15121908664E+04  0.50400001928E-02 0. -1.
        1   -1    0    0  501    0  0.00000000000E+00  0.00000000000E+00 -0.19123815211E+04  0.19123815211E+04  0.50400001928E-02 0.  1.
    10030    2    1    2    0    0  0.00000000000E+00  0.00000000000E+00 -0.40019065476E+03  0.34245723875E+04  0.34011091539E+04 0.  0.
        4    1    3    3  502    0  0.75991271712E+03 -0.14534477031E+04  0.25234482307E+03  0.16594146817E+04  0.12699999809E+01 0. -1.
       -4    1    3    3    0  502 -0.75991271712E+03  0.14534477031E+04 -0.65253547783E+03  0.17651577057E+04  0.12699999809E+01 0.  1.
</event>
<event>
 5   0  0.4973409E-08  0.3388888E+04  0.7818609E-02  0.8140639E-01
        2   -1    0    0  501    0  0.00000000000E+00  0.00000000000E+00  0.11138208923E+04  0.11138208923E+04  0.25500000920E-02 0.  1.
       -2   -1    0    0    0  501  0.00000000000E+00  0.00000000000E+00 -0.25777394978E+04  0.25777394978E+04  0.25500000920E-02 0. -1.
    10030    2    1    2    0    0  0.00000000000E+00  0.00000000000E+00 -0.14639186055E+04  0.36915603901E+04  0.33888877866E+04 0.  0.
        1    1    3    3  502    0 -0.14757817893E+04 -0.41639552612E+03 -0.15173405506E+04  0.21572295822E+04  0.50400001928E-02 0. -1.
       -1    1    3    3    0  502  0.14757817893E+04  0.41639552612E+03  0.53421945049E+02  0.15343308079E+04  0.50400001928E-02 0.  1.
</event>
<event>
 5   0  0.4973409E-08  0.3400077E+04  0.7818609E-02  0.8137887E-01
       -2   -1    0    0    0  501  0.00000000000E+00  0.00000000000E+00  0.12658642368E+04  0.12658642368E+04  0.25500000920E-02 0.  1.
        2   -1    0    0  501    0  0.00000000000E+00  0.00000000000E+00 -0.22831282809E+04  0.22831282809E+04  0.25500000920E-02 0. -1.
    10030    2    1    2    0    0  0.00000000000E+00  0.00000000000E+00 -0.10172640441E+04  0.35489925177E+04  0.34000767279E+04 0.  0.
        1    1    3    3  502    0 -0.39959545466E+02  0.65631949013E+03  0.11277614099E+04  0.13054492851E+04  0.50400001928E-02 0.  1.
       -1    1    3    3    0  502  0.39959545466E+02 -0.65631949013E+03 -0.21450254540E+04  0.22435432326E+04  0.50400001928E-02 0. -1.
</event>
<event>
 5   0  0.1645631E-08  0.3400080E+04  0.7818609E-02  0.8137887E-01
       -1   -1    0    0    0  501  0.00000000000E+00  0.00000000000E+00  0.12571442990E+04  0.12571442990E+04  0.50400001928E-02 0. -1.
        1   -1    0    0  501    0  0.00000000000E+00  0.00000000000E+00 -0.22989690823E+04  0.22989690823E+04  0.50400001928E-02 0.  1.
    10030    2    1    2    0    0  0.00000000000E+00  0.00000000000E+00 -0.10418247833E+04  0.35561133814E+04  0.34000799258E+04 0.  0.
        4    1    3    3  502    0  0.10952512010E+04 -0.53125259290E+03  0.72027870111E+03  0.14144283407E+04  0.12699999809E+01 0. -1.
       -4    1    3    3    0  502 -0.10952512010E+04  0.53125259290E+03 -0.17621034844E+04  0.21416850407E+04  0.12699999809E+01 0.  1.
</event>
<event>
 5   0  0.1630571E-08  0.3401344E+04  0.7818609E-02  0.8137577E-01
        1   -1    0    0  501    0  0.00000000000E+00  0.00000000000E+00  0.24421747331E+04  0.24421747331E+04  0.50400001928E-02 0.  1.
       -1   -1    0    0    0  501  0.00000000000E+00  0.00000000000E+00 -0.11843069770E+04  0.11843069770E+04  0.50400001928E-02 0. -1.
    10030    2    1    2    0    0  0.00000000000E+00  0.00000000000E+00  0.12578677561E+04  0.36264817101E+04  0.34013436025E+04 0.  0.
        3    1    3    3  502    0  0.11102796070E+04 -0.11886492713E+04  0.99393570654E+02  0.16295665031E+04  0.10100000352E+00 0. -1.
       -3    1    3    3    0  502 -0.11102796070E+04  0.11886492713E+04  0.11584741854E+04  0.19969152071E+04  0.10100000352E+00 0.  1.
</event>
<event>
 5   0  0.4775023E-08  0.3400127E+04  0.7818609E-02  0.8137875E-01
       -2   -1    0    0    0  501  0.00000000000E+00  0.00000000000E+00  0.16387476136E+04  0.16387476136E+04  0.25500000920E-02 0.  1.
        2   -1    0    0  501    0  0.00000000000E+00  0.00000000000E+00 -0.17636739563E+04  0.17636739563E+04  0.25500000920E-02 0. -1.
    10030    2    1    2    0    0  0.00000000000E+00  0.00000000000E+00 -0.12492634269E+03  0.34024215699E+04  0.34001273429E+04 0.  0.
        4    1    3    3  502    0 -0.72737527242E+03  0.71608200776E+03  0.12980006642E+04  0.16512587823E+04  0.12699999809E+01 0.  1.
       -4    1    3    3    0  502  0.72737527242E+03 -0.71608200776E+03 -0.14229270069E+04  0.17511627876E+04  0.12699999809E+01 0. -1.
</event>
<event>
 5   0  0.1645631E-08  0.3397596E+04  0.7818609E-02  0.8138496E-01
       -1   -1    0    0    0  501  0.00000000000E+00  0.00000000000E+00  0.10621614804E+04  0.10621614804E+04  0.50400001928E-02 0. -1.
        1   -1    0    0  501    0  0.00000000000E+00  0.00000000000E+00 -0.27170212554E+04  0.27170212554E+04  0.50400001928E-02 0.  1.
    10030    2    1    2    0    0  0.00000000000E+00  0.00000000000E+00 -0.16548597750E+04  0.37791827358E+04  0.33975963969E+04 0.  0.
        4    1    3    3  502    0  0.35459112256E+03 -0.70270076389E+03 -0.25019619715E+04  0.26228493185E+04  0.12699999809E+01 0.  1.
       -4    1    3    3    0  502 -0.35459112256E+03  0.70270076389E+03  0.84710219652E+03  0.11563334173E+04  0.12699999809E+01 0. -1.
</event>
<event>
 5   0  0.1625282E-08  0.3399783E+04  0.7818609E-02  0.8137960E-01
       -1   -1    0    0    0  501  0.00000000000E+00  0.00000000000E+00  0.25804934510E+04  0.25804934510E+04  0.50400001928E-02 0.  1.
        1   -1    0    0  501    0  0.00000000000E+00  0.00000000000E+00 -0.11197980679E+04  0.11197980680E+04  0.50400001928E-02 0. -1.
    10030    2    1    2    0    0  0.00000000000E+00  0.00000000000E+00  0.14606953830E+04  0.37002915189E+04  0.33997832759E+04 0.  0.
        1    1    3    3  502    0 -0.77000503788E+03  0.15103837511E+04  0.86569702229E+03  0.19035751019E+04  0.50400001928E-02 0.  1.
       -1    1    3    3    0  502  0.77000503788E+03 -0.15103837511E+04  0.59499836073E+03  0.17967164171E+04  0.50400001928E-02 0. -1.
</event>
<event>
 5   0  0.1579536E-08  0.3395707E+04  0.7818609E-02  0.8138961E-01
       -1   -1    0    0    0  501  0.00000000000E+00  0.00000000000E+00  0.15566074236E+04  0.15566074236E+04  0.50400001928E-02 0.  1.
        1   -1    0    0  501    0  0.00000000000E+00  0.00000000000E+00 -0.18519159928E+04  0.18519159928E+04  0.50400001928E-02 0. -1.
    10030    2    1    2    0    0  0.00000000000E+00  0.00000000000E+00 -0.29530856920E+03  0.34085234164E+04  0.33957068085E+04 0.  0.
        5    1    3    3  502    0 -0.45229447118E+03 -0.10350808600E+04 -0.14200036802E+04  0.18144958576E+04  0.46999998093E+01 0. -1.
       -5    1    3    3    0  502  0.45229447118E+03  0.10350808600E+04  0.11246951110E+04  0.15940275588E+04  0.46999998093E+01 0.  1.
</event>
<event>
 5   0  0.4775023E-08  0.3384956E+04  0.7818609E-02  0.8141608E-01
       -2   -1    0    0    0  501  0.00000000000E+00  0.00000000000E+00  0.15486407448E+04  0.15486407448E+04  0.25500000920E-02 0.  1.
        2   -1    0    0  501    0  0.00000000000E+00  0.00000000000E+00 -0.18496749305E+04  0.18496749305E+04  0.25500000920E-02 0. -1.
    10030    2    1    2    0    0  0.00000000000E+00  0.00000000000E+00 -0.30103418564E+03  0.33983156753E+04  0.33849561073E+04 0.  0.
        4    1    3    3  502    0  0.13665028985E+04  0.15352885045E+03 -0.11411124577E+04  0.17869080932E+04  0.12699999809E+01 0. -1.
       -4    1    3    3    0  502 -0.13665028985E+04 -0.15352885045E+03  0.84007827206E+03  0.16114075821E+04  0.12699999809E+01 0.  1.
</event>
<event>
 5   0  0.4764953E-08  0.3398495E+04  0.7818609E-02  0.8138276E-01
       -2   -1    0    0    0  501  0.00000000000E+00  0.00000000000E+00  0.12084477438E+04  0.12084477438E+04  0.25500000920E-02 0. -1.
        2   -1    0    0  501    0  0.00000000000E+00  0.00000000000E+00 -0.23893804373E+04  0.23893804373E+04  0.25500000920E-02 0.  1.
    10030    2    1    2    0    0  0.00000000000E+00  0.00000000000E+00 -0.11809326936E+04  0.35978281811E+04  0.33984946070E+04 0.  0.
        2    1    3    3  502    0 -0.14979197998E+04 -0.66618612695E+03 -0.10637610867E+04  0.19542659317E+04  0.25500000920E-02 0.  1.
       -2    1    3    3    0  502  0.14979197998E+04  0.66618612695E+03 -0.11717160685E+03  0.16435622494E+04  0.25500000920E-02 0. -1.
</event>
<event>
 5   0  0.1579536E-08  0.3423727E+04  0.7818609E-02  0.8132107E-01
        1   -1    0    0  501    0  0.00000000000E+00  0.00000000000E+00  0.22764525236E+04  0.22764525236E+04  0.50400001928E-02 0. -1.
       -1   -1    0    0    0  501  0.00000000000E+00  0.00000000000E+00 -0.12872995840E+04  0.12872995840E+04  0.50400001928E-02 0.  1.
    10030    2    1    2    0    0  0.00000000000E+00  0.00000000000E+00  0.98915293960E+03  0.35637521076E+04  0.34237268505E+04 0.  0.
        5    1    3    3  502    0  0.99302014909E+03  0.13119269949E+04  0.98635318898E+03  0.19183733108E+04  0.46999998093E+01 0. -1.
       -5    1    3    3    0  502 -0.99302014909E+03 -0.13119269949E+04  0.27997506197E+01  0.16453787968E+04  0.46999998093E+01 0.  1.
</event>
<event>
 5   0  0.1625282E-08  0.3401156E+04  0.7818609E-02  0.8137623E-01
        1   -1    0    0  501    0  0.00000000000E+00  0.00000000000E+00  0.10759971014E+04  0.10759971014E+04  0.50400001928E-02 0.  1.
       -1   -1    0    0    0  501  0.00000000000E+00  0.00000000000E+00 -0.26877076969E+04  0.26877076969E+04  0.50400001928E-02 0. -1.
    10030    2    1    2    0    0  0.00000000000E+00  0.00000000000E+00 -0.16117105955E+04  0.37637047984E+04  0.34011560925E+04 0.  0.
        1    1    3    3  502    0  0.12259930539E+03  0.16326680245E+04 -0.13145647355E+04  0.20996942425E+04  0.50400001928E-02 0.  1.
       -1    1    3    3    0  502 -0.12259930539E+03 -0.16326680245E+04 -0.29714585999E+03  0.16640105559E+04  0.50400001928E-02 0. -1.
</event>
<event>
 5   0  0.4946315E-08  0.3396283E+04  0.7818609E-02  0.8138819E-01
       -2   -1    0    0    0  501  0.00000000000E+00  0.00000000000E+00  0.12460006800E+04  0.12460006800E+04  0.25500000920E-02 0.  1.
        2   -1    0    0  501    0  0.00000000000E+00  0.00000000000E+00 -0.23143528266E+04  0.23143528266E+04  0.25500000920E-02 0. -1.
    10030    2    1    2    0    0  0.00000000000E+00  0.00000000000E+00 -0.10683521467E+04  0.35603535066E+04  0.33962833779E+04 0.  0.
        3    1    3    3  502    0  0.11739827719E+04 -0.10464365996E+04 -0.12057649614E+04  0.19816998405E+04  0.10100000352E+00 0. -1.
       -3    1    3    3    0  502 -0.11739827719E+04  0.10464365996E+04  0.13741281471E+03  0.15786536661E+04  0.10100000352E+00 0.  1.
</event>
<event>
 5   0  0.4775023E-08  0.3397028E+04  0.7818609E-02  0.8138636E-01
       -2   -1    0    0    0  501  0.00000000000E+00  0.00000000000E+00  0.15412753674E+04  0.15412753674E+04  0.25500000920E-02 0. -1.
        2   -1    0    0  501    0  0.00000000000E+00  0.00000000000E+00 -0.18717941712E+04  0.18717941712E+04  0.25500000920E-02 0.  1.
    10030    2    1    2    0    0  0.00000000000E+00  0.00000000000E+00 -0.33051880384E+03  0.34130695386E+04  0.33970282595E+04 0.  0.
        4    1    3    3  502    0  0.88747594781E+02  0.10836524411E+04  0.11458047951E+04  0.15795724073E+04  0.12699999809E+01 0. -1.
       -4    1    3    3    0  502 -0.88747594781E+02 -0.10836524411E+04 -0.14763235990E+04  0.18334971313E+04  0.12699999809E+01 0.  1.
</event>
<event>
 5   0  0.4775023E-08  0.3400077E+04  0.7818609E-02  0.8137887E-01
       -2   -1    0    0    0  501  0.00000000000E+00  0.00000000000E+00  0.16127784867E+04  0.16127784867E+04  0.25500000920E-02 0.  1.
        2   -1    0    0  501    0  0.00000000000E+00  0.00000000000E+00 -0.17920199210E+04  0.17920199210E+04  0.25500000920E-02 0. -1.
    10030    2    1    2    0    0  0.00000000000E+00  0.00000000000E+00 -0.17924143424E+03  0.34047984077E+04  0.34000771617E+04 0.  0.
        4    1    3    3  502    0  0.13147124020E+04 -0.10070489146E+04 -0.47422869512E+03  0.17226464189E+04  0.12699999809E+01 0. -1.
       -4    1    3    3    0  502 -0.13147124020E+04  0.10070489146E+04  0.29498726088E+03  0.16821519888E+04  0.12699999809E+01 0.  1.
</event>
<event>
 5   0  0.1630571E-08  0.3399065E+04  0.7818609E-02  0.8138136E-01
       -1   -1    0    0    0  501  0.00000000000E+00  0.00000000000E+00  0.13335959955E+04  0.13335959955E+04  0.50400001928E-02 0. -1.
        1   -1    0    0  501    0  0.00000000000E+00  0.00000000000E+00 -0.21658817935E+04  0.21658817935E+04  0.50400001928E-02 0.  1.
    10030    2    1    2    0    0  0.00000000000E+00  0.00000000000E+00 -0.83228579806E+03  0.34994777890E+04  0.33990653342E+04 0.  0.
        3    1    3    3  502    0  0.58986697761E+03 -0.17021875809E+03 -0.20477282005E+04  0.21377811558E+04  0.10100000352E+00 0.  1.
       -3    1    3    3    0  502 -0.58986697761E+03  0.17021875809E+03  0.12154424024E+04  0.13616966332E+04  0.10100000352E+00 0. -1.
</event>
<event>
 5   0  0.1630571E-08  0.3399588E+04  0.7818609E-02  0.8138007E-01
        1   -1    0    0  501    0  0.00000000000E+00  0.00000000000E+00  0.21790734408E+04  0.21790734408E+04  0.50400001928E-02 0. -1.
       -1   -1    0    0    0  501  0.00000000000E+00  0.00000000000E+00 -0.13259305239E+04  0.13259305239E+04  0.50400001928E-02 0.  1.
    10030    2    1    2    0    0  0.00000000000E+00  0.00000000000E+00  0.85314291685E+03  0.35050039647E+04  0.33995882039E+04 0.  0.
        3    1    3    3  502    0 -0.11252650317E+04 -0.35155982155E+03  0.16890766085E+04  0.20598047236E+04  0.10100000352E+00 0. -1.
       -3    1    3    3    0  502  0.11252650317E+04  0.35155982155E+03 -0.83593369164E+03  0.14451992412E+04  0.10100000352E+00 0.  1.
</event>
<event>
 5   0  0.1625282E-08  0.3399760E+04  0.7818609E-02  0.8137965E-01
        1   -1    0    0  501    0  0.00000000000E+00  0.00000000000E+00  0.24076728536E+04  0.24076728536E+04  0.50400001928E-02 0. -1.
       -1   -1    0    0    0  501  0.00000000000E+00  0.00000000000E+00 -0.12001594574E+04  0.12001594574E+04  0.50400001928E-02 0.  1.
    10030    2    1    2    0    0  0.00000000000E+00  0.00000000000E+00  0.12075133962E+04  0.36078323110E+04  0.33997596065E+04 0.  0.
        1    1    3    3  502    0 -0.74231345436E+03  0.94672117283E+03 -0.67069414988E+03  0.13773673752E+04  0.50400001928E-02 0.  1.
       -1    1    3    3    0  502  0.74231345436E+03 -0.94672117283E+03  0.18782075461E+04  0.22304649358E+04  0.50400001928E-02 0. -1.
</event>
<event>
 5   0  0.1595851E-08  0.3399273E+04  0.7818609E-02  0.8138085E-01
       -1   -1    0    0    0  501  0.00000000000E+00  0.00000000000E+00  0.16967691571E+04  0.16967691571E+04  0.50400001928E-02 0. -1.
        1   -1    0    0  501    0  0.00000000000E+00  0.00000000000E+00 -0.17025087146E+04  0.17025087146E+04  0.50400001928E-02 0.  1.
    10030    2    1    2    0    0  0.00000000000E+00  0.00000000000E+00 -0.57395575192E+01  0.33992778718E+04  0.33992730263E+04 0.  0.
        2    1    3    3  502    0  0.12207097816E+04  0.39385180571E+02  0.11791135952E+04  0.16976431998E+04  0.25500000920E-02 0. -1.
       -2    1    3    3    0  502 -0.12207097816E+04 -0.39385180571E+02 -0.11848531527E+04  0.17016346720E+04  0.25500000920E-02 0.  1.
</event>
<event>
 5   0  0.4946315E-08  0.3400934E+04  0.7818609E-02  0.8137677E-01
        2   -1    0    0  501    0  0.00000000000E+00  0.00000000000E+00  0.15993080675E+04  0.15993080675E+04  0.25500000920E-02 0. -1.
       -2   -1    0    0    0  501  0.00000000000E+00  0.00000000000E+00 -0.18080246654E+04  0.18080246654E+04  0.25500000920E-02 0.  1.
    10030    2    1    2    0    0  0.00000000000E+00  0.00000000000E+00 -0.20871659785E+03  0.34073327329E+04  0.34009342444E+04 0.  0.
        3    1    3    3  502    0 -0.15089052609E+04 -0.77318994666E+03 -0.23487481284E+03  0.17116611720E+04  0.10100000352E+00 0.  1.
       -3    1    3    3    0  502  0.15089052609E+04  0.77318994666E+03  0.26158214987E+02  0.16956715609E+04  0.10100000352E+00 0. -1.
</event>
<event>
 5   0  0.4946315E-08  0.3400105E+04  0.7818609E-02  0.8137880E-01
        2   -1    0    0  501    0  0.00000000000E+00  0.00000000000E+00  0.21992716579E+04  0.21992716579E+04  0.25500000920E-02 0.  1.
       -2   -1    0    0    0  501  0.00000000000E+00  0.00000000000E+00 -0.13141527925E+04  0.13141527925E+04  0.25500000920E-02 0. -1.
    10030    2    1    2    0    0  0.00000000000E+00  0.00000000000E+00  0.88511886538E+03  0.35134244504E+04  0.34001052870E+04 0.  0.
        3    1    3    3  502    0 -0.67515717694E+02  0.27345580725E+03  0.21749926882E+04  0.21931551825E+04  0.10100000352E+00 0.  1.
       -3    1    3    3    0  502  0.67515717694E+02 -0.27345580725E+03 -0.12898738228E+04  0.13202692679E+04  0.10100000352E+00 0. -1.
</event>
<event>
 5   0  0.1630571E-08  0.3400547E+04  0.7818609E-02  0.8137772E-01
        1   -1    0    0  501    0  0.00000000000E+00  0.00000000000E+00  0.14128158499E+04  0.14128158499E+04  0.50400001928E-02 0. -1.
       -1   -1    0    0    0  501  0.00000000000E+00  0.00000000000E+00 -0.20462190168E+04  0.20462190168E+04  0.50400001928E-02 0.  1.
    10030    2    1    2    0    0  0.00000000000E+00  0.00000000000E+00 -0.63340316695E+03  0.34590348667E+04  0.34005474026E+04 0.  0.
        3    1    3    3  502    0  0.77871911758E+03 -0.12186471982E+04 -0.12261860647E+04  0.18960582093E+04  0.10100000352E+00 0.  1.
       -3    1    3    3    0  502 -0.77871911758E+03  0.12186471982E+04  0.59278289770E+03  0.15629766574E+04  0.10100000352E+00 0. -1.
</event>
<event>
 5   0  0.4764953E-08  0.3401216E+04  0.7818609E-02  0.8137608E-01
        2   -1    0    0  501    0  0.00000000000E+00  0.00000000000E+00  0.81147712057E+03  0.81147712057E+03  0.25500000920E-02 0. -1.
       -2   -1    0    0    0  501  0.00000000000E+00  0.00000000000E+00 -0.35639545818E+04  0.35639545818E+04  0.25500000920E-02 0.  1.
    10030    2    1    2    0    0  0.00000000000E+00  0.00000000000E+00 -0.27524774613E+04  0.43754317024E+04  0.34012160190E+04 0.  0.
        2    1    3    3  502    0  0.75150817195E+03 -0.13750106781E+04 -0.52617246581E+03  0.16529598788E+04  0.25500000920E-02 0.  1.
       -2    1    3    3    0  502 -0.75150817195E+03  0.13750106781E+04 -0.22263049954E+04  0.27224718235E+04  0.25500000920E-02 0. -1.
</event>
<event>
 5   0  0.4973409E-08  0.3399624E+04  0.7818609E-02  0.8137999E-01
       -2   -1    0    0    0  501  0.00000000000E+00  0.00000000000E+00  0.15286210437E+04  0.15286210437E+04  0.25500000920E-02 0. -1.
        2   -1    0    0  501    0  0.00000000000E+00  0.00000000000E+00 -0.18901749328E+04  0.18901749328E+04  0.25500000920E-02 0.  1.
    10030    2    1    2    0    0  0.00000000000E+00  0.00000000000E+00 -0.36155388912E+03  0.34187959765E+04  0.33996242019E+04 0.  0.
        1    1    3    3  502    0 -0.12789207207E+04  0.10084364982E+04  0.30856639043E+03  0.16576476097E+04  0.50400001928E-02 0. -1.
       -1    1    3    3    0  502  0.12789207207E+04 -0.10084364982E+04 -0.67012027955E+03  0.17611483668E+04  0.50400001928E-02 0.  1.
</event>
<event>
 5   0  0.4775023E-08  0.3403261E+04  0.7818609E-02  0.8137106E-01
       -2   -1    0    0    0  501  0.00000000000E+00  0.00000000000E+00  0.15939411452E+04  0.15939411452E+04  0.25500000920E-02 0.  1.
        2   -1    0    0  501    0  0.00000000000E+00  0.00000000000E+00 -0.18165953515E+04  0.18165953516E+04  0.25500000920E-02 0. -1.
    10030    2    1    2    0    0  0.00000000000E+00  0.00000000000E+00 -0.22265420636E+03  0.34105364967E+04  0.34032608334E+04 0.  0.
        4    1    3    3  502    0 -0.10789956058E+04  0.10330703264E+04 -0.92797946651E+03  0.17585827589E+04  0.12699999809E+01 0. -1.
       -4    1    3    3    0  502  0.10789956058E+04 -0.10330703264E+04  0.70532526015E+03  0.16519537379E+04  0.12699999809E+01 0.  1.
</event>
<event>
 5   0  0.1579536E-08  0.3398642E+04  0.7818609E-02  0.8138240E-01
        1   -1    0    0  501    0  0.00000000000E+00  0.00000000000E+00  0.25839258497E+04  0.25839258497E+04  0.50400001928E-02 0. -1.
       -1   -1    0    0    0  501  0.00000000000E+00  0.00000000000E+00 -0.11175596527E+04  0.11175596527E+04  0.50400001928E-02 0.  1.
    10030    2    1    2    0    0  0.00000000000E+00  0.00000000000E+00  0.14663661969E+04  0.37014855024E+04  0.33986416553E+04 0.  0.
        5    1    3    3  502    0 -0.20253326262E+02  0.54581085354E+03  0.24857153283E+04  0.25450191489E+04  0.46999998093E+01 0. -1.
       -5    1    3    3    0  502  0.20253326262E+02 -0.54581085354E+03 -0.10193491314E+04  0.11564663535E+04  0.46999998093E+01 0.  1.
</event>
<event>
 5   0  0.4973409E-08  0.3398161E+04  0.7818609E-02  0.8138358E-01
       -2   -1    0    0    0  501  0.00000000000E+00  0.00000000000E+00  0.97845800599E+03  0.97845800599E+03  0.25500000920E-02 0.  1.
        2   -1    0    0  501    0  0.00000000000E+00  0.00000000000E+00 -0.29504321733E+04  0.29504321733E+04  0.25500000920E-02 0. -1.
    10030    2    1    2    0    0  0.00000000000E+00  0.00000000000E+00 -0.19719741673E+04  0.39288901793E+04  0.33981606678E+04 0.  0.
        1    1    3    3  502    0  0.10750322126E+04 -0.39780614972E+03  0.46405523555E+03  0.12366451603E+04  0.50400001928E-02 0.  1.
       -1    1    3    3    0  502 -0.10750322126E+04  0.39780614972E+03 -0.24360294029E+04  0.26922450190E+04  0.50400001928E-02 0. -1.
</event>
<event>
 5   0  0.4946315E-08  0.3399240E+04  0.7818609E-02  0.8138093E-01
       -2   -1    0    0    0  501  0.00000000000E+00  0.00000000000E+00  0.14180902324E+04  0.14180902324E+04  0.25500000920E-02 0.  1.
        2   -1    0    0  501    0  0.00000000000E+00  0.00000000000E+00 -0.20370414073E+04  0.20370414074E+04  0.25500000920E-02 0. -1.
    10030    2    1    2    0    0  0.00000000000E+00  0.00000000000E+00 -0.61895117498E+03  0.34551316397E+04  0.33992402226E+04 0.  0.
        3    1    3    3  502    0  0.15743179929E+03 -0.19843472277E+03 -0.20177481884E+04  0.20335852263E+04  0.10100000352E+00 0. -1.
       -3    1    3    3    0  502 -0.15743179929E+03  0.19843472277E+03  0.13987970134E+04  0.14215464134E+04  0.10100000352E+00 0.  1.
</event>
<event>
 5   0  0.1645631E-08  0.3396028E+04  0.7818609E-02  0.8138882E-01
        1   -1    0    0  501    0  0.00000000000E+00  0.00000000000E+00  0.16442198847E+04  0.16442198847E+04  0.50400001928E-02 0. -1.
       -1   -1    0    0    0  501  0.00000000000E+00  0.00000000000E+00 -0.17535685694E+04  0.17535685694E+04  0.50400001928E-02 0.  1.
    10030    2    1    2    0    0  0.00000000000E+00  0.00000000000E+00 -0.10934868463E+03  0.33977884541E+04  0.33960284516E+04 0.  0.
        4    1    3    3  502    0 -0.13207914428E+04 -0.73485778502E+03 -0.82886131072E+03  0.17238093528E+04  0.12699999809E+01 0.  1.
       -4    1    3    3    0  502  0.13207914428E+04  0.73485778502E+03  0.71951262609E+03  0.16739791013E+04  0.12699999809E+01 0. -1.
</event>
<event>
 5   0  0.5001197E-08  0.3399083E+04  0.7818609E-02  0.8138131E-01
       -2   -1    0    0    0  501  0.00000000000E+00  0.00000000000E+00  0.10756142670E+04  0.10756142670E+04  0.25500000920E-02 0.  1.
        2   -1    0    0  501    0  0.00000000000E+00  0.00000000000E+00 -0.26853884070E+04  0.26853884070E+04  0.25500000920E-02 0. -1.
    10030    2    1    2    0    0  0.00000000000E+00  0.00000000000E+00 -0.16097741399E+04  0.37610026740E+04  0.33990834547E+04 0.  0.
        5    1    3    3  502    0 -0.14299879709E+04  0.83453290082E+03 -0.38050035420E+03  0.16988564886E+04  0.46999998093E+01 0.  1.
       -5    1    3    3    0  502  0.14299879709E+04 -0.83453290082E+03 -0.12292737857E+04  0.20621461854E+04  0.46999998093E+01 0. -1.
</event>
<event>
 5   0  0.4764953E-08  0.3399279E+04  0.7818609E-02  0.8138083E-01
        2   -1    0    0  501    0  0.00000000000E+00  0.00000000000E+00  0.17977994491E+04  0.17977994491E+04  0.25500000920E-02 0.  1.
       -2   -1    0    0    0  501  0.00000000000E+00  0.00000000000E+00 -0.16068392311E+04  0.16068392311E+04  0.25500000920E-02 0. -1.
    10030    2    1    2    0    0  0.00000000000E+00  0.00000000000E+00  0.19096021802E+03  0.34046386803E+04  0.33992791498E+04 0.  0.
        2    1    3    3  502    0  0.13251383465E+04 -0.85558697091E+03 -0.53856932887E+03  0.16667566181E+04  0.25500000920E-02 0. -1.
       -2    1    3    3    0  502 -0.13251383465E+04  0.85558697091E+03  0.72952954689E+03  0.17378820621E+04  0.25500000920E-02 0.  1.
</event>
<event>
 5   0  0.4764953E-08  0.3399922E+04  0.7818609E-02  0.8137926E-01
        2   -1    0    0  501    0  0.00000000000E+00  0.00000000000E+00  0.24026443488E+04  0.24026443488E+04  0.25500000920E-02 0. -1.
       -2   -1    0    0    0  501  0.00000000000E+00  0.00000000000E+00 -0.12027860578E+04  0.12027860578E+04  0.25500000920E-02 0.  1.
    10030    2    1    2    0    0  0.00000000000E+00  0.00000000000E+00  0.11998582909E+04  0.36054304066E+04  0.33999218371E+04 0.  0.
        2    1    3    3  502    0  0.93549962062E+03 -0.59473289853E+03 -0.76677039361E+03  0.13478885701E+04  0.25500000920E-02 0.  1.
       -2    1    3    3    0  502 -0.93549962062E+03  0.59473289853E+03  0.19666286846E+04  0.22575418365E+04  0.25500000920E-02 0. -1.
</event>
<event>
 5   0  0.1630571E-08  0.3399408E+04  0.7818609E-02  0.8138052E-01
        1   -1    0    0  501    0  0.00000000000E+00  0.00000000000E+00  0.21214608653E+04  0.21214608653E+04  0.50400001928E-02 0.  1.
       -1   -1    0    0    0  501  0.00000000000E+00  0.00000000000E+00 -0.13617947220E+04  0.13617947220E+04  0.50400001928E-02 0. -1.
    10030    2    1    2    0    0  0.00000000000E+00  0.00000000000E+00  0.75966614325E+03  0.34832555873E+04  0.33994083070E+04 0.  0.
        3    1    3    3  502    0 -0.91182840586E+03 -0.30667538454E+02 -0.10896321750E+04  0.14211508810E+04  0.10100000352E+00 0. -1.
       -3    1    3    3    0  502  0.91182840586E+03  0.30667538454E+02  0.18492983183E+04  0.20621047063E+04  0.10100000352E+00 0.  1.
</event>
<event>
 5   0  0.1595851E-08  0.3385548E+04  0.7818609E-02  0.8141462E-01
        1   -1    0    0  501    0  0.00000000000E+00  0.00000000000E+00  0.12264212995E+04  0.12264212995E+04  0.50400001928E-02 0. -1.
       -1   -1    0    0    0  501  0.00000000000E+00  0.00000000000E+00 -0.23364602696E+04  0.23364602696E+04  0.50400001928E-02 0.  1.
    10030    2    1    2    0    0  0.00000000000E+00  0.00000000000E+00 -0.11100389701E+04  0.35628815691E+04  0.33855484874E+04 0.  0.
        2    1    3    3  502    0  0.14241009338E+04  0.45962868459E+03 -0.13877719471E+04  0.20408902407E+04  0.25500000920E-02 0. -1.
       -2    1    3    3    0  502 -0.14241009338E+04 -0.45962868459E+03  0.27773297704E+03  0.15219913284E+04  0.25500000920E-02 0.  1.
</event>
<event>
 5   0  0.4973409E-08  0.3398016E+04  0.7818609E-02  0.8138393E-01
        2   -1    0    0  501    0  0.00000000000E+00  0.00000000000E+00  0.21787821404E+04  0.21787821404E+04  0.25500000920E-02 0. -1.
       -2   -1    0    0    0  501  0.00000000000E+00  0.00000000000E+00 -0.13248813908E+04  0.13248813908E+04  0.25500000920E-02 0.  1.
    10030    2    1    2    0    0  0.00000000000E+00  0.00000000000E+00  0.85390074962E+03  0.35036635312E+04  0.33980158401E+04 0.  0.
        1    1    3    3  502    0  0.19592427659E+03 -0.13605082137E+04 -0.60272653486E+03  0.15008824729E+04  0.50400001928E-02 0.  1.
       -1    1    3    3    0  502 -0.19592427659E+03  0.13605082137E+04  0.14566272845E+04  0.20027810583E+04  0.50400001928E-02 0. -1.
</event>
<event>
 5   0  0.1595851E-08  0.3400039E+04  0.7818609E-02  0.8137897E-01
       -1   -1    0    0    0  501  0.00000000000E+00  0.00000000000E+00  0.16963077564E+04  0.16963077564E+04  0.50400001928E-02 0.  1.
        1   -1    0    0  501    0  0.00000000000E+00  0.00000000000E+00 -0.17037394299E+04  0.17037394299E+04  0.50400001928E-02 0. -1.
    10030    2    1    2    0    0  0.00000000000E+00  0.00000000000E+00 -0.74316734573E+01  0.34000471863E+04  0.34000390643E+04 0.  0.
        2    1    3    3  502    0  0.16486506733E+03  0.29384252929E+03 -0.16700158555E+04  0.17036657184E+04  0.25500000920E-02 0. -1.
       -2    1    3    3    0  502 -0.16486506733E+03 -0.29384252929E+03  0.16625841820E+04  0.16963814679E+04  0.25500000920E-02 0.  1.
</event>
<event>
 5   0  0.1579536E-08  0.3399859E+04  0.7818609E-02  0.8137941E-01
        1   -1    0    0  501    0  0.00000000000E+00  0.00000000000E+00  0.13280721933E+04  0.13280721933E+04  0.50400001928E-02 0. -1.
       -1   -1    0    0    0  501  0.00000000000E+00  0.00000000000E+00 -0.21759060146E+04  0.21759060146E+04  0.50400001928E-02 0.  1.
    10030    2    1    2    0    0  0.00000000000E+00  0.00000000000E+00 -0.84783382126E+03  0.35039782079E+04  0.33998589813E+04 0.  0.
        5    1    3    3  502    0  0.25745725658E+03 -0.67972862179E+03 -0.20076696609E+04  0.21351990061E+04  0.46999998093E+01 0.  1.
       -5    1    3    3    0  502 -0.25745725658E+03  0.67972862179E+03  0.11598358397E+04  0.13687792018E+04  0.46999998093E+01 0. -1.
</event>
<event>
 5   0  0.5001197E-08  0.3399328E+04  0.7818609E-02  0.8138071E-01
        2   -1    0    0  501    0  0.00000000000E+00  0.00000000000E+00  0.14177987742E+04  0.14177987742E+04  0.25500000920E-02 0.  1.
       -2   -1    0    0    0  501  0.00000000000E+00  0.00000000000E+00 -0.20375658111E+04  0.20375658111E+04  0.25500000920E-02 0. -1.
    10030    2    1    2    0    0  0.00000000000E+00  0.00000000000E+00 -0.61976703698E+03  0.34553645853E+04  0.33993283509E+04 0.  0.
        5    1    3    3  502    0  0.93622431832E+03  0.83478910981E+03  0.85595259138E+03  0.15185735941E+04  0.46999998093E+01 0.  1.
       -5    1    3    3    0  502 -0.93622431832E+03 -0.83478910981E+03 -0.14757196284E+04  0.19367909912E+04  0.46999998093E+01 0. -1.
</event>
<event>
 5   0  0.1595851E-08  0.3400263E+04  0.7818609E-02  0.8137842E-01
       -1   -1    0    0    0  501  0.00000000000E+00  0.00000000000E+00  0.14577010948E+04  0.14577010948E+04  0.50400001928E-02 0.  1.
        1   -1    0    0  501    0  0.00000000000E+00  0.00000000000E+00 -0.19828800135E+04  0.19828800135E+04  0.50400001928E-02 0. -1.
    10030    2    1    2    0    0  0.00000000000E+00  0.00000000000E+00 -0.52517891867E+03  0.34405811084E+04  0.34002625585E+04 0.  0.
        2    1    3    3  502    0 -0.94931490418E+03  0.59682824602E+03 -0.15556481581E+04  0.19176662729E+04  0.25500000920E-02 0. -1.
       -2    1    3    3    0  502  0.94931490418E+03 -0.59682824602E+03  0.10304692394E+04  0.15229148354E+04  0.25500000920E-02 0.  1.
</event>
<event>
 5   0  0.1630571E-08  0.3400860E+04  0.7818609E-02  0.8137695E-01
       -1   -1    0    0    0  501  0.00000000000E+00  0.00000000000E+00  0.14673925014E+04  0.14673925014E+04  0.50400001928E-02 0. -1.
        1   -1    0    0  501    0  0.00000000000E+00  0.00000000000E+00 -0.19704759311E+04  0.19704759311E+04  0.50400001928E-02 0.  1.
    10030    2    1    2    0    0  0.00000000000E+00  0.00000000000E+00 -0.50308342973E+03  0.34378684325E+04  0.34008596593E+04 0.  0.
        3    1    3    3  502    0  0.15195042625E+04  0.12689073206E+03  0.50928876067E+03  0.16075974352E+04  0.10100000352E+00 0. -1.
       -3    1    3    3    0  502 -0.15195042625E+04 -0.12689073206E+03 -0.10123721904E+04  0.18302709974E+04  0.10100000352E+00 0.  1.
</event>
<event>
 5   0  0.1579536E-08  0.3413544E+04  0.7818609E-02  0.8134590E-01
       -1   -1    0    0    0  501  0.00000000000E+00  0.00000000000E+00  0.13708909213E+04  0.13708909213E+04  0.50400001928E-02 0.  1.
        1   -1    0    0  501    0  0.00000000000E+00  0.00000000000E+00 -0.21249465419E+04  0.21249465419E+04  0.50400001928E-02 0. -1.
    10030    2    1    2    0    0  0.00000000000E+00  0.00000000000E+00 -0.75405562064E+03  0.34958374632E+04  0.34135435680E+04 0.  0.
        5    1    3    3  502    0 -0.10690103473E+02  0.24119586549E+03 -0.21073637947E+04  0.21211539259E+04  0.46999998093E+01 0. -1.
       -5    1    3    3    0  502  0.10690103473E+02 -0.24119586549E+03  0.13533081741E+04  0.13746835374E+04  0.46999998093E+01 0.  1.
</event>
<event>
 5   0  0.4764953E-08  0.3400123E+04  0.7818609E-02  0.8137876E-01
        2   -1    0    0  501    0  0.00000000000E+00  0.00000000000E+00  0.14967879477E+04  0.14967879477E+04  0.25500000920E-02 0.  1.
       -2   -1    0    0    0  501  0.00000000000E+00  0.00000000000E+00 -0.19309412748E+04  0.19309412748E+04  0.25500000920E-02 0. -1.
    10030    2    1    2    0    0  0.00000000000E+00  0.00000000000E+00 -0.43415332708E+03  0.34277292225E+04  0.34001233083E+04 0.  0.
        2    1    3    3  502    0  0.69518893548E+03  0.29860724106E+02  0.13466555632E+04  0.15158035904E+04  0.25500000920E-02 0.  1.
       -2    1    3    3    0  502 -0.69518893548E+03 -0.29860724106E+02 -0.17808088903E+04  0.19119256321E+04  0.25500000920E-02 0. -1.
</event>
<event>
 5   0  0.4973409E-08  0.3400528E+04  0.7818609E-02  0.8137777E-01
        2   -1    0    0  501    0  0.00000000000E+00  0.00000000000E+00  0.11763948519E+04  0.11763948519E+04  0.25500000920E-02 0.  1.
       -2   -1    0    0    0  501  0.00000000000E+00  0.00000000000E+00 -0.24574215973E+04  0.24574215973E+04  0.25500000920E-02 0. -1.
    10030    2    1    2    0    0  0.00000000000E+00  0.00000000000E+00 -0.12810267454E+04  0.36338164492E+04  0.34005282625E+04 0.  0.
        1    1    3    3  502    0 -0.18122226555E+02 -0.13994904924E+04 -0.16721425973E+04  0.21805877462E+04  0.50400001928E-02 0.  1.
       -1    1    3    3    0  502  0.18122226555E+02  0.13994904924E+04  0.39111585191E+03  0.14532287029E+04  0.50400001928E-02 0. -1.
</event>
<event>
 5   0  0.1630571E-08  0.3398786E+04  0.7818609E-02  0.8138204E-01
       -1   -1    0    0    0  501  0.00000000000E+00  0.00000000000E+00  0.13121695037E+04  0.13121695037E+04  0.50400001928E-02 0. -1.
        1   -1    0    0  501    0  0.00000000000E+00  0.00000000000E+00 -0.22008866259E+04  0.22008866259E+04  0.50400001928E-02 0.  1.
    10030    2    1    2    0    0  0.00000000000E+00  0.00000000000E+00 -0.88871712223E+03  0.35130561296E+04  0.33987858489E+04 0.  0.
        3    1    3    3  502    0 -0.20473745140E+03  0.21144709121E+03 -0.21743414041E+04  0.21941713352E+04  0.10100000352E+00 0.  1.
       -3    1    3    3    0  502  0.20473745140E+03 -0.21144709121E+03  0.12856242819E+04  0.13188847944E+04  0.10100000352E+00 0. -1.
</event>
<event>
 5   0  0.4973409E-08  0.3394569E+04  0.7818609E-02  0.8139240E-01
        2   -1    0    0  501    0  0.00000000000E+00  0.00000000000E+00  0.17207142816E+04  0.17207142816E+04  0.25500000920E-02 0.  1.
       -2   -1    0    0    0  501  0.00000000000E+00  0.00000000000E+00 -0.16741739714E+04  0.16741739714E+04  0.25500000920E-02 0. -1.
    10030    2    1    2    0    0  0.00000000000E+00  0.00000000000E+00  0.46540310215E+02  0.33948882530E+04  0.33945692290E+04 0.  0.
        1    1    3    3  502    0 -0.22952037685E+03  0.11480666968E+04  0.12522218064E+04  0.17142917477E+04  0.50400001928E-02 0.  1.
       -1    1    3    3    0  502  0.22952037685E+03 -0.11480666968E+04 -0.12056814962E+04  0.16805965054E+04  0.50400001928E-02 0. -1.
</event>
<event>
 5   0  0.4973409E-08  0.3399988E+04  0.7818609E-02  0.8137909E-01
       -2   -1    0    0    0  501  0.00000000000E+00  0.00000000000E+00  0.22246797259E+04  0.22246797259E+04  0.25500000920E-02 0. -1.
        2   -1    0    0  501    0  0.00000000000E+00  0.00000000000E+00 -0.12990544825E+04  0.12990544825E+04  0.25500000920E-02 0.  1.
    10030    2    1    2    0    0  0.00000000000E+00  0.00000000000E+00  0.92562524340E+03  0.35237342085E+04  0.33999883354E+04 0.  0.
        1    1    3    3  502    0  0.14583784088E+04  0.55884204615E+03  0.11586721801E+04  0.19446576142E+04  0.50400001928E-02 0. -1.
       -1    1    3    3    0  502 -0.14583784088E+04 -0.55884204615E+03 -0.23304693669E+03  0.15790765942E+04  0.50400001928E-02 0.  1.
</event>
<event>
 5   0  0.5001197E-08  0.3400663E+04  0.7818609E-02  0.8137744E-01
        2   -1    0    0  501    0  0.00000000000E+00  0.00000000000E+00  0.26437392487E+04  0.26437392487E+04  0.25500000920E-02 0.  1.
       -2   -1    0    0    0  501  0.00000000000E+00  0.00000000000E+00 -0.10935750280E+04  0.10935750280E+04  0.25500000920E-02 0. -1.
    10030    2    1    2    0    0  0.00000000000E+00  0.00000000000E+00  0.15501642207E+04  0.37373142767E+04  0.34006630077E+04 0.  0.
        5    1    3    3  502    0  0.16188420154E+03 -0.27787145244E+03 -0.10598413656E+04  0.11075670856E+04  0.46999998093E+01 0. -1.
       -5    1    3    3    0  502 -0.16188420154E+03  0.27787145244E+03  0.26100055863E+04  0.26297471911E+04  0.46999998093E+01 0.  1.
</event>
<event>
 5   0  0.4973409E-08  0.3396492E+04  0.7818609E-02  0.8138768E-01
       -2   -1    0    0    0  501  0.00000000000E+00  0.00000000000E+00  0.10080379741E+04  0.10080379741E+04  0.25500000920E-02 0. -1.
        2   -1    0    0  501    0  0.00000000000E+00  0.00000000000E+00 -0.28610424465E+04  0.28610424465E+04  0.25500000920E-02 0.  1.
    10030    2    1    2    0    0  0.00000000000E+00  0.00000000000E+00 -0.18530044724E+04  0.38690804206E+04  0.33964919736E+04 0.  0.
        1    1    3    3  502    0  0.90813390917E+03 -0.11398891237E+04 -0.19195718200E+04  0.24101473780E+04  0.50400001928E-02 0.  1.
       -1    1    3    3    0  502 -0.90813390917E+03  0.11398891237E+04  0.66567347596E+02  0.14589330427E+04  0.50400001928E-02 0. -1.
</event>
<event>
 5   0  0.1625282E-08  0.3401190E+04  0.7818609E-02  0.8137614E-01
       -1   -1    0    0    0  501  0.00000000000E+00  0.00000000000E+00  0.12061479824E+04  0.12061479824E+04  0.50400001928E-02 0. -1.
        1   -1    0    0  501    0  0.00000000000E+00  0.00000000000E+00 -0.23977357511E+04  0.23977357511E+04  0.50400001928E-02 0.  1.
    10030    2    1    2    0    0  0.00000000000E+00  0.00000000000E+00 -0.11915877687E+04  0.36038837334E+04  0.34011904612E+04 0.  0.
        1    1    3    3  502    0  0.52073615791E+02  0.38605711905E+03  0.11582347772E+04  0.12219899999E+04  0.50400001928E-02 0. -1.
       -1    1    3    3    0  502 -0.52073615791E+02 -0.38605711905E+03 -0.23498225459E+04  0.23818937336E+04  0.50400001928E-02 0.  1.
</event>
<event>
 5   0  0.1625282E-08  0.3399904E+04  0.7818609E-02  0.8137930E-01
       -1   -1    0    0    0  501  0.00000000000E+00  0.00000000000E+00  0.17043574393E+04  0.17043574394E+04  0.50400001928E-02 0.  1.
        1   -1    0    0  501    0  0.00000000000E+00  0.00000000000E+00 -0.16955580490E+04  0.16955580490E+04  0.50400001928E-02 0. -1.
    10030    2    1    2    0    0  0.00000000000E+00  0.00000000000E+00  0.87993903312E+01  0.33999154884E+04  0.33999041014E+04 0.  0.
        1    1    3    3  502    0 -0.10784777764E+04 -0.11629390764E+04  0.61619857740E+03  0.17015411533E+04  0.50400001928E-02 0.  1.
       -1    1    3    3    0  502  0.10784777764E+04  0.11629390764E+04 -0.60739918707E+03  0.16983743351E+04  0.50400001928E-02 0. -1.
</event>
<event>
 5   0  0.1625282E-08  0.3401528E+04  0.7818609E-02  0.8137531E-01
        1   -1    0    0  501    0  0.00000000000E+00  0.00000000000E+00  0.18508355048E+04  0.18508355048E+04  0.50400001928E-02 0. -1.
       -1   -1    0    0    0  501  0.00000000000E+00  0.00000000000E+00 -0.15628611604E+04  0.15628611604E+04  0.50400001928E-02 0.  1.
    10030    2    1    2    0    0  0.00000000000E+00  0.00000000000E+00  0.28797434433E+03  0.34136966652E+04  0.34015284357E+04 0.  0.
        1    1    3    3  502    0  0.64391533809E+03 -0.15552484071E+04  0.38811516772E+03  0.17274426051E+04  0.50400001928E-02 0.  1.
       -1    1    3    3    0  502 -0.64391533809E+03  0.15552484071E+04 -0.10014082340E+03  0.16862540601E+04  0.50400001928E-02 0. -1.
</event>
<event>
 5   0  0.5001197E-08  0.3400555E+04  0.7818609E-02  0.8137770E-01
       -2   -1    0    0    0  501  0.00000000000E+00  0.00000000000E+00  0.11745063645E+04  0.11745063645E+04  0.25500000920E-02 0. -1.
        2   -1    0    0  501    0  0.00000000000E+00  0.00000000000E+00 -0.24614121688E+04  0.24614121688E+04  0.25500000920E-02 0.  1.
    10030    2    1    2    0    0  0.00000000000E+00  0.00000000000E+00 -0.12869058043E+04  0.36359185333E+04  0.34005554004E+04 0.  0.
        5    1    3    3  502    0 -0.12687122470E+04  0.86330526260E+03 -0.14262421126E+04  0.20950215741E+04  0.46999998093E+01 0.  1.
       -5    1    3    3    0  502  0.12687122470E+04 -0.86330526260E+03  0.13933630826E+03  0.15408969592E+04  0.46999998093E+01 0. -1.
</event>
<event>
 5   0  0.4973409E-08  0.3399564E+04  0.7818609E-02  0.8138013E-01
       -2   -1    0    0    0  501  0.00000000000E+00  0.00000000000E+00  0.10752417226E+04  0.10752417226E+04  0.25500000920E-02 0. -1.
        2   -1    0    0  501    0  0.00000000000E+00  0.00000000000E+00 -0.26870792226E+04  0.26870792226E+04  0.25500000920E-02 0.  1.
    10030    2    1    2    0    0  0.00000000000E+00  0.00000000000E+00 -0.16118375000E+04  0.37623209451E+04  0.33995644968E+04 0.  0.
        1    1    3    3  502    0  0.78478028742E+03 -0.93013761190E+03  0.50739462363E+03  0.13185163559E+04  0.50400001928E-02 0. -1.
       -1    1    3    3    0  502 -0.78478028742E+03  0.93013761190E+03 -0.21192321236E+04  0.24438045893E+04  0.50400001928E-02 0.  1.
</event>
<event>
 5   0  0.1579536E-08  0.3399965E+04  0.7818609E-02  0.8137915E-01
        1   -1    0    0  501    0  0.00000000000E+00  0.00000000000E+00  0.20431752928E+04  0.20431752928E+04  0.50400001928E-02 0. -1.
       -1   -1    0    0    0  501  0.00000000000E+00  0.00000000000E+00 -0.14144357342E+04  0.14144357342E+04  0.50400001928E-02 0.  1.
    10030    2    1    2    0    0  0.00000000000E+00  0.00000000000E+00  0.62873955866E+03  0.34576110270E+04  0.33999647912E+04 0.  0.
        5    1    3    3  502    0 -0.18037360493E+03  0.77601132746E+03 -0.12128209106E+04  0.14510978151E+04  0.46999998093E+01 0.  1.
       -5    1    3    3    0  502  0.18037360493E+03 -0.77601132746E+03  0.18415604693E+04  0.20065132119E+04  0.46999998093E+01 0. -1.
</event>
<event>
 5   0  0.1579536E-08  0.3401395E+04  0.7818609E-02  0.8137564E-01
        1   -1    0    0  501    0  0.00000000000E+00  0.00000000000E+00  0.17263224495E+04  0.17263224495E+04  0.50400001928E-02 0.  1.
       -1   -1    0    0    0  501  0.00000000000E+00  0.00000000000E+00 -0.16754528237E+04  0.16754528237E+04  0.50400001928E-02 0. -1.
    10030    2    1    2    0    0  0.00000000000E+00  0.00000000000E+00  0.50869625809E+02  0.34017752731E+04  0.34013949036E+04 0.  0.
        5    1    3    3  502    0  0.11698583020E+04 -0.11621163704E+04 -0.39086505691E+03  0.16946623521E+04  0.46999998093E+01 0.  1.
       -5    1    3    3    0  502 -0.11698583020E+04  0.11621163704E+04  0.44173468272E+03  0.17071129210E+04  0.46999998093E+01 0. -1.
</event>
<event>
 5   0  0.4973409E-08  0.3395036E+04  0.7818609E-02  0.8139126E-01
       -2   -1    0    0    0  501  0.00000000000E+00  0.00000000000E+00  0.17444355836E+04  0.17444355836E+04  0.25500000920E-02 0. -1.
        2   -1    0    0  501    0  0.00000000000E+00  0.00000000000E+00 -0.16518620742E+04  0.16518620742E+04  0.25500000920E-02 0.  1.
    10030    2    1    2    0    0  0.00000000000E+00  0.00000000000E+00  0.92573509440E+02  0.33962976578E+04  0.33950357768E+04 0.  0.
        1    1    3    3  502    0  0.51221919886E+03  0.10258195510E+04 -0.12059343589E+04  0.16640168079E+04  0.50400001928E-02 0.  1.
       -1    1    3    3    0  502 -0.51221919886E+03 -0.10258195510E+04  0.12985078683E+04  0.17322808499E+04  0.50400001928E-02 0. -1.
</event>
<event>
 5   0  0.1630571E-08  0.3399603E+04  0.7818609E-02  0.8138004E-01
        1   -1    0    0  501    0  0.00000000000E+00  0.00000000000E+00  0.24931387026E+04  0.24931387026E+04  0.50400001928E-02 0.  1.
       -1   -1    0    0    0  501  0.00000000000E+00  0.00000000000E+00 -0.11589107075E+04  0.11589107075E+04  0.50400001928E-02 0. -1.
    10030    2    1    2    0    0  0.00000000000E+00  0.00000000000E+00  0.13342279951E+04  0.36520494101E+04  0.33996029991E+04 0.  0.
        3    1    3    3  502    0  0.81014102694E+03 -0.45294016874E+03 -0.86265368371E+03  0.12671442965E+04  0.10100000352E+00 0. -1.
       -3    1    3    3    0  502 -0.81014102694E+03  0.45294016874E+03  0.21968816788E+04  0.23849051136E+04  0.10100000352E+00 0.  1.
</event>
<event>
 5   0  0.1595851E-08  0.3400803E+04  0.7818609E-02  0.8137709E-01
       -1   -1    0    0    0  501  0.00000000000E+00  0.00000000000E+00  0.16021613814E+04  0.16021613814E+04  0.50400001928E-02 0. -1.
        1   -1    0    0  501    0  0.00000000000E+00  0.00000000000E+00 -0.18046659272E+04  0.18046659273E+04  0.50400001928E-02 0.  1.
    10030    2    1    2    0    0  0.00000000000E+00  0.00000000000E+00 -0.20250454580E+03  0.34068273087E+04  0.34008034669E+04 0.  0.
        2    1    3    3  502    0 -0.10552373941E+04  0.34607198960E+03  0.11886908925E+04  0.16267383987E+04  0.25500000920E-02 0. -1.
       -2    1    3    3    0  502  0.10552373941E+04 -0.34607198960E+03 -0.13911954383E+04  0.17800889100E+04  0.25500000920E-02 0.  1.
</event>
<event>
 5   0  0.1645631E-08  0.3400468E+04  0.7818609E-02  0.8137791E-01
        1   -1    0    0  501    0  0.00000000000E+00  0.00000000000E+00  0.21033879219E+04  0.21033879219E+04  0.50400001928E-02 0.  1.
       -1   -1    0    0    0  501  0.00000000000E+00  0.00000000000E+00 -0.13743522047E+04  0.13743522047E+04  0.50400001928E-02 0. -1.
    10030    2    1    2    0    0  0.00000000000E+00  0.00000000000E+00  0.72903571721E+03  0.34777401267E+04  0.34004681019E+04 0.  0.
        4    1    3    3  502    0  0.32765915738E+03  0.10475750243E+04 -0.96345688546E+03  0.14604878425E+04  0.12699999809E+01 0. -1.
       -4    1    3    3    0  502 -0.32765915738E+03 -0.10475750243E+04  0.16924926027E+04  0.20172522842E+04  0.12699999809E+01 0.  1.
</event>
<event>
 5   0  0.1645631E-08  0.3398010E+04  0.7818609E-02  0.8138395E-01
        1   -1    0    0  501    0  0.00000000000E+00  0.00000000000E+00  0.25113205840E+04  0.25113205840E+04  0.50400001928E-02 0.  1.
       -1   -1    0    0    0  501  0.00000000000E+00  0.00000000000E+00 -0.11494420017E+04  0.11494420018E+04  0.50400001928E-02 0. -1.
    10030    2    1    2    0    0  0.00000000000E+00  0.00000000000E+00  0.13618785822E+04  0.36607625857E+04  0.33980096286E+04 0.  0.
        4    1    3    3  502    0  0.31316369922E+03  0.16461720935E+04  0.37878513362E+03  0.17179737641E+04  0.12699999809E+01 0. -1.
       -4    1    3    3    0  502 -0.31316369922E+03 -0.16461720935E+04  0.98309344859E+03  0.19427888216E+04  0.12699999809E+01 0.  1.
</event>
<event>
 5   0  0.1625282E-08  0.3400740E+04  0.7818609E-02  0.8137725E-01
        1   -1    0    0  501    0  0.00000000000E+00  0.00000000000E+00  0.20018202456E+04  0.20018202456E+04  0.50400001928E-02 0. -1.
       -1   -1    0    0    0  501  0.00000000000E+00  0.00000000000E+00 -0.14443144917E+04  0.14443144917E+04  0.50400001928E-02 0.  1.
    10030    2    1    2    0    0  0.00000000000E+00  0.00000000000E+00  0.55750575392E+03  0.34461347373E+04  0.34007399139E+04 0.  0.
        1    1    3    3  502    0  0.10514954599E+04 -0.28042327736E+03  0.16027066029E+04  0.19372527898E+04  0.50400001928E-02 0. -1.
       -1    1    3    3    0  502 -0.10514954599E+04  0.28042327736E+03 -0.10452008490E+04  0.15088819475E+04  0.50400001928E-02 0.  1.
</event>
<event>
 5   0  0.1630571E-08  0.3400250E+04  0.7818609E-02  0.8137845E-01
       -1   -1    0    0    0  501  0.00000000000E+00  0.00000000000E+00  0.13997627115E+04  0.13997627115E+04  0.50400001928E-02 0. -1.
        1   -1    0    0  501    0  0.00000000000E+00  0.00000000000E+00 -0.20649391267E+04  0.20649391267E+04  0.50400001928E-02 0.  1.
    10030    2    1    2    0    0  0.00000000000E+00  0.00000000000E+00 -0.66517641516E+03  0.34647018382E+04  0.34002498680E+04 0.  0.
        3    1    3    3  502    0  0.14787215261E+04 -0.72718543448E+03  0.93681964311E+02  0.16505127472E+04  0.10100000352E+00 0. -1.
       -3    1    3    3    0  502 -0.14787215261E+04  0.72718543448E+03 -0.75885837947E+03  0.18141890911E+04  0.10100000352E+00 0.  1.
</event>
<event>
 5   0  0.1645631E-08  0.3399713E+04  0.7818609E-02  0.8137977E-01
        1   -1    0    0  501    0  0.00000000000E+00  0.00000000000E+00  0.11839230899E+04  0.11839230899E+04  0.50400001928E-02 0. -1.
       -1   -1    0    0    0  501  0.00000000000E+00  0.00000000000E+00 -0.24406250558E+04  0.24406250558E+04  0.50400001928E-02 0.  1.
    10030    2    1    2    0    0  0.00000000000E+00  0.00000000000E+00 -0.12567019659E+04  0.36245481457E+04  0.33997131392E+04 0.  0.
        4    1    3    3  502    0  0.10294928969E+04 -0.11571276755E+04  0.11848347320E+03  0.15533319119E+04  0.12699999809E+01 0. -1.
       -4    1    3    3    0  502 -0.10294928969E+04  0.11571276755E+04 -0.13751854391E+04  0.20712162338E+04  0.12699999809E+01 0.  1.
</event>
<event>
 5   0  0.4946315E-08  0.3400622E+04  0.7818609E-02  0.8137754E-01
        2   -1    0    0  501    0  0.00000000000E+00  0.00000000000E+00  0.19498251072E+04  0.19498251072E+04  0.25500000920E-02 0.  1.
       -2   -1    0    0    0  501  0.00000000000E+00  0.00000000000E+00 -0.14827262775E+04  0.14827262775E+04  0.25500000920E-02 0. -1.
    10030    2    1    2    0    0  0.00000000000E+00  0.00000000000E+00  0.46709882978E+03  0.34325513847E+04  0.34006216626E+04 0.  0.
        3    1    3    3  502    0 -0.11717791512E+04 -0.57959220121E+03  0.13309852014E+04  0.18656138709E+04  0.10100000352E+00 0.  1.
       -3    1    3    3    0  502  0.11717791512E+04  0.57959220121E+03 -0.86388637158E+03  0.15669375138E+04  0.10100000352E+00 0. -1.
</event>
<event>
 5   0  0.1595851E-08  0.3400400E+04  0.7818609E-02  0.8137808E-01
        1   -1    0    0  501    0  0.00000000000E+00  0.00000000000E+00  0.11310358123E+04  0.11310358123E+04  0.50400001928E-02 0. -1.
       -1   -1    0    0    0  501  0.00000000000E+00  0.00000000000E+00 -0.25557806260E+04  0.25557806260E+04  0.50400001928E-02 0.  1.
    10030    2    1    2    0    0  0.00000000000E+00  0.00000000000E+00 -0.14247448138E+04  0.36868164383E+04  0.34003996332E+04 0.  0.
        2    1    3    3  502    0  0.14032243737E+02 -0.16692607749E+04 -0.36263294495E+03  0.17082538135E+04  0.25500000920E-02 0. -1.
       -2    1    3    3    0  502 -0.14032243737E+02  0.16692607749E+04 -0.10621118688E+04  0.19785626248E+04  0.25500000920E-02 0.  1.
</event>
<event>
 5   0  0.1630571E-08  0.3400081E+04  0.7818609E-02  0.8137886E-01
       -1   -1    0    0    0  501  0.00000000000E+00  0.00000000000E+00  0.15856626178E+04  0.15856626178E+04  0.50400001928E-02 0.  1.
        1   -1    0    0  501    0  0.00000000000E+00  0.00000000000E+00 -0.18226690306E+04  0.18226690306E+04  0.50400001928E-02 0. -1.
    10030    2    1    2    0    0  0.00000000000E+00  0.00000000000E+00 -0.23700641283E+03  0.34083316484E+04  0.34000812617E+04 0.  0.
        3    1    3    3  502    0 -0.59613593887E+03 -0.17020378013E+03  0.14683068769E+04  0.15938232272E+04  0.10100000352E+00 0.  1.
       -3    1    3    3    0  502  0.59613593887E+03  0.17020378013E+03 -0.17053132898E+04  0.18145084213E+04  0.10100000352E+00 0. -1.
</event>
<event>
 5   0  0.1595851E-08  0.3400120E+04  0.7818609E-02  0.8137877E-01
        1   -1    0    0  501    0  0.00000000000E+00  0.00000000000E+00  0.16978312251E+04  0.16978312251E+04  0.50400001928E-02 0. -1.
       -1   -1    0    0    0  501  0.00000000000E+00  0.00000000000E+00 -0.17022920823E+04  0.17022920823E+04  0.50400001928E-02 0.  1.
    10030    2    1    2    0    0  0.00000000000E+00  0.00000000000E+00 -0.44608571325E+01  0.34001233074E+04  0.34001203812E+04 0.  0.
        2    1    3    3  502    0 -0.32932200613E+03  0.22655179687E+03 -0.16546319085E+04  0.17022295536E+04  0.25500000920E-02 0.  1.
       -2    1    3    3    0  502  0.32932200613E+03 -0.22655179687E+03  0.16501710514E+04  0.16978937538E+04  0.25500000920E-02 0. -1.
</event>
<event>
 5   0  0.4973409E-08  0.3399581E+04  0.7818609E-02  0.8138009E-01
        2   -1    0    0  501    0  0.00000000000E+00  0.00000000000E+00  0.20312083652E+04  0.20312083652E+04  0.25500000920E-02 0. -1.
       -2   -1    0    0    0  501  0.00000000000E+00  0.00000000000E+00 -0.14224477608E+04  0.14224477608E+04  0.25500000920E-02 0.  1.
    10030    2    1    2    0    0  0.00000000000E+00  0.00000000000E+00  0.60876060438E+03  0.34536561259E+04  0.33995810275E+04 0.  0.
        1    1    3    3  502    0 -0.23678959603E+03 -0.11268617060E+04  0.15746294536E+04  0.19507292312E+04  0.50400001928E-02 0. -1.
       -1    1    3    3    0  502  0.23678959603E+03  0.11268617060E+04 -0.96586884918E+03  0.15029268948E+04  0.50400001928E-02 0.  1.
</event>
<event>
 5   0  0.1625282E-08  0.3396704E+04  0.7818609E-02  0.8138716E-01
        1   -1    0    0  501    0  0.00000000000E+00  0.00000000000E+00  0.22287263129E+04  0.22287263129E+04  0.50400001928E-02 0. -1.
       -1   -1    0    0    0  501  0.00000000000E+00  0.00000000000E+00 -0.12941916849E+04  0.12941916849E+04  0.50400001928E-02 0.  1.
    10030    2    1    2    0    0  0.00000000000E+00  0.00000000000E+00  0.93453462801E+03  0.35229179978E+04  0.33967037328E+04 0.  0.
        1    1    3    3  502    0 -0.16482181975E+04 -0.11231658597E+02  0.42602540751E+02  0.16488069485E+04  0.50400001928E-02 0.  1.
       -1    1    3    3    0  502  0.16482181975E+04  0.11231658597E+02  0.89193208726E+03  0.18741110493E+04  0.50400001928E-02 0. -1.
</event>
<event>
 5   0  0.4764953E-08  0.3400008E+04  0.7818609E-02  0.8137904E-01
       -2   -1    0    0    0  501  0.00000000000E+00  0.00000000000E+00  0.11359751648E+04  0.11359751648E+04  0.25500000920E-02 0.  1.
        2   -1    0    0  501    0  0.00000000000E+00  0.00000000000E+00 -0.25440823862E+04  0.25440823862E+04  0.25500000920E-02 0. -1.
    10030    2    1    2    0    0  0.00000000000E+00  0.00000000000E+00 -0.14081072214E+04  0.36800575510E+04  0.34000084753E+04 0.  0.
        2    1    3    3  502    0 -0.11527012211E+04 -0.74061143148E+03 -0.17933199946E+04  0.22568167849E+04  0.25500000920E-02 0. -1.
       -2    1    3    3    0  502  0.11527012211E+04  0.74061143148E+03  0.38521277319E+03  0.14232407661E+04  0.25500000920E-02 0.  1.
</event>
<event>
 5   0  0.1573625E-08  0.3398814E+04  0.7818609E-02  0.8138198E-01
       -3   -1    0    0    0  501  0.00000000000E+00  0.00000000000E+00  0.17071417353E+04  0.17071417383E+04  0.10100000352E+00 0. -1.
        3   -1    0    0  501    0  0.00000000000E+00  0.00000000000E+00 -0.16917069813E+04  0.16917069843E+04  0.10100000352E+00 0.  1.
    10030    2    1    2    0    0  0.00000000000E+00  0.00000000000E+00  0.15434753999E+02  0.33988487226E+04  0.33988136765E+04 0.  0.
        2    1    3    3  502    0 -0.80534732325E+03 -0.14809159626E+04  0.22286420384E+03  0.17004013799E+04  0.25500000920E-02 0. -1.
       -2    1    3    3    0  502  0.80534732325E+03  0.14809159626E+04 -0.20742944984E+03  0.16984473427E+04  0.25500000920E-02 0.  1.
</event>
<event>
 5   0  0.1625282E-08  0.3396985E+04  0.7818609E-02  0.8138647E-01
        1   -1    0    0  501    0  0.00000000000E+00  0.00000000000E+00  0.15809908417E+04  0.15809908417E+04  0.50400001928E-02 0.  1.
       -1   -1    0    0    0  501  0.00000000000E+00  0.00000000000E+00 -0.18247272063E+04  0.18247272063E+04  0.50400001928E-02 0. -1.
    10030    2    1    2    0    0  0.00000000000E+00  0.00000000000E+00 -0.24373636459E+03  0.34057180480E+04  0.33969851349E+04 0.  0.
        1    1    3    3  502    0 -0.12707829120E+04  0.67525120937E+03  0.78268382460E+03  0.16381231255E+04  0.50400001928E-02 0.  1.
       -1    1    3    3    0  502  0.12707829120E+04 -0.67525120937E+03 -0.10264201892E+04  0.17675949225E+04  0.50400001928E-02 0. -1.
</event>
<event>
 5   0  0.1630571E-08  0.3400600E+04  0.7818609E-02  0.8137759E-01
       -1   -1    0    0    0  501  0.00000000000E+00  0.00000000000E+00  0.13775182566E+04  0.13775182566E+04  0.50400001928E-02 0. -1.
        1   -1    0    0  501    0  0.00000000000E+00  0.00000000000E+00 -0.20987160751E+04  0.20987160751E+04  0.50400001928E-02 0.  1.
    10030    2    1    2    0    0  0.00000000000E+00  0.00000000000E+00 -0.72119781852E+03  0.34762343317E+04  0.34005997758E+04 0.  0.
        3    1    3    3  502    0 -0.74842778970E+03 -0.22343361566E+03 -0.19044723182E+04  0.20584172459E+04  0.10100000352E+00 0.  1.
       -3    1    3    3    0  502  0.74842778970E+03  0.22343361566E+03  0.11832744997E+04  0.14178170858E+04  0.10100000352E+00 0. -1.
</event>
<event>
 5   0  0.4946315E-08  0.3380598E+04  0.7818609E-02  0.8142685E-01
       -2   -1    0    0    0  501  0.00000000000E+00  0.00000000000E+00  0.16169329265E+04  0.16169329265E+04  0.25500000920E-02 0.  1.
        2   -1    0    0  501    0  0.00000000000E+00  0.00000000000E+00 -0.17669934603E+04  0.17669934603E+04  0.25500000920E-02 0. -1.
    10030    2    1    2    0    0  0.00000000000E+00  0.00000000000E+00 -0.15006053375E+03  0.33839263868E+04  0.33805975252E+04 0.  0.
        3    1    3    3  502    0  0.82971292430E+03  0.14225598283E+04  0.30614635443E+03  0.16750598803E+04  0.10100000352E+00 0.  1.
       -3    1    3    3    0  502 -0.82971292430E+03 -0.14225598283E+04 -0.45620688819E+03  0.17088665065E+04  0.10100000352E+00 0. -1.
</event>
<event>
 5   0  0.4775023E-08  0.3400465E+04  0.7818609E-02  0.8137792E-01
        2   -1    0    0  501    0  0.00000000000E+00  0.00000000000E+00  0.17449247304E+04  0.17449247304E+04  0.25500000920E-02 0.  1.
       -2   -1    0    0    0  501  0.00000000000E+00  0.00000000000E+00 -0.16566850571E+04  0.16566850571E+04  0.25500000920E-02 0. -1.
    10030    2    1    2    0    0  0.00000000000E+00  0.00000000000E+00  0.88239673314E+02  0.34016097875E+04  0.34004651015E+04 0.  0.
        4    1    3    3  502    0 -0.14133458943E+04  0.37454582657E+03  0.91214341750E+03  0.17233219142E+04  0.12699999809E+01 0.  1.
       -4    1    3    3    0  502  0.14133458943E+04 -0.37454582657E+03 -0.82390374418E+03  0.16782878733E+04  0.12699999809E+01 0. -1.
</event>
<event>
 5   0  0.1625282E-08  0.3399868E+04  0.7818609E-02  0.8137939E-01
       -1   -1    0    0    0  501  0.00000000000E+00  0.00000000000E+00  0.26811153566E+04  0.26811153566E+04  0.50400001928E-02 0.  1.
        1   -1    0    0  501    0  0.00000000000E+00  0.00000000000E+00 -0.10778256088E+04  0.10778256088E+04  0.50400001928E-02 0. -1.
    10030    2    1    2    0    0  0.00000000000E+00  0.00000000000E+00  0.16032897478E+04  0.37589409654E+04  0.33998675218E+04 0.  0.
        1    1    3    3  502    0 -0.13606488296E+04  0.96335136879E+03  0.11689412344E+04  0.20361322911E+04  0.50400001928E-02 0.  1.
       -1    1    3    3    0  502  0.13606488296E+04 -0.96335136879E+03  0.43434851338E+03  0.17228086743E+04  0.50400001928E-02 0. -1.
</event>
<event>
 5   0  0.1579536E-08  0.3391851E+04  0.7818609E-02  0.8139909E-01
       -1   -1    0    0    0  501  0.00000000000E+00  0.00000000000E+00  0.13532184675E+04  0.13532184675E+04  0.50400001928E-02 0.  1.
        1   -1    0    0  501    0  0.00000000000E+00  0.00000000000E+00 -0.21254235990E+04  0.21254235990E+04  0.50400001928E-02 0. -1.
    10030    2    1    2    0    0  0.00000000000E+00  0.00000000000E+00 -0.77220513148E+03  0.34786420665E+04  0.33918505069E+04 0.  0.
        5    1    3    3  502    0 -0.70927962735E+03  0.22856243868E+03  0.11763036489E+04  0.13924908411E+04  0.46999998093E+01 0.  1.
       -5    1    3    3    0  502  0.70927962735E+03 -0.22856243868E+03 -0.19485087803E+04  0.20861512254E+04  0.46999998093E+01 0. -1.
</event>
<event>
 5   0  0.4946315E-08  0.3402245E+04  0.7818609E-02  0.8137355E-01
       -2   -1    0    0    0  501  0.00000000000E+00  0.00000000000E+00  0.13863949554E+04  0.13863949554E+04  0.25500000920E-02 0. -1.
        2   -1    0    0  501    0  0.00000000000E+00  0.00000000000E+00 -0.20872971574E+04  0.20872971574E+04  0.25500000920E-02 0.  1.
    10030    2    1    2    0    0  0.00000000000E+00  0.00000000000E+00 -0.70090220194E+03  0.34736921128E+04  0.34022452877E+04 0.  0.
        3    1    3    3  502    0 -0.10114421502E+04  0.11709323350E+04  0.37130302764E+03  0.15912145377E+04  0.10100000352E+00 0. -1.
       -3    1    3    3    0  502  0.10114421502E+04 -0.11709323350E+04 -0.10722052296E+04  0.18824775751E+04  0.10100000352E+00 0.  1.
</event>
<event>
 5   0  0.1645631E-08  0.3399443E+04  0.7818609E-02  0.8138043E-01
        1   -1    0    0  501    0  0.00000000000E+00  0.00000000000E+00  0.22191636088E+04  0.22191636088E+04  0.50400001928E-02 0. -1.
       -1   -1    0    0    0  501  0.00000000000E+00  0.00000000000E+00 -0.13018658364E+04  0.13018658364E+04  0.50400001928E-02 0.  1.
    10030    2    1    2    0    0  0.00000000000E+00  0.00000000000E+00  0.91729777242E+03  0.35210294452E+04  0.33994430648E+04 0.  0.
        4    1    3    3  502    0 -0.81726765389E+02 -0.16957969724E+04  0.54308158059E+03  0.17825111085E+04  0.12699999809E+01 0.  1.
       -4    1    3    3    0  502  0.81726765389E+02  0.16957969724E+04  0.37421619183E+03  0.17385183367E+04  0.12699999809E+01 0. -1.
</event>
<event>
 5   0  0.4946315E-08  0.3403037E+04  0.7818609E-02  0.8137161E-01
       -2   -1    0    0    0  501  0.00000000000E+00  0.00000000000E+00  0.15532823765E+04  0.15532823765E+04  0.25500000920E-02 0.  1.
        2   -1    0    0  501    0  0.00000000000E+00  0.00000000000E+00 -0.18639019473E+04  0.18639019473E+04  0.25500000920E-02 0. -1.
    10030    2    1    2    0    0  0.00000000000E+00  0.00000000000E+00 -0.31061957079E+03  0.34171843237E+04  0.34030374938E+04 0.  0.
        3    1    3    3  502    0 -0.40167380075E+03  0.16499532171E+04 -0.47726287150E+02  0.16988129001E+04  0.10100000352E+00 0.  1.
       -3    1    3    3    0  502  0.40167380075E+03 -0.16499532171E+04 -0.26289328364E+03  0.17183714236E+04  0.10100000352E+00 0. -1.
</event>
<event>
 5   0  0.1579536E-08  0.3399864E+04  0.7818609E-02  0.8137940E-01
       -1   -1    0    0    0  501  0.00000000000E+00  0.00000000000E+00  0.13409875784E+04  0.13409875784E+04  0.50400001928E-02 0.  1.
        1   -1    0    0  501    0  0.00000000000E+00  0.00000000000E+00 -0.21549556876E+04  0.21549556876E+04  0.50400001928E-02 0. -1.
    10030    2    1    2    0    0  0.00000000000E+00  0.00000000000E+00 -0.81396810924E+03  0.34959432660E+04  0.33998640026E+04 0.  0.
        5    1    3    3  502    0 -0.15950411263E+04 -0.12216323234E+03  0.18430255106E+03  0.16103010807E+04  0.46999998093E+01 0.  1.
       -5    1    3    3    0  502  0.15950411263E+04  0.12216323234E+03 -0.99827066029E+03  0.18856421854E+04  0.46999998093E+01 0. -1.
</event>
<event>
 5   0  0.1595851E-08  0.3406766E+04  0.7818609E-02  0.8136248E-01
       -1   -1    0    0    0  501  0.00000000000E+00  0.00000000000E+00  0.14631889615E+04  0.14631889615E+04  0.50400001928E-02 0. -1.
        1   -1    0    0  501    0  0.00000000000E+00  0.00000000000E+00 -0.19830072371E+04  0.19830072371E+04  0.50400001928E-02 0.  1.
    10030    2    1    2    0    0  0.00000000000E+00  0.00000000000E+00 -0.51981827560E+03  0.34461961985E+04  0.34067663846E+04 0.  0.
        2    1    3    3  502    0  0.14823227154E+04 -0.23234078349E+03 -0.10756238643E+04  0.18461390981E+04  0.25500000920E-02 0.  1.
       -2    1    3    3    0  502 -0.14823227154E+04  0.23234078349E+03  0.55580558866E+03  0.16000571004E+04  0.25500000920E-02 0. -1.
</event>
<event>
 5   0  0.5001197E-08  0.3394726E+04  0.7818609E-02  0.8139202E-01
       -2   -1    0    0    0  501  0.00000000000E+00  0.00000000000E+00  0.13169817448E+04  0.13169817448E+04  0.25500000920E-02 0. -1.
        2   -1    0    0  501    0  0.00000000000E+00  0.00000000000E+00 -0.21876093202E+04  0.21876093202E+04  0.25500000920E-02 0.  1.
    10030    2    1    2    0    0  0.00000000000E+00  0.00000000000E+00 -0.87062757538E+03  0.35045910650E+04  0.33947262273E+04 0.  0.
        5    1    3    3  502    0 -0.14276240115E+04  0.84365332204E+03 -0.61435432654E+02  0.16594148512E+04  0.46999998093E+01 0. -1.
       -5    1    3    3    0  502  0.14276240115E+04 -0.84365332204E+03 -0.80919214272E+03  0.18451762138E+04  0.46999998093E+01 0.  1.
</event>
<event>
 5   0  0.1625282E-08  0.3399056E+04  0.7818609E-02  0.8138138E-01
        1   -1    0    0  501    0  0.00000000000E+00  0.00000000000E+00  0.23762562831E+04  0.23762562831E+04  0.50400001928E-02 0.  1.
       -1   -1    0    0    0  501  0.00000000000E+00  0.00000000000E+00 -0.12155235596E+04  0.12155235597E+04  0.50400001928E-02 0. -1.
    10030    2    1    2    0    0  0.00000000000E+00  0.00000000000E+00  0.11607327235E+04  0.35917798428E+04  0.33990560430E+04 0.  0.
        1    1    3    3  502    0  0.38972552605E+03 -0.13131860786E+04 -0.48268136120E+03  0.14523515274E+04  0.50400001928E-02 0. -1.
       -1    1    3    3    0  502 -0.38972552605E+03  0.13131860786E+04  0.16434140847E+04  0.21394283153E+04  0.50400001928E-02 0.  1.
</event>
<event>
 5   0  0.1625282E-08  0.3389235E+04  0.7818609E-02  0.8140553E-01
        1   -1    0    0  501    0  0.00000000000E+00  0.00000000000E+00  0.15297534614E+04  0.15297534615E+04  0.50400001928E-02 0. -1.
       -1   -1    0    0    0  501  0.00000000000E+00  0.00000000000E+00 -0.18772497106E+04  0.18772497106E+04  0.50400001928E-02 0.  1.
    10030    2    1    2    0    0  0.00000000000E+00  0.00000000000E+00 -0.34749624915E+03  0.34070031721E+04  0.33892354553E+04 0.  0.
        1    1    3    3  502    0  0.60021122984E+03  0.10283398361E+03  0.14159660180E+04  0.15413591770E+04  0.50400001928E-02 0. -1.
       -1    1    3    3    0  502 -0.60021122984E+03 -0.10283398361E+03 -0.17634622671E+04  0.18656439950E+04  0.50400001928E-02 0.  1.
</event>
<event>
 5   0  0.4946315E-08  0.3396082E+04  0.7818609E-02  0.8138869E-01
       -2   -1    0    0    0  501  0.00000000000E+00  0.00000000000E+00  0.14299842946E+04  0.14299842946E+04  0.25500000920E-02 0. -1.
        2   -1    0    0  501    0  0.00000000000E+00  0.00000000000E+00 -0.20163457792E+04  0.20163457792E+04  0.25500000920E-02 0.  1.
    10030    2    1    2    0    0  0.00000000000E+00  0.00000000000E+00 -0.58636148457E+03  0.34463300738E+04  0.33960817403E+04 0.  0.
        3    1    3    3  502    0 -0.23074673407E+02 -0.16807843185E+04 -0.53710024962E+03  0.17646657061E+04  0.10100000352E+00 0. -1.
       -3    1    3    3    0  502  0.23074673407E+02  0.16807843185E+04 -0.49261234948E+02  0.16816643677E+04  0.10100000352E+00 0.  1.
</event>
<event>
 5   0  0.1645631E-08  0.3406903E+04  0.7818609E-02  0.8136214E-01
        1   -1    0    0  501    0  0.00000000000E+00  0.00000000000E+00  0.15366575138E+04  0.15366575138E+04  0.50400001928E-02 0.  1.
       -1   -1    0    0    0  501  0.00000000000E+00  0.00000000000E+00 -0.18883501376E+04  0.18883501376E+04  0.50400001928E-02 0. -1.
    10030    2    1    2    0    0  0.00000000000E+00  0.00000000000E+00 -0.35169262378E+03  0.34250076514E+04  0.34069032434E+04 0.  0.
        4    1    3    3  502    0  0.12360911974E+03  0.14580803224E+04 -0.10525287868E+04  0.18025248683E+04  0.12699999809E+01 0. -1.
       -4    1    3    3    0  502 -0.12360911974E+03 -0.14580803224E+04  0.70083616302E+03  0.16224827830E+04  0.12699999809E+01 0.  1.
</event>
<event>
 5   0  0.1625282E-08  0.3399459E+04  0.7818609E-02  0.8138039E-01
        1   -1    0    0  501    0  0.00000000000E+00  0.00000000000E+00  0.19185136684E+04  0.19185136685E+04  0.50400001928E-02 0. -1.
       -1   -1    0    0    0  501  0.00000000000E+00  0.00000000000E+00 -0.15058951125E+04  0.15058951125E+04  0.50400001928E-02 0.  1.
    10030    2    1    2    0    0  0.00000000000E+00  0.00000000000E+00  0.41261855594E+03  0.34244087810E+04  0.33994589903E+04 0.  0.
        1    1    3    3  502    0 -0.94189822325E+03 -0.11264782284E+04  0.10687205421E+04  0.18161192305E+04  0.50400001928E-02 0. -1.
       -1    1    3    3    0  502  0.94189822325E+03  0.11264782284E+04 -0.65610198620E+03  0.16082895505E+04  0.50400001928E-02 0.  1.
</event>
<event>
 5   0  0.5001197E-08  0.3402791E+04  0.7818609E-02  0.8137222E-01
       -2   -1    0    0    0  501  0.00000000000E+00  0.00000000000E+00  0.13822968818E+04  0.13822968818E+04  0.25500000920E-02 0.  1.
        2   -1    0    0  501    0  0.00000000000E+00  0.00000000000E+00 -0.20941574488E+04  0.20941574488E+04  0.25500000920E-02 0. -1.
    10030    2    1    2    0    0  0.00000000000E+00  0.00000000000E+00 -0.71186056693E+03  0.34764543306E+04  0.34027913903E+04 0.  0.
        5    1    3    3  502    0 -0.17524683899E+03 -0.10908062800E+04  0.96597120214E+03  0.14675463361E+04  0.46999998093E+01 0.  1.
       -5    1    3    3    0  502  0.17524683899E+03  0.10908062800E+04 -0.16778317691E+04  0.20089079945E+04  0.46999998093E+01 0. -1.
</event>
<event>
 5   0  0.1579536E-08  0.3400283E+04  0.7818609E-02  0.8137837E-01
       -1   -1    0    0    0  501  0.00000000000E+00  0.00000000000E+00  0.13899440882E+04  0.13899440882E+04  0.50400001928E-02 0. -1.
        1   -1    0    0  501    0  0.00000000000E+00  0.00000000000E+00 -0.20795662992E+04  0.20795662992E+04  0.50400001928E-02 0.  1.
    10030    2    1    2    0    0  0.00000000000E+00  0.00000000000E+00 -0.68962221093E+03  0.34695103874E+04  0.34002828610E+04 0.  0.
        5    1    3    3  502    0  0.49080730441E+03 -0.53195896384E+03 -0.19145027636E+04  0.20467572087E+04  0.46999998093E+01 0.  1.
       -5    1    3    3    0  502 -0.49080730441E+03  0.53195896384E+03  0.12248805527E+04  0.14227531787E+04  0.46999998093E+01 0. -1.
</event>
<event>
 5   0  0.4946315E-08  0.3395262E+04  0.7818609E-02  0.8139070E-01
        2   -1    0    0  501    0  0.00000000000E+00  0.00000000000E+00  0.19795267485E+04  0.19795267485E+04  0.25500000920E-02 0. -1.
       -2   -1    0    0    0  501  0.00000000000E+00  0.00000000000E+00 -0.14558790305E+04  0.14558790305E+04  0.25500000920E-02 0.  1.
    10030    2    1    2    0    0  0.00000000000E+00  0.00000000000E+00  0.52364771797E+03  0.34354057790E+04  0.33952622776E+04 0.  0.
        3    1    3    3  502    0 -0.97392929469E+03  0.13751814843E+04  0.53749354029E+02  0.16859867702E+04  0.10100000352E+00 0. -1.
       -3    1    3    3    0  502  0.97392929469E+03 -0.13751814843E+04  0.46989836394E+03  0.17494190089E+04  0.10100000352E+00 0.  1.
</event>
<event>
 5   0  0.1595851E-08  0.3400830E+04  0.7818609E-02  0.8137703E-01
        1   -1    0    0  501    0  0.00000000000E+00  0.00000000000E+00  0.19294773219E+04  0.19294773220E+04  0.50400001928E-02 0.  1.
       -1   -1    0    0    0  501  0.00000000000E+00  0.00000000000E+00 -0.14985465163E+04  0.14985465163E+04  0.50400001928E-02 0. -1.
    10030    2    1    2    0    0  0.00000000000E+00  0.00000000000E+00  0.43093080561E+03  0.34280238383E+04  0.34008302040E+04 0.  0.
        2    1    3    3  502    0  0.43158495332E+03 -0.15699558842E+04 -0.27874523204E+03  0.16518855755E+04  0.25500000920E-02 0. -1.
       -2    1    3    3    0  502 -0.43158495332E+03  0.15699558842E+04  0.70967603766E+03  0.17761382628E+04  0.25500000920E-02 0.  1.
</event>
<event>
 5   0  0.1645631E-08  0.3406344E+04  0.7818609E-02  0.8136351E-01
        1   -1    0    0  501    0  0.00000000000E+00  0.00000000000E+00  0.24813096127E+04  0.24813096127E+04  0.50400001928E-02 0.  1.
       -1   -1    0    0    0  501  0.00000000000E+00  0.00000000000E+00 -0.11690580647E+04  0.11690580647E+04  0.50400001928E-02 0. -1.
    10030    2    1    2    0    0  0.00000000000E+00  0.00000000000E+00  0.13122515480E+04  0.36503676774E+04  0.34063440893E+04 0.  0.
        4    1    3    3  502    0 -0.36326905222E+03 -0.12257676694E+04 -0.54979916419E+03  0.13916722019E+04  0.12699999809E+01 0. -1.
       -4    1    3    3    0  502  0.36326905222E+03  0.12257676694E+04  0.18620507122E+04  0.22586954755E+04  0.12699999809E+01 0.  1.
</event>
<event>
 5   0  0.1625282E-08  0.3398970E+04  0.7818609E-02  0.8138159E-01
        1   -1    0    0  501    0  0.00000000000E+00  0.00000000000E+00  0.21011883745E+04  0.21011883745E+04  0.50400001928E-02 0. -1.
       -1   -1    0    0    0  501  0.00000000000E+00  0.00000000000E+00 -0.13745792731E+04  0.13745792731E+04  0.50400001928E-02 0.  1.
    10030    2    1    2    0    0  0.00000000000E+00  0.00000000000E+00  0.72660910139E+03  0.34757676476E+04  0.33989704256E+04 0.  0.
        1    1    3    3  502    0  0.14762870101E+04 -0.59481667493E+03  0.97260236928E+03  0.18652575108E+04  0.50400001928E-02 0. -1.
       -1    1    3    3    0  502 -0.14762870101E+04  0.59481667493E+03 -0.24599326789E+03  0.16105101368E+04  0.50400001928E-02 0.  1.
</event>
<event>
 5   0  0.1645631E-08  0.3396527E+04  0.7818609E-02  0.8138759E-01
       -1   -1    0    0    0  501  0.00000000000E+00  0.00000000000E+00  0.18666410865E+04  0.18666410865E+04  0.50400001928E-02 0.  1.
        1   -1    0    0  501    0  0.00000000000E+00  0.00000000000E+00 -0.15450743235E+04  0.15450743235E+04  0.50400001928E-02 0. -1.
    10030    2    1    2    0    0  0.00000000000E+00  0.00000000000E+00  0.32156676301E+03  0.34117154100E+04  0.33965271758E+04 0.  0.
        4    1    3    3  502    0 -0.10324227719E+04  0.60323910925E+03  0.13721210229E+04  0.18200307462E+04  0.12699999809E+01 0.  1.
       -4    1    3    3    0  502  0.10324227719E+04 -0.60323910925E+03 -0.10505542599E+04  0.15916846637E+04  0.12699999809E+01 0. -1.
</event>
<event>
 5   0  0.4764953E-08  0.3400261E+04  0.7818609E-02  0.8137842E-01
        2   -1    0    0  501    0  0.00000000000E+00  0.00000000000E+00  0.18518742516E+04  0.18518742516E+04  0.25500000920E-02 0. -1.
       -2   -1    0    0    0  501  0.00000000000E+00  0.00000000000E+00 -0.15608210399E+04  0.15608210399E+04  0.25500000920E-02 0.  1.
    10030    2    1    2    0    0  0.00000000000E+00  0.00000000000E+00  0.29105321175E+03  0.34126952915E+04  0.34002613400E+04 0.  0.
        2    1    3    3  502    0  0.30935214288E+03  0.16453338092E+04  0.44261952399E+03  0.17316853453E+04  0.25500000920E-02 0.  1.
       -2    1    3    3    0  502 -0.30935214288E+03 -0.16453338092E+04 -0.15156631224E+03  0.16810099462E+04  0.25500000920E-02 0. -1.
</event>
<event>
 5   0  0.4973409E-08  0.3397225E+04  0.7818609E-02  0.8138588E-01
        2   -1    0    0  501    0  0.00000000000E+00  0.00000000000E+00  0.11141257453E+04  0.11141257453E+04  0.25500000920E-02 0. -1.
       -2   -1    0    0    0  501  0.00000000000E+00  0.00000000000E+00 -0.25897297925E+04  0.25897297925E+04  0.25500000920E-02 0.  1.
    10030    2    1    2    0    0  0.00000000000E+00  0.00000000000E+00 -0.14756040472E+04  0.37038555378E+04  0.33972251237E+04 0.  0.
        1    1    3    3  502    0 -0.37033937449E+03  0.16369610313E+04 -0.10231333956E+04  0.19656028632E+04  0.50400001928E-02 0. -1.
       -1    1    3    3    0  502  0.37033937449E+03 -0.16369610313E+04 -0.45247065157E+03  0.17382526747E+04  0.50400001928E-02 0.  1.
</event>
<event>
 5   0  0.4946315E-08  0.3399590E+04  0.7818609E-02  0.8138007E-01
        2   -1    0    0  501    0  0.00000000000E+00  0.00000000000E+00  0.17594963572E+04  0.17594963572E+04  0.25500000920E-02 0. -1.
       -2   -1    0    0    0  501  0.00000000000E+00  0.00000000000E+00 -0.16421190265E+04  0.16421190265E+04  0.25500000920E-02 0.  1.
    10030    2    1    2    0    0  0.00000000000E+00  0.00000000000E+00  0.11737733065E+03  0.34016153837E+04  0.33995896489E+04 0.  0.
        3    1    3    3  502    0 -0.15529717263E+04  0.34107856204E+03  0.66008480069E+03  0.17215596773E+04  0.10100000352E+00 0. -1.
       -3    1    3    3    0  502  0.15529717263E+04 -0.34107856204E+03 -0.54270747004E+03  0.16800557064E+04  0.10100000352E+00 0.  1.
</event>
<event>
 5   0  0.4973409E-08  0.3400452E+04  0.7818609E-02  0.8137795E-01
        2   -1    0    0  501    0  0.00000000000E+00  0.00000000000E+00  0.21400019927E+04  0.21400019927E+04  0.25500000920E-02 0. -1.
       -2   -1    0    0    0  501  0.00000000000E+00  0.00000000000E+00 -0.13508250020E+04  0.13508250020E+04  0.25500000920E-02 0.  1.
    10030    2    1    2    0    0  0.00000000000E+00  0.00000000000E+00  0.78917699076E+03  0.34908269947E+04  0.34004518500E+04 0.  0.
        1    1    3    3  502    0  0.10792528819E+03 -0.23664337909E+03 -0.13302815646E+04  0.13554692906E+04  0.50400001928E-02 0.  1.
       -1    1    3    3    0  502 -0.10792528819E+03  0.23664337909E+03  0.21194585553E+04  0.21353577041E+04  0.50400001928E-02 0. -1.
</event>
<event>
 5   0  0.4775023E-08  0.3399628E+04  0.7818609E-02  0.8137998E-01
       -2   -1    0    0    0  501  0.00000000000E+00  0.00000000000E+00  0.94545539311E+03  0.94545539311E+03  0.25500000920E-02 0. -1.
        2   -1    0    0  501    0  0.00000000000E+00  0.00000000000E+00 -0.30560584248E+04  0.30560584248E+04  0.25500000920E-02 0.  1.
    10030    2    1    2    0    0  0.00000000000E+00  0.00000000000E+00 -0.21106030317E+04  0.40015138179E+04  0.33996275792E+04 0.  0.
        4    1    3    3  502    0 -0.92072913820E+03 -0.10436517848E+03 -0.27326341007E+04  0.28854678958E+04  0.12699999809E+01 0.  1.
       -4    1    3    3    0  502  0.92072913820E+03  0.10436517848E+03  0.62203106906E+03  0.11160459221E+04  0.12699999809E+01 0. -1.
</event>
<event>
 5   0  0.1630571E-08  0.3404164E+04  0.7818609E-02  0.8136885E-01
       -1   -1    0    0    0  501  0.00000000000E+00  0.00000000000E+00  0.11835136428E+04  0.11835136428E+04  0.50400001928E-02 0.  1.
        1   -1    0    0  501    0  0.00000000000E+00  0.00000000000E+00 -0.24478665551E+04  0.24478665551E+04  0.50400001928E-02 0. -1.
    10030    2    1    2    0    0  0.00000000000E+00  0.00000000000E+00 -0.12643529123E+04  0.36313801979E+04  0.34041641933E+04 0.  0.
        3    1    3    3  502    0  0.50919269178E+03  0.58751793278E+03 -0.22473831522E+04  0.23780634058E+04  0.10100000352E+00 0. -1.
       -3    1    3    3    0  502 -0.50919269178E+03 -0.58751793278E+03  0.98303023994E+03  0.12533167922E+04  0.10100000352E+00 0.  1.
</event>
<event>
 5   0  0.1625282E-08  0.3400050E+04  0.7818609E-02  0.8137894E-01
        1   -1    0    0  501    0  0.00000000000E+00  0.00000000000E+00  0.17221337295E+04  0.17221337295E+04  0.50400001928E-02 0.  1.
       -1   -1    0    0    0  501  0.00000000000E+00  0.00000000000E+00 -0.16782003524E+04  0.16782003525E+04  0.50400001928E-02 0. -1.
    10030    2    1    2    0    0  0.00000000000E+00  0.00000000000E+00  0.43933377019E+02  0.34003340819E+04  0.34000502536E+04 0.  0.
        1    1    3    3  502    0 -0.10808381823E+04 -0.56159106665E+03 -0.11640875092E+04  0.16848428508E+04  0.50400001928E-02 0. -1.
       -1    1    3    3    0  502  0.10808381823E+04  0.56159106665E+03  0.12080208863E+04  0.17154912312E+04  0.50400001928E-02 0.  1.
</event>
<event>
 5   0  0.1573625E-08  0.3399585E+04  0.7818609E-02  0.8138008E-01
       -3   -1    0    0    0  501  0.00000000000E+00  0.00000000000E+00  0.17009266526E+04  0.17009266556E+04  0.10100000352E+00 0.  1.
        3   -1    0    0  501    0  0.00000000000E+00  0.00000000000E+00 -0.16986589360E+04  0.16986589390E+04  0.10100000352E+00 0. -1.
    10030    2    1    2    0    0  0.00000000000E+00  0.00000000000E+00  0.22677166552E+01  0.33995855946E+04  0.33995848382E+04 0.  0.
        2    1    3    3  502    0 -0.94919583309E+03  0.69422418211E+03 -0.12262108340E+04  0.16989740887E+04  0.25500000920E-02 0. -1.
       -2    1    3    3    0  502  0.94919583309E+03 -0.69422418211E+03  0.12284785507E+04  0.17006115059E+04  0.25500000920E-02 0.  1.
</event>
<event>
 5   0  0.1625282E-08  0.3399875E+04  0.7818609E-02  0.8137937E-01
       -1   -1    0    0    0  501  0.00000000000E+00  0.00000000000E+00  0.10734915646E+04  0.10734915646E+04  0.50400001928E-02 0.  1.
        1   -1    0    0  501    0  0.00000000000E+00  0.00000000000E+00 -0.26919523910E+04  0.26919523910E+04  0.50400001928E-02 0. -1.
    10030    2    1    2    0    0  0.00000000000E+00  0.00000000000E+00 -0.16184608264E+04  0.37654439556E+04  0.33998754001E+04 0.  0.
        1    1    3    3  502    0  0.70571982314E+03  0.14024202427E+04 -0.87242612565E+02  0.15723976213E+04  0.50400001928E-02 0.  1.
       -1    1    3    3    0  502 -0.70571982314E+03 -0.14024202427E+04 -0.15312182138E+04  0.21930463343E+04  0.50400001928E-02 0. -1.
</event>
<event>
 5   0  0.1645631E-08  0.3399806E+04  0.7818609E-02  0.8137954E-01
       -1   -1    0    0    0  501  0.00000000000E+00  0.00000000000E+00  0.12333410938E+04  0.12333410938E+04  0.50400001928E-02 0. -1.
        1   -1    0    0  501    0  0.00000000000E+00  0.00000000000E+00 -0.23429617866E+04  0.23429617866E+04  0.50400001928E-02 0.  1.
    10030    2    1    2    0    0  0.00000000000E+00  0.00000000000E+00 -0.11096206928E+04  0.35763028803E+04  0.33998064960E+04 0.  0.
        4    1    3    3  502    0 -0.12112539790E+04  0.10028959113E+04  0.12425106940E+03  0.15774588272E+04  0.12699999809E+01 0. -1.
       -4    1    3    3    0  502  0.12112539790E+04 -0.10028959113E+04 -0.12338717622E+04  0.19988440532E+04  0.12699999809E+01 0.  1.
</event>
<event>
 5   0  0.1630571E-08  0.3402931E+04  0.7818609E-02  0.8137187E-01
       -1   -1    0    0    0  501  0.00000000000E+00  0.00000000000E+00  0.13270680723E+04  0.13270680723E+04  0.50400001928E-02 0. -1.
        1   -1    0    0  501    0  0.00000000000E+00  0.00000000000E+00 -0.21814887344E+04  0.21814887344E+04  0.50400001928E-02 0.  1.
    10030    2    1    2    0    0  0.00000000000E+00  0.00000000000E+00 -0.85442066208E+03  0.35085568067E+04  0.34029305309E+04 0.  0.
        3    1    3    3  502    0 -0.48787136854E+02 -0.91135965008E+03 -0.19077588687E+04  0.21148287184E+04  0.10100000352E+00 0.  1.
       -3    1    3    3    0  502  0.48787136854E+02  0.91135965008E+03  0.10533382067E+04  0.13937280884E+04  0.10100000352E+00 0. -1.
</event>
<event>
 5   0  0.4775023E-08  0.3400154E+04  0.7818609E-02  0.8137869E-01
        2   -1    0    0  501    0  0.00000000000E+00  0.00000000000E+00  0.17493816199E+04  0.17493816199E+04  0.25500000920E-02 0. -1.
       -2   -1    0    0    0  501  0.00000000000E+00  0.00000000000E+00 -0.16521616459E+04  0.16521616459E+04  0.25500000920E-02 0.  1.
    10030    2    1    2    0    0  0.00000000000E+00  0.00000000000E+00  0.97219973993E+02  0.34015432658E+04  0.34001536532E+04 0.  0.
        4    1    3    3  502    0  0.96839007444E+03 -0.31225050687E+03 -0.13139231046E+04  0.16618288880E+04  0.12699999809E+01 0.  1.
       -4    1    3    3    0  502 -0.96839007444E+03  0.31225050687E+03  0.14111430786E+04  0.17397143778E+04  0.12699999809E+01 0. -1.
</event>
<event>
 5   0  0.1595851E-08  0.3389596E+04  0.7818609E-02  0.8140465E-01
        1   -1    0    0  501    0  0.00000000000E+00  0.00000000000E+00  0.94175617482E+03  0.94175617484E+03  0.50400001928E-02 0.  1.
       -1   -1    0    0    0  501  0.00000000000E+00  0.00000000000E+00 -0.30499827778E+04  0.30499827778E+04  0.50400001928E-02 0. -1.
    10030    2    1    2    0    0  0.00000000000E+00  0.00000000000E+00 -0.21082266030E+04  0.39917389527E+04  0.33895959135E+04 0.  0.
        2    1    3    3  502    0  0.71740772686E+02 -0.97138002020E+03 -0.26874405050E+04  0.28585070142E+04  0.25500000920E-02 0. -1.
       -2    1    3    3    0  502 -0.71740772686E+02  0.97138002020E+03  0.57921390202E+03  0.11332319385E+04  0.25500000920E-02 0.  1.
</event>
<event>
 5   0  0.1630571E-08  0.3399850E+04  0.7818609E-02  0.8137943E-01
       -1   -1    0    0    0  501  0.00000000000E+00  0.00000000000E+00  0.25897597512E+04  0.25897597512E+04  0.50400001928E-02 0. -1.
        1   -1    0    0  501    0  0.00000000000E+00  0.00000000000E+00 -0.11158350251E+04  0.11158350251E+04  0.50400001928E-02 0.  1.
    10030    2    1    2    0    0  0.00000000000E+00  0.00000000000E+00  0.14739247261E+04  0.37055947764E+04  0.33998497832E+04 0.  0.
        3    1    3    3  502    0 -0.77442898580E+03 -0.22752697508E+03  0.23675761886E+04  0.25013847759E+04  0.10100000352E+00 0. -1.
       -3    1    3    3    0  502  0.77442898580E+03  0.22752697508E+03 -0.89365146251E+03  0.12042100004E+04  0.10100000352E+00 0.  1.
</event>
<event>
 5   0  0.5001197E-08  0.3397867E+04  0.7818609E-02  0.8138430E-01
       -2   -1    0    0    0  501  0.00000000000E+00  0.00000000000E+00  0.15344188613E+04  0.15344188613E+04  0.25500000920E-02 0.  1.
        2   -1    0    0  501    0  0.00000000000E+00  0.00000000000E+00 -0.18810862815E+04  0.18810862815E+04  0.25500000920E-02 0. -1.
    10030    2    1    2    0    0  0.00000000000E+00  0.00000000000E+00 -0.34666742027E+03  0.34155051428E+04  0.33978665483E+04 0.  0.
        5    1    3    3  502    0 -0.14321034595E+04  0.62264644143E+03 -0.84594346136E+03  0.17760212103E+04  0.46999998093E+01 0.  1.
       -5    1    3    3    0  502  0.14321034595E+04 -0.62264644143E+03  0.49927604108E+03  0.16394839325E+04  0.46999998093E+01 0. -1.
</event>
<event>
 5   0  0.1595851E-08  0.3398212E+04  0.7818609E-02  0.8138345E-01
       -1   -1    0    0    0  501  0.00000000000E+00  0.00000000000E+00  0.15406359082E+04  0.15406359082E+04  0.50400001928E-02 0. -1.
        1   -1    0    0  501    0  0.00000000000E+00  0.00000000000E+00 -0.18738760094E+04  0.18738760094E+04  0.50400001928E-02 0.  1.
    10030    2    1    2    0    0  0.00000000000E+00  0.00000000000E+00 -0.33324010124E+03  0.34145119176E+04  0.33982116871E+04 0.  0.
        2    1    3    3  502    0  0.75894176556E+03  0.87014807210E+03 -0.14191185528E+04  0.18294938475E+04  0.25500000920E-02 0.  1.
       -2    1    3    3    0  502 -0.75894176556E+03 -0.87014807210E+03  0.10858784516E+04  0.15850180701E+04  0.25500000920E-02 0. -1.
</event>
<event>
 5   0  0.1579536E-08  0.3400286E+04  0.7818609E-02  0.8137836E-01
        1   -1    0    0  501    0  0.00000000000E+00  0.00000000000E+00  0.26367671842E+04  0.26367671842E+04  0.50400001928E-02 0.  1.
       -1   -1    0    0    0  501  0.00000000000E+00  0.00000000000E+00 -0.10962232900E+04  0.10962232900E+04  0.50400001928E-02 0. -1.
    10030    2    1    2    0    0  0.00000000000E+00  0.00000000000E+00  0.15405438942E+04  0.37329904741E+04  0.34002856336E+04 0.  0.
        5    1    3    3  502    0 -0.33615090616E+03  0.42964132722E+03  0.25380682511E+04  0.25960357546E+04  0.46999998093E+01 0.  1.
       -5    1    3    3    0  502  0.33615090616E+03 -0.42964132722E+03 -0.99752435689E+03  0.11369547196E+04  0.46999998093E+01 0. -1.
</event>
<event>
 5   0  0.1579536E-08  0.3400054E+04  0.7818609E-02  0.8137893E-01
        1   -1    0    0  501    0  0.00000000000E+00  0.00000000000E+00  0.13476549033E+04  0.13476549033E+04  0.50400001928E-02 0. -1.
       -1   -1    0    0    0  501  0.00000000000E+00  0.00000000000E+00 -0.21445346519E+04  0.21445346519E+04  0.50400001928E-02 0.  1.
    10030    2    1    2    0    0  0.00000000000E+00  0.00000000000E+00 -0.79687974857E+03  0.34921895552E+04  0.34000544931E+04 0.  0.
        5    1    3    3  502    0 -0.14186638812E+04  0.33732695517E+03  0.49912509841E+03  0.15412801939E+04  0.46999998093E+01 0. -1.
       -5    1    3    3    0  502  0.14186638812E+04 -0.33732695517E+03 -0.12960048470E+04  0.19509093612E+04  0.46999998093E+01 0.  1.
</event>
<event>
 5   0  0.4764953E-08  0.3399499E+04  0.7818609E-02  0.8138029E-01
        2   -1    0    0  501    0  0.00000000000E+00  0.00000000000E+00  0.26230789697E+04  0.26230789697E+04  0.25500000920E-02 0.  1.
       -2   -1    0    0    0  501  0.00000000000E+00  0.00000000000E+00 -0.11014339700E+04  0.11014339700E+04  0.25500000920E-02 0. -1.
    10030    2    1    2    0    0  0.00000000000E+00  0.00000000000E+00  0.15216449997E+04  0.37245129397E+04  0.33994989532E+04 0.  0.
        2    1    3    3  502    0 -0.13614158927E+04 -0.96218972923E+03  0.11240056650E+04  0.20106344877E+04  0.25500000920E-02 0.  1.
       -2    1    3    3    0  502  0.13614158927E+04  0.96218972923E+03  0.39763933474E+03  0.17138784521E+04  0.25500000920E-02 0. -1.
</event>
<event>
 5   0  0.4764953E-08  0.3402485E+04  0.7818609E-02  0.8137297E-01
        2   -1    0    0  501    0  0.00000000000E+00  0.00000000000E+00  0.16440635002E+04  0.16440635002E+04  0.25500000920E-02 0. -1.
       -2   -1    0    0    0  501  0.00000000000E+00  0.00000000000E+00 -0.17604100780E+04  0.17604100780E+04  0.25500000920E-02 0.  1.
    10030    2    1    2    0    0  0.00000000000E+00  0.00000000000E+00 -0.11634657784E+03  0.34044735782E+04  0.34024849475E+04 0.  0.
        2    1    3    3  502    0 -0.84566932568E+03  0.14431937929E+04  0.25226765137E+03  0.16916275891E+04  0.25500000920E-02 0. -1.
       -2    1    3    3    0  502  0.84566932568E+03 -0.14431937929E+04 -0.36861422921E+03  0.17128459891E+04  0.25500000920E-02 0.  1.
</event>
<event>
 5   0  0.4946315E-08  0.3397496E+04  0.7818609E-02  0.8138521E-01
        2   -1    0    0  501    0  0.00000000000E+00  0.00000000000E+00  0.15308781045E+04  0.15308781045E+04  0.25500000920E-02 0. -1.
       -2   -1    0    0    0  501  0.00000000000E+00  0.00000000000E+00 -0.18850260008E+04  0.18850260008E+04  0.25500000920E-02 0.  1.
    10030    2    1    2    0    0  0.00000000000E+00  0.00000000000E+00 -0.35414789631E+03  0.34159041053E+04  0.33974961552E+04 0.  0.
        3    1    3    3  502    0 -0.12210314290E+04 -0.10129066228E+04 -0.78769262709E+03  0.17712586661E+04  0.10100000352E+00 0.  1.
       -3    1    3    3    0  502  0.12210314290E+04  0.10129066228E+04  0.43354473079E+03  0.16446454393E+04  0.10100000352E+00 0. -1.
</event>
<event>
 5   0  0.4775023E-08  0.3402585E+04  0.7818609E-02  0.8137272E-01
        2   -1    0    0  501    0  0.00000000000E+00  0.00000000000E+00  0.20557531609E+04  0.20557531609E+04  0.25500000920E-02 0.  1.
       -2   -1    0    0    0  501  0.00000000000E+00  0.00000000000E+00 -0.14079491088E+04  0.14079491088E+04  0.25500000920E-02 0. -1.
    10030    2    1    2    0    0  0.00000000000E+00  0.00000000000E+00  0.64780405209E+03  0.34637022697E+04  0.34025848003E+04 0.  0.
        4    1    3    3  502    0  0.96203080706E+03  0.12714446514E+04 -0.28032465915E+03  0.16188447432E+04  0.12699999809E+01 0. -1.
       -4    1    3    3    0  502 -0.96203080706E+03 -0.12714446514E+04  0.92812871124E+03  0.18448575264E+04  0.12699999809E+01 0.  1.
</event>
<event>
 5   0  0.1625282E-08  0.3400695E+04  0.7818609E-02  0.8137736E-01
        1   -1    0    0  501    0  0.00000000000E+00  0.00000000000E+00  0.32494198541E+04  0.32494198541E+04  0.50400001928E-02 0.  1.
       -1   -1    0    0    0  501  0.00000000000E+00  0.00000000000E+00 -0.88975299916E+03  0.88975299917E+03  0.50400001928E-02 0. -1.
    10030    2    1    2    0    0  0.00000000000E+00  0.00000000000E+00  0.23596668549E+04  0.41391728533E+04  0.34006946706E+04 0.  0.
        1    1    3    3  502    0  0.15556747855E+04  0.43639772949E+03  0.53506966086E+03  0.17020183778E+04  0.50400001928E-02 0. -1.
       -1    1    3    3    0  502 -0.15556747855E+04 -0.43639772949E+03  0.18245971941E+04  0.24371544754E+04  0.50400001928E-02 0.  1.
</event>
<event>
 5   0  0.4775023E-08  0.3399000E+04  0.7818609E-02  0.8138152E-01
       -2   -1    0    0    0  501  0.00000000000E+00  0.00000000000E+00  0.12686705599E+04  0.12686705599E+04  0.25500000920E-02 0. -1.
        2   -1    0    0  501    0  0.00000000000E+00  0.00000000000E+00 -0.22766352037E+04  0.22766352037E+04  0.25500000920E-02 0.  1.
    10030    2    1    2    0    0  0.00000000000E+00  0.00000000000E+00 -0.10079646438E+04  0.35453057636E+04  0.33989998874E+04 0.  0.
        4    1    3    3  502    0 -0.79616538481E+03 -0.10425065384E+04  0.62308393817E+03  0.14522170670E+04  0.12699999809E+01 0. -1.
       -4    1    3    3    0  502  0.79616538481E+03  0.10425065384E+04 -0.16310485819E+04  0.20930886967E+04  0.12699999809E+01 0.  1.
</event>
<event>
 5   0  0.1645631E-08  0.3399717E+04  0.7818609E-02  0.8137976E-01
        1   -1    0    0  501    0  0.00000000000E+00  0.00000000000E+00  0.16610895319E+04  0.16610895319E+04  0.50400001928E-02 0.  1.
       -1   -1    0    0    0  501  0.00000000000E+00  0.00000000000E+00 -0.17395323089E+04  0.17395323089E+04  0.50400001928E-02 0. -1.
    10030    2    1    2    0    0  0.00000000000E+00  0.00000000000E+00 -0.78442777023E+02  0.34006218408E+04  0.33997169934E+04 0.  0.
        4    1    3    3  502    0  0.31365087286E+03 -0.16647290343E+04  0.10159131988E+03  0.16970627675E+04  0.12699999809E+01 0. -1.
       -4    1    3    3    0  502 -0.31365087286E+03  0.16647290343E+04 -0.18003409690E+03  0.17035590734E+04  0.12699999809E+01 0.  1.
</event>
<event>
 5   0  0.4973409E-08  0.3398999E+04  0.7818609E-02  0.8138152E-01
       -2   -1    0    0    0  501  0.00000000000E+00  0.00000000000E+00  0.13608366725E+04  0.13608366725E+04  0.25500000920E-02 0. -1.
        2   -1    0    0  501    0  0.00000000000E+00  0.00000000000E+00 -0.21224426003E+04  0.21224426003E+04  0.25500000920E-02 0.  1.
    10030    2    1    2    0    0  0.00000000000E+00  0.00000000000E+00 -0.76160592780E+03  0.34832792729E+04  0.33989985148E+04 0.  0.
        1    1    3    3  502    0 -0.42162057227E+03 -0.24109103352E+03  0.12882017436E+04  0.13767180269E+04  0.50400001928E-02 0. -1.
       -1    1    3    3    0  502  0.42162057227E+03  0.24109103352E+03 -0.20498076714E+04  0.21065612460E+04  0.50400001928E-02 0.  1.
</event>
<event>
 5   0  0.1630571E-08  0.3411909E+04  0.7818609E-02  0.8134990E-01
       -1   -1    0    0    0  501  0.00000000000E+00  0.00000000000E+00  0.11952466606E+04  0.11952466606E+04  0.50400001928E-02 0.  1.
        1   -1    0    0  501    0  0.00000000000E+00  0.00000000000E+00 -0.24348794637E+04  0.24348794637E+04  0.50400001928E-02 0. -1.
    10030    2    1    2    0    0  0.00000000000E+00  0.00000000000E+00 -0.12396328032E+04  0.36301261243E+04  0.34119094642E+04 0.  0.
        3    1    3    3  502    0 -0.71732143518E+03  0.15171257867E+04 -0.29350770304E+03  0.17036336096E+04  0.10100000352E+00 0.  1.
       -3    1    3    3    0  502  0.71732143518E+03 -0.15171257867E+04 -0.94612510012E+03  0.19264925147E+04  0.10100000352E+00 0. -1.
</event>
<event>
 5   0  0.4946315E-08  0.3398543E+04  0.7818609E-02  0.8138264E-01
        2   -1    0    0  501    0  0.00000000000E+00  0.00000000000E+00  0.18267660049E+04  0.18267660049E+04  0.25500000920E-02 0. -1.
       -2   -1    0    0    0  501  0.00000000000E+00  0.00000000000E+00 -0.15806756107E+04  0.15806756107E+04  0.25500000920E-02 0.  1.
    10030    2    1    2    0    0  0.00000000000E+00  0.00000000000E+00  0.24609039421E+03  0.34074416156E+04  0.33985434941E+04 0.  0.
        3    1    3    3  502    0  0.92228586892E+03  0.10873343151E+04  0.10499207699E+04  0.17706611110E+04  0.10100000352E+00 0. -1.
       -3    1    3    3    0  502 -0.92228586892E+03 -0.10873343151E+04 -0.80383037570E+03  0.16367805045E+04  0.10100000352E+00 0.  1.
</event>
<event>
 5   0  0.1579536E-08  0.3399615E+04  0.7818609E-02  0.8138001E-01
        1   -1    0    0  501    0  0.00000000000E+00  0.00000000000E+00  0.12740334902E+04  0.12740334902E+04  0.50400001928E-02 0. -1.
       -1   -1    0    0    0  501  0.00000000000E+00  0.00000000000E+00 -0.22678731522E+04  0.22678731522E+04  0.50400001928E-02 0.  1.
    10030    2    1    2    0    0  0.00000000000E+00  0.00000000000E+00 -0.99383966202E+03  0.35419066423E+04  0.33996154767E+04 0.  0.
        5    1    3    3  502    0 -0.16437760946E+04  0.38321198580E+03 -0.70651917303E+03  0.18297657519E+04  0.46999998093E+01 0. -1.
       -5    1    3    3    0  502  0.16437760946E+04 -0.38321198580E+03 -0.28732048899E+03  0.17121408904E+04  0.46999998093E+01 0.  1.
</event>
<event>
 5   0  0.4973409E-08  0.3400422E+04  0.7818609E-02  0.8137803E-01
       -2   -1    0    0    0  501  0.00000000000E+00  0.00000000000E+00  0.15137769889E+04  0.15137769889E+04  0.25500000920E-02 0. -1.
        2   -1    0    0  501    0  0.00000000000E+00  0.00000000000E+00 -0.19096056010E+04  0.19096056010E+04  0.25500000920E-02 0.  1.
    10030    2    1    2    0    0  0.00000000000E+00  0.00000000000E+00 -0.39582861208E+03  0.34233825899E+04  0.34004217483E+04 0.  0.
        1    1    3    3  502    0  0.36178209856E+03 -0.16564248502E+04 -0.32560704313E+03  0.17264557677E+04  0.50400001928E-02 0.  1.
       -1    1    3    3    0  502 -0.36178209856E+03  0.16564248502E+04 -0.70221568947E+02  0.16969268222E+04  0.50400001928E-02 0. -1.
</event>
<event>
 5   0  0.4946315E-08  0.3400041E+04  0.7818609E-02  0.8137896E-01
        2   -1    0    0  501    0  0.00000000000E+00  0.00000000000E+00  0.19720439794E+04  0.19720439794E+04  0.25500000920E-02 0.  1.
       -2   -1    0    0    0  501  0.00000000000E+00  0.00000000000E+00 -0.14655199580E+04  0.14655199580E+04  0.25500000920E-02 0. -1.
    10030    2    1    2    0    0  0.00000000000E+00  0.00000000000E+00  0.50652402142E+03  0.34375639375E+04  0.34000410644E+04 0.  0.
        3    1    3    3  502    0  0.30932238431E+03 -0.96953658589E+03  0.16300496497E+04  0.19216512169E+04  0.10100000352E+00 0.  1.
       -3    1    3    3    0  502 -0.30932238431E+03  0.96953658589E+03 -0.11235256283E+04  0.15159127206E+04  0.10100000352E+00 0. -1.
</event>
<event>
 5   0  0.1573625E-08  0.3402013E+04  0.7818609E-02  0.8137412E-01
       -3   -1    0    0    0  501  0.00000000000E+00  0.00000000000E+00  0.20094132787E+04  0.20094132812E+04  0.10100000352E+00 0.  1.
        3   -1    0    0  501    0  0.00000000000E+00  0.00000000000E+00 -0.14399344789E+04  0.14399344824E+04  0.10100000352E+00 0. -1.
    10030    2    1    2    0    0  0.00000000000E+00  0.00000000000E+00  0.56947879979E+03  0.34493477636E+04  0.34020132114E+04 0.  0.
        4    1    3    3  502    0  0.19839032271E+03 -0.14351334053E+03 -0.14219719260E+04  0.14429000555E+04  0.12699999809E+01 0. -1.
       -4    1    3    3    0  502 -0.19839032271E+03  0.14351334053E+03  0.19914507258E+04  0.20064477081E+04  0.12699999809E+01 0.  1.
</event>
<event>
 5   0  0.1645631E-08  0.3402924E+04  0.7818609E-02  0.8137189E-01
       -1   -1    0    0    0  501  0.00000000000E+00  0.00000000000E+00  0.30276936983E+04  0.30276936983E+04  0.50400001928E-02 0.  1.
        1   -1    0    0  501    0  0.00000000000E+00  0.00000000000E+00 -0.95616440430E+03  0.95616440432E+03  0.50400001928E-02 0. -1.
    10030    2    1    2    0    0  0.00000000000E+00  0.00000000000E+00  0.20715292940E+04  0.39838581027E+04  0.34029240024E+04 0.  0.
        4    1    3    3  502    0 -0.37546683056E+03 -0.82352144191E+03 -0.65096409758E+03  0.11148626711E+04  0.12699999809E+01 0. -1.
       -4    1    3    3    0  502  0.37546683056E+03  0.82352144191E+03  0.27224933916E+04  0.28689954316E+04  0.12699999809E+01 0.  1.
</event>
<event>
 5   0  0.1595851E-08  0.3403495E+04  0.7818609E-02  0.8137049E-01
       -1   -1    0    0    0  501  0.00000000000E+00  0.00000000000E+00  0.20063165700E+04  0.20063165700E+04  0.50400001928E-02 0. -1.
        1   -1    0    0  501    0  0.00000000000E+00  0.00000000000E+00 -0.14434137093E+04  0.14434137093E+04  0.50400001928E-02 0.  1.
    10030    2    1    2    0    0  0.00000000000E+00  0.00000000000E+00  0.56290286071E+03  0.34497302792E+04  0.34034951695E+04 0.  0.
        2    1    3    3  502    0 -0.33156110972E+03 -0.15148841525E+04 -0.42888126495E+03  0.16089580182E+04  0.25500000920E-02 0.  1.
       -2    1    3    3    0  502  0.33156110972E+03  0.15148841525E+04  0.99178412566E+03  0.18407722610E+04  0.25500000920E-02 0. -1.
</event>
<event>
 5   0  0.4775023E-08  0.3383563E+04  0.7818609E-02  0.8141952E-01
        2   -1    0    0  501    0  0.00000000000E+00  0.00000000000E+00  0.19988092632E+04  0.19988092632E+04  0.25500000920E-02 0.  1.
       -2   -1    0    0    0  501  0.00000000000E+00  0.00000000000E+00 -0.14319151048E+04  0.14319151048E+04  0.25500000920E-02 0. -1.
    10030    2    1    2    0    0  0.00000000000E+00  0.00000000000E+00  0.56689415839E+03  0.34307243680E+04  0.33835633143E+04 0.  0.
        4    1    3    3  502    0 -0.43526867304E+03 -0.11732161477E+04  0.14378364574E+04  0.19061139101E+04  0.12699999809E+01 0.  1.
       -4    1    3    3    0  502  0.43526867304E+03  0.11732161477E+04 -0.87094229904E+03  0.15246104579E+04  0.12699999809E+01 0. -1.
</event>
<event>
 5   0  0.4973409E-08  0.3392424E+04  0.7818609E-02  0.8139768E-01
       -2   -1    0    0    0  501  0.00000000000E+00  0.00000000000E+00  0.18368860647E+04  0.18368860647E+04  0.25500000920E-02 0.  1.
        2   -1    0    0  501    0  0.00000000000E+00  0.00000000000E+00 -0.15663114037E+04  0.15663114037E+04  0.25500000920E-02 0. -1.
    10030    2    1    2    0    0  0.00000000000E+00  0.00000000000E+00  0.27057466099E+03  0.34031974685E+04  0.33924242604E+04 0.  0.
        1    1    3    3  502    0  0.13604403507E+04 -0.95150214540E+03  0.48421557925E+03  0.17293406280E+04  0.50400001928E-02 0.  1.
       -1    1    3    3    0  502 -0.13604403507E+04  0.95150214540E+03 -0.21364091826E+03  0.16738568405E+04  0.50400001928E-02 0. -1.
</event>
<event>
 5   0  0.1625282E-08  0.3400882E+04  0.7818609E-02  0.8137690E-01
        1   -1    0    0  501    0  0.00000000000E+00  0.00000000000E+00  0.13471347934E+04  0.13471347934E+04  0.50400001928E-02 0.  1.
       -1   -1    0    0    0  501  0.00000000000E+00  0.00000000000E+00 -0.21464074200E+04  0.21464074200E+04  0.50400001928E-02 0. -1.
    10030    2    1    2    0    0  0.00000000000E+00  0.00000000000E+00 -0.79927262662E+03  0.34935422133E+04  0.34008823068E+04 0.  0.
        1    1    3    3  502    0 -0.11817996497E+04  0.44474053783E+03  0.77027699729E+03  0.14791116288E+04  0.50400001928E-02 0.  1.
       -1    1    3    3    0  502  0.11817996497E+04 -0.44474053783E+03 -0.15695496239E+04  0.20144305845E+04  0.50400001928E-02 0. -1.
</event>
<event>
 5   0  0.5001197E-08  0.3397540E+04  0.7818609E-02  0.8138510E-01
        2   -1    0    0  501    0  0.00000000000E+00  0.00000000000E+00  0.12833520458E+04  0.12833520458E+04  0.25500000920E-02 0. -1.
       -2   -1    0    0    0  501  0.00000000000E+00  0.00000000000E+00 -0.22486572731E+04  0.22486572731E+04  0.25500000920E-02 0.  1.
    10030    2    1    2    0    0  0.00000000000E+00  0.00000000000E+00 -0.96530522735E+03  0.35320093189E+04  0.33975396461E+04 0.  0.
        5    1    3    3  502    0 -0.83447455344E+02  0.16778790791E+04 -0.74473186937E+03  0.18376314454E+04  0.46999998093E+01 0. -1.
       -5    1    3    3    0  502  0.83447455344E+02 -0.16778790791E+04 -0.22057335799E+03  0.16943778735E+04  0.46999998093E+01 0.  1.
</event>
<event>
 5   0  0.1645631E-08  0.3400228E+04  0.7818609E-02  0.8137850E-01
        1   -1    0    0  501    0  0.00000000000E+00  0.00000000000E+00  0.10787415996E+04  0.10787415996E+04  0.50400001928E-02 0. -1.
       -1   -1    0    0    0  501  0.00000000000E+00  0.00000000000E+00 -0.26794070251E+04  0.26794070251E+04  0.50400001928E-02 0.  1.
    10030    2    1    2    0    0  0.00000000000E+00  0.00000000000E+00 -0.16006654255E+04  0.37581486247E+04  0.34002281219E+04 0.  0.
        4    1    3    3  502    0  0.15883219813E+04 -0.99966699436E+02 -0.13936456655E+03  0.15975556806E+04  0.12699999809E+01 0. -1.
       -4    1    3    3    0  502 -0.15883219813E+04  0.99966699436E+02 -0.14613008589E+04  0.21605929441E+04  0.12699999809E+01 0.  1.
</event>
<event>
 5   0  0.1630571E-08  0.3400891E+04  0.7818609E-02  0.8137688E-01
        1   -1    0    0  501    0  0.00000000000E+00  0.00000000000E+00  0.10804664099E+04  0.10804664099E+04  0.50400001928E-02 0. -1.
       -1   -1    0    0    0  501  0.00000000000E+00  0.00000000000E+00 -0.26761732296E+04  0.26761732296E+04  0.50400001928E-02 0.  1.
    10030    2    1    2    0    0  0.00000000000E+00  0.00000000000E+00 -0.15957068197E+04  0.37566396395E+04  0.34008912253E+04 0.  0.
        3    1    3    3  502    0 -0.13831570891E+04  0.91781099784E+03 -0.39047337977E+03  0.17052771128E+04  0.10100000352E+00 0. -1.
       -3    1    3    3    0  502  0.13831570891E+04 -0.91781099784E+03 -0.12052334399E+04  0.20513625267E+04  0.10100000352E+00 0.  1.
</event>
<event>
 5   0  0.1595851E-08  0.3398840E+04  0.7818609E-02  0.8138191E-01
        1   -1    0    0  501    0  0.00000000000E+00  0.00000000000E+00  0.18439329069E+04  0.18439329069E+04  0.50400001928E-02 0. -1.
       -1   -1    0    0    0  501  0.00000000000E+00  0.00000000000E+00 -0.15662329968E+04  0.15662329968E+04  0.50400001928E-02 0.  1.
    10030    2    1    2    0    0  0.00000000000E+00  0.00000000000E+00  0.27769991014E+03  0.34101659037E+04  0.33988401331E+04 0.  0.
        2    1    3    3  502    0 -0.10792241692E+04  0.13120189962E+04  0.95001824009E+02  0.17015122687E+04  0.25500000920E-02 0.  1.
       -2    1    3    3    0  502  0.10792241692E+04 -0.13120189962E+04  0.18269808613E+03  0.17086536350E+04  0.25500000920E-02 0. -1.
</event>
<event>
 5   0  0.4775023E-08  0.3399272E+04  0.7818609E-02  0.8138085E-01
        2   -1    0    0  501    0  0.00000000000E+00  0.00000000000E+00  0.20043740693E+04  0.20043740693E+04  0.25500000920E-02 0. -1.
       -2   -1    0    0    0  501  0.00000000000E+00  0.00000000000E+00 -0.14412293025E+04  0.14412293025E+04  0.25500000920E-02 0.  1.
    10030    2    1    2    0    0  0.00000000000E+00  0.00000000000E+00  0.56314476675E+03  0.34456033718E+04  0.33992720643E+04 0.  0.
        4    1    3    3  502    0  0.10857129057E+04 -0.99832785105E+03  0.11376726028E+04  0.18627215508E+04  0.12699999809E+01 0. -1.
       -4    1    3    3    0  502 -0.10857129057E+04  0.99832785105E+03 -0.57452783607E+03  0.15828818210E+04  0.12699999809E+01 0.  1.
</event>
<event>
 5   0  0.1625282E-08  0.3400055E+04  0.7818609E-02  0.8137893E-01
        1   -1    0    0  501    0  0.00000000000E+00  0.00000000000E+00  0.16538879765E+04  0.16538879765E+04  0.50400001928E-02 0. -1.
       -1   -1    0    0    0  501  0.00000000000E+00  0.00000000000E+00 -0.17474543542E+04  0.17474543542E+04  0.50400001928E-02 0.  1.
    10030    2    1    2    0    0  0.00000000000E+00  0.00000000000E+00 -0.93566377648E+02  0.34013423307E+04  0.34000551442E+04 0.  0.
        1    1    3    3  502    0 -0.58045197613E+03  0.91631223359E+03  0.12627353501E+04  0.16646480621E+04  0.50400001928E-02 0. -1.
       -1    1    3    3    0  502  0.58045197613E+03 -0.91631223359E+03 -0.13563017278E+04  0.17366942687E+04  0.50400001928E-02 0.  1.
</event>
<event>
 5   0  0.1630571E-08  0.3401304E+04  0.7818609E-02  0.8137586E-01
       -1   -1    0    0    0  501  0.00000000000E+00  0.00000000000E+00  0.13162647575E+04  0.13162647575E+04  0.50400001928E-02 0.  1.
        1   -1    0    0  501    0  0.00000000000E+00  0.00000000000E+00 -0.21972910897E+04  0.21972910897E+04  0.50400001928E-02 0. -1.
    10030    2    1    2    0    0  0.00000000000E+00  0.00000000000E+00 -0.88102633218E+03  0.35135558473E+04  0.34013037638E+04 0.  0.
        3    1    3    3  502    0 -0.11191571080E+04 -0.78273813497E+03  0.60635499061E+03  0.14942750768E+04  0.10100000352E+00 0.  1.
       -3    1    3    3    0  502  0.11191571080E+04  0.78273813497E+03 -0.14873813228E+04  0.20192807705E+04  0.10100000352E+00 0. -1.
</event>
<event>
 5   0  0.4764953E-08  0.3400509E+04  0.7818609E-02  0.8137781E-01
       -2   -1    0    0    0  501  0.00000000000E+00  0.00000000000E+00  0.11602818433E+04  0.11602818433E+04  0.25500000920E-02 0. -1.
        2   -1    0    0  501    0  0.00000000000E+00  0.00000000000E+00 -0.24915198355E+04  0.24915198355E+04  0.25500000920E-02 0.  1.
    10030    2    1    2    0    0  0.00000000000E+00  0.00000000000E+00 -0.13312379922E+04  0.36518016788E+04  0.34005089191E+04 0.  0.
        2    1    3    3  502    0 -0.37166600602E+03  0.16272042602E+04 -0.31774231573E+03  0.16990849019E+04  0.25500000920E-02 0.  1.
       -2    1    3    3    0  502  0.37166600602E+03 -0.16272042602E+04 -0.10134956765E+04  0.19527167769E+04  0.25500000920E-02 0. -1.
</event>
<event>
 5   0  0.4775023E-08  0.3400242E+04  0.7818609E-02  0.8137847E-01
        2   -1    0    0  501    0  0.00000000000E+00  0.00000000000E+00  0.18068868724E+04  0.18068868724E+04  0.25500000920E-02 0.  1.
       -2   -1    0    0    0  501  0.00000000000E+00  0.00000000000E+00 -0.15996640357E+04  0.15996640357E+04  0.25500000920E-02 0. -1.
    10030    2    1    2    0    0  0.00000000000E+00  0.00000000000E+00  0.20722283667E+03  0.34065509081E+04  0.34002423127E+04 0.  0.
        4    1    3    3  502    0  0.11360645747E+04 -0.15854376582E+03  0.13607827886E+04  0.17797500539E+04  0.12699999809E+01 0.  1.
       -4    1    3    3    0  502 -0.11360645747E+04  0.15854376582E+03 -0.11535599520E+04  0.16268008542E+04  0.12699999809E+01 0. -1.
</event>
<event>
 5   0  0.1579536E-08  0.3399126E+04  0.7818609E-02  0.8138121E-01
       -1   -1    0    0    0  501  0.00000000000E+00  0.00000000000E+00  0.13694785020E+04  0.13694785020E+04  0.50400001928E-02 0.  1.
        1   -1    0    0  501    0  0.00000000000E+00  0.00000000000E+00 -0.21092079348E+04  0.21092079348E+04  0.50400001928E-02 0. -1.
    10030    2    1    2    0    0  0.00000000000E+00  0.00000000000E+00 -0.73972943280E+03  0.34786864368E+04  0.33991263130E+04 0.  0.
        5    1    3    3  502    0 -0.16244645863E+04 -0.32283221153E+03 -0.76008583887E+03  0.18223222551E+04  0.46999998093E+01 0.  1.
       -5    1    3    3    0  502  0.16244645863E+04  0.32283221153E+03  0.20356406072E+02  0.16563641817E+04  0.46999998093E+01 0. -1.
</event>
<event>
 5   0  0.4775023E-08  0.3398847E+04  0.7818609E-02  0.8138189E-01
        2   -1    0    0  501    0  0.00000000000E+00  0.00000000000E+00  0.20705788282E+04  0.20705788282E+04  0.25500000920E-02 0.  1.
       -2   -1    0    0    0  501  0.00000000000E+00  0.00000000000E+00 -0.13947987885E+04  0.13947987885E+04  0.25500000920E-02 0. -1.
    10030    2    1    2    0    0  0.00000000000E+00  0.00000000000E+00  0.67578003965E+03  0.34653776167E+04  0.33988473582E+04 0.  0.
        4    1    3    3  502    0 -0.15701290765E+04 -0.23799448793E+03 -0.27900937148E+03  0.16123878365E+04  0.12699999809E+01 0. -1.
       -4    1    3    3    0  502  0.15701290765E+04  0.23799448793E+03  0.95478941113E+03  0.18529897802E+04  0.12699999809E+01 0.  1.
</event>
<event>
 5   0  0.1595851E-08  0.3400805E+04  0.7818609E-02  0.8137709E-01
       -1   -1    0    0    0  501  0.00000000000E+00  0.00000000000E+00  0.11499140580E+04  0.11499140580E+04  0.50400001928E-02 0.  1.
        1   -1    0    0  501    0  0.00000000000E+00  0.00000000000E+00 -0.25144210466E+04  0.25144210466E+04  0.50400001928E-02 0. -1.
    10030    2    1    2    0    0  0.00000000000E+00  0.00000000000E+00 -0.13645069886E+04  0.36643351047E+04  0.34008046750E+04 0.  0.
        2    1    3    3  502    0  0.15640601162E+04  0.66378540532E+03 -0.75431657881E+03  0.18590020474E+04  0.25500000920E-02 0.  1.
       -2    1    3    3    0  502 -0.15640601162E+04 -0.66378540532E+03 -0.61019040982E+03  0.18053330572E+04  0.25500000920E-02 0. -1.
</event>
<event>
 5   0  0.5001197E-08  0.3401655E+04  0.7818609E-02  0.8137500E-01
        2   -1    0    0  501    0  0.00000000000E+00  0.00000000000E+00  0.13807211692E+04  0.13807211692E+04  0.25500000920E-02 0.  1.
       -2   -1    0    0    0  501  0.00000000000E+00  0.00000000000E+00 -0.20951475970E+04  0.20951475970E+04  0.25500000920E-02 0. -1.
    10030    2    1    2    0    0  0.00000000000E+00  0.00000000000E+00 -0.71442642782E+03  0.34758687662E+04  0.34016552675E+04 0.  0.
        5    1    3    3  502    0 -0.97882138484E+03 -0.53828442678E+03 -0.16677510716E+04  0.20073009625E+04  0.46999998093E+01 0. -1.
       -5    1    3    3    0  502  0.97882138484E+03  0.53828442678E+03  0.95332464375E+03  0.14685678037E+04  0.46999998093E+01 0.  1.
</event>
<event>
 5   0  0.1645631E-08  0.3413987E+04  0.7818609E-02  0.8134482E-01
       -1   -1    0    0    0  501  0.00000000000E+00  0.00000000000E+00  0.14196477647E+04  0.14196477647E+04  0.50400001928E-02 0. -1.
        1   -1    0    0  501    0  0.00000000000E+00  0.00000000000E+00 -0.20525004242E+04  0.20525004242E+04  0.50400001928E-02 0.  1.
    10030    2    1    2    0    0  0.00000000000E+00  0.00000000000E+00 -0.63285265945E+03  0.34721481889E+04  0.34139874864E+04 0.  0.
        4    1    3    3  502    0  0.56425834213E+03 -0.68528040561E+03 -0.17992876031E+04  0.20063484749E+04  0.12699999809E+01 0.  1.
       -4    1    3    3    0  502 -0.56425834213E+03  0.68528040561E+03  0.11664349437E+04  0.14657997140E+04  0.12699999809E+01 0. -1.
</event>
<event>
 5   0  0.4946315E-08  0.3399352E+04  0.7818609E-02  0.8138065E-01
       -2   -1    0    0    0  501  0.00000000000E+00  0.00000000000E+00  0.19094791358E+04  0.19094791358E+04  0.25500000920E-02 0.  1.
        2   -1    0    0  501    0  0.00000000000E+00  0.00000000000E+00 -0.15129250354E+04  0.15129250354E+04  0.25500000920E-02 0. -1.
    10030    2    1    2    0    0  0.00000000000E+00  0.00000000000E+00  0.39655410041E+03  0.34224041712E+04  0.33993521672E+04 0.  0.
        3    1    3    3  502    0  0.13287233344E+04  0.55439625517E+03 -0.71119696389E+03  0.16058212973E+04  0.10100000352E+00 0. -1.
       -3    1    3    3    0  502 -0.13287233344E+04 -0.55439625517E+03  0.11077510643E+04  0.18165828739E+04  0.10100000352E+00 0.  1.
</event>
<event>
 5   0  0.1595851E-08  0.3399749E+04  0.7818609E-02  0.8137968E-01
        1   -1    0    0  501    0  0.00000000000E+00  0.00000000000E+00  0.25547767223E+04  0.25547767223E+04  0.50400001928E-02 0.  1.
       -1   -1    0    0    0  501  0.00000000000E+00  0.00000000000E+00 -0.11310473112E+04  0.11310473112E+04  0.50400001928E-02 0. -1.
    10030    2    1    2    0    0  0.00000000000E+00  0.00000000000E+00  0.14237294111E+04  0.36858240335E+04  0.33997490157E+04 0.  0.
        2    1    3    3  502    0 -0.84378462951E+03  0.13483614070E+03 -0.88128396763E+03  0.12275238154E+04  0.25500000920E-02 0. -1.
       -2    1    3    3    0  502  0.84378462951E+03 -0.13483614070E+03  0.23050133788E+04  0.24583002181E+04  0.25500000920E-02 0.  1.
</event>
<event>
 5   0  0.4764953E-08  0.3398677E+04  0.7818609E-02  0.8138231E-01
        2   -1    0    0  501    0  0.00000000000E+00  0.00000000000E+00  0.17685785834E+04  0.17685785834E+04  0.25500000920E-02 0. -1.
       -2   -1    0    0    0  501  0.00000000000E+00  0.00000000000E+00 -0.16328092529E+04  0.16328092529E+04  0.25500000920E-02 0.  1.
    10030    2    1    2    0    0  0.00000000000E+00  0.00000000000E+00  0.13576933051E+03  0.34013878363E+04  0.33986770811E+04 0.  0.
        2    1    3    3  502    0  0.79210462530E+03  0.10079270871E+04 -0.10485339701E+04  0.16561311050E+04  0.25500000920E-02 0.  1.
       -2    1    3    3    0  502 -0.79210462530E+03 -0.10079270871E+04  0.11843033006E+04  0.17452567313E+04  0.25500000920E-02 0. -1.
</event>
<event>
 5   0  0.1573625E-08  0.3400233E+04  0.7818609E-02  0.8137849E-01
        3   -1    0    0  501    0  0.00000000000E+00  0.00000000000E+00  0.11565350368E+04  0.11565350412E+04  0.10100000352E+00 0. -1.
       -3   -1    0    0    0  501  0.00000000000E+00  0.00000000000E+00 -0.24991856682E+04  0.24991856702E+04  0.10100000352E+00 0.  1.
    10030    2    1    2    0    0  0.00000000000E+00  0.00000000000E+00 -0.13426506314E+04  0.36557207114E+04  0.34002328159E+04 0.  0.
        3    1    3    3  502    0  0.14216287592E+04 -0.84692876788E+03 -0.25205013481E+03  0.16738715445E+04  0.10100000352E+00 0.  1.
       -3    1    3    3    0  502 -0.14216287592E+04  0.84692876788E+03 -0.10906004966E+04  0.19818491669E+04  0.10100000352E+00 0. -1.
</event>
<event>
 5   0  0.4775023E-08  0.3406255E+04  0.7818609E-02  0.8136373E-01
        2   -1    0    0  501    0  0.00000000000E+00  0.00000000000E+00  0.14426997495E+04  0.14426997495E+04  0.25500000920E-02 0. -1.
       -2   -1    0    0    0  501  0.00000000000E+00  0.00000000000E+00 -0.20105664080E+04  0.20105664080E+04  0.25500000920E-02 0.  1.
    10030    2    1    2    0    0  0.00000000000E+00  0.00000000000E+00 -0.56786665852E+03  0.34532661575E+04  0.34062552184E+04 0.  0.
        4    1    3    3  502    0 -0.74297181513E+03 -0.30245917443E+03 -0.18070508096E+04  0.19770996210E+04  0.12699999809E+01 0.  1.
       -4    1    3    3    0  502  0.74297181513E+03  0.30245917443E+03  0.12391841510E+04  0.14761665365E+04  0.12699999809E+01 0. -1.
</event>
<event>
 5   0  0.5001197E-08  0.3399858E+04  0.7818609E-02  0.8137941E-01
       -2   -1    0    0    0  501  0.00000000000E+00  0.00000000000E+00  0.12560914259E+04  0.12560914259E+04  0.25500000920E-02 0.  1.
        2   -1    0    0  501    0  0.00000000000E+00  0.00000000000E+00 -0.23005952317E+04  0.23005952317E+04  0.25500000920E-02 0. -1.
    10030    2    1    2    0    0  0.00000000000E+00  0.00000000000E+00 -0.10445038058E+04  0.35566866576E+04  0.33998576118E+04 0.  0.
        5    1    3    3  502    0 -0.46576922394E+03  0.49474009217E+03 -0.21523421314E+04  0.22570572588E+04  0.46999998093E+01 0. -1.
       -5    1    3    3    0  502  0.46576922394E+03 -0.49474009217E+03  0.11078383256E+04  0.12996293989E+04  0.46999998093E+01 0.  1.
</event>
<event>
 5   0  0.1645631E-08  0.3402085E+04  0.7818609E-02  0.8137395E-01
       -1   -1    0    0    0  501  0.00000000000E+00  0.00000000000E+00  0.14112993479E+04  0.14112993479E+04  0.50400001928E-02 0.  1.
        1   -1    0    0  501    0  0.00000000000E+00  0.00000000000E+00 -0.20502707200E+04  0.20502707200E+04  0.50400001928E-02 0. -1.
    10030    2    1    2    0    0  0.00000000000E+00  0.00000000000E+00 -0.63897137212E+03  0.34615700679E+04  0.34020850843E+04 0.  0.
        4    1    3    3  502    0  0.63578236607E+03  0.15238450562E+04  0.96591163453E+02  0.16539813899E+04  0.12699999809E+01 0.  1.
       -4    1    3    3    0  502 -0.63578236607E+03 -0.15238450562E+04 -0.73556253557E+03  0.18075886780E+04  0.12699999809E+01 0. -1.
</event>
<event>
 5   0  0.1595851E-08  0.3399672E+04  0.7818609E-02  0.8137987E-01
       -1   -1    0    0    0  501  0.00000000000E+00  0.00000000000E+00  0.19787897864E+04  0.19787897864E+04  0.50400001928E-02 0.  1.
        1   -1    0    0  501    0  0.00000000000E+00  0.00000000000E+00 -0.14602067925E+04  0.14602067925E+04  0.50400001928E-02 0. -1.
    10030    2    1    2    0    0  0.00000000000E+00  0.00000000000E+00  0.51858299391E+03  0.34389965789E+04  0.33996719177E+04 0.  0.
        2    1    3    3  502    0 -0.68355202559E+01 -0.44589560532E+03 -0.13999786489E+04  0.14692888867E+04  0.25500000920E-02 0. -1.
       -2    1    3    3    0  502  0.68355202559E+01  0.44589560532E+03  0.19185616428E+04  0.19697076922E+04  0.25500000920E-02 0.  1.
</event>
<event>
 5   0  0.5001197E-08  0.3424377E+04  0.7818609E-02  0.8131949E-01
       -2   -1    0    0    0  501  0.00000000000E+00  0.00000000000E+00  0.19688253415E+04  0.19688253415E+04  0.25500000920E-02 0. -1.
        2   -1    0    0  501    0  0.00000000000E+00  0.00000000000E+00 -0.14890044833E+04  0.14890044833E+04  0.25500000920E-02 0.  1.
    10030    2    1    2    0    0  0.00000000000E+00  0.00000000000E+00  0.47982085820E+03  0.34578298249E+04  0.34243771758E+04 0.  0.
        5    1    3    3  502    0 -0.10796847325E+04  0.29949868882E+03 -0.10673988515E+04  0.15475079917E+04  0.46999998093E+01 0.  1.
       -5    1    3    3    0  502  0.10796847325E+04 -0.29949868882E+03  0.15472197097E+04  0.19103218332E+04  0.46999998093E+01 0. -1.
</event>
<event>
 5   0  0.1630571E-08  0.3400427E+04  0.7818609E-02  0.8137802E-01
       -1   -1    0    0    0  501  0.00000000000E+00  0.00000000000E+00  0.16390951415E+04  0.16390951415E+04  0.50400001928E-02 0. -1.
        1   -1    0    0  501    0  0.00000000000E+00  0.00000000000E+00 -0.17636107076E+04  0.17636107076E+04  0.50400001928E-02 0.  1.
    10030    2    1    2    0    0  0.00000000000E+00  0.00000000000E+00 -0.12451556612E+03  0.34027058492E+04  0.34004268805E+04 0.  0.
        3    1    3    3  502    0  0.17475224155E+03  0.86260577124E+03 -0.15179143504E+04  0.17546199155E+04  0.10100000352E+00 0.  1.
       -3    1    3    3    0  502 -0.17475224155E+03 -0.86260577124E+03  0.13933987843E+04  0.16480859337E+04  0.10100000352E+00 0. -1.
</event>
<event>
 5   0  0.4973409E-08  0.3399713E+04  0.7818609E-02  0.8137977E-01
       -2   -1    0    0    0  501  0.00000000000E+00  0.00000000000E+00  0.16906485909E+04  0.16906485910E+04  0.25500000920E-02 0.  1.
        2   -1    0    0  501    0  0.00000000000E+00  0.00000000000E+00 -0.17091142046E+04  0.17091142046E+04  0.25500000920E-02 0. -1.
    10030    2    1    2    0    0  0.00000000000E+00  0.00000000000E+00 -0.18465613647E+02  0.33997627956E+04  0.33997126477E+04 0.  0.
        1    1    3    3  502    0 -0.61379912231E+03  0.13571223966E+04  0.80991355059E+03  0.16954322520E+04  0.50400001928E-02 0.  1.
       -1    1    3    3    0  502  0.61379912231E+03 -0.13571223966E+04 -0.82837916424E+03  0.17043305435E+04  0.50400001928E-02 0. -1.
</event>
<event>
 5   0  0.1625282E-08  0.3402252E+04  0.7818609E-02  0.8137354E-01
        1   -1    0    0  501    0  0.00000000000E+00  0.00000000000E+00  0.11949684224E+04  0.11949684224E+04  0.50400001928E-02 0. -1.
       -1   -1    0    0    0  501  0.00000000000E+00  0.00000000000E+00 -0.24216794002E+04  0.24216794002E+04  0.50400001928E-02 0.  1.
    10030    2    1    2    0    0  0.00000000000E+00  0.00000000000E+00 -0.12267109778E+04  0.36166478226E+04  0.34022524377E+04 0.  0.
        1    1    3    3  502    0 -0.62367105800E+02 -0.25987946420E+03  0.11725120019E+04  0.12025852928E+04  0.50400001928E-02 0. -1.
       -1    1    3    3    0  502  0.62367105800E+02  0.25987946420E+03 -0.23992229796E+04  0.24140625298E+04  0.50400001928E-02 0.  1.
</event>
<event>
 5   0  0.4973409E-08  0.3400121E+04  0.7818609E-02  0.8137877E-01
       -2   -1    0    0    0  501  0.00000000000E+00  0.00000000000E+00  0.10668759827E+04  0.10668759827E+04  0.25500000920E-02 0.  1.
        2   -1    0    0  501    0  0.00000000000E+00  0.00000000000E+00 -0.27090361384E+04  0.27090361384E+04  0.25500000920E-02 0. -1.
    10030    2    1    2    0    0  0.00000000000E+00  0.00000000000E+00 -0.16421601557E+04  0.37759121211E+04  0.34001209346E+04 0.  0.
        1    1    3    3  502    0 -0.47177997394E+03 -0.82049512296E+03  0.74724287258E+03  0.12058857746E+04  0.50400001928E-02 0.  1.
       -1    1    3    3    0  502  0.47177997394E+03  0.82049512296E+03 -0.23894030283E+04  0.25700263466E+04  0.50400001928E-02 0. -1.
</event>
<event>
 5   0  0.4973409E-08  0.3397619E+04  0.7818609E-02  0.8138491E-01
       -2   -1    0    0    0  501  0.00000000000E+00  0.00000000000E+00  0.12643405521E+04  0.12643405521E+04  0.25500000920E-02 0.  1.
        2   -1    0    0  501    0  0.00000000000E+00  0.00000000000E+00 -0.22825755892E+04  0.22825755892E+04  0.25500000920E-02 0. -1.
    10030    2    1    2    0    0  0.00000000000E+00  0.00000000000E+00 -0.10182350371E+04  0.35469161413E+04  0.33976185075E+04 0.  0.
        1    1    3    3  502    0 -0.31635493384E+03 -0.13703520880E+04 -0.15038837788E+04  0.20590317407E+04  0.50400001928E-02 0. -1.
       -1    1    3    3    0  502  0.31635493384E+03  0.13703520880E+04  0.48564874171E+03  0.14878844006E+04  0.50400001928E-02 0.  1.
</event>
<event>
 5   0  0.5001197E-08  0.3401414E+04  0.7818609E-02  0.8137559E-01
       -2   -1    0    0    0  501  0.00000000000E+00  0.00000000000E+00  0.11670963017E+04  0.11670963017E+04  0.25500000920E-02 0.  1.
        2   -1    0    0  501    0  0.00000000000E+00  0.00000000000E+00 -0.24782907411E+04  0.24782907411E+04  0.25500000920E-02 0. -1.
    10030    2    1    2    0    0  0.00000000000E+00  0.00000000000E+00 -0.13111944395E+04  0.36453870428E+04  0.34014137993E+04 0.  0.
        5    1    3    3  502    0  0.18653545881E+03  0.74789188632E+03 -0.22803311676E+04  0.24070874673E+04  0.46999998093E+01 0. -1.
       -5    1    3    3    0  502 -0.18653545881E+03 -0.74789188632E+03  0.96913672816E+03  0.12382995756E+04  0.46999998093E+01 0.  1.
</event>
<event>
 5   0  0.4946315E-08  0.3399837E+04  0.7818609E-02  0.8137946E-01
       -2   -1    0    0    0  501  0.00000000000E+00  0.00000000000E+00  0.13068594950E+04  0.13068594950E+04  0.25500000920E-02 0.  1.
        2   -1    0    0  501    0  0.00000000000E+00  0.00000000000E+00 -0.22111966646E+04  0.22111966647E+04  0.25500000920E-02 0. -1.
    10030    2    1    2    0    0  0.00000000000E+00  0.00000000000E+00 -0.90433716964E+03  0.35180561597E+04  0.33998372647E+04 0.  0.
        3    1    3    3  502    0  0.90552929557E+03 -0.25210777736E+03 -0.19178168946E+04  0.21357816574E+04  0.10100000352E+00 0. -1.
       -3    1    3    3    0  502 -0.90552929557E+03  0.25210777736E+03  0.10134797250E+04  0.13822745023E+04  0.10100000352E+00 0.  1.
</event>
<event>
 5   0  0.1595851E-08  0.3399450E+04  0.7818609E-02  0.8138041E-01
        1   -1    0    0  501    0  0.00000000000E+00  0.00000000000E+00  0.17912306626E+04  0.17912306626E+04  0.50400001928E-02 0. -1.
       -1   -1    0    0    0  501  0.00000000000E+00  0.00000000000E+00 -0.16128936119E+04  0.16128936120E+04  0.50400001928E-02 0.  1.
    10030    2    1    2    0    0  0.00000000000E+00  0.00000000000E+00  0.17833705060E+03  0.34041242745E+04  0.33994496573E+04 0.  0.
        2    1    3    3  502    0 -0.10633178241E+04 -0.12115455707E+04 -0.45062470228E+03  0.16737831661E+04  0.25500000920E-02 0.  1.
       -2    1    3    3    0  502  0.10633178241E+04  0.12115455707E+04  0.62896175288E+03  0.17303411084E+04  0.25500000920E-02 0. -1.
</event>
<event>
 5   0  0.1630571E-08  0.3400634E+04  0.7818609E-02  0.8137751E-01
        1   -1    0    0  501    0  0.00000000000E+00  0.00000000000E+00  0.12536029511E+04  0.12536029511E+04  0.50400001928E-02 0.  1.
       -1   -1    0    0    0  501  0.00000000000E+00  0.00000000000E+00 -0.23062144220E+04  0.23062144220E+04  0.50400001928E-02 0. -1.
    10030    2    1    2    0    0  0.00000000000E+00  0.00000000000E+00 -0.10526114709E+04  0.35598173731E+04  0.34006335911E+04 0.  0.
        3    1    3    3  502    0  0.12792519322E+04 -0.11159917111E+04 -0.62646193411E+03  0.18095241281E+04  0.10100000352E+00 0.  1.
       -3    1    3    3    0  502 -0.12792519322E+04  0.11159917111E+04 -0.42614953683E+03  0.17502932449E+04  0.10100000352E+00 0. -1.
</event>
<event>
 5   0  0.1595851E-08  0.3399580E+04  0.7818609E-02  0.8138009E-01
        1   -1    0    0  501    0  0.00000000000E+00  0.00000000000E+00  0.19111088641E+04  0.19111088641E+04  0.50400001928E-02 0. -1.
       -1   -1    0    0    0  501  0.00000000000E+00  0.00000000000E+00 -0.15118375223E+04  0.15118375223E+04  0.50400001928E-02 0.  1.
    10030    2    1    2    0    0  0.00000000000E+00  0.00000000000E+00  0.39927134183E+03  0.34229463864E+04  0.33995800270E+04 0.  0.
        2    1    3    3  502    0 -0.10835943335E+04 -0.13035094204E+04  0.32688709571E+03  0.17263165011E+04  0.25500000920E-02 0. -1.
       -2    1    3    3    0  502  0.10835943335E+04  0.13035094204E+04  0.72384246112E+02  0.16966298853E+04  0.25500000920E-02 0.  1.
</event>
<event>
 5   0  0.1625282E-08  0.3399837E+04  0.7818609E-02  0.8137946E-01
        1   -1    0    0  501    0  0.00000000000E+00  0.00000000000E+00  0.15832084774E+04  0.15832084774E+04  0.50400001928E-02 0.  1.
       -1   -1    0    0    0  501  0.00000000000E+00  0.00000000000E+00 -0.18252323011E+04  0.18252323011E+04  0.50400001928E-02 0. -1.
    10030    2    1    2    0    0  0.00000000000E+00  0.00000000000E+00 -0.24202382366E+03  0.34084407785E+04  0.33998372033E+04 0.  0.
        1    1    3    3  502    0  0.71014485523E+02 -0.13287316041E+04  0.93956524526E+03  0.16289117788E+04  0.50400001928E-02 0.  1.
       -1    1    3    3    0  502 -0.71014485523E+02  0.13287316041E+04 -0.11815890689E+04  0.17795289997E+04  0.50400001928E-02 0. -1.
</event>
<event>
 5   0  0.4775023E-08  0.3400390E+04  0.7818609E-02  0.8137810E-01
       -2   -1    0    0    0  501  0.00000000000E+00  0.00000000000E+00  0.18794949214E+04  0.18794949214E+04  0.25500000920E-02 0. -1.
        2   -1    0    0  501    0  0.00000000000E+00  0.00000000000E+00 -0.15380003572E+04  0.15380003572E+04  0.25500000920E-02 0.  1.
    10030    2    1    2    0    0  0.00000000000E+00  0.00000000000E+00  0.34149456416E+03  0.34174952786E+04  0.34003904838E+04 0.  0.
        4    1    3    3  502    0 -0.14516392049E+04 -0.83882706412E+03  0.45461277364E+03  0.17371130106E+04  0.12699999809E+01 0.  1.
       -4    1    3    3    0  502  0.14516392049E+04  0.83882706412E+03 -0.11311820947E+03  0.16803822681E+04  0.12699999809E+01 0. -1.
</event>
<event>
 5   0  0.1630571E-08  0.3398217E+04  0.7818609E-02  0.8138344E-01
       -1   -1    0    0    0  501  0.00000000000E+00  0.00000000000E+00  0.21271046676E+04  0.21271046676E+04  0.50400001928E-02 0.  1.
        1   -1    0    0  501    0  0.00000000000E+00  0.00000000000E+00 -0.13572294021E+04  0.13572294021E+04  0.50400001928E-02 0. -1.
    10030    2    1    2    0    0  0.00000000000E+00  0.00000000000E+00  0.76987526548E+03  0.34843340697E+04  0.33982165888E+04 0.  0.
        3    1    3    3  502    0  0.60875852807E+03 -0.23664241076E+02  0.20112676989E+04  0.21015101019E+04  0.10100000352E+00 0.  1.
       -3    1    3    3    0  502 -0.60875852807E+03  0.23664241076E+02 -0.12413924334E+04  0.13828239677E+04  0.10100000352E+00 0. -1.
</event>
<event>
 5   0  0.4764953E-08  0.3395367E+04  0.7818609E-02  0.8139044E-01
        2   -1    0    0  501    0  0.00000000000E+00  0.00000000000E+00  0.18786834129E+04  0.18786834129E+04  0.25500000920E-02 0. -1.
       -2   -1    0    0    0  501  0.00000000000E+00  0.00000000000E+00 -0.15341216143E+04  0.15341216143E+04  0.25500000920E-02 0.  1.
    10030    2    1    2    0    0  0.00000000000E+00  0.00000000000E+00  0.34456179861E+03  0.34128050271E+04  0.33953667431E+04 0.  0.
        2    1    3    3  502    0 -0.46148140512E+03 -0.70846981728E+03 -0.13074328735E+04  0.15570084418E+04  0.25500000920E-02 0.  1.
       -2    1    3    3    0  502  0.46148140512E+03  0.70846981728E+03  0.16519946721E+04  0.18557965853E+04  0.25500000920E-02 0. -1.
</event>
<event>
 5   0  0.1579536E-08  0.3398855E+04  0.7818609E-02  0.8138187E-01
       -1   -1    0    0    0  501  0.00000000000E+00  0.00000000000E+00  0.15826914415E+04  0.15826914415E+04  0.50400001928E-02 0.  1.
        1   -1    0    0  501    0  0.00000000000E+00  0.00000000000E+00 -0.18247733333E+04  0.18247733333E+04  0.50400001928E-02 0. -1.
    10030    2    1    2    0    0  0.00000000000E+00  0.00000000000E+00 -0.24208189179E+03  0.34074647748E+04  0.33988545937E+04 0.  0.
        5    1    3    3  502    0 -0.88943150552E+03 -0.14099892483E+04  0.20975395967E+03  0.16802312034E+04  0.46999998093E+01 0.  1.
       -5    1    3    3    0  502  0.88943150552E+03  0.14099892483E+04 -0.45183585147E+03  0.17272335714E+04  0.46999998093E+01 0. -1.
</event>
<event>
 5   0  0.4775023E-08  0.3398976E+04  0.7818609E-02  0.8138158E-01
        2   -1    0    0  501    0  0.00000000000E+00  0.00000000000E+00  0.20667071427E+04  0.20667071427E+04  0.25500000920E-02 0. -1.
       -2   -1    0    0    0  501  0.00000000000E+00  0.00000000000E+00 -0.13975178035E+04  0.13975178035E+04  0.25500000920E-02 0.  1.
    10030    2    1    2    0    0  0.00000000000E+00  0.00000000000E+00  0.66918933922E+03  0.34642249462E+04  0.33989763321E+04 0.  0.
        4    1    3    3  502    0 -0.11934585064E+03  0.10918982876E+04  0.16563213188E+04  0.19874323200E+04  0.12699999809E+01 0. -1.
       -4    1    3    3    0  502  0.11934585064E+03 -0.10918982876E+04 -0.98713197962E+03  0.14767926262E+04  0.12699999809E+01 0.  1.
</event>
<event>
 5   0  0.4973409E-08  0.3386680E+04  0.7818609E-02  0.8141183E-01
       -2   -1    0    0    0  501  0.00000000000E+00  0.00000000000E+00  0.12396037522E+04  0.12396037522E+04  0.25500000920E-02 0. -1.
        2   -1    0    0  501    0  0.00000000000E+00  0.00000000000E+00 -0.23131583242E+04  0.23131583242E+04  0.25500000920E-02 0.  1.
    10030    2    1    2    0    0  0.00000000000E+00  0.00000000000E+00 -0.10735545720E+04  0.35527620764E+04  0.33866796353E+04 0.  0.
        1    1    3    3  502    0 -0.14299319535E+04  0.79501554505E+03 -0.78736347312E+02  0.16379726862E+04  0.50400001928E-02 0. -1.
       -1    1    3    3    0  502  0.14299319535E+04 -0.79501554505E+03 -0.99481822466E+03  0.19147893901E+04  0.50400001928E-02 0.  1.
</event>
<event>
 5   0  0.4973409E-08  0.3400904E+04  0.7818609E-02  0.8137684E-01
        2   -1    0    0  501    0  0.00000000000E+00  0.00000000000E+00  0.18486440565E+04  0.18486440565E+04  0.25500000920E-02 0.  1.
       -2   -1    0    0    0  501  0.00000000000E+00  0.00000000000E+00 -0.15641395979E+04  0.15641395979E+04  0.25500000920E-02 0. -1.
    10030    2    1    2    0    0  0.00000000000E+00  0.00000000000E+00  0.28450445860E+03  0.34127836543E+04  0.34009042157E+04 0.  0.
        1    1    3    3  502    0 -0.10806645952E+04 -0.70063347597E+03  0.12564522453E+04  0.17992763767E+04  0.50400001928E-02 0.  1.
       -1    1    3    3    0  502  0.10806645952E+04  0.70063347597E+03 -0.97194778670E+03  0.16135072776E+04  0.50400001928E-02 0. -1.
</event>
<event>
 5   0  0.1645631E-08  0.3400347E+04  0.7818609E-02  0.8137821E-01
        1   -1    0    0  501    0  0.00000000000E+00  0.00000000000E+00  0.17815984798E+04  0.17815984798E+04  0.50400001928E-02 0. -1.
       -1   -1    0    0    0  501  0.00000000000E+00  0.00000000000E+00 -0.16224701737E+04  0.16224701737E+04  0.50400001928E-02 0.  1.
    10030    2    1    2    0    0  0.00000000000E+00  0.00000000000E+00  0.15912830609E+03  0.34040686536E+04  0.34003472735E+04 0.  0.
        4    1    3    3  502    0 -0.14310567032E+03 -0.47297120158E+03  0.17081228659E+04  0.17781637518E+04  0.12699999809E+01 0. -1.
       -4    1    3    3    0  502  0.14310567032E+03  0.47297120158E+03 -0.15489945598E+04  0.16259049018E+04  0.12699999809E+01 0.  1.
</event>
<event>
 5   0  0.4775023E-08  0.3402021E+04  0.7818609E-02  0.8137411E-01
        2   -1    0    0  501    0  0.00000000000E+00  0.00000000000E+00  0.21987187441E+04  0.21987187441E+04  0.25500000920E-02 0. -1.
       -2   -1    0    0    0  501  0.00000000000E+00  0.00000000000E+00 -0.13159645969E+04  0.13159645969E+04  0.25500000920E-02 0.  1.
    10030    2    1    2    0    0  0.00000000000E+00  0.00000000000E+00  0.88275414719E+03  0.35146833410E+04  0.34020205912E+04 0.  0.
        4    1    3    3  502    0 -0.54233899744E+03  0.14772560716E+04 -0.22577726312E+03  0.15897779954E+04  0.12699999809E+01 0.  1.
       -4    1    3    3    0  502  0.54233899744E+03 -0.14772560716E+04  0.11085314103E+04  0.19249053456E+04  0.12699999809E+01 0. -1.
</event>
<event>
 5   0  0.4775023E-08  0.3403810E+04  0.7818609E-02  0.8136972E-01
       -2   -1    0    0    0  501  0.00000000000E+00  0.00000000000E+00  0.14708682283E+04  0.14708682283E+04  0.25500000920E-02 0.  1.
        2   -1    0    0  501    0  0.00000000000E+00  0.00000000000E+00 -0.19692324436E+04  0.19692324437E+04  0.25500000920E-02 0. -1.
    10030    2    1    2    0    0  0.00000000000E+00  0.00000000000E+00 -0.49836421532E+03  0.34401006720E+04  0.34038104739E+04 0.  0.
        4    1    3    3  502    0 -0.15718443833E+03  0.95456509299E+03  0.11659529301E+04  0.15150410267E+04  0.12699999809E+01 0.  1.
       -4    1    3    3    0  502  0.15718443833E+03 -0.95456509299E+03 -0.16643171454E+04  0.19250596453E+04  0.12699999809E+01 0. -1.
</event>
<event>
 5   0  0.1595851E-08  0.3404230E+04  0.7818609E-02  0.8136869E-01
        1   -1    0    0  501    0  0.00000000000E+00  0.00000000000E+00  0.15058546243E+04  0.15058546243E+04  0.50400001928E-02 0.  1.
       -1   -1    0    0    0  501  0.00000000000E+00  0.00000000000E+00 -0.19239546221E+04  0.19239546221E+04  0.50400001928E-02 0. -1.
    10030    2    1    2    0    0  0.00000000000E+00  0.00000000000E+00 -0.41809999782E+03  0.34298092465E+04  0.34042302888E+04 0.  0.
        2    1    3    3  502    0  0.36075811290E+03  0.14306168086E+04 -0.10641824641E+04  0.18191468292E+04  0.25500000920E-02 0. -1.
       -2    1    3    3    0  502 -0.36075811290E+03 -0.14306168086E+04  0.64608246632E+03  0.16106624173E+04  0.25500000920E-02 0.  1.
</event>
<event>
 5   0  0.4775023E-08  0.3400911E+04  0.7818609E-02  0.8137683E-01
       -2   -1    0    0    0  501  0.00000000000E+00  0.00000000000E+00  0.18028860123E+04  0.18028860123E+04  0.25500000920E-02 0.  1.
        2   -1    0    0  501    0  0.00000000000E+00  0.00000000000E+00 -0.16038442584E+04  0.16038442584E+04  0.25500000920E-02 0. -1.
    10030    2    1    2    0    0  0.00000000000E+00  0.00000000000E+00  0.19904175387E+03  0.34067302707E+04  0.34009106895E+04 0.  0.
        4    1    3    3  502    0  0.13633727004E+04 -0.82909356747E+03 -0.48916280824E+03  0.16689706797E+04  0.12699999809E+01 0. -1.
       -4    1    3    3    0  502 -0.13633727004E+04  0.82909356747E+03  0.68820456211E+03  0.17377595910E+04  0.12699999809E+01 0.  1.
</event>
<event>
 5   0  0.1579536E-08  0.3398558E+04  0.7818609E-02  0.8138260E-01
        1   -1    0    0  501    0  0.00000000000E+00  0.00000000000E+00  0.23727800720E+04  0.23727800720E+04  0.50400001928E-02 0. -1.
       -1   -1    0    0    0  501  0.00000000000E+00  0.00000000000E+00 -0.12169473623E+04  0.12169473623E+04  0.50400001928E-02 0.  1.
    10030    2    1    2    0    0  0.00000000000E+00  0.00000000000E+00  0.11558327098E+04  0.35897274343E+04  0.33985576058E+04 0.  0.
        5    1    3    3  502    0 -0.94642785687E+03  0.12461191413E+04  0.12777471398E+04  0.20201976255E+04  0.46999998093E+01 0. -1.
       -5    1    3    3    0  502  0.94642785687E+03 -0.12461191413E+04 -0.12191443006E+03  0.15695298089E+04  0.46999998093E+01 0.  1.
</event>
<event>
 5   0  0.1579536E-08  0.3402054E+04  0.7818609E-02  0.8137402E-01
       -1   -1    0    0    0  501  0.00000000000E+00  0.00000000000E+00  0.14864688883E+04  0.14864688883E+04  0.50400001928E-02 0. -1.
        1   -1    0    0  501    0  0.00000000000E+00  0.00000000000E+00 -0.19465542904E+04  0.19465542904E+04  0.50400001928E-02 0.  1.
    10030    2    1    2    0    0  0.00000000000E+00  0.00000000000E+00 -0.46008540207E+03  0.34330231787E+04  0.34020537280E+04 0.  0.
        5    1    3    3  502    0  0.91031319852E+03 -0.73109477079E+03  0.10182715959E+04  0.15492155487E+04  0.46999998093E+01 0. -1.
       -5    1    3    3    0  502 -0.91031319852E+03  0.73109477079E+03 -0.14783569980E+04  0.18838076300E+04  0.46999998093E+01 0.  1.
</event>
<event>
 5   0  0.1579536E-08  0.3399662E+04  0.7818609E-02  0.8137989E-01
        1   -1    0    0  501    0  0.00000000000E+00  0.00000000000E+00  0.27761052617E+04  0.27761052617E+04  0.50400001928E-02 0. -1.
       -1   -1    0    0    0  501  0.00000000000E+00  0.00000000000E+00 -0.10408198983E+04  0.10408198983E+04  0.50400001928E-02 0.  1.
    10030    2    1    2    0    0  0.00000000000E+00  0.00000000000E+00  0.17352853634E+04  0.38169251600E+04  0.33996620986E+04 0.  0.
        5    1    3    3  502    0  0.14989572369E+04 -0.80153986037E+03  0.85862155907E+03  0.19043613149E+04  0.46999998093E+01 0.  1.
       -5    1    3    3    0  502 -0.14989572369E+04  0.80153986037E+03  0.87666380438E+03  0.19125638451E+04  0.46999998093E+01 0. -1.
</event>
<event>
 5   0  0.1595851E-08  0.3400042E+04  0.7818609E-02  0.8137896E-01
        1   -1    0    0  501    0  0.00000000000E+00  0.00000000000E+00  0.31437067295E+04  0.31437067296E+04  0.50400001928E-02 0. -1.
       -1   -1    0    0    0  501  0.00000000000E+00  0.00000000000E+00 -0.91931956667E+03  0.91931956669E+03  0.50400001928E-02 0.  1.
    10030    2    1    2    0    0  0.00000000000E+00  0.00000000000E+00  0.22243871629E+04  0.40630262962E+04  0.34000418282E+04 0.  0.
        2    1    3    3  502    0  0.19983301677E+02  0.16997176347E+04  0.11422290201E+04  0.20479566656E+04  0.25500000920E-02 0. -1.
       -2    1    3    3    0  502 -0.19983301677E+02 -0.16997176347E+04  0.10821581428E+04  0.20150696306E+04  0.25500000920E-02 0.  1.
</event>
<event>
 5   0  0.4946315E-08  0.3397838E+04  0.7818609E-02  0.8138437E-01
       -2   -1    0    0    0  501  0.00000000000E+00  0.00000000000E+00  0.12343061607E+04  0.12343061607E+04  0.25500000920E-02 0.  1.
        2   -1    0    0  501    0  0.00000000000E+00  0.00000000000E+00 -0.23384196871E+04  0.23384196871E+04  0.25500000920E-02 0. -1.
    10030    2    1    2    0    0  0.00000000000E+00  0.00000000000E+00 -0.11041135264E+04  0.35727258478E+04  0.33978380339E+04 0.  0.
        3    1    3    3  502    0  0.80651353280E+03 -0.79831471864E+03  0.77735910249E+03  0.13755208661E+04  0.10100000352E+00 0.  1.
       -3    1    3    3    0  502 -0.80651353280E+03  0.79831471864E+03 -0.18814726288E+04  0.21972049818E+04  0.10100000352E+00 0. -1.
</event>
<event>
 5   0  0.5001197E-08  0.3399628E+04  0.7818609E-02  0.8137998E-01
       -2   -1    0    0    0  501  0.00000000000E+00  0.00000000000E+00  0.15306217237E+04  0.15306217237E+04  0.25500000920E-02 0.  1.
        2   -1    0    0  501    0  0.00000000000E+00  0.00000000000E+00 -0.18877080145E+04  0.18877080145E+04  0.25500000920E-02 0. -1.
    10030    2    1    2    0    0  0.00000000000E+00  0.00000000000E+00 -0.35708629088E+03  0.34183297382E+04  0.33996275649E+04 0.  0.
        5    1    3    3  502    0  0.39904366881E+03  0.16466792841E+04 -0.31551400892E+03  0.17234731487E+04  0.46999998093E+01 0.  1.
       -5    1    3    3    0  502 -0.39904366881E+03 -0.16466792841E+04 -0.41572281960E+02  0.16948565895E+04  0.46999998093E+01 0. -1.
</event>
<event>
 5   0  0.4764953E-08  0.3399184E+04  0.7818609E-02  0.8138107E-01
       -2   -1    0    0    0  501  0.00000000000E+00  0.00000000000E+00  0.13430347773E+04  0.13430347773E+04  0.25500000920E-02 0. -1.
        2   -1    0    0  501    0  0.00000000000E+00  0.00000000000E+00 -0.21508096662E+04  0.21508096662E+04  0.25500000920E-02 0.  1.
    10030    2    1    2    0    0  0.00000000000E+00  0.00000000000E+00 -0.80777488889E+03  0.34938444434E+04  0.33991835378E+04 0.  0.
        2    1    3    3  502    0  0.71960133760E+03  0.13819768189E+04  0.29393451597E+03  0.15855861732E+04  0.25500000920E-02 0. -1.
       -2    1    3    3    0  502 -0.71960133760E+03 -0.13819768189E+04 -0.11017094049E+04  0.19082582702E+04  0.25500000920E-02 0.  1.
</event>
<event>
 5   0  0.1645631E-08  0.3399430E+04  0.7818609E-02  0.8138046E-01
        1   -1    0    0  501    0  0.00000000000E+00  0.00000000000E+00  0.18608583903E+04  0.18608583903E+04  0.50400001928E-02 0. -1.
       -1   -1    0    0    0  501  0.00000000000E+00  0.00000000000E+00 -0.15525263409E+04  0.15525263409E+04  0.50400001928E-02 0.  1.
    10030    2    1    2    0    0  0.00000000000E+00  0.00000000000E+00  0.30833204941E+03  0.34133847313E+04  0.33994303451E+04 0.  0.
        4    1    3    3  502    0 -0.15103788476E+04  0.65861976956E+03 -0.26468631447E+03  0.16688573103E+04  0.12699999809E+01 0.  1.
       -4    1    3    3    0  502  0.15103788476E+04 -0.65861976956E+03  0.57301836388E+03  0.17445274210E+04  0.12699999809E+01 0. -1.
</event>
<event>
 5   0  0.4973409E-08  0.3388751E+04  0.7818609E-02  0.8140673E-01
        2   -1    0    0  501    0  0.00000000000E+00  0.00000000000E+00  0.15098599068E+04  0.15098599068E+04  0.25500000920E-02 0.  1.
       -2   -1    0    0    0  501  0.00000000000E+00  0.00000000000E+00 -0.19014397046E+04  0.19014397046E+04  0.25500000920E-02 0. -1.
    10030    2    1    2    0    0  0.00000000000E+00  0.00000000000E+00 -0.39157979783E+03  0.34112996114E+04  0.33887505515E+04 0.  0.
        1    1    3    3  502    0  0.76173168883E+03  0.95166455032E+03  0.98890425837E+03  0.15696599040E+04  0.50400001928E-02 0.  1.
       -1    1    3    3    0  502 -0.76173168883E+03 -0.95166455032E+03 -0.13804840562E+04  0.18416397073E+04  0.50400001928E-02 0. -1.
</event>
<event>
 5   0  0.1595851E-08  0.3399090E+04  0.7818609E-02  0.8138130E-01
       -1   -1    0    0    0  501  0.00000000000E+00  0.00000000000E+00  0.13135728297E+04  0.13135728297E+04  0.50400001928E-02 0.  1.
        1   -1    0    0  501    0  0.00000000000E+00  0.00000000000E+00 -0.21989283437E+04  0.21989283437E+04  0.50400001928E-02 0. -1.
    10030    2    1    2    0    0  0.00000000000E+00  0.00000000000E+00 -0.88535551401E+03  0.35125011734E+04  0.33990895997E+04 0.  0.
        2    1    3    3  502    0 -0.51853888881E+03 -0.53627337936E+03 -0.20207117397E+04  0.21540073472E+04  0.25500000920E-02 0. -1.
       -2    1    3    3    0  502  0.51853888881E+03  0.53627337936E+03  0.11353562257E+04  0.13584938262E+04  0.25500000920E-02 0.  1.
</event>
<event>
 5   0  0.1625282E-08  0.3403376E+04  0.7818609E-02  0.8137078E-01
        1   -1    0    0  501    0  0.00000000000E+00  0.00000000000E+00  0.24671571214E+04  0.24671571214E+04  0.50400001928E-02 0. -1.
       -1   -1    0    0    0  501  0.00000000000E+00  0.00000000000E+00 -0.11737161052E+04  0.11737161052E+04  0.50400001928E-02 0.  1.
    10030    2    1    2    0    0  0.00000000000E+00  0.00000000000E+00  0.12934410163E+04  0.36408732266E+04  0.34033759989E+04 0.  0.
        1    1    3    3  502    0 -0.36008393757E+03 -0.15740197266E+04  0.72073331260E+02  0.16162899204E+04  0.50400001928E-02 0.  1.
       -1    1    3    3    0  502  0.36008393757E+03  0.15740197266E+04  0.12213676850E+04  0.20245833062E+04  0.50400001928E-02 0. -1.
</event>
<event>
 5   0  0.1630571E-08  0.3404845E+04  0.7818609E-02  0.8136718E-01
        1   -1    0    0  501    0  0.00000000000E+00  0.00000000000E+00  0.21146877835E+04  0.21146877835E+04  0.50400001928E-02 0.  1.
       -1   -1    0    0    0  501  0.00000000000E+00  0.00000000000E+00 -0.13705299984E+04  0.13705299984E+04  0.50400001928E-02 0. -1.
    10030    2    1    2    0    0  0.00000000000E+00  0.00000000000E+00  0.74415778509E+03  0.34852177819E+04  0.34048453971E+04 0.  0.
        3    1    3    3  502    0 -0.11609655112E+04  0.69610285217E+03 -0.68468783223E+03  0.15169698536E+04  0.10100000352E+00 0. -1.
       -3    1    3    3    0  502  0.11609655112E+04 -0.69610285217E+03  0.14288456173E+04  0.19682479283E+04  0.10100000352E+00 0.  1.
</event>
<event>
 5   0  0.1595851E-08  0.3399690E+04  0.7818609E-02  0.8137982E-01
       -1   -1    0    0    0  501  0.00000000000E+00  0.00000000000E+00  0.13993731443E+04  0.13993731443E+04  0.50400001928E-02 0. -1.
        1   -1    0    0  501    0  0.00000000000E+00  0.00000000000E+00 -0.20648343149E+04  0.20648343149E+04  0.50400001928E-02 0.  1.
    10030    2    1    2    0    0  0.00000000000E+00  0.00000000000E+00 -0.66546117066E+03  0.34642074592E+04  0.33996903905E+04 0.  0.
        2    1    3    3  502    0  0.86869910595E+03 -0.87974585965E+03  0.85597658707E+03  0.15037575708E+04  0.25500000920E-02 0. -1.
       -2    1    3    3    0  502 -0.86869910595E+03  0.87974585965E+03 -0.15214377577E+04  0.19604498884E+04  0.25500000920E-02 0.  1.
</event>
<event>
 5   0  0.1630571E-08  0.3399771E+04  0.7818609E-02  0.8137963E-01
       -1   -1    0    0    0  501  0.00000000000E+00  0.00000000000E+00  0.12285707312E+04  0.12285707312E+04  0.50400001928E-02 0.  1.
        1   -1    0    0  501    0  0.00000000000E+00  0.00000000000E+00 -0.23520094673E+04  0.23520094673E+04  0.50400001928E-02 0. -1.
    10030    2    1    2    0    0  0.00000000000E+00  0.00000000000E+00 -0.11234387361E+04  0.35805801985E+04  0.33997705752E+04 0.  0.
        3    1    3    3  502    0  0.70399174553E+02  0.14348431788E+04  0.39539096200E+03  0.14899882599E+04  0.10100000352E+00 0. -1.
       -3    1    3    3    0  502 -0.70399174553E+02 -0.14348431788E+04 -0.15188296981E+04  0.20905919386E+04  0.10100000352E+00 0.  1.
</event>
<event>
 5   0  0.1625282E-08  0.3399699E+04  0.7818609E-02  0.8137980E-01
       -1   -1    0    0    0  501  0.00000000000E+00  0.00000000000E+00  0.19779404801E+04  0.19779404801E+04  0.50400001928E-02 0. -1.
        1   -1    0    0  501    0  0.00000000000E+00  0.00000000000E+00 -0.14608572181E+04  0.14608572182E+04  0.50400001928E-02 0.  1.
    10030    2    1    2    0    0  0.00000000000E+00  0.00000000000E+00  0.51708326193E+03  0.34387976982E+04  0.33996991793E+04 0.  0.
        1    1    3    3  502    0 -0.16607572643E+04  0.29490827130E+03  0.47168534485E+03  0.17514487272E+04  0.50400001928E-02 0.  1.
       -1    1    3    3    0  502  0.16607572643E+04 -0.29490827130E+03  0.45397917080E+02  0.16873489711E+04  0.50400001928E-02 0. -1.
</event>
<event>
 5   0  0.1595851E-08  0.3400061E+04  0.7818609E-02  0.8137891E-01
        1   -1    0    0  501    0  0.00000000000E+00  0.00000000000E+00  0.25957399955E+04  0.25957399955E+04  0.50400001928E-02 0.  1.
       -1   -1    0    0    0  501  0.00000000000E+00  0.00000000000E+00 -0.11134024522E+04  0.11134024522E+04  0.50400001928E-02 0. -1.
    10030    2    1    2    0    0  0.00000000000E+00  0.00000000000E+00  0.14823375433E+04  0.37091424477E+04  0.34000607502E+04 0.  0.
        2    1    3    3  502    0 -0.18848075662E+03  0.16679172748E+04  0.44716994920E+03  0.17370762777E+04  0.25500000920E-02 0. -1.
       -2    1    3    3    0  502  0.18848075662E+03 -0.16679172748E+04  0.10351675941E+04  0.19720661700E+04  0.25500000920E-02 0.  1.
</event>
<event>
 5   0  0.4764953E-08  0.3400284E+04  0.7818609E-02  0.8137837E-01
        2   -1    0    0  501    0  0.00000000000E+00  0.00000000000E+00  0.90908276398E+03  0.90908276398E+03  0.25500000920E-02 0.  1.
       -2   -1    0    0    0  501  0.00000000000E+00  0.00000000000E+00 -0.31795596976E+04  0.31795596976E+04  0.25500000920E-02 0. -1.
    10030    2    1    2    0    0  0.00000000000E+00  0.00000000000E+00 -0.22704769336E+04  0.40886424616E+04  0.34002840576E+04 0.  0.
        2    1    3    3  502    0 -0.14007469340E+04  0.17610895373E+03  0.38338603518E+01  0.14117793862E+04  0.25500000920E-02 0.  1.
       -2    1    3    3    0  502  0.14007469340E+04 -0.17610895373E+03 -0.22743107940E+04  0.26768630754E+04  0.25500000920E-02 0. -1.
</event>
<event>
 5   0  0.1595851E-08  0.3399238E+04  0.7818609E-02  0.8138093E-01
       -1   -1    0    0    0  501  0.00000000000E+00  0.00000000000E+00  0.10008502846E+04  0.10008502846E+04  0.50400001928E-02 0. -1.
        1   -1    0    0  501    0  0.00000000000E+00  0.00000000000E+00 -0.28862498291E+04  0.28862498291E+04  0.50400001928E-02 0.  1.
    10030    2    1    2    0    0  0.00000000000E+00  0.00000000000E+00 -0.18853995445E+04  0.38871001137E+04  0.33992375397E+04 0.  0.
        2    1    3    3  502    0 -0.15527937580E+04 -0.30442504725E+03 -0.23329173156E+03  0.15994586886E+04  0.25500000920E-02 0. -1.
       -2    1    3    3    0  502  0.15527937580E+04  0.30442504725E+03 -0.16521078129E+04  0.22876414251E+04  0.25500000920E-02 0.  1.
</event>
<event>
 5   0  0.1579536E-08  0.3398486E+04  0.7818609E-02  0.8138278E-01
        1   -1    0    0  501    0  0.00000000000E+00  0.00000000000E+00  0.21546399792E+04  0.21546399792E+04  0.50400001928E-02 0. -1.
       -1   -1    0    0    0  501  0.00000000000E+00  0.00000000000E+00 -0.13400967498E+04  0.13400967498E+04  0.50400001928E-02 0.  1.
    10030    2    1    2    0    0  0.00000000000E+00  0.00000000000E+00  0.81454322944E+03  0.34947367290E+04  0.33984855645E+04 0.  0.
        5    1    3    3  502    0  0.15029053916E+04 -0.50619675717E+03 -0.22029470097E+03  0.16010970047E+04  0.46999998093E+01 0.  1.
       -5    1    3    3    0  502 -0.15029053916E+04  0.50619675717E+03  0.10348379304E+04  0.18936397243E+04  0.46999998093E+01 0. -1.
</event>
<event>
 5   0  0.1573625E-08  0.3398557E+04  0.7818609E-02  0.8138261E-01
       -3   -1    0    0    0  501  0.00000000000E+00  0.00000000000E+00  0.14755512915E+04  0.14755512950E+04  0.10100000352E+00 0. -1.
        3   -1    0    0  501    0  0.00000000000E+00  0.00000000000E+00 -0.19569279639E+04  0.19569279665E+04  0.10100000352E+00 0.  1.
    10030    2    1    2    0    0  0.00000000000E+00  0.00000000000E+00 -0.48137667241E+03  0.34324792615E+04  0.33985571027E+04 0.  0.
        5    1    3    3  502    0  0.31982002997E+03 -0.26595638454E+03 -0.19047097162E+04  0.19496047915E+04  0.46999998093E+01 0.  1.
       -5    1    3    3    0  502 -0.31982002997E+03  0.26595638454E+03  0.14233330438E+04  0.14828744700E+04  0.46999998093E+01 0. -1.
</event>
<event>
 5   0  0.4946315E-08  0.3423648E+04  0.7818609E-02  0.8132127E-01
       -2   -1    0    0    0  501  0.00000000000E+00  0.00000000000E+00  0.14582649532E+04  0.14582649532E+04  0.25500000920E-02 0.  1.
        2   -1    0    0  501    0  0.00000000000E+00  0.00000000000E+00 -0.20094713769E+04  0.20094713769E+04  0.25500000920E-02 0. -1.
    10030    2    1    2    0    0  0.00000000000E+00  0.00000000000E+00 -0.55120642368E+03  0.34677363301E+04  0.34236481615E+04 0.  0.
        3    1    3    3  502    0  0.27422845697E+03 -0.81464489290E+03  0.12238298986E+04  0.14955290632E+04  0.10100000352E+00 0.  1.
       -3    1    3    3    0  502 -0.27422845697E+03  0.81464489290E+03 -0.17750363222E+04  0.19722072669E+04  0.10100000352E+00 0. -1.
</event>
<event>
 5   0  0.4946315E-08  0.3400179E+04  0.7818609E-02  0.8137862E-01
       -2   -1    0    0    0  501  0.00000000000E+00  0.00000000000E+00  0.17108945921E+04  0.17108945921E+04  0.25500000920E-02 0. -1.
        2   -1    0    0  501    0  0.00000000000E+00  0.00000000000E+00 -0.16893530204E+04  0.16893530204E+04  0.25500000920E-02 0.  1.
    10030    2    1    2    0    0  0.00000000000E+00  0.00000000000E+00  0.21541571710E+02  0.34002476124E+04  0.34001793756E+04 0.  0.
        3    1    3    3  502    0  0.11832131541E+04  0.11201079433E+04  0.49623883113E+03  0.17031993895E+04  0.10100000352E+00 0. -1.
       -3    1    3    3    0  502 -0.11832131541E+04 -0.11201079433E+04 -0.47469725942E+03  0.16970482229E+04  0.10100000352E+00 0.  1.
</event>
<event>
 5   0  0.4775023E-08  0.3399869E+04  0.7818609E-02  0.8137939E-01
       -2   -1    0    0    0  501  0.00000000000E+00  0.00000000000E+00  0.11230611928E+04  0.11230611928E+04  0.25500000920E-02 0. -1.
        2   -1    0    0  501    0  0.00000000000E+00  0.00000000000E+00 -0.25731249493E+04  0.25731249493E+04  0.25500000920E-02 0.  1.
    10030    2    1    2    0    0  0.00000000000E+00  0.00000000000E+00 -0.14500637564E+04  0.36961861421E+04  0.33998686885E+04 0.  0.
        4    1    3    3  502    0  0.45773296756E+03  0.34841602443E+03  0.10140303408E+04  0.11658354690E+04  0.12699999809E+01 0. -1.
       -4    1    3    3    0  502 -0.45773296756E+03 -0.34841602443E+03 -0.24640940973E+04  0.25303506731E+04  0.12699999809E+01 0.  1.
</event>
<event>
 5   0  0.4946315E-08  0.3400043E+04  0.7818609E-02  0.8137896E-01
        2   -1    0    0  501    0  0.00000000000E+00  0.00000000000E+00  0.26193062127E+04  0.26193062127E+04  0.25500000920E-02 0. -1.
       -2   -1    0    0    0  501  0.00000000000E+00  0.00000000000E+00 -0.11033733455E+04  0.11033733455E+04  0.25500000920E-02 0.  1.
    10030    2    1    2    0    0  0.00000000000E+00  0.00000000000E+00  0.15159328672E+04  0.37226795582E+04  0.34000427402E+04 0.  0.
        3    1    3    3  502    0  0.28995928791E+03 -0.15484847752E+04  0.14574911695E+04  0.21461971035E+04  0.10100000352E+00 0. -1.
       -3    1    3    3    0  502 -0.28995928791E+03  0.15484847752E+04  0.58441697640E+02  0.15764824547E+04  0.10100000352E+00 0.  1.
</event>
<event>
 5   0  0.4973409E-08  0.3400641E+04  0.7818609E-02  0.8137749E-01
        2   -1    0    0  501    0  0.00000000000E+00  0.00000000000E+00  0.15416842770E+04  0.15416842770E+04  0.25500000920E-02 0.  1.
       -2   -1    0    0    0  501  0.00000000000E+00  0.00000000000E+00 -0.18752805586E+04  0.18752805586E+04  0.25500000920E-02 0. -1.
    10030    2    1    2    0    0  0.00000000000E+00  0.00000000000E+00 -0.33359628162E+03  0.34169648356E+04  0.34006414407E+04 0.  0.
        1    1    3    3  502    0  0.26846032932E+03 -0.13381543354E+04 -0.11857479652E+04  0.18079618941E+04  0.50400001928E-02 0. -1.
       -1    1    3    3    0  502 -0.26846032932E+03  0.13381543354E+04  0.85215168353E+03  0.16090029414E+04  0.50400001928E-02 0.  1.
</event>
<event>
 5   0  0.4946315E-08  0.3400629E+04  0.7818609E-02  0.8137752E-01
       -2   -1    0    0    0  501  0.00000000000E+00  0.00000000000E+00  0.15081040446E+04  0.15081040446E+04  0.25500000920E-02 0. -1.
        2   -1    0    0  501    0  0.00000000000E+00  0.00000000000E+00 -0.19170223797E+04  0.19170223797E+04  0.25500000920E-02 0.  1.
    10030    2    1    2    0    0  0.00000000000E+00  0.00000000000E+00 -0.40891833514E+03  0.34251264244E+04  0.34006288857E+04 0.  0.
        3    1    3    3  502    0 -0.10487375524E+04  0.53691640740E+03  0.10303166569E+04  0.15651460334E+04  0.10100000352E+00 0. -1.
       -3    1    3    3    0  502  0.10487375524E+04 -0.53691640740E+03 -0.14392349920E+04  0.18599803909E+04  0.10100000352E+00 0.  1.
</event>
<event>
 5   0  0.5001197E-08  0.3400526E+04  0.7818609E-02  0.8137777E-01
       -2   -1    0    0    0  501  0.00000000000E+00  0.00000000000E+00  0.14828413720E+04  0.14828413720E+04  0.25500000920E-02 0.  1.
        2   -1    0    0  501    0  0.00000000000E+00  0.00000000000E+00 -0.19495640946E+04  0.19495640946E+04  0.25500000920E-02 0. -1.
    10030    2    1    2    0    0  0.00000000000E+00  0.00000000000E+00 -0.46672272260E+03  0.34324054666E+04  0.34005260163E+04 0.  0.
        5    1    3    3  502    0 -0.35360330042E+02 -0.84381835843E+03  0.12561395813E+04  0.15136672397E+04  0.46999998093E+01 0.  1.
       -5    1    3    3    0  502  0.35360330042E+02  0.84381835843E+03 -0.17228623039E+04  0.19187382268E+04  0.46999998093E+01 0. -1.
</event>
<event>
 5   0  0.1630571E-08  0.3401398E+04  0.7818609E-02  0.8137563E-01
       -1   -1    0    0    0  501  0.00000000000E+00  0.00000000000E+00  0.95857637041E+03  0.95857637043E+03  0.50400001928E-02 0.  1.
        1   -1    0    0  501    0  0.00000000000E+00  0.00000000000E+00 -0.30173675942E+04  0.30173675942E+04  0.50400001928E-02 0. -1.
    10030    2    1    2    0    0  0.00000000000E+00  0.00000000000E+00 -0.20587912237E+04  0.39759439646E+04  0.34013981106E+04 0.  0.
        3    1    3    3  502    0 -0.15132652283E+04  0.58817039627E+03 -0.43743389105E+03  0.16814471403E+04  0.10100000352E+00 0.  1.
       -3    1    3    3    0  502  0.15132652283E+04 -0.58817039627E+03 -0.16213573327E+04  0.22944968243E+04  0.10100000352E+00 0. -1.
</event>
<event>
 5   0  0.1625282E-08  0.3399733E+04  0.7818609E-02  0.8137972E-01
        1   -1    0    0  501    0  0.00000000000E+00  0.00000000000E+00  0.20034817909E+04  0.20034817909E+04  0.50400001928E-02 0. -1.
       -1   -1    0    0    0  501  0.00000000000E+00  0.00000000000E+00 -0.14422619000E+04  0.14422619000E+04  0.50400001928E-02 0.  1.
    10030    2    1    2    0    0  0.00000000000E+00  0.00000000000E+00  0.56121989093E+03  0.34457436909E+04  0.33997326097E+04 0.  0.
        1    1    3    3  502    0 -0.59845470170E+03 -0.14614769884E+04  0.91799490245E+03  0.18266848821E+04  0.50400001928E-02 0. -1.
       -1    1    3    3    0  502  0.59845470170E+03  0.14614769884E+04 -0.35677501152E+03  0.16190588088E+04  0.50400001928E-02 0.  1.
</event>
<event>
 5   0  0.1630571E-08  0.3389286E+04  0.7818609E-02  0.8140541E-01
        1   -1    0    0  501    0  0.00000000000E+00  0.00000000000E+00  0.16844046719E+04  0.16844046719E+04  0.50400001928E-02 0. -1.
       -1   -1    0    0    0  501  0.00000000000E+00  0.00000000000E+00 -0.17049432909E+04  0.17049432909E+04  0.50400001928E-02 0.  1.
    10030    2    1    2    0    0  0.00000000000E+00  0.00000000000E+00 -0.20538618952E+02  0.33893479628E+04  0.33892857327E+04 0.  0.
        3    1    3    3  502    0  0.72776218271E+03  0.13997226838E+03 -0.15343000486E+04  0.17039092346E+04  0.10100000352E+00 0.  1.
       -3    1    3    3    0  502 -0.72776218271E+03 -0.13997226838E+03  0.15137614296E+04  0.16854387282E+04  0.10100000352E+00 0. -1.
</event>
<event>
 5   0  0.1625282E-08  0.3399436E+04  0.7818609E-02  0.8138045E-01
        1   -1    0    0  501    0  0.00000000000E+00  0.00000000000E+00  0.19480439290E+04  0.19480439290E+04  0.50400001928E-02 0. -1.
       -1   -1    0    0    0  501  0.00000000000E+00  0.00000000000E+00 -0.14830474493E+04  0.14830474493E+04  0.50400001928E-02 0.  1.
    10030    2    1    2    0    0  0.00000000000E+00  0.00000000000E+00  0.46499647965E+03  0.34310913783E+04  0.33994361768E+04 0.  0.
        1    1    3    3  502    0  0.74351346301E+02 -0.72125398198E+03  0.17841182984E+04  0.19258280120E+04  0.50400001928E-02 0. -1.
       -1    1    3    3    0  502 -0.74351346301E+02  0.72125398198E+03 -0.13191218187E+04  0.15052633663E+04  0.50400001928E-02 0.  1.
</event>
<event>
 5   0  0.1645631E-08  0.3398001E+04  0.7818609E-02  0.8138397E-01
        1   -1    0    0  501    0  0.00000000000E+00  0.00000000000E+00  0.18638124771E+04  0.18638124771E+04  0.50400001928E-02 0. -1.
       -1   -1    0    0    0  501  0.00000000000E+00  0.00000000000E+00 -0.15487624857E+04  0.15487624857E+04  0.50400001928E-02 0.  1.
    10030    2    1    2    0    0  0.00000000000E+00  0.00000000000E+00  0.31504999141E+03  0.34125749628E+04  0.33980010859E+04 0.  0.
        4    1    3    3  502    0 -0.17581529995E+03 -0.16864159773E+04  0.26611535620E+03  0.17163125775E+04  0.12699999809E+01 0. -1.
       -4    1    3    3    0  502  0.17581529995E+03  0.16864159773E+04  0.48934635215E+02  0.16962623852E+04  0.12699999809E+01 0.  1.
</event>
<event>
 5   0  0.4775023E-08  0.3400747E+04  0.7818609E-02  0.8137723E-01
       -2   -1    0    0    0  501  0.00000000000E+00  0.00000000000E+00  0.16723832091E+04  0.16723832091E+04  0.25500000920E-02 0. -1.
        2   -1    0    0  501    0  0.00000000000E+00  0.00000000000E+00 -0.17288325155E+04  0.17288325155E+04  0.25500000920E-02 0.  1.
    10030    2    1    2    0    0  0.00000000000E+00  0.00000000000E+00 -0.56449306349E+02  0.34012157246E+04  0.34007472534E+04 0.  0.
        4    1    3    3  502    0 -0.10195580694E+04  0.43587345312E+03  0.12610551475E+04  0.16792099398E+04  0.12699999809E+01 0. -1.
       -4    1    3    3    0  502  0.10195580694E+04 -0.43587345312E+03 -0.13175044539E+04  0.17220057848E+04  0.12699999809E+01 0.  1.
</event>
<event>
 5   0  0.5001197E-08  0.3400900E+04  0.7818609E-02  0.8137685E-01
       -2   -1    0    0    0  501  0.00000000000E+00  0.00000000000E+00  0.11454378720E+04  0.11454378720E+04  0.25500000920E-02 0. -1.
        2   -1    0    0  501    0  0.00000000000E+00  0.00000000000E+00 -0.25243890764E+04  0.25243890764E+04  0.25500000920E-02 0.  1.
    10030    2    1    2    0    0  0.00000000000E+00  0.00000000000E+00 -0.13789512044E+04  0.36698269484E+04  0.34009003818E+04 0.  0.
        5    1    3    3  502    0  0.14251168947E+04  0.11110445300E+03 -0.16832835069E+04  0.22083405121E+04  0.46999998093E+01 0. -1.
       -5    1    3    3    0  502 -0.14251168947E+04 -0.11110445300E+03  0.30433230245E+03  0.14614864362E+04  0.46999998093E+01 0.  1.
</event>
<event>
 5   0  0.1625282E-08  0.3397990E+04  0.7818609E-02  0.8138400E-01
        1   -1    0    0  501    0  0.00000000000E+00  0.00000000000E+00  0.15496219587E+04  0.15496219587E+04  0.50400001928E-02 0.  1.
       -1   -1    0    0    0  501  0.00000000000E+00  0.00000000000E+00 -0.18627662262E+04  0.18627662262E+04  0.50400001928E-02 0. -1.
    10030    2    1    2    0    0  0.00000000000E+00  0.00000000000E+00 -0.31314426754E+03  0.34123881849E+04  0.33979896692E+04 0.  0.
        1    1    3    3  502    0 -0.92949750160E+03 -0.74608837001E+03 -0.13724750914E+04  0.18177737312E+04  0.50400001928E-02 0. -1.
       -1    1    3    3    0  502  0.92949750160E+03  0.74608837001E+03  0.10593308239E+04  0.15946144537E+04  0.50400001928E-02 0.  1.
</event>
<event>
 5   0  0.4946315E-08  0.3399587E+04  0.7818609E-02  0.8138008E-01
       -2   -1    0    0    0  501  0.00000000000E+00  0.00000000000E+00  0.15579114449E+04  0.15579114449E+04  0.25500000920E-02 0.  1.
        2   -1    0    0  501    0  0.00000000000E+00  0.00000000000E+00 -0.18545975300E+04  0.18545975300E+04  0.25500000920E-02 0. -1.
    10030    2    1    2    0    0  0.00000000000E+00  0.00000000000E+00 -0.29668608511E+03  0.34125089750E+04  0.33995874560E+04 0.  0.
        3    1    3    3  502    0  0.97774903240E+03  0.40380236691E+03 -0.14839072936E+04  0.18223694434E+04  0.10100000352E+00 0. -1.
       -3    1    3    3    0  502 -0.97774903240E+03 -0.40380236691E+03  0.11872212085E+04  0.15901395316E+04  0.10100000352E+00 0.  1.
</event>
<event>
 5   0  0.4973409E-08  0.3400660E+04  0.7818609E-02  0.8137744E-01
       -2   -1    0    0    0  501  0.00000000000E+00  0.00000000000E+00  0.20627147813E+04  0.20627147813E+04  0.25500000920E-02 0. -1.
        2   -1    0    0  501    0  0.00000000000E+00  0.00000000000E+00 -0.14016104822E+04  0.14016104822E+04  0.25500000920E-02 0.  1.
    10030    2    1    2    0    0  0.00000000000E+00  0.00000000000E+00  0.66110429910E+03  0.34643252634E+04  0.34006603236E+04 0.  0.
        1    1    3    3  502    0  0.84676515870E+03 -0.88763216828E+03  0.15299729449E+04  0.19610505634E+04  0.50400001928E-02 0. -1.
       -1    1    3    3    0  502 -0.84676515870E+03  0.88763216828E+03 -0.86886864577E+03  0.15032747000E+04  0.50400001928E-02 0.  1.
</event>
<event>
 5   0  0.4764953E-08  0.3400331E+04  0.7818609E-02  0.8137825E-01
       -2   -1    0    0    0  501  0.00000000000E+00  0.00000000000E+00  0.10133609806E+04  0.10133609806E+04  0.25500000920E-02 0.  1.
        2   -1    0    0  501    0  0.00000000000E+00  0.00000000000E+00 -0.28524516405E+04  0.28524516405E+04  0.25500000920E-02 0. -1.
    10030    2    1    2    0    0  0.00000000000E+00  0.00000000000E+00 -0.18390906600E+04  0.38658126211E+04  0.34003312730E+04 0.  0.
        2    1    3    3  502    0  0.11623205824E+03  0.14815318785E+04  0.19418530364E+02  0.14862111820E+04  0.25500000920E-02 0.  1.
       -2    1    3    3    0  502 -0.11623205824E+03 -0.14815318785E+04 -0.18585091903E+04  0.23796014391E+04  0.25500000920E-02 0. -1.
</event>
<event>
 5   0  0.1595851E-08  0.3400311E+04  0.7818609E-02  0.8137830E-01
       -1   -1    0    0    0  501  0.00000000000E+00  0.00000000000E+00  0.22398020968E+04  0.22398020968E+04  0.50400001928E-02 0. -1.
        1   -1    0    0  501    0  0.00000000000E+00  0.00000000000E+00 -0.12905282632E+04  0.12905282632E+04  0.50400001928E-02 0.  1.
    10030    2    1    2    0    0  0.00000000000E+00  0.00000000000E+00  0.94927383355E+03  0.35303303600E+04  0.34003105211E+04 0.  0.
        2    1    3    3  502    0  0.19637254046E+03  0.81592384793E+03 -0.10604928444E+04  0.13523827022E+04  0.25500000920E-02 0.  1.
       -2    1    3    3    0  502 -0.19637254046E+03 -0.81592384793E+03  0.20097666780E+04  0.21779476578E+04  0.25500000920E-02 0. -1.
</event>
<event>
 5   0  0.1645631E-08  0.3399502E+04  0.7818609E-02  0.8138029E-01
        1   -1    0    0  501    0  0.00000000000E+00  0.00000000000E+00  0.19059110012E+04  0.19059110012E+04  0.50400001928E-02 0.  1.
       -1   -1    0    0    0  501  0.00000000000E+00  0.00000000000E+00 -0.15158906276E+04  0.15158906276E+04  0.50400001928E-02 0. -1.
    10030    2    1    2    0    0  0.00000000000E+00  0.00000000000E+00  0.39002037356E+03  0.34218016288E+04  0.33995015068E+04 0.  0.
        4    1    3    3  502    0 -0.15627610531E+04  0.52061725824E+03 -0.22712925661E+03  0.16627849382E+04  0.12699999809E+01 0. -1.
       -4    1    3    3    0  502  0.15627610531E+04 -0.52061725824E+03  0.61714963017E+03  0.17590166905E+04  0.12699999809E+01 0.  1.
</event>
<event>
 5   0  0.5001197E-08  0.3404430E+04  0.7818609E-02  0.8136820E-01
        2   -1    0    0  501    0  0.00000000000E+00  0.00000000000E+00  0.15054967391E+04  0.15054967391E+04  0.25500000920E-02 0.  1.
       -2   -1    0    0    0  501  0.00000000000E+00  0.00000000000E+00 -0.19246381700E+04  0.19246381700E+04  0.25500000920E-02 0. -1.
    10030    2    1    2    0    0  0.00000000000E+00  0.00000000000E+00 -0.41914143092E+03  0.34301349092E+04  0.34044303424E+04 0.  0.
        5    1    3    3  502    0 -0.22168268008E+03  0.72784771519E+03  0.13246240527E+04  0.15275982712E+04  0.46999998093E+01 0.  1.
       -5    1    3    3    0  502  0.22168268008E+03 -0.72784771519E+03 -0.17437654836E+04  0.19025366380E+04  0.46999998093E+01 0. -1.
</event>
<event>
 5   0  0.1595851E-08  0.3399464E+04  0.7818609E-02  0.8138038E-01
       -1   -1    0    0    0  501  0.00000000000E+00  0.00000000000E+00  0.11693255777E+04  0.11693255777E+04  0.50400001928E-02 0. -1.
        1   -1    0    0  501    0  0.00000000000E+00  0.00000000000E+00 -0.24707312572E+04  0.24707312572E+04  0.50400001928E-02 0.  1.
    10030    2    1    2    0    0  0.00000000000E+00  0.00000000000E+00 -0.13014056795E+04  0.36400568349E+04  0.33994642253E+04 0.  0.
        2    1    3    3  502    0 -0.14959301720E+04  0.75372065149E+03 -0.34186795776E+03  0.17096127049E+04  0.25500000920E-02 0.  1.
       -2    1    3    3    0  502  0.14959301720E+04 -0.75372065149E+03 -0.95953772171E+03  0.19304441301E+04  0.25500000920E-02 0. -1.
</event>
<event>
 5   0  0.1579536E-08  0.3400645E+04  0.7818609E-02  0.8137748E-01
        1   -1    0    0  501    0  0.00000000000E+00  0.00000000000E+00  0.20642254813E+04  0.20642254813E+04  0.50400001928E-02 0.  1.
       -1   -1    0    0    0  501  0.00000000000E+00  0.00000000000E+00 -0.14005720017E+04  0.14005720017E+04  0.50400001928E-02 0. -1.
    10030    2    1    2    0    0  0.00000000000E+00  0.00000000000E+00  0.66365347966E+03  0.34647974830E+04  0.34006448885E+04 0.  0.
        5    1    3    3  502    0 -0.23910554705E+03 -0.73198454243E+03 -0.12127204240E+04  0.14365534274E+04  0.46999998093E+01 0. -1.
       -5    1    3    3    0  502  0.23910554705E+03  0.73198454243E+03  0.18763739036E+04  0.20282440556E+04  0.46999998093E+01 0.  1.
</event>
<event>
 5   0  0.1645631E-08  0.3399231E+04  0.7818609E-02  0.8138095E-01
        1   -1    0    0  501    0  0.00000000000E+00  0.00000000000E+00  0.25730051396E+04  0.25730051396E+04  0.50400001928E-02 0.  1.
       -1   -1    0    0    0  501  0.00000000000E+00  0.00000000000E+00 -0.11226920203E+04  0.11226920203E+04  0.50400001928E-02 0. -1.
    10030    2    1    2    0    0  0.00000000000E+00  0.00000000000E+00  0.14503131193E+04  0.36956971599E+04  0.33992307002E+04 0.  0.
        4    1    3    3  502    0 -0.11836893136E+04  0.39943498546E+03  0.19780622305E+04  0.23395299740E+04  0.12699999809E+01 0.  1.
       -4    1    3    3    0  502  0.11836893136E+04 -0.39943498546E+03 -0.52774911117E+03  0.13561671858E+04  0.12699999809E+01 0. -1.
</event>
<event>
 5   0  0.1630571E-08  0.3399637E+04  0.7818609E-02  0.8137995E-01
        1   -1    0    0  501    0  0.00000000000E+00  0.00000000000E+00  0.15923402411E+04  0.15923402411E+04  0.50400001928E-02 0.  1.
       -1   -1    0    0    0  501  0.00000000000E+00  0.00000000000E+00 -0.18145514143E+04  0.18145514143E+04  0.50400001928E-02 0. -1.
    10030    2    1    2    0    0  0.00000000000E+00  0.00000000000E+00 -0.22221117327E+03  0.34068916554E+04  0.33996371786E+04 0.  0.
        3    1    3    3  502    0 -0.13704231267E+03  0.14407813466E+04  0.78228525629E+03  0.16451752845E+04  0.10100000352E+00 0.  1.
       -3    1    3    3    0  502  0.13704231267E+03 -0.14407813466E+04 -0.10044964296E+04  0.17617163709E+04  0.10100000352E+00 0. -1.
</event>
<event>
 5   0  0.1579536E-08  0.3391094E+04  0.7818609E-02  0.8140096E-01
       -1   -1    0    0    0  501  0.00000000000E+00  0.00000000000E+00  0.17867585396E+04  0.17867585396E+04  0.50400001928E-02 0. -1.
        1   -1    0    0  501    0  0.00000000000E+00  0.00000000000E+00 -0.16089913147E+04  0.16089913147E+04  0.50400001928E-02 0.  1.
    10030    2    1    2    0    0  0.00000000000E+00  0.00000000000E+00  0.17776722489E+03  0.33957498542E+04  0.33910936121E+04 0.  0.
        5    1    3    3  502    0 -0.48253811769E+03  0.13574774753E+04 -0.80636226271E+03  0.16510088794E+04  0.46999998093E+01 0.  1.
       -5    1    3    3    0  502  0.48253811769E+03 -0.13574774753E+04  0.98412948760E+03  0.17447409749E+04  0.46999998093E+01 0. -1.
</event>
<event>
 5   0  0.1625282E-08  0.3395813E+04  0.7818609E-02  0.8138935E-01
        1   -1    0    0  501    0  0.00000000000E+00  0.00000000000E+00  0.24829521510E+04  0.24829521510E+04  0.50400001928E-02 0. -1.
       -1   -1    0    0    0  501  0.00000000000E+00  0.00000000000E+00 -0.11610721392E+04  0.11610721392E+04  0.50400001928E-02 0.  1.
    10030    2    1    2    0    0  0.00000000000E+00  0.00000000000E+00  0.13218800118E+04  0.36440242902E+04  0.33958130488E+04 0.  0.
        1    1    3    3  502    0  0.12253440180E+04 -0.38250497492E+03 -0.53164694755E+03  0.13893978894E+04  0.50400001928E-02 0.  1.
       -1    1    3    3    0  502 -0.12253440180E+04  0.38250497492E+03  0.18535269594E+04  0.22546264008E+04  0.50400001928E-02 0. -1.
</event>
<event>
 5   0  0.1573625E-08  0.3401277E+04  0.7818609E-02  0.8137593E-01
        3   -1    0    0  501    0  0.00000000000E+00  0.00000000000E+00  0.21257603627E+04  0.21257603651E+04  0.10100000352E+00 0. -1.
       -3   -1    0    0    0  501  0.00000000000E+00  0.00000000000E+00 -0.13605347107E+04  0.13605347144E+04  0.10100000352E+00 0.  1.
    10030    2    1    2    0    0  0.00000000000E+00  0.00000000000E+00  0.76522565204E+03  0.34862950795E+04  0.34012766842E+04 0.  0.
        5    1    3    3  502    0 -0.90659739427E+03 -0.31119573879E+03  0.18224995211E+04  0.20591960124E+04  0.46999998093E+01 0. -1.
       -5    1    3    3    0  502  0.90659739427E+03  0.31119573879E+03 -0.10572738690E+04  0.14270990671E+04  0.46999998093E+01 0.  1.
</event>
<event>
 5   0  0.4973409E-08  0.3400147E+04  0.7818609E-02  0.8137870E-01
        2   -1    0    0  501    0  0.00000000000E+00  0.00000000000E+00  0.26272817673E+04  0.26272817673E+04  0.25500000920E-02 0. -1.
       -2   -1    0    0    0  501  0.00000000000E+00  0.00000000000E+00 -0.11000910932E+04  0.11000910932E+04  0.25500000920E-02 0.  1.
    10030    2    1    2    0    0  0.00000000000E+00  0.00000000000E+00  0.15271906741E+04  0.37273728605E+04  0.34001466271E+04 0.  0.
        1    1    3    3  502    0  0.15455275927E+04 -0.27372851822E+03  0.14796553629E+04  0.21570727467E+04  0.50400001928E-02 0. -1.
       -1    1    3    3    0  502 -0.15455275927E+04  0.27372851822E+03  0.47535311240E+02  0.15703001138E+04  0.50400001928E-02 0.  1.
</event>
<event>
 5   0  0.1625282E-08  0.3398815E+04  0.7818609E-02  0.8138197E-01
        1   -1    0    0  501    0  0.00000000000E+00  0.00000000000E+00  0.23289860120E+04  0.23289860120E+04  0.50400001928E-02 0.  1.
       -1   -1    0    0    0  501  0.00000000000E+00  0.00000000000E+00 -0.12400186656E+04  0.12400186656E+04  0.50400001928E-02 0. -1.
    10030    2    1    2    0    0  0.00000000000E+00  0.00000000000E+00  0.10889673464E+04  0.35690046776E+04  0.33988151622E+04 0.  0.
        1    1    3    3  502    0 -0.64229986403E+03  0.15733086815E+04  0.53220167367E+03  0.17807548804E+04  0.50400001928E-02 0.  1.
       -1    1    3    3    0  502  0.64229986403E+03 -0.15733086815E+04  0.55676567277E+03  0.17882497972E+04  0.50400001928E-02 0. -1.
</event>
<event>
 5   0  0.4775023E-08  0.3399934E+04  0.7818609E-02  0.8137922E-01
        2   -1    0    0  501    0  0.00000000000E+00  0.00000000000E+00  0.23721974448E+04  0.23721974448E+04  0.25500000920E-02 0.  1.
       -2   -1    0    0    0  501  0.00000000000E+00  0.00000000000E+00 -0.12182325609E+04  0.12182325609E+04  0.25500000920E-02 0. -1.
    10030    2    1    2    0    0  0.00000000000E+00  0.00000000000E+00  0.11539648839E+04  0.35904300057E+04  0.33999342159E+04 0.  0.
        4    1    3    3  502    0  0.81236687610E+03  0.42819741752E+02  0.21533030924E+04  0.23018447585E+04  0.12699999809E+01 0.  1.
       -4    1    3    3    0  502 -0.81236687610E+03 -0.42819741752E+02 -0.99933820842E+03  0.12885852472E+04  0.12699999809E+01 0. -1.
</event>
<event>
 5   0  0.5001197E-08  0.3400286E+04  0.7818609E-02  0.8137836E-01
        2   -1    0    0  501    0  0.00000000000E+00  0.00000000000E+00  0.19396029210E+04  0.19396029210E+04  0.25500000920E-02 0. -1.
       -2   -1    0    0    0  501  0.00000000000E+00  0.00000000000E+00 -0.14902464939E+04  0.14902464939E+04  0.25500000920E-02 0.  1.
    10030    2    1    2    0    0  0.00000000000E+00  0.00000000000E+00  0.44935642714E+03  0.34298494149E+04  0.34002861365E+04 0.  0.
        5    1    3    3  502    0 -0.11518938633E+04 -0.12405994830E+04  0.38262123886E+03  0.17356173691E+04  0.46999998093E+01 0. -1.
       -5    1    3    3    0  502  0.11518938633E+04  0.12405994830E+04  0.66735188280E+02  0.16942320458E+04  0.46999998093E+01 0.  1.
</event>
<event>
 5   0  0.1595851E-08  0.3400849E+04  0.7818609E-02  0.8137698E-01
       -1   -1    0    0    0  501  0.00000000000E+00  0.00000000000E+00  0.98033162451E+03  0.98033162453E+03  0.50400001928E-02 0.  1.
        1   -1    0    0  501    0  0.00000000000E+00  0.00000000000E+00 -0.29494542048E+04  0.29494542048E+04  0.50400001928E-02 0. -1.
    10030    2    1    2    0    0  0.00000000000E+00  0.00000000000E+00 -0.19691225803E+04  0.39297858293E+04  0.34008488541E+04 0.  0.
        2    1    3    3  502    0 -0.12582042534E+04 -0.10174164446E+04 -0.38055007707E+03  0.16622372052E+04  0.25500000920E-02 0.  1.
       -2    1    3    3    0  502  0.12582042534E+04  0.10174164446E+04 -0.15885725032E+04  0.22675486242E+04  0.25500000920E-02 0. -1.
</event>
<event>
 5   0  0.1625282E-08  0.3400079E+04  0.7818609E-02  0.8137887E-01
       -1   -1    0    0    0  501  0.00000000000E+00  0.00000000000E+00  0.25697946688E+04  0.25697946688E+04  0.50400001928E-02 0.  1.
        1   -1    0    0  501    0  0.00000000000E+00  0.00000000000E+00 -0.11246560561E+04  0.11246560561E+04  0.50400001928E-02 0. -1.
    10030    2    1    2    0    0  0.00000000000E+00  0.00000000000E+00  0.14451386127E+04  0.36944507249E+04  0.34000794915E+04 0.  0.
        1    1    3    3  502    0 -0.22195049778E+03  0.39987466020E+03 -0.10565581333E+04  0.11512935578E+04  0.50400001928E-02 0. -1.
       -1    1    3    3    0  502  0.22195049778E+03 -0.39987466020E+03  0.25016967460E+04  0.25431571671E+04  0.50400001928E-02 0.  1.
</event>
<event>
 5   0  0.4764953E-08  0.3399862E+04  0.7818609E-02  0.8137940E-01
        2   -1    0    0  501    0  0.00000000000E+00  0.00000000000E+00  0.30471180081E+04  0.30471180081E+04  0.25500000920E-02 0. -1.
       -2   -1    0    0    0  501  0.00000000000E+00  0.00000000000E+00 -0.94835992092E+03  0.94835992093E+03  0.25500000920E-02 0.  1.
    10030    2    1    2    0    0  0.00000000000E+00  0.00000000000E+00  0.20987580872E+04  0.39954779290E+04  0.33998615226E+04 0.  0.
        2    1    3    3  502    0 -0.73179916862E+03 -0.15289552623E+04  0.12004736191E+04  0.20771064314E+04  0.25500000920E-02 0.  1.
       -2    1    3    3    0  502  0.73179916862E+03  0.15289552623E+04  0.89828446807E+03  0.19183714976E+04  0.25500000920E-02 0. -1.
</event>
<event>
 5   0  0.1630571E-08  0.3399454E+04  0.7818609E-02  0.8138040E-01
        1   -1    0    0  501    0  0.00000000000E+00  0.00000000000E+00  0.13241854513E+04  0.13241854513E+04  0.50400001928E-02 0. -1.
       -1   -1    0    0    0  501  0.00000000000E+00  0.00000000000E+00 -0.21817732830E+04  0.21817732830E+04  0.50400001928E-02 0.  1.
    10030    2    1    2    0    0  0.00000000000E+00  0.00000000000E+00 -0.85758783172E+03  0.35059587343E+04  0.33994543324E+04 0.  0.
        3    1    3    3  502    0 -0.15072677655E+04  0.50799623283E+03 -0.10468661532E+04  0.19041651825E+04  0.10100000352E+00 0.  1.
       -3    1    3    3    0  502  0.15072677655E+04 -0.50799623283E+03  0.18927832152E+03  0.16017935518E+04  0.10100000352E+00 0. -1.
</event>
<event>
 5   0  0.1630571E-08  0.3402736E+04  0.7818609E-02  0.8137235E-01
       -1   -1    0    0    0  501  0.00000000000E+00  0.00000000000E+00  0.19024651411E+04  0.19024651411E+04  0.50400001928E-02 0.  1.
        1   -1    0    0  501    0  0.00000000000E+00  0.00000000000E+00 -0.15215274106E+04  0.15215274106E+04  0.50400001928E-02 0. -1.
    10030    2    1    2    0    0  0.00000000000E+00  0.00000000000E+00  0.38093773047E+03  0.34239925517E+04  0.34027358756E+04 0.  0.
        3    1    3    3  502    0  0.14242300502E+04  0.87407838190E+03 -0.13122907681E+03  0.16762056361E+04  0.10100000352E+00 0. -1.
       -3    1    3    3    0  502 -0.14242300502E+04 -0.87407838190E+03  0.51216680729E+03  0.17477869156E+04  0.10100000352E+00 0.  1.
</event>
<event>
 5   0  0.4764953E-08  0.3399474E+04  0.7818609E-02  0.8138036E-01
       -2   -1    0    0    0  501  0.00000000000E+00  0.00000000000E+00  0.12405600418E+04  0.12405600418E+04  0.25500000920E-02 0. -1.
        2   -1    0    0  501    0  0.00000000000E+00  0.00000000000E+00 -0.23288717858E+04  0.23288717858E+04  0.25500000920E-02 0.  1.
    10030    2    1    2    0    0  0.00000000000E+00  0.00000000000E+00 -0.10883117441E+04  0.35694318276E+04  0.33994736533E+04 0.  0.
        2    1    3    3  502    0  0.92043867252E+03  0.70157410615E+03  0.76294789465E+03  0.13861829123E+04  0.25500000920E-02 0. -1.
       -2    1    3    3    0  502 -0.92043867252E+03 -0.70157410615E+03 -0.18512596387E+04  0.21832489153E+04  0.25500000920E-02 0.  1.
</event>
<event>
 5   0  0.1579536E-08  0.3399112E+04  0.7818609E-02  0.8138124E-01
        1   -1    0    0  501    0  0.00000000000E+00  0.00000000000E+00  0.18423147327E+04  0.18423147327E+04  0.50400001928E-02 0.  1.
       -1   -1    0    0    0  501  0.00000000000E+00  0.00000000000E+00 -0.15678597721E+04  0.15678597721E+04  0.50400001928E-02 0. -1.
    10030    2    1    2    0    0  0.00000000000E+00  0.00000000000E+00  0.27445496066E+03  0.34101745048E+04  0.33991123294E+04 0.  0.
        5    1    3    3  502    0 -0.16962796995E+04  0.62932775663E+02  0.22202303896E+03  0.17119117013E+04  0.46999998093E+01 0.  1.
       -5    1    3    3    0  502  0.16962796995E+04 -0.62932775663E+02  0.52431921703E+02  0.16982628035E+04  0.46999998093E+01 0. -1.
</event>
<event>
 5   0  0.4946315E-08  0.3400165E+04  0.7818609E-02  0.8137866E-01
       -2   -1    0    0    0  501  0.00000000000E+00  0.00000000000E+00  0.11205852130E+04  0.11205852130E+04  0.25500000920E-02 0. -1.
        2   -1    0    0  501    0  0.00000000000E+00  0.00000000000E+00 -0.25792605302E+04  0.25792605302E+04  0.25500000920E-02 0.  1.
    10030    2    1    2    0    0  0.00000000000E+00  0.00000000000E+00 -0.14586753172E+04  0.36998457432E+04  0.34001654140E+04 0.  0.
        3    1    3    3  502    0  0.87937979505E+03  0.13618785413E+04 -0.17208910393E+03  0.16302259522E+04  0.10100000352E+00 0. -1.
       -3    1    3    3    0  502 -0.87937979505E+03 -0.13618785413E+04 -0.12865862132E+04  0.20696197911E+04  0.10100000352E+00 0.  1.
</event>
<event>
 5   0  0.4946315E-08  0.3399736E+04  0.7818609E-02  0.8137971E-01
        2   -1    0    0  501    0  0.00000000000E+00  0.00000000000E+00  0.21551414624E+04  0.21551414624E+04  0.25500000920E-02 0. -1.
       -2   -1    0    0    0  501  0.00000000000E+00  0.00000000000E+00 -0.13407712006E+04  0.13407712006E+04  0.25500000920E-02 0.  1.
    10030    2    1    2    0    0  0.00000000000E+00  0.00000000000E+00  0.81437026185E+03  0.34959126630E+04  0.33997362286E+04 0.  0.
        3    1    3    3  502    0  0.84563651498E+03 -0.93384182429E+03 -0.76632235796E+03  0.14745886324E+04  0.10100000352E+00 0.  1.
       -3    1    3    3    0  502 -0.84563651498E+03  0.93384182429E+03  0.15806926198E+04  0.20213240306E+04  0.10100000352E+00 0. -1.
</event>
<event>
 5   0  0.4764953E-08  0.3398135E+04  0.7818609E-02  0.8138364E-01
        2   -1    0    0  501    0  0.00000000000E+00  0.00000000000E+00  0.15555414219E+04  0.15555414219E+04  0.25500000920E-02 0. -1.
       -2   -1    0    0    0  501  0.00000000000E+00  0.00000000000E+00 -0.18558368442E+04  0.18558368442E+04  0.25500000920E-02 0.  1.
    10030    2    1    2    0    0  0.00000000000E+00  0.00000000000E+00 -0.30029542229E+03  0.34113782662E+04  0.33981354203E+04 0.  0.
        2    1    3    3  502    0 -0.29177973855E+03  0.19370280481E+03  0.15189123113E+04  0.15587657944E+04  0.25500000920E-02 0. -1.
       -2    1    3    3    0  502  0.29177973855E+03 -0.19370280481E+03 -0.18192077336E+04  0.18526124717E+04  0.25500000920E-02 0.  1.
</event>
<event>
 5   0  0.1645631E-08  0.3400741E+04  0.7818609E-02  0.8137725E-01
       -1   -1    0    0    0  501  0.00000000000E+00  0.00000000000E+00  0.17248919100E+04  0.17248919100E+04  0.50400001928E-02 0. -1.
        1   -1    0    0  501    0  0.00000000000E+00  0.00000000000E+00 -0.16761974788E+04  0.16761974788E+04  0.50400001928E-02 0.  1.
    10030    2    1    2    0    0  0.00000000000E+00  0.00000000000E+00  0.48694431144E+02  0.34010893888E+04  0.34007407845E+04 0.  0.
        4    1    3    3  502    0  0.23949740863E+03  0.10065192313E+04 -0.13251679579E+04  0.16812232753E+04  0.12699999809E+01 0.  1.
       -4    1    3    3    0  502 -0.23949740863E+03 -0.10065192313E+04  0.13738623890E+04  0.17198661136E+04  0.12699999809E+01 0. -1.
</event>
<event>
 5   0  0.4973409E-08  0.3399794E+04  0.7818609E-02  0.8137957E-01
       -2   -1    0    0    0  501  0.00000000000E+00  0.00000000000E+00  0.96927356103E+03  0.96927356103E+03  0.25500000920E-02 0. -1.
        2   -1    0    0  501    0  0.00000000000E+00  0.00000000000E+00 -0.29812536711E+04  0.29812536711E+04  0.25500000920E-02 0.  1.
    10030    2    1    2    0    0  0.00000000000E+00  0.00000000000E+00 -0.20119801100E+04  0.39505272321E+04  0.33997943244E+04 0.  0.
        1    1    3    3  502    0 -0.37220513882E+03 -0.90496222969E+03  0.60919998668E+03  0.11526568988E+04  0.50400001928E-02 0. -1.
       -1    1    3    3    0  502  0.37220513882E+03  0.90496222969E+03 -0.26211800967E+04  0.27978703333E+04  0.50400001928E-02 0.  1.
</event>
<event>
 5   0  0.4764953E-08  0.3399341E+04  0.7818609E-02  0.8138068E-01
        2   -1    0    0  501    0  0.00000000000E+00  0.00000000000E+00  0.11135988497E+04  0.11135988497E+04  0.25500000920E-02 0. -1.
       -2   -1    0    0    0  501  0.00000000000E+00  0.00000000000E+00 -0.25941832861E+04  0.25941832861E+04  0.25500000920E-02 0.  1.
    10030    2    1    2    0    0  0.00000000000E+00  0.00000000000E+00 -0.14805844364E+04  0.37077821358E+04  0.33993408322E+04 0.  0.
        2    1    3    3  502    0  0.12869824721E+04 -0.67610036837E+03 -0.17007863095E+04  0.22374337225E+04  0.25500000920E-02 0.  1.
       -2    1    3    3    0  502 -0.12869824721E+04  0.67610036837E+03  0.22020187314E+03  0.14703484133E+04  0.25500000920E-02 0. -1.
</event>
<event>
 5   0  0.4775023E-08  0.3400153E+04  0.7818609E-02  0.8137869E-01
       -2   -1    0    0    0  501  0.00000000000E+00  0.00000000000E+00  0.17972724639E+04  0.17972724639E+04  0.25500000920E-02 0. -1.
        2   -1    0    0  501    0  0.00000000000E+00  0.00000000000E+00 -0.16081373050E+04  0.16081373050E+04  0.25500000920E-02 0.  1.
    10030    2    1    2    0    0  0.00000000000E+00  0.00000000000E+00  0.18913515891E+03  0.34054097690E+04  0.34001534651E+04 0.  0.
        4    1    3    3  502    0  0.92146484596E+03 -0.55024536268E+03  0.14150867135E+04  0.17760460132E+04  0.12699999809E+01 0. -1.
       -4    1    3    3    0  502 -0.92146484596E+03  0.55024536268E+03 -0.12259515546E+04  0.16293637557E+04  0.12699999809E+01 0.  1.
</event>
<event>
 5   0  0.4946315E-08  0.3398972E+04  0.7818609E-02  0.8138159E-01
        2   -1    0    0  501    0  0.00000000000E+00  0.00000000000E+00  0.15276278407E+04  0.15276278407E+04  0.25500000920E-02 0.  1.
       -2   -1    0    0    0  501  0.00000000000E+00  0.00000000000E+00 -0.18906784516E+04  0.18906784516E+04  0.25500000920E-02 0. -1.
    10030    2    1    2    0    0  0.00000000000E+00  0.00000000000E+00 -0.36305061089E+03  0.34183062923E+04  0.33989722214E+04 0.  0.
        3    1    3    3  502    0  0.98808140391E+03  0.48797791495E+03  0.11195980667E+04  0.15709637638E+04  0.10100000352E+00 0.  1.
       -3    1    3    3    0  502 -0.98808140391E+03 -0.48797791495E+03 -0.14826486775E+04  0.18473425285E+04  0.10100000352E+00 0. -1.
</event>
<event>
 5   0  0.1595851E-08  0.3395171E+04  0.7818609E-02  0.8139093E-01
       -1   -1    0    0    0  501  0.00000000000E+00  0.00000000000E+00  0.11407528596E+04  0.11407528596E+04  0.50400001928E-02 0. -1.
        1   -1    0    0  501    0  0.00000000000E+00  0.00000000000E+00 -0.25262227498E+04  0.25262227498E+04  0.50400001928E-02 0.  1.
    10030    2    1    2    0    0  0.00000000000E+00  0.00000000000E+00 -0.13854698902E+04  0.36669756094E+04  0.33951705853E+04 0.  0.
        2    1    3    3  502    0 -0.28017875494E+03 -0.31477828072E+03 -0.24688318399E+04  0.25045391102E+04  0.25500000920E-02 0.  1.
       -2    1    3    3    0  502  0.28017875494E+03  0.31477828072E+03  0.10833619497E+04  0.11624364992E+04  0.25500000920E-02 0. -1.
</event>
<event>
 5   0  0.4973409E-08  0.3381784E+04  0.7818609E-02  0.8142392E-01
       -2   -1    0    0    0  501  0.00000000000E+00  0.00000000000E+00  0.12906202653E+04  0.12906202653E+04  0.25500000920E-02 0.  1.
        2   -1    0    0  501    0  0.00000000000E+00  0.00000000000E+00 -0.22153038373E+04  0.22153038373E+04  0.25500000920E-02 0. -1.
    10030    2    1    2    0    0  0.00000000000E+00  0.00000000000E+00 -0.92468357198E+03  0.35059241026E+04  0.33817841600E+04 0.  0.
        1    1    3    3  502    0 -0.46755401750E+03 -0.60046374157E+03  0.11030373099E+04  0.13400950606E+04  0.50400001928E-02 0.  1.
       -1    1    3    3    0  502  0.46755401750E+03  0.60046374157E+03 -0.20277208819E+04  0.21658290420E+04  0.50400001928E-02 0. -1.
</event>
<event>
 5   0  0.4775023E-08  0.3398908E+04  0.7818609E-02  0.8138174E-01
        2   -1    0    0  501    0  0.00000000000E+00  0.00000000000E+00  0.19904382876E+04  0.19904382876E+04  0.25500000920E-02 0.  1.
       -2   -1    0    0    0  501  0.00000000000E+00  0.00000000000E+00 -0.14510094287E+04  0.14510094287E+04  0.25500000920E-02 0. -1.
    10030    2    1    2    0    0  0.00000000000E+00  0.00000000000E+00  0.53942885882E+03  0.34414477163E+04  0.33989084851E+04 0.  0.
        4    1    3    3  502    0 -0.29589808985E+03 -0.36746532453E+02 -0.14243173334E+04  0.14551932745E+04  0.12699999809E+01 0. -1.
       -4    1    3    3    0  502  0.29589808985E+03  0.36746532453E+02  0.19637461922E+04  0.19862544418E+04  0.12699999809E+01 0.  1.
</event>
<event>
 5   0  0.1625282E-08  0.3401399E+04  0.7818609E-02  0.8137563E-01
       -1   -1    0    0    0  501  0.00000000000E+00  0.00000000000E+00  0.17591909080E+04  0.17591909080E+04  0.50400001928E-02 0.  1.
        1   -1    0    0  501    0  0.00000000000E+00  0.00000000000E+00 -0.16441524157E+04  0.16441524157E+04  0.50400001928E-02 0. -1.
    10030    2    1    2    0    0  0.00000000000E+00  0.00000000000E+00  0.11503849228E+03  0.34033433237E+04  0.34013985248E+04 0.  0.
        1    1    3    3  502    0 -0.10935024183E+04  0.68453209739E+03  0.11663253418E+04  0.17391510959E+04  0.50400001928E-02 0.  1.
       -1    1    3    3    0  502  0.10935024183E+04 -0.68453209739E+03 -0.10512868496E+04  0.16641922279E+04  0.50400001928E-02 0. -1.
</event>
<event>
 5   0  0.1595851E-08  0.3401096E+04  0.7818609E-02  0.8137637E-01
       -1   -1    0    0    0  501  0.00000000000E+00  0.00000000000E+00  0.13281704106E+04  0.13281704106E+04  0.50400001928E-02 0.  1.
        1   -1    0    0  501    0  0.00000000000E+00  0.00000000000E+00 -0.21773281722E+04  0.21773281722E+04  0.50400001928E-02 0. -1.
    10030    2    1    2    0    0  0.00000000000E+00  0.00000000000E+00 -0.84915776162E+03  0.35054985829E+04  0.34010956191E+04 0.  0.
        2    1    3    3  502    0 -0.15063623727E+03  0.15487527269E+04  0.28243451739E+03  0.15814852329E+04  0.25500000920E-02 0.  1.
       -2    1    3    3    0  502  0.15063623727E+03 -0.15487527269E+04 -0.11315922790E+04  0.19240133500E+04  0.25500000920E-02 0. -1.
</event>
<event>
 5   0  0.1579536E-08  0.3401374E+04  0.7818609E-02  0.8137569E-01
        1   -1    0    0  501    0  0.00000000000E+00  0.00000000000E+00  0.24388339946E+04  0.24388339946E+04  0.50400001928E-02 0. -1.
       -1   -1    0    0    0  501  0.00000000000E+00  0.00000000000E+00 -0.11859506118E+04  0.11859506118E+04  0.50400001928E-02 0.  1.
    10030    2    1    2    0    0  0.00000000000E+00  0.00000000000E+00  0.12528833828E+04  0.36247846065E+04  0.34013742329E+04 0.  0.
        5    1    3    3  502    0  0.87312092617E+03  0.13458025190E+03  0.21751178593E+04  0.23476822161E+04  0.46999998093E+01 0. -1.
       -5    1    3    3    0  502 -0.87312092617E+03 -0.13458025190E+03 -0.92223447648E+03  0.12771023904E+04  0.46999998093E+01 0.  1.
</event>
<event>
 5   0  0.1573625E-08  0.3399564E+04  0.7818609E-02  0.8138013E-01
       -3   -1    0    0    0  501  0.00000000000E+00  0.00000000000E+00  0.16890101469E+04  0.16890101499E+04  0.10100000352E+00 0.  1.
        3   -1    0    0  501    0  0.00000000000E+00  0.00000000000E+00 -0.17106224415E+04  0.17106224444E+04  0.10100000352E+00 0. -1.
    10030    2    1    2    0    0  0.00000000000E+00  0.00000000000E+00 -0.21612294577E+02  0.33996325943E+04  0.33995638963E+04 0.  0.
        5    1    3    3  502    0  0.11595574973E+04  0.56391910237E+03  0.10967622770E+04  0.16927752142E+04  0.46999998093E+01 0. -1.
       -5    1    3    3    0  502 -0.11595574973E+04 -0.56391910237E+03 -0.11183745716E+04  0.17068573801E+04  0.46999998093E+01 0.  1.
</event>
<event>
 5   0  0.1630571E-08  0.3399168E+04  0.7818609E-02  0.8138110E-01
        1   -1    0    0  501    0  0.00000000000E+00  0.00000000000E+00  0.10738453515E+04  0.10738453516E+04  0.50400001928E-02 0.  1.
       -1   -1    0    0    0  501  0.00000000000E+00  0.00000000000E+00 -0.26899461395E+04  0.26899461395E+04  0.50400001928E-02 0. -1.
    10030    2    1    2    0    0  0.00000000000E+00  0.00000000000E+00 -0.16161007880E+04  0.37637914911E+04  0.33991682264E+04 0.  0.
        3    1    3    3  502    0  0.14837466160E+04  0.64954702272E+03 -0.23786545591E+03  0.16370691312E+04  0.10100000352E+00 0.  1.
       -3    1    3    3    0  502 -0.14837466160E+04 -0.64954702272E+03 -0.13782353321E+04  0.21267223598E+04  0.10100000352E+00 0. -1.
</event>
<event>
 5   0  0.4775023E-08  0.3400244E+04  0.7818609E-02  0.8137846E-01
       -2   -1    0    0    0  501  0.00000000000E+00  0.00000000000E+00  0.16151990171E+04  0.16151990171E+04  0.25500000920E-02 0.  1.
        2   -1    0    0  501    0  0.00000000000E+00  0.00000000000E+00 -0.17895101038E+04  0.17895101038E+04  0.25500000920E-02 0. -1.
    10030    2    1    2    0    0  0.00000000000E+00  0.00000000000E+00 -0.17431108671E+03  0.34047091210E+04  0.34002440859E+04 0.  0.
        4    1    3    3  502    0 -0.16161678630E+04 -0.85911053922E+02  0.43413742818E+03  0.16756658945E+04  0.12699999809E+01 0.  1.
       -4    1    3    3    0  502  0.16161678630E+04  0.85911053922E+02 -0.60844851489E+03  0.17290432264E+04  0.12699999809E+01 0. -1.
</event>
<event>
 5   0  0.1625282E-08  0.3401014E+04  0.7818609E-02  0.8137658E-01
       -1   -1    0    0    0  501  0.00000000000E+00  0.00000000000E+00  0.14177431772E+04  0.14177431772E+04  0.50400001928E-02 0. -1.
        1   -1    0    0  501    0  0.00000000000E+00  0.00000000000E+00 -0.20396665322E+04  0.20396665322E+04  0.50400001928E-02 0.  1.
    10030    2    1    2    0    0  0.00000000000E+00  0.00000000000E+00 -0.62192335496E+03  0.34574097094E+04  0.34010135606E+04 0.  0.
        1    1    3    3  502    0  0.44368533806E+03  0.79080977720E+03  0.11514639378E+04  0.14656418331E+04  0.50400001928E-02 0. -1.
       -1    1    3    3    0  502 -0.44368533806E+03 -0.79080977720E+03 -0.17733872928E+04  0.19917678763E+04  0.50400001928E-02 0.  1.
</event>
<event>
 5   0  0.5001197E-08  0.3400690E+04  0.7818609E-02  0.8137737E-01
        2   -1    0    0  501    0  0.00000000000E+00  0.00000000000E+00  0.14303292421E+04  0.14303292421E+04  0.25500000920E-02 0. -1.
       -2   -1    0    0    0  501  0.00000000000E+00  0.00000000000E+00 -0.20213336915E+04  0.20213336915E+04  0.25500000920E-02 0.  1.
    10030    2    1    2    0    0  0.00000000000E+00  0.00000000000E+00 -0.59100444939E+03  0.34516629335E+04  0.34006897458E+04 0.  0.
        5    1    3    3  502    0 -0.93431618133E+03 -0.57948167758E+03 -0.16120196855E+04  0.19512496759E+04  0.46999998093E+01 0.  1.
       -5    1    3    3    0  502  0.93431618133E+03  0.57948167758E+03  0.10210152361E+04  0.15004132576E+04  0.46999998093E+01 0. -1.
</event>
<event>
 5   0  0.5001197E-08  0.3400577E+04  0.7818609E-02  0.8137765E-01
       -2   -1    0    0    0  501  0.00000000000E+00  0.00000000000E+00  0.11883632305E+04  0.11883632305E+04  0.25500000920E-02 0.  1.
        2   -1    0    0  501    0  0.00000000000E+00  0.00000000000E+00 -0.24327413400E+04  0.24327413400E+04  0.25500000920E-02 0. -1.
    10030    2    1    2    0    0  0.00000000000E+00  0.00000000000E+00 -0.12443781096E+04  0.36211045705E+04  0.34005766321E+04 0.  0.
        5    1    3    3  502    0 -0.19024276340E+03  0.82506739784E+03 -0.21922671030E+04  0.23501033298E+04  0.46999998093E+01 0. -1.
       -5    1    3    3    0  502  0.19024276340E+03 -0.82506739784E+03  0.94788899339E+03  0.12710012407E+04  0.46999998093E+01 0.  1.
</event>
<event>
 5   0  0.5001197E-08  0.3399921E+04  0.7818609E-02  0.8137926E-01
       -2   -1    0    0    0  501  0.00000000000E+00  0.00000000000E+00  0.18408582066E+04  0.18408582066E+04  0.25500000920E-02 0. -1.
        2   -1    0    0  501    0  0.00000000000E+00  0.00000000000E+00 -0.15698466255E+04  0.15698466255E+04  0.25500000920E-02 0.  1.
    10030    2    1    2    0    0  0.00000000000E+00  0.00000000000E+00  0.27101158115E+03  0.34107048321E+04  0.33999206130E+04 0.  0.
        5    1    3    3  502    0  0.55746664417E+03  0.51685457220E+03  0.16608336162E+04  0.18265536123E+04  0.46999998093E+01 0. -1.
       -5    1    3    3    0  502 -0.55746664417E+03 -0.51685457220E+03 -0.13898220350E+04  0.15841512198E+04  0.46999998093E+01 0.  1.
</event>
<event>
 5   0  0.4764953E-08  0.3401634E+04  0.7818609E-02  0.8137505E-01
        2   -1    0    0  501    0  0.00000000000E+00  0.00000000000E+00  0.24708551225E+04  0.24708551225E+04  0.25500000920E-02 0.  1.
       -2   -1    0    0    0  501  0.00000000000E+00  0.00000000000E+00 -0.11707602971E+04  0.11707602971E+04  0.25500000920E-02 0. -1.
    10030    2    1    2    0    0  0.00000000000E+00  0.00000000000E+00  0.13000948254E+04  0.36416154196E+04  0.34016343586E+04 0.  0.
        2    1    3    3  502    0  0.11767023556E+04  0.37212747752E+03  0.19029424944E+04  0.22681043693E+04  0.25500000920E-02 0.  1.
       -2    1    3    3    0  502 -0.11767023556E+04 -0.37212747752E+03 -0.60284766907E+03  0.13735110503E+04  0.25500000920E-02 0. -1.
</event>
<event>
 5   0  0.1645631E-08  0.3400245E+04  0.7818609E-02  0.8137846E-01
       -1   -1    0    0    0  501  0.00000000000E+00  0.00000000000E+00  0.11300996929E+04  0.11300996929E+04  0.50400001928E-02 0.  1.
        1   -1    0    0  501    0  0.00000000000E+00  0.00000000000E+00 -0.25576646959E+04  0.25576646959E+04  0.50400001928E-02 0. -1.
    10030    2    1    2    0    0  0.00000000000E+00  0.00000000000E+00 -0.14275650030E+04  0.36877643887E+04  0.34002447484E+04 0.  0.
        4    1    3    3  502    0  0.79061976959E+03  0.12533153937E+04  0.19007543130E+03  0.14939910906E+04  0.12699999809E+01 0.  1.
       -4    1    3    3    0  502 -0.79061976959E+03 -0.12533153937E+04 -0.16176404343E+04  0.21937732982E+04  0.12699999809E+01 0. -1.
</event>
<event>
 5   0  0.4973409E-08  0.3399151E+04  0.7818609E-02  0.8138115E-01
       -2   -1    0    0    0  501  0.00000000000E+00  0.00000000000E+00  0.98025052078E+03  0.98025052079E+03  0.25500000920E-02 0.  1.
        2   -1    0    0  501    0  0.00000000000E+00  0.00000000000E+00 -0.29467532147E+04  0.29467532147E+04  0.25500000920E-02 0. -1.
    10030    2    1    2    0    0  0.00000000000E+00  0.00000000000E+00 -0.19665026940E+04  0.39270037355E+04  0.33991507018E+04 0.  0.
        1    1    3    3  502    0 -0.61498539017E+03 -0.31944874949E+03 -0.27761112466E+04  0.28613018343E+04  0.50400001928E-02 0. -1.
       -1    1    3    3    0  502  0.61498539017E+03  0.31944874949E+03  0.80960855264E+03  0.10657019012E+04  0.50400001928E-02 0.  1.
</event>
<event>
 5   0  0.5001197E-08  0.3422789E+04  0.7818609E-02  0.8132336E-01
       -2   -1    0    0    0  501  0.00000000000E+00  0.00000000000E+00  0.18941927430E+04  0.18941927430E+04  0.25500000920E-02 0. -1.
        2   -1    0    0  501    0  0.00000000000E+00  0.00000000000E+00 -0.15462371936E+04  0.15462371936E+04  0.25500000920E-02 0.  1.
    10030    2    1    2    0    0  0.00000000000E+00  0.00000000000E+00  0.34795554938E+03  0.34404299366E+04  0.34227890798E+04 0.  0.
        5    1    3    3  502    0  0.15271165423E+04  0.33033580862E+03  0.87589088656E+03  0.17912045153E+04  0.46999998093E+01 0. -1.
       -5    1    3    3    0  502 -0.15271165423E+04 -0.33033580862E+03 -0.52793533718E+03  0.16492254214E+04  0.46999998093E+01 0.  1.
</event>
<event>
 5   0  0.4775023E-08  0.3399406E+04  0.7818609E-02  0.8138052E-01
       -2   -1    0    0    0  501  0.00000000000E+00  0.00000000000E+00  0.15831238108E+04  0.15831238108E+04  0.25500000920E-02 0.  1.
        2   -1    0    0  501    0  0.00000000000E+00  0.00000000000E+00 -0.18248669312E+04  0.18248669312E+04  0.25500000920E-02 0. -1.
    10030    2    1    2    0    0  0.00000000000E+00  0.00000000000E+00 -0.24174312045E+03  0.34079907420E+04  0.33994060012E+04 0.  0.
        4    1    3    3  502    0 -0.56500440614E+03 -0.10377921577E+04 -0.13457369052E+04  0.17908802228E+04  0.12699999809E+01 0. -1.
       -4    1    3    3    0  502  0.56500440614E+03  0.10377921577E+04  0.11039937848E+04  0.16171105192E+04  0.12699999809E+01 0.  1.
</event>
<event>
 5   0  0.4946315E-08  0.3400117E+04  0.7818609E-02  0.8137878E-01
        2   -1    0    0  501    0  0.00000000000E+00  0.00000000000E+00  0.13128511028E+04  0.13128511028E+04  0.25500000920E-02 0. -1.
       -2   -1    0    0    0  501  0.00000000000E+00  0.00000000000E+00 -0.22014679028E+04  0.22014679028E+04  0.25500000920E-02 0.  1.
    10030    2    1    2    0    0  0.00000000000E+00  0.00000000000E+00 -0.88861680002E+03  0.35143190056E+04  0.34001173885E+04 0.  0.
        3    1    3    3  502    0 -0.27196707541E+03 -0.15910584035E+04  0.10725039029E+03  0.16176945292E+04  0.10100000352E+00 0. -1.
       -3    1    3    3    0  502  0.27196707541E+03  0.15910584035E+04 -0.99586719031E+03  0.18966244764E+04  0.10100000352E+00 0.  1.
</event>
<event>
 5   0  0.5001197E-08  0.3384998E+04  0.7818609E-02  0.8141598E-01
       -2   -1    0    0    0  501  0.00000000000E+00  0.00000000000E+00  0.23366398061E+04  0.23366398061E+04  0.25500000920E-02 0.  1.
        2   -1    0    0  501    0  0.00000000000E+00  0.00000000000E+00 -0.12259282442E+04  0.12259282442E+04  0.25500000920E-02 0. -1.
    10030    2    1    2    0    0  0.00000000000E+00  0.00000000000E+00  0.11107115619E+04  0.35625680504E+04  0.33849979232E+04 0.  0.
        5    1    3    3  502    0  0.13206152570E+04 -0.10462107769E+04  0.38581855989E+03  0.17284269432E+04  0.46999998093E+01 0. -1.
       -5    1    3    3    0  502 -0.13206152570E+04  0.10462107769E+04  0.72489300204E+03  0.18341411072E+04  0.46999998093E+01 0.  1.
</event>
<event>
 5   0  0.1645631E-08  0.3399594E+04  0.7818609E-02  0.8138006E-01
        1   -1    0    0  501    0  0.00000000000E+00  0.00000000000E+00  0.19633464608E+04  0.19633464608E+04  0.50400001928E-02 0.  1.
       -1   -1    0    0    0  501  0.00000000000E+00  0.00000000000E+00 -0.14716250268E+04  0.14716250268E+04  0.50400001928E-02 0. -1.
    10030    2    1    2    0    0  0.00000000000E+00  0.00000000000E+00  0.49172143403E+03  0.34349714877E+04  0.33995939687E+04 0.  0.
        4    1    3    3  502    0  0.47141210267E+03  0.91633036620E+03 -0.11200269132E+04  0.15219568357E+04  0.12699999809E+01 0. -1.
       -4    1    3    3    0  502 -0.47141210267E+03 -0.91633036620E+03  0.16117483473E+04  0.19130146519E+04  0.12699999809E+01 0.  1.
</event>
<event>
 5   0  0.1630571E-08  0.3400170E+04  0.7818609E-02  0.8137865E-01
       -1   -1    0    0    0  501  0.00000000000E+00  0.00000000000E+00  0.12657167013E+04  0.12657167014E+04  0.50400001928E-02 0. -1.
        1   -1    0    0  501    0  0.00000000000E+00  0.00000000000E+00 -0.22835192262E+04  0.22835192262E+04  0.50400001928E-02 0.  1.
    10030    2    1    2    0    0  0.00000000000E+00  0.00000000000E+00 -0.10178025249E+04  0.35492359276E+04  0.34001696560E+04 0.  0.
        3    1    3    3  502    0 -0.12078879768E+03 -0.63913728458E+03 -0.21484964573E+04  0.22447991980E+04  0.10100000352E+00 0.  1.
       -3    1    3    3    0  502  0.12078879768E+03  0.63913728458E+03  0.11306939325E+04  0.13044367295E+04  0.10100000352E+00 0. -1.
</event>
<event>
 5   0  0.1579536E-08  0.3399762E+04  0.7818609E-02  0.8137965E-01
       -1   -1    0    0    0  501  0.00000000000E+00  0.00000000000E+00  0.11928682673E+04  0.11928682673E+04  0.50400001928E-02 0.  1.
        1   -1    0    0  501    0  0.00000000000E+00  0.00000000000E+00 -0.24223924263E+04  0.24223924263E+04  0.50400001928E-02 0. -1.
    10030    2    1    2    0    0  0.00000000000E+00  0.00000000000E+00 -0.12295241589E+04  0.36152606936E+04  0.33997617895E+04 0.  0.
        5    1    3    3  502    0  0.63752163907E+03  0.45434913322E+03 -0.22192801261E+04  0.23533153939E+04  0.46999998093E+01 0. -1.
       -5    1    3    3    0  502 -0.63752163907E+03 -0.45434913322E+03  0.98975596711E+03  0.12619452998E+04  0.46999998093E+01 0.  1.
</event>
<event>
 5   0  0.4973409E-08  0.3398558E+04  0.7818609E-02  0.8138260E-01
       -2   -1    0    0    0  501  0.00000000000E+00  0.00000000000E+00  0.11786022703E+04  0.11786022703E+04  0.25500000920E-02 0.  1.
        2   -1    0    0  501    0  0.00000000000E+00  0.00000000000E+00 -0.24499775146E+04  0.24499775146E+04  0.25500000920E-02 0. -1.
    10030    2    1    2    0    0  0.00000000000E+00  0.00000000000E+00 -0.12713752443E+04  0.36285797849E+04  0.33985579653E+04 0.  0.
        1    1    3    3  502    0 -0.85144552700E+03  0.10738937643E+04 -0.17083452261E+04  0.21901257302E+04  0.50400001928E-02 0. -1.
       -1    1    3    3    0  502  0.85144552700E+03 -0.10738937643E+04  0.43696998176E+03  0.14384540547E+04  0.50400001928E-02 0.  1.
</event>
<event>
 5   0  0.5001197E-08  0.3395481E+04  0.7818609E-02  0.8139016E-01
       -2   -1    0    0    0  501  0.00000000000E+00  0.00000000000E+00  0.20393196908E+04  0.20393196908E+04  0.25500000920E-02 0.  1.
        2   -1    0    0  501    0  0.00000000000E+00  0.00000000000E+00 -0.14133748640E+04  0.14133748640E+04  0.25500000920E-02 0. -1.
    10030    2    1    2    0    0  0.00000000000E+00  0.00000000000E+00  0.62594482680E+03  0.34526945547E+04  0.33954812269E+04 0.  0.
        5    1    3    3  502    0 -0.81447221392E+02  0.63995335619E+03 -0.12838791898E+04  0.14368513534E+04  0.46999998093E+01 0. -1.
       -5    1    3    3    0  502  0.81447221392E+02 -0.63995335619E+03  0.19098240166E+04  0.20158432013E+04  0.46999998093E+01 0.  1.
</event>
<event>
 5   0  0.1579536E-08  0.3400138E+04  0.7818609E-02  0.8137872E-01
        1   -1    0    0  501    0  0.00000000000E+00  0.00000000000E+00  0.20701927307E+04  0.20701927307E+04  0.50400001928E-02 0. -1.
       -1   -1    0    0    0  501  0.00000000000E+00  0.00000000000E+00 -0.13961184621E+04  0.13961184621E+04  0.50400001928E-02 0.  1.
    10030    2    1    2    0    0  0.00000000000E+00  0.00000000000E+00  0.67407426863E+03  0.34663111928E+04  0.34001378157E+04 0.  0.
        5    1    3    3  502    0 -0.38530555787E+03 -0.32038661226E+03  0.19931857347E+04  0.20552176083E+04  0.46999998093E+01 0. -1.
       -5    1    3    3    0  502  0.38530555787E+03  0.32038661226E+03 -0.13191114661E+04  0.14110935845E+04  0.46999998093E+01 0.  1.
</event>
<event>
 5   0  0.1625282E-08  0.3398947E+04  0.7818609E-02  0.8138165E-01
        1   -1    0    0  501    0  0.00000000000E+00  0.00000000000E+00  0.20198273566E+04  0.20198273566E+04  0.50400001928E-02 0. -1.
       -1   -1    0    0    0  501  0.00000000000E+00  0.00000000000E+00 -0.14299290899E+04  0.14299290899E+04  0.50400001928E-02 0.  1.
    10030    2    1    2    0    0  0.00000000000E+00  0.00000000000E+00  0.58989826670E+03  0.34497564465E+04  0.33989468332E+04 0.  0.
        1    1    3    3  502    0  0.47335194533E+03  0.13508067272E+03  0.19458875069E+04  0.20071838585E+04  0.50400001928E-02 0. -1.
       -1    1    3    3    0  502 -0.47335194533E+03 -0.13508067272E+03 -0.13559892402E+04  0.14425725880E+04  0.50400001928E-02 0.  1.
</event>
<event>
 5   0  0.4764953E-08  0.3400383E+04  0.7818609E-02  0.8137812E-01
        2   -1    0    0  501    0  0.00000000000E+00  0.00000000000E+00  0.22992931013E+04  0.22992931013E+04  0.25500000920E-02 0. -1.
       -2   -1    0    0    0  501  0.00000000000E+00  0.00000000000E+00 -0.12571911918E+04  0.12571911918E+04  0.25500000920E-02 0.  1.
    10030    2    1    2    0    0  0.00000000000E+00  0.00000000000E+00  0.10421019095E+04  0.35564842932E+04  0.34003829399E+04 0.  0.
        2    1    3    3  502    0  0.10225627976E+03 -0.16052830272E+04  0.10970230090E+04  0.19470103818E+04  0.25500000920E-02 0. -1.
       -2    1    3    3    0  502 -0.10225627976E+03  0.16052830272E+04 -0.54921099512E+02  0.16094739114E+04  0.25500000920E-02 0.  1.
</event>
<event>
 5   0  0.1625282E-08  0.3398811E+04  0.7818609E-02  0.8138198E-01
        1   -1    0    0  501    0  0.00000000000E+00  0.00000000000E+00  0.11441269494E+04  0.11441269494E+04  0.50400001928E-02 0.  1.
       -1   -1    0    0    0  501  0.00000000000E+00  0.00000000000E+00 -0.25241770220E+04  0.25241770220E+04  0.50400001928E-02 0. -1.
    10030    2    1    2    0    0  0.00000000000E+00  0.00000000000E+00 -0.13800500726E+04  0.36683039714E+04  0.33988109426E+04 0.  0.
        1    1    3    3  502    0 -0.42570881669E+03 -0.12381196108E+04  0.47930567620E+03  0.13942388958E+04  0.50400001928E-02 0.  1.
       -1    1    3    3    0  502  0.42570881669E+03  0.12381196108E+04 -0.18593557488E+04  0.22740650756E+04  0.50400001928E-02 0. -1.
</event>
<event>
 5   0  0.4775023E-08  0.3399417E+04  0.7818609E-02  0.8138049E-01
       -2   -1    0    0    0  501  0.00000000000E+00  0.00000000000E+00  0.16375733179E+04  0.16375733179E+04  0.25500000920E-02 0. -1.
        2   -1    0    0  501    0  0.00000000000E+00  0.00000000000E+00 -0.17642013947E+04  0.17642013947E+04  0.25500000920E-02 0.  1.
    10030    2    1    2    0    0  0.00000000000E+00  0.00000000000E+00 -0.12662807678E+03  0.34017747126E+04  0.33994170862E+04 0.  0.
        4    1    3    3  502    0  0.27353221075E+03 -0.73253063467E+03 -0.15735281956E+04  0.17571037523E+04  0.12699999809E+01 0.  1.
       -4    1    3    3    0  502 -0.27353221075E+03  0.73253063467E+03  0.14469001188E+04  0.16446709603E+04  0.12699999809E+01 0. -1.
</event>
<event>
 5   0  0.4973409E-08  0.3400935E+04  0.7818609E-02  0.8137677E-01
       -2   -1    0    0    0  501  0.00000000000E+00  0.00000000000E+00  0.13540564542E+04  0.13540564542E+04  0.25500000920E-02 0. -1.
        2   -1    0    0  501    0  0.00000000000E+00  0.00000000000E+00 -0.21355010276E+04  0.21355010276E+04  0.25500000920E-02 0.  1.
    10030    2    1    2    0    0  0.00000000000E+00  0.00000000000E+00 -0.78144457342E+03  0.34895574818E+04  0.34009345477E+04 0.  0.
        1    1    3    3  502    0 -0.79541834335E+03 -0.14002194846E+04 -0.95110801250E+03  0.18702704076E+04  0.50400001928E-02 0.  1.
       -1    1    3    3    0  502  0.79541834335E+03  0.14002194846E+04  0.16966343908E+03  0.16192870742E+04  0.50400001928E-02 0. -1.
</event>
<event>
 5   0  0.1573625E-08  0.3400429E+04  0.7818609E-02  0.8137801E-01
       -4   -1    0    0    0  501  0.00000000000E+00  0.00000000000E+00  0.19386390827E+04  0.19386394987E+04  0.12699999809E+01 0.  1.
        4   -1    0    0  501    0  0.00000000000E+00  0.00000000000E+00 -0.14911114867E+04  0.14911120276E+04  0.12699999809E+01 0. -1.
    10030    2    1    2    0    0  0.00000000000E+00  0.00000000000E+00  0.44752759601E+03  0.34297515263E+04  0.34004285881E+04 0.  0.
        1    1    3    3  502    0  0.40574708682E+02  0.49638918751E+03 -0.14158867465E+04  0.15009276503E+04  0.50400001928E-02 0. -1.
       -1    1    3    3    0  502 -0.40574708682E+02 -0.49638918751E+03  0.18634143425E+04  0.19288238760E+04  0.50400001928E-02 0.  1.
</event>
<event>
 5   0  0.1625282E-08  0.3399447E+04  0.7818609E-02  0.8138042E-01
        1   -1    0    0  501    0  0.00000000000E+00  0.00000000000E+00  0.28103062173E+04  0.28103062173E+04  0.50400001928E-02 0. -1.
       -1   -1    0    0    0  501  0.00000000000E+00  0.00000000000E+00 -0.10280231489E+04  0.10280231489E+04  0.50400001928E-02 0.  1.
    10030    2    1    2    0    0  0.00000000000E+00  0.00000000000E+00  0.17822830685E+04  0.38383293662E+04  0.33994469237E+04 0.  0.
        1    1    3    3  502    0  0.91791567810E+02  0.15904148588E+04  0.15602866864E+04  0.22298743594E+04  0.50400001928E-02 0.  1.
       -1    1    3    3    0  502 -0.91791567810E+02 -0.15904148588E+04  0.22199638209E+03  0.16084550068E+04  0.50400001928E-02 0. -1.
</event>
<event>
 5   0  0.1573625E-08  0.3398966E+04  0.7818609E-02  0.8138160E-01
       -3   -1    0    0    0  501  0.00000000000E+00  0.00000000000E+00  0.16054078319E+04  0.16054078351E+04  0.10100000352E+00 0.  1.
        3   -1    0    0  501    0  0.00000000000E+00  0.00000000000E+00 -0.17990712311E+04  0.17990712339E+04  0.10100000352E+00 0. -1.
    10030    2    1    2    0    0  0.00000000000E+00  0.00000000000E+00 -0.19366339920E+03  0.34044790690E+04  0.33989663457E+04 0.  0.
        4    1    3    3  502    0 -0.13113696720E+04  0.95123646859E+03  0.41751864897E+03  0.16729807742E+04  0.12699999809E+01 0.  1.
       -4    1    3    3    0  502  0.13113696720E+04 -0.95123646859E+03 -0.61118204817E+03  0.17314982947E+04  0.12699999809E+01 0. -1.
</event>
<event>
 5   0  0.4775023E-08  0.3399294E+04  0.7818609E-02  0.8138079E-01
       -2   -1    0    0    0  501  0.00000000000E+00  0.00000000000E+00  0.13508212718E+04  0.13508212718E+04  0.25500000920E-02 0.  1.
        2   -1    0    0  501    0  0.00000000000E+00  0.00000000000E+00 -0.21385514131E+04  0.21385514131E+04  0.25500000920E-02 0. -1.
    10030    2    1    2    0    0  0.00000000000E+00  0.00000000000E+00 -0.78773014137E+03  0.34893726849E+04  0.33992944795E+04 0.  0.
        4    1    3    3  502    0  0.99028545941E+02 -0.59870209210E+02 -0.21345024632E+04  0.21376373578E+04  0.12699999809E+01 0. -1.
       -4    1    3    3    0  502 -0.99028545941E+02  0.59870209210E+02  0.13467723218E+04  0.13517353271E+04  0.12699999809E+01 0.  1.
</event>
<event>
 5   0  0.1645631E-08  0.3399474E+04  0.7818609E-02  0.8138035E-01
        1   -1    0    0  501    0  0.00000000000E+00  0.00000000000E+00  0.11915515585E+04  0.11915515585E+04  0.50400001928E-02 0. -1.
       -1   -1    0    0    0  501  0.00000000000E+00  0.00000000000E+00 -0.24246593876E+04  0.24246593876E+04  0.50400001928E-02 0.  1.
    10030    2    1    2    0    0  0.00000000000E+00  0.00000000000E+00 -0.12331078291E+04  0.36162109461E+04  0.33994744724E+04 0.  0.
        4    1    3    3  502    0  0.94082692601E+02  0.66605619788E+03  0.10439354963E+04  0.12418878150E+04  0.12699999809E+01 0. -1.
       -4    1    3    3    0  502 -0.94082692601E+02 -0.66605619788E+03 -0.22770433255E+04  0.23743231311E+04  0.12699999809E+01 0.  1.
</event>
<event>
 5   0  0.4775023E-08  0.3399993E+04  0.7818609E-02  0.8137908E-01
        2   -1    0    0  501    0  0.00000000000E+00  0.00000000000E+00  0.21208954311E+04  0.21208954311E+04  0.25500000920E-02 0.  1.
       -2   -1    0    0    0  501  0.00000000000E+00  0.00000000000E+00 -0.13626261671E+04  0.13626261671E+04  0.25500000920E-02 0. -1.
    10030    2    1    2    0    0  0.00000000000E+00  0.00000000000E+00  0.75826926402E+03  0.34835215982E+04  0.33999927130E+04 0.  0.
        4    1    3    3  502    0 -0.81235243794E+03 -0.12876534493E+04  0.11540341858E+04  0.19104356581E+04  0.12699999809E+01 0.  1.
       -4    1    3    3    0  502  0.81235243794E+03  0.12876534493E+04 -0.39576492174E+03  0.15730859401E+04  0.12699999809E+01 0. -1.
</event>
<event>
 5   0  0.1595851E-08  0.3397942E+04  0.7818609E-02  0.8138412E-01
        1   -1    0    0  501    0  0.00000000000E+00  0.00000000000E+00  0.23328017728E+04  0.23328017728E+04  0.50400001928E-02 0. -1.
       -1   -1    0    0    0  501  0.00000000000E+00  0.00000000000E+00 -0.12373545919E+04  0.12373545920E+04  0.50400001928E-02 0.  1.
    10030    2    1    2    0    0  0.00000000000E+00  0.00000000000E+00  0.10954471809E+04  0.35701563648E+04  0.33979423101E+04 0.  0.
        2    1    3    3  502    0  0.66500554354E+03  0.15224210165E+04  0.92142509308E+03  0.18997427001E+04  0.25500000920E-02 0. -1.
       -2    1    3    3    0  502 -0.66500554354E+03 -0.15224210165E+04  0.17402208782E+03  0.16704136647E+04  0.25500000920E-02 0.  1.
</event>
<event>
 5   0  0.4973409E-08  0.3392827E+04  0.7818609E-02  0.8139669E-01
        2   -1    0    0  501    0  0.00000000000E+00  0.00000000000E+00  0.19653868352E+04  0.19653868352E+04  0.25500000920E-02 0.  1.
       -2   -1    0    0    0  501  0.00000000000E+00  0.00000000000E+00 -0.14642502308E+04  0.14642502308E+04  0.25500000920E-02 0. -1.
    10030    2    1    2    0    0  0.00000000000E+00  0.00000000000E+00  0.50113660440E+03  0.34296370661E+04  0.33928266252E+04 0.  0.
        1    1    3    3  502    0 -0.16855577817E+04 -0.10196497790E+03  0.41455113128E+03  0.17387796101E+04  0.50400001928E-02 0.  1.
       -1    1    3    3    0  502  0.16855577817E+04  0.10196497790E+03  0.86585473120E+02  0.16908574560E+04  0.50400001928E-02 0. -1.
</event>
<event>
 5   0  0.1630571E-08  0.3400260E+04  0.7818609E-02  0.8137843E-01
        1   -1    0    0  501    0  0.00000000000E+00  0.00000000000E+00  0.10383562685E+04  0.10383562685E+04  0.50400001928E-02 0. -1.
       -1   -1    0    0    0  501  0.00000000000E+00  0.00000000000E+00 -0.27836704201E+04  0.27836704201E+04  0.50400001928E-02 0.  1.
    10030    2    1    2    0    0  0.00000000000E+00  0.00000000000E+00 -0.17453141516E+04  0.38220266886E+04  0.34002597726E+04 0.  0.
        3    1    3    3  502    0  0.15925312053E+04  0.38039932807E+03 -0.35806990874E+03  0.16760290446E+04  0.10100000352E+00 0. -1.
       -3    1    3    3    0  502 -0.15925312053E+04 -0.38039932807E+03 -0.13872442428E+04  0.21459976440E+04  0.10100000352E+00 0.  1.
</event>
<event>
 5   0  0.1625282E-08  0.3399906E+04  0.7818609E-02  0.8137929E-01
       -1   -1    0    0    0  501  0.00000000000E+00  0.00000000000E+00  0.11763407150E+04  0.11763407151E+04  0.50400001928E-02 0. -1.
        1   -1    0    0  501    0  0.00000000000E+00  0.00000000000E+00 -0.24566354997E+04  0.24566354997E+04  0.50400001928E-02 0.  1.
    10030    2    1    2    0    0  0.00000000000E+00  0.00000000000E+00 -0.12802947846E+04  0.36329762147E+04  0.33999060930E+04 0.  0.
        1    1    3    3  502    0 -0.43846757134E+03  0.15319914466E+04 -0.12728427164E+04  0.20394558550E+04  0.50400001928E-02 0.  1.
       -1    1    3    3    0  502  0.43846757134E+03 -0.15319914466E+04 -0.74520682023E+01  0.15935203598E+04  0.50400001928E-02 0. -1.
</event>
<event>
 5   0  0.1630571E-08  0.3400343E+04  0.7818609E-02  0.8137822E-01
        1   -1    0    0  501    0  0.00000000000E+00  0.00000000000E+00  0.16899824669E+04  0.16899824669E+04  0.50400001928E-02 0. -1.
       -1   -1    0    0    0  501  0.00000000000E+00  0.00000000000E+00 -0.17104224468E+04  0.17104224468E+04  0.50400001928E-02 0.  1.
    10030    2    1    2    0    0  0.00000000000E+00  0.00000000000E+00 -0.20439979890E+02  0.34004049137E+04  0.34003434803E+04 0.  0.
        3    1    3    3  502    0  0.12445560652E+04 -0.30506995223E+03  0.11072063286E+04  0.16934855593E+04  0.10100000352E+00 0. -1.
       -3    1    3    3    0  502 -0.12445560652E+04  0.30506995223E+03 -0.11276463085E+04  0.17069193544E+04  0.10100000352E+00 0.  1.
</event>
<event>
 5   0  0.4946315E-08  0.3398464E+04  0.7818609E-02  0.8138283E-01
        2   -1    0    0  501    0  0.00000000000E+00  0.00000000000E+00  0.20253139595E+04  0.20253139595E+04  0.25500000920E-02 0. -1.
       -2   -1    0    0    0  501  0.00000000000E+00  0.00000000000E+00 -0.14256505267E+04  0.14256505267E+04  0.25500000920E-02 0.  1.
    10030    2    1    2    0    0  0.00000000000E+00  0.00000000000E+00  0.59966343274E+03  0.34509644862E+04  0.33984643080E+04 0.  0.
        3    1    3    3  502    0 -0.13011593416E+04  0.10535113279E+04  0.46729516283E+01  0.16741934168E+04  0.10100000352E+00 0.  1.
       -3    1    3    3    0  502  0.13011593416E+04 -0.10535113279E+04  0.59499048111E+03  0.17767710694E+04  0.10100000352E+00 0. -1.
</event>
<event>
 5   0  0.4764953E-08  0.3396705E+04  0.7818609E-02  0.8138716E-01
        2   -1    0    0  501    0  0.00000000000E+00  0.00000000000E+00  0.21880613906E+04  0.21880613906E+04  0.25500000920E-02 0. -1.
       -2   -1    0    0    0  501  0.00000000000E+00  0.00000000000E+00 -0.13182448944E+04  0.13182448944E+04  0.25500000920E-02 0.  1.
    10030    2    1    2    0    0  0.00000000000E+00  0.00000000000E+00  0.86981649613E+03  0.35063062850E+04  0.33967047307E+04 0.  0.
        2    1    3    3  502    0 -0.79624183278E+03  0.13726303627E+04  0.10596520693E+04  0.19081346066E+04  0.25500000920E-02 0. -1.
       -2    1    3    3    0  502  0.79624183278E+03 -0.13726303627E+04 -0.18983557316E+03  0.15981716784E+04  0.25500000920E-02 0.  1.
</event>
<event>
 5   0  0.1645631E-08  0.3398140E+04  0.7818609E-02  0.8138363E-01
        1   -1    0    0  501    0  0.00000000000E+00  0.00000000000E+00  0.20330086247E+04  0.20330086247E+04  0.50400001928E-02 0. -1.
       -1   -1    0    0    0  501  0.00000000000E+00  0.00000000000E+00 -0.14199837954E+04  0.14199837954E+04  0.50400001928E-02 0.  1.
    10030    2    1    2    0    0  0.00000000000E+00  0.00000000000E+00  0.61302482929E+03  0.34529924200E+04  0.33981402578E+04 0.  0.
        4    1    3    3  502    0  0.14145679757E+04  0.38854374532E+03 -0.56457001905E+03  0.15718491401E+04  0.12699999809E+01 0.  1.
       -4    1    3    3    0  502 -0.14145679757E+04 -0.38854374532E+03  0.11775948483E+04  0.18811432799E+04  0.12699999809E+01 0. -1.
</event>
<event>
 5   0  0.4775023E-08  0.3400119E+04  0.7818609E-02  0.8137877E-01
        2   -1    0    0  501    0  0.00000000000E+00  0.00000000000E+00  0.21710125227E+04  0.21710125227E+04  0.25500000920E-02 0. -1.
       -2   -1    0    0    0  501  0.00000000000E+00  0.00000000000E+00 -0.13312689592E+04  0.13312689592E+04  0.25500000920E-02 0.  1.
    10030    2    1    2    0    0  0.00000000000E+00  0.00000000000E+00  0.83974356349E+03  0.35022814819E+04  0.34001185753E+04 0.  0.
        4    1    3    3  502    0  0.74769190141E+03  0.10619327380E+04  0.15498550944E+04  0.20220773343E+04  0.12699999809E+01 0. -1.
       -4    1    3    3    0  502 -0.74769190141E+03 -0.10619327380E+04 -0.71011153092E+03  0.14802041476E+04  0.12699999809E+01 0.  1.
</event>
<event>
 5   0  0.5001197E-08  0.3403589E+04  0.7818609E-02  0.8137026E-01
       -2   -1    0    0    0  501  0.00000000000E+00  0.00000000000E+00  0.14974306030E+04  0.14974306030E+04  0.25500000920E-02 0.  1.
        2   -1    0    0  501    0  0.00000000000E+00  0.00000000000E+00 -0.19340495043E+04  0.19340495043E+04  0.25500000920E-02 0. -1.
    10030    2    1    2    0    0  0.00000000000E+00  0.00000000000E+00 -0.43661890133E+03  0.34314801073E+04  0.34035892322E+04 0.  0.
        5    1    3    3  502    0 -0.10626532464E+04  0.88207077465E+03 -0.12208432516E+04  0.18433016868E+04  0.46999998093E+01 0. -1.
       -5    1    3    3    0  502  0.10626532464E+04 -0.88207077465E+03  0.78422435029E+03  0.15881784205E+04  0.46999998093E+01 0.  1.
</event>
<event>
 5   0  0.1645631E-08  0.3401397E+04  0.7818609E-02  0.8137564E-01
       -1   -1    0    0    0  501  0.00000000000E+00  0.00000000000E+00  0.22975157659E+04  0.22975157659E+04  0.50400001928E-02 0.  1.
        1   -1    0    0  501    0  0.00000000000E+00  0.00000000000E+00 -0.12589139749E+04  0.12589139749E+04  0.50400001928E-02 0. -1.
    10030    2    1    2    0    0  0.00000000000E+00  0.00000000000E+00  0.10386017911E+04  0.35564297408E+04  0.34013965986E+04 0.  0.
        4    1    3    3  502    0  0.35248046016E+03 -0.11793762545E+04 -0.70773092359E+03  0.14198786912E+04  0.12699999809E+01 0. -1.
       -4    1    3    3    0  502 -0.35248046016E+03  0.11793762545E+04  0.17463327147E+04  0.21365510496E+04  0.12699999809E+01 0.  1.
</event>
<event>
 5   0  0.4775023E-08  0.3399677E+04  0.7818609E-02  0.8137986E-01
        2   -1    0    0  501    0  0.00000000000E+00  0.00000000000E+00  0.13498089444E+04  0.13498089444E+04  0.25500000920E-02 0.  1.
       -2   -1    0    0    0  501  0.00000000000E+00  0.00000000000E+00 -0.21406364106E+04  0.21406364106E+04  0.25500000920E-02 0. -1.
    10030    2    1    2    0    0  0.00000000000E+00  0.00000000000E+00 -0.79082746619E+03  0.34904453550E+04  0.33996765574E+04 0.  0.
        4    1    3    3  502    0 -0.51493212543E+02  0.71935143306E+03 -0.19757738740E+04  0.21032836350E+04  0.12699999809E+01 0. -1.
       -4    1    3    3    0  502  0.51493212543E+02 -0.71935143306E+03  0.11849464078E+04  0.13871617200E+04  0.12699999809E+01 0.  1.
</event>
<event>
 5   0  0.1625282E-08  0.3403124E+04  0.7818609E-02  0.8137140E-01
        1   -1    0    0  501    0  0.00000000000E+00  0.00000000000E+00  0.22921449942E+04  0.22921449942E+04  0.50400001928E-02 0.  1.
       -1   -1    0    0    0  501  0.00000000000E+00  0.00000000000E+00 -0.12631455340E+04  0.12631455340E+04  0.50400001928E-02 0. -1.
    10030    2    1    2    0    0  0.00000000000E+00  0.00000000000E+00  0.10289994602E+04  0.35552905282E+04  0.34031236902E+04 0.  0.
        1    1    3    3  502    0  0.25120838103E+02  0.12418845351E+04  0.17294280577E+04  0.21292791414E+04  0.50400001928E-02 0.  1.
       -1    1    3    3    0  502 -0.25120838103E+02 -0.12418845351E+04 -0.70042859747E+03  0.14260113868E+04  0.50400001928E-02 0. -1.
</event>
<event>
 5   0  0.4973409E-08  0.3407983E+04  0.7818609E-02  0.8135950E-01
       -2   -1    0    0    0  501  0.00000000000E+00  0.00000000000E+00  0.12821564210E+04  0.12821564210E+04  0.25500000920E-02 0.  1.
        2   -1    0    0  501    0  0.00000000000E+00  0.00000000000E+00 -0.22646117342E+04  0.22646117342E+04  0.25500000920E-02 0. -1.
    10030    2    1    2    0    0  0.00000000000E+00  0.00000000000E+00 -0.98245531322E+03  0.35467681552E+04  0.34079826737E+04 0.  0.
        1    1    3    3  502    0 -0.10863398252E+04 -0.66967881611E+03 -0.16663620621E+04  0.20988964849E+04  0.50400001928E-02 0. -1.
       -1    1    3    3    0  502  0.10863398252E+04  0.66967881611E+03  0.68390674888E+03  0.14478716703E+04  0.50400001928E-02 0.  1.
</event>
<event>
 5   0  0.1645631E-08  0.3397883E+04  0.7818609E-02  0.8138426E-01
        1   -1    0    0  501    0  0.00000000000E+00  0.00000000000E+00  0.21872143888E+04  0.21872143888E+04  0.50400001928E-02 0. -1.
       -1   -1    0    0    0  501  0.00000000000E+00  0.00000000000E+00 -0.13196707827E+04  0.13196707827E+04  0.50400001928E-02 0.  1.
    10030    2    1    2    0    0  0.00000000000E+00  0.00000000000E+00  0.86754360609E+03  0.35068851715E+04  0.33978834144E+04 0.  0.
        4    1    3    3  502    0 -0.40801480571E+03  0.11083373756E+04  0.16942248290E+04  0.20652571762E+04  0.12699999809E+01 0. -1.
       -4    1    3    3    0  502  0.40801480571E+03 -0.11083373756E+04 -0.82668122290E+03  0.14416279953E+04  0.12699999809E+01 0.  1.
</event>
<event>
 5   0  0.4764953E-08  0.3400773E+04  0.7818609E-02  0.8137717E-01
       -2   -1    0    0    0  501  0.00000000000E+00  0.00000000000E+00  0.16492817608E+04  0.16492817608E+04  0.25500000920E-02 0.  1.
        2   -1    0    0  501    0  0.00000000000E+00  0.00000000000E+00 -0.17530750669E+04  0.17530750669E+04  0.25500000920E-02 0. -1.
    10030    2    1    2    0    0  0.00000000000E+00  0.00000000000E+00 -0.10379330615E+03  0.34023568277E+04  0.34007732845E+04 0.  0.
        2    1    3    3  502    0 -0.69887035529E+02 -0.16092188251E+04  0.49319216544E+03  0.16845497727E+04  0.25500000920E-02 0. -1.
       -2    1    3    3    0  502  0.69887035529E+02  0.16092188251E+04 -0.59698547158E+03  0.17178070549E+04  0.25500000920E-02 0.  1.
</event>
<event>
 5   0  0.4764953E-08  0.3401352E+04  0.7818609E-02  0.8137574E-01
        2   -1    0    0  501    0  0.00000000000E+00  0.00000000000E+00  0.16909292563E+04  0.16909292563E+04  0.25500000920E-02 0. -1.
       -2   -1    0    0    0  501  0.00000000000E+00  0.00000000000E+00 -0.17104792408E+04  0.17104792408E+04  0.25500000920E-02 0.  1.
    10030    2    1    2    0    0  0.00000000000E+00  0.00000000000E+00 -0.19549984459E+02  0.34014084971E+04  0.34013523138E+04 0.  0.
        2    1    3    3  502    0  0.84899648520E+03  0.14697369539E+04 -0.11644279850E+03  0.17013173340E+04  0.25500000920E-02 0.  1.
       -2    1    3    3    0  502 -0.84899648520E+03 -0.14697369539E+04  0.96892814042E+02  0.17000911631E+04  0.25500000920E-02 0. -1.
</event>
<event>
 5   0  0.1645631E-08  0.3399422E+04  0.7818609E-02  0.8138048E-01
        1   -1    0    0  501    0  0.00000000000E+00  0.00000000000E+00  0.13543691436E+04  0.13543691436E+04  0.50400001928E-02 0. -1.
       -1   -1    0    0    0  501  0.00000000000E+00  0.00000000000E+00 -0.21331095407E+04  0.21331095407E+04  0.50400001928E-02 0.  1.
    10030    2    1    2    0    0  0.00000000000E+00  0.00000000000E+00 -0.77874039713E+03  0.34874786843E+04  0.33994221519E+04 0.  0.
        4    1    3    3  502    0  0.15128165816E+04 -0.62968569269E+03 -0.85261760397E+03  0.18471806822E+04  0.12699999809E+01 0.  1.
       -4    1    3    3    0  502 -0.15128165816E+04  0.62968569269E+03  0.73877206840E+02  0.16402980021E+04  0.12699999809E+01 0. -1.
</event>
<event>
 5   0  0.1579536E-08  0.3400955E+04  0.7818609E-02  0.8137672E-01
       -1   -1    0    0    0  501  0.00000000000E+00  0.00000000000E+00  0.18414783537E+04  0.18414783537E+04  0.50400001928E-02 0.  1.
        1   -1    0    0  501    0  0.00000000000E+00  0.00000000000E+00 -0.15702728740E+04  0.15702728740E+04  0.50400001928E-02 0. -1.
    10030    2    1    2    0    0  0.00000000000E+00  0.00000000000E+00  0.27120547977E+03  0.34117512277E+04  0.34009548699E+04 0.  0.
        5    1    3    3  502    0 -0.66270387031E+03 -0.84295893307E+02  0.17043185242E+04  0.18305753028E+04  0.46999998093E+01 0.  1.
       -5    1    3    3    0  502  0.66270387031E+03  0.84295893307E+02 -0.14331130444E+04  0.15811759249E+04  0.46999998093E+01 0. -1.
</event>
<event>
 5   0  0.1595851E-08  0.3400416E+04  0.7818609E-02  0.8137804E-01
       -1   -1    0    0    0  501  0.00000000000E+00  0.00000000000E+00  0.16248264437E+04  0.16248264437E+04  0.50400001928E-02 0.  1.
        1   -1    0    0  501    0  0.00000000000E+00  0.00000000000E+00 -0.17790864960E+04  0.17790864961E+04  0.50400001928E-02 0. -1.
    10030    2    1    2    0    0  0.00000000000E+00  0.00000000000E+00 -0.15426005232E+03  0.34039129398E+04  0.34004157302E+04 0.  0.
        2    1    3    3  502    0 -0.11365359466E+04  0.13794207492E+03 -0.13353892840E+04  0.17589788269E+04  0.25500000920E-02 0. -1.
       -2    1    3    3    0  502  0.11365359466E+04 -0.13794207492E+03  0.11811292316E+04  0.16449341129E+04  0.25500000920E-02 0.  1.
</event>
<event>
 5   0  0.4946315E-08  0.3403143E+04  0.7818609E-02  0.8137135E-01
       -2   -1    0    0    0  501  0.00000000000E+00  0.00000000000E+00  0.17999924339E+04  0.17999924339E+04  0.25500000920E-02 0.  1.
        2   -1    0    0  501    0  0.00000000000E+00  0.00000000000E+00 -0.16085318706E+04  0.16085318706E+04  0.25500000920E-02 0. -1.
    10030    2    1    2    0    0  0.00000000000E+00  0.00000000000E+00  0.19146056322E+03  0.34085243045E+04  0.34031427809E+04 0.  0.
        3    1    3    3  502    0 -0.59981384453E+03 -0.40523044065E+03  0.16380864656E+04  0.17908979974E+04  0.10100000352E+00 0.  1.
       -3    1    3    3    0  502  0.59981384453E+03  0.40523044065E+03 -0.14466259023E+04  0.16176263072E+04  0.10100000352E+00 0. -1.
</event>
<event>
 5   0  0.1595851E-08  0.3400395E+04  0.7818609E-02  0.8137809E-01
       -1   -1    0    0    0  501  0.00000000000E+00  0.00000000000E+00  0.14032792949E+04  0.14032792949E+04  0.50400001928E-02 0.  1.
        1   -1    0    0  501    0  0.00000000000E+00  0.00000000000E+00 -0.20599403817E+04  0.20599403817E+04  0.50400001928E-02 0. -1.
    10030    2    1    2    0    0  0.00000000000E+00  0.00000000000E+00 -0.65666108674E+03  0.34632196766E+04  0.34003950867E+04 0.  0.
        2    1    3    3  502    0 -0.45192752276E+03 -0.53798077063E+02 -0.19967475702E+04  0.20479583926E+04  0.25500000920E-02 0. -1.
       -2    1    3    3    0  502  0.45192752276E+03  0.53798077063E+02  0.13400864834E+04  0.14152612840E+04  0.25500000920E-02 0.  1.
</event>
<event>
 5   0  0.1625282E-08  0.3402813E+04  0.7818609E-02  0.8137216E-01
        1   -1    0    0  501    0  0.00000000000E+00  0.00000000000E+00  0.19591924926E+04  0.19591924926E+04  0.50400001928E-02 0.  1.
       -1   -1    0    0    0  501  0.00000000000E+00  0.00000000000E+00 -0.14775389692E+04  0.14775389692E+04  0.50400001928E-02 0. -1.
    10030    2    1    2    0    0  0.00000000000E+00  0.00000000000E+00  0.48165352336E+03  0.34367314618E+04  0.34028125167E+04 0.  0.
        1    1    3    3  502    0 -0.14339158932E+04  0.51620098884E+03  0.10048092495E+04  0.18254369004E+04  0.50400001928E-02 0.  1.
       -1    1    3    3    0  502  0.14339158932E+04 -0.51620098884E+03 -0.52315572615E+03  0.16112945613E+04  0.50400001928E-02 0. -1.
</event>
<event>
 5   0  0.4973409E-08  0.3399105E+04  0.7818609E-02  0.8138126E-01
        2   -1    0    0  501    0  0.00000000000E+00  0.00000000000E+00  0.25139815583E+04  0.25139815583E+04  0.25500000920E-02 0.  1.
       -2   -1    0    0    0  501  0.00000000000E+00  0.00000000000E+00 -0.11489660328E+04  0.11489660328E+04  0.25500000920E-02 0. -1.
    10030    2    1    2    0    0  0.00000000000E+00  0.00000000000E+00  0.13650155255E+04  0.36629475911E+04  0.33991054221E+04 0.  0.
        1    1    3    3  502    0 -0.11036921721E+03  0.51298199697E+03 -0.10594917724E+04  0.11823090582E+04  0.50400001928E-02 0. -1.
       -1    1    3    3    0  502  0.11036921721E+03 -0.51298199697E+03  0.24245072979E+04  0.24806385329E+04  0.50400001928E-02 0.  1.
</event>
<event>
 5   0  0.1579536E-08  0.3396738E+04  0.7818609E-02  0.8138707E-01
       -1   -1    0    0    0  501  0.00000000000E+00  0.00000000000E+00  0.11927845776E+04  0.11927845776E+04  0.50400001928E-02 0. -1.
        1   -1    0    0  501    0  0.00000000000E+00  0.00000000000E+00 -0.24182555842E+04  0.24182555842E+04  0.50400001928E-02 0.  1.
    10030    2    1    2    0    0  0.00000000000E+00  0.00000000000E+00 -0.12254710066E+04  0.36110401618E+04  0.33967384153E+04 0.  0.
        5    1    3    3  502    0 -0.15609960571E+04 -0.65918214041E+03 -0.73490347402E+03  0.18469799649E+04  0.46999998093E+01 0.  1.
       -5    1    3    3    0  502  0.15609960571E+04  0.65918214041E+03 -0.49056753262E+03  0.17640601970E+04  0.46999998093E+01 0. -1.
</event>
<event>
 5   0  0.1579536E-08  0.3389870E+04  0.7818609E-02  0.8140397E-01
       -1   -1    0    0    0  501  0.00000000000E+00  0.00000000000E+00  0.15118439544E+04  0.15118439544E+04  0.50400001928E-02 0.  1.
        1   -1    0    0  501    0  0.00000000000E+00  0.00000000000E+00 -0.19001996534E+04  0.19001996534E+04  0.50400001928E-02 0. -1.
    10030    2    1    2    0    0  0.00000000000E+00  0.00000000000E+00 -0.38835569901E+03  0.34120436079E+04  0.33898704154E+04 0.  0.
        5    1    3    3  502    0  0.91555409781E+03 -0.54509097919E+03  0.11325561476E+04  0.15550141475E+04  0.46999998093E+01 0.  1.
       -5    1    3    3    0  502 -0.91555409781E+03  0.54509097919E+03 -0.15209118466E+04  0.18570294604E+04  0.46999998093E+01 0. -1.
</event>
<event>
 5   0  0.4764953E-08  0.3403433E+04  0.7818609E-02  0.8137064E-01
       -2   -1    0    0    0  501  0.00000000000E+00  0.00000000000E+00  0.10895837664E+04  0.10895837664E+04  0.25500000920E-02 0.  1.
        2   -1    0    0  501    0  0.00000000000E+00  0.00000000000E+00 -0.26577472038E+04  0.26577472038E+04  0.25500000920E-02 0. -1.
    10030    2    1    2    0    0  0.00000000000E+00  0.00000000000E+00 -0.15681634374E+04  0.37473309702E+04  0.34034325075E+04 0.  0.
        2    1    3    3  502    0 -0.97888725604E+03  0.86079816242E+03  0.42036468468E+03  0.13696350626E+04  0.25500000920E-02 0.  1.
       -2    1    3    3    0  502  0.97888725604E+03 -0.86079816242E+03 -0.19885281221E+04  0.23776959076E+04  0.25500000920E-02 0. -1.
</event>
<event>
 5   0  0.4764953E-08  0.3399533E+04  0.7818609E-02  0.8138021E-01
        2   -1    0    0  501    0  0.00000000000E+00  0.00000000000E+00  0.10420364264E+04  0.10420364264E+04  0.25500000920E-02 0. -1.
       -2   -1    0    0    0  501  0.00000000000E+00  0.00000000000E+00 -0.27726543833E+04  0.27726543833E+04  0.25500000920E-02 0.  1.
    10030    2    1    2    0    0  0.00000000000E+00  0.00000000000E+00 -0.17306179570E+04  0.38146908097E+04  0.33995334181E+04 0.  0.
        2    1    3    3  502    0 -0.10136260280E+04  0.10255086620E+03 -0.23920762888E+04  0.25999968032E+04  0.25500000920E-02 0.  1.
       -2    1    3    3    0  502  0.10136260280E+04 -0.10255086620E+03  0.66145833186E+03  0.12146940066E+04  0.25500000920E-02 0. -1.
</event>
<event>
 5   0  0.1630571E-08  0.3398985E+04  0.7818609E-02  0.8138155E-01
        1   -1    0    0  501    0  0.00000000000E+00  0.00000000000E+00  0.26687890413E+04  0.26687890413E+04  0.50400001928E-02 0.  1.
       -1   -1    0    0    0  501  0.00000000000E+00  0.00000000000E+00 -0.10822419018E+04  0.10822419019E+04  0.50400001928E-02 0. -1.
    10030    2    1    2    0    0  0.00000000000E+00  0.00000000000E+00  0.15865471394E+04  0.37510309431E+04  0.33989853355E+04 0.  0.
        3    1    3    3  502    0  0.19297788422E+03 -0.91571390377E+03 -0.77228605808E+03  0.12133417421E+04  0.10100000352E+00 0. -1.
       -3    1    3    3    0  502 -0.19297788422E+03  0.91571390377E+03  0.23588331975E+04  0.25376892010E+04  0.10100000352E+00 0.  1.
</event>
<event>
 5   0  0.5001197E-08  0.3399647E+04  0.7818609E-02  0.8137993E-01
       -2   -1    0    0    0  501  0.00000000000E+00  0.00000000000E+00  0.10693632987E+04  0.10693632987E+04  0.25500000920E-02 0.  1.
        2   -1    0    0  501    0  0.00000000000E+00  0.00000000000E+00 -0.27019816581E+04  0.27019816581E+04  0.25500000920E-02 0. -1.
    10030    2    1    2    0    0  0.00000000000E+00  0.00000000000E+00 -0.16326183594E+04  0.37713449568E+04  0.33996470516E+04 0.  0.
        5    1    3    3  502    0  0.85052447441E+03 -0.57012722506E+03 -0.23214681157E+04  0.25372570300E+04  0.46999998093E+01 0. -1.
       -5    1    3    3    0  502 -0.85052447441E+03  0.57012722506E+03  0.68884975626E+03  0.12340879268E+04  0.46999998093E+01 0.  1.
</event>
<event>
 5   0  0.1645631E-08  0.3399203E+04  0.7818609E-02  0.8138102E-01
        1   -1    0    0  501    0  0.00000000000E+00  0.00000000000E+00  0.13380453550E+04  0.13380453550E+04  0.50400001928E-02 0.  1.
       -1   -1    0    0    0  501  0.00000000000E+00  0.00000000000E+00 -0.21588543454E+04  0.21588543454E+04  0.50400001928E-02 0. -1.
    10030    2    1    2    0    0  0.00000000000E+00  0.00000000000E+00 -0.82080899044E+03  0.34968997004E+04  0.33992028648E+04 0.  0.
        4    1    3    3  502    0  0.59053539495E+03  0.10082697739E+04  0.85929018868E+03  0.14504210530E+04  0.12699999809E+01 0.  1.
       -4    1    3    3    0  502 -0.59053539495E+03 -0.10082697739E+04 -0.16800991791E+04  0.20464786474E+04  0.12699999809E+01 0. -1.
</event>
<event>
 5   0  0.4764953E-08  0.3400788E+04  0.7818609E-02  0.8137713E-01
        2   -1    0    0  501    0  0.00000000000E+00  0.00000000000E+00  0.18235261153E+04  0.18235261153E+04  0.25500000920E-02 0.  1.
       -2   -1    0    0    0  501  0.00000000000E+00  0.00000000000E+00 -0.15855766356E+04  0.15855766356E+04  0.25500000920E-02 0. -1.
    10030    2    1    2    0    0  0.00000000000E+00  0.00000000000E+00  0.23794947967E+03  0.34091027510E+04  0.34007883809E+04 0.  0.
        2    1    3    3  502    0 -0.34362821573E+03  0.16333678755E+04  0.44437493577E+03  0.17272637467E+04  0.25500000920E-02 0.  1.
       -2    1    3    3    0  502  0.34362821573E+03 -0.16333678755E+04 -0.20642545610E+03  0.16818390042E+04  0.25500000920E-02 0. -1.
</event>
<event>
 5   0  0.1579536E-08  0.3401637E+04  0.7818609E-02  0.8137505E-01
        1   -1    0    0  501    0  0.00000000000E+00  0.00000000000E+00  0.19736462292E+04  0.19736462292E+04  0.50400001928E-02 0.  1.
       -1   -1    0    0    0  501  0.00000000000E+00  0.00000000000E+00 -0.14657048807E+04  0.14657048808E+04  0.50400001928E-02 0. -1.
    10030    2    1    2    0    0  0.00000000000E+00  0.00000000000E+00  0.50794134844E+03  0.34393511100E+04  0.34016366126E+04 0.  0.
        5    1    3    3  502    0 -0.12372079251E+04  0.10767311936E+04  0.70921519035E+03  0.17869084446E+04  0.46999998093E+01 0.  1.
       -5    1    3    3    0  502  0.12372079251E+04 -0.10767311936E+04 -0.20127384192E+03  0.16524426654E+04  0.46999998093E+01 0. -1.
</event>
<event>
 5   0  0.1579536E-08  0.3401409E+04  0.7818609E-02  0.8137561E-01
       -1   -1    0    0    0  501  0.00000000000E+00  0.00000000000E+00  0.15931901353E+04  0.15931901353E+04  0.50400001928E-02 0.  1.
        1   -1    0    0  501    0  0.00000000000E+00  0.00000000000E+00 -0.18154738167E+04  0.18154738167E+04  0.50400001928E-02 0. -1.
    10030    2    1    2    0    0  0.00000000000E+00  0.00000000000E+00 -0.22228368145E+03  0.34086639520E+04  0.34014085174E+04 0.  0.
        5    1    3    3  502    0  0.81527620439E+03 -0.29607352201E+02  0.13842949024E+04  0.16068124817E+04  0.46999998093E+01 0.  1.
       -5    1    3    3    0  502 -0.81527620439E+03  0.29607352201E+02 -0.16065785838E+04  0.18018514702E+04  0.46999998093E+01 0. -1.
</event>
<event>
 5   0  0.1595851E-08  0.3400366E+04  0.7818609E-02  0.8137816E-01
       -1   -1    0    0    0  501  0.00000000000E+00  0.00000000000E+00  0.86080016187E+03  0.86080016189E+03  0.50400001928E-02 0. -1.
        1   -1    0    0  501    0  0.00000000000E+00  0.00000000000E+00 -0.33580649176E+04  0.33580649176E+04  0.50400001928E-02 0.  1.
    10030    2    1    2    0    0  0.00000000000E+00  0.00000000000E+00 -0.24972647558E+04  0.42188650795E+04  0.34003663477E+04 0.  0.
        2    1    3    3  502    0  0.13728811053E+04 -0.68665985854E+03 -0.34171014880E+03  0.15725997954E+04  0.25500000920E-02 0. -1.
       -2    1    3    3    0  502 -0.13728811053E+04  0.68665985854E+03 -0.21555546070E+04  0.26462652842E+04  0.25500000920E-02 0.  1.
</event>
<event>
 5   0  0.1579536E-08  0.3398574E+04  0.7818609E-02  0.8138256E-01
        1   -1    0    0  501    0  0.00000000000E+00  0.00000000000E+00  0.18356839142E+04  0.18356839142E+04  0.50400001928E-02 0.  1.
       -1   -1    0    0    0  501  0.00000000000E+00  0.00000000000E+00 -0.15730245866E+04  0.15730245866E+04  0.50400001928E-02 0. -1.
    10030    2    1    2    0    0  0.00000000000E+00  0.00000000000E+00  0.26265932759E+03  0.34087085008E+04  0.33985737775E+04 0.  0.
        5    1    3    3  502    0  0.48644870766E+03 -0.14153634222E+04 -0.67584838106E+03  0.16421568397E+04  0.46999998093E+01 0. -1.
       -5    1    3    3    0  502 -0.48644870766E+03  0.14153634222E+04  0.93850770865E+03  0.17665516611E+04  0.46999998093E+01 0.  1.
</event>
<event>
 5   0  0.4764953E-08  0.3392791E+04  0.7818609E-02  0.8139678E-01
       -2   -1    0    0    0  501  0.00000000000E+00  0.00000000000E+00  0.13126219731E+04  0.13126219731E+04  0.25500000920E-02 0. -1.
        2   -1    0    0  501    0  0.00000000000E+00  0.00000000000E+00 -0.21923732806E+04  0.21923732806E+04  0.25500000920E-02 0.  1.
    10030    2    1    2    0    0  0.00000000000E+00  0.00000000000E+00 -0.87975130748E+03  0.35049952537E+04  0.33927907931E+04 0.  0.
        2    1    3    3  502    0  0.12466483215E+04 -0.19903039700E+03 -0.16104929300E+04  0.20463217278E+04  0.25500000920E-02 0.  1.
       -2    1    3    3    0  502 -0.12466483215E+04  0.19903039700E+03  0.73074162248E+03  0.14586735259E+04  0.25500000920E-02 0. -1.
</event>
<event>
 5   0  0.4764953E-08  0.3398463E+04  0.7818609E-02  0.8138284E-01
       -2   -1    0    0    0  501  0.00000000000E+00  0.00000000000E+00  0.15994394043E+04  0.15994394043E+04  0.25500000920E-02 0.  1.
        2   -1    0    0  501    0  0.00000000000E+00  0.00000000000E+00 -0.18052495304E+04  0.18052495304E+04  0.25500000920E-02 0. -1.
    10030    2    1    2    0    0  0.00000000000E+00  0.00000000000E+00 -0.20581012609E+03  0.34046889347E+04  0.33984627310E+04 0.  0.
        2    1    3    3  502    0 -0.72613263202E+02  0.15371837271E+04 -0.82476711696E+03  0.17459803246E+04  0.25500000920E-02 0. -1.
       -2    1    3    3    0  502  0.72613263202E+02 -0.15371837271E+04  0.61895699087E+03  0.16587086101E+04  0.25500000920E-02 0.  1.
</event>
<event>
 5   0  0.1645631E-08  0.3399033E+04  0.7818609E-02  0.8138144E-01
        1   -1    0    0  501    0  0.00000000000E+00  0.00000000000E+00  0.25196706372E+04  0.25196706373E+04  0.50400001928E-02 0. -1.
       -1   -1    0    0    0  501  0.00000000000E+00  0.00000000000E+00 -0.11463229012E+04  0.11463229012E+04  0.50400001928E-02 0.  1.
    10030    2    1    2    0    0  0.00000000000E+00  0.00000000000E+00  0.13733477361E+04  0.36659935384E+04  0.33990328948E+04 0.  0.
        4    1    3    3  502    0 -0.11233770169E+04  0.48469871358E+03 -0.58556737750E+03  0.13563921009E+04  0.12699999809E+01 0.  1.
       -4    1    3    3    0  502  0.11233770169E+04 -0.48469871358E+03  0.19589151136E+04  0.23096014375E+04  0.12699999809E+01 0. -1.
</event>
<event>
 5   0  0.4775023E-08  0.3397113E+04  0.7818609E-02  0.8138615E-01
        2   -1    0    0  501    0  0.00000000000E+00  0.00000000000E+00  0.12769074940E+04  0.12769074940E+04  0.25500000920E-02 0. -1.
       -2   -1    0    0    0  501  0.00000000000E+00  0.00000000000E+00 -0.22594381377E+04  0.22594381377E+04  0.25500000920E-02 0.  1.
    10030    2    1    2    0    0  0.00000000000E+00  0.00000000000E+00 -0.98253064367E+03  0.35363456318E+04  0.33971125918E+04 0.  0.
        4    1    3    3  502    0 -0.88685704689E+03  0.14431678540E+04 -0.36023750917E+03  0.17317683310E+04  0.12699999809E+01 0. -1.
       -4    1    3    3    0  502  0.88685704689E+03 -0.14431678540E+04 -0.62229313451E+03  0.18045773008E+04  0.12699999809E+01 0.  1.
</event>
<event>
 5   0  0.1573625E-08  0.3399168E+04  0.7818609E-02  0.8138111E-01
       -3   -1    0    0    0  501  0.00000000000E+00  0.00000000000E+00  0.15497042263E+04  0.15497042296E+04  0.10100000352E+00 0. -1.
        3   -1    0    0  501    0  0.00000000000E+00  0.00000000000E+00 -0.18639591587E+04  0.18639591615E+04  0.10100000352E+00 0.  1.
    10030    2    1    2    0    0  0.00000000000E+00  0.00000000000E+00 -0.31425493246E+03  0.34136633911E+04  0.33991677783E+04 0.  0.
        3    1    3    3  502    0  0.93520693110E+03  0.13213536576E+04 -0.67702024318E+03  0.17546919708E+04  0.10100000352E+00 0.  1.
       -3    1    3    3    0  502 -0.93520693110E+03 -0.13213536576E+04  0.36276531072E+03  0.16589714203E+04  0.10100000352E+00 0. -1.
</event>
<event>
 5   0  0.1579536E-08  0.3399458E+04  0.7818609E-02  0.8138039E-01
       -1   -1    0    0    0  501  0.00000000000E+00  0.00000000000E+00  0.12481383315E+04  0.12481383315E+04  0.50400001928E-02 0. -1.
        1   -1    0    0  501    0  0.00000000000E+00  0.00000000000E+00 -0.23147105964E+04  0.23147105964E+04  0.50400001928E-02 0.  1.
    10030    2    1    2    0    0  0.00000000000E+00  0.00000000000E+00 -0.10665722649E+04  0.35628489278E+04  0.33994582048E+04 0.  0.
        5    1    3    3  502    0  0.78398112475E+03  0.10327873801E+04 -0.16850985448E+04  0.21262303197E+04  0.46999998093E+01 0.  1.
       -5    1    3    3    0  502 -0.78398112475E+03 -0.10327873801E+04  0.61852627991E+03  0.14366186082E+04  0.46999998093E+01 0. -1.
</event>
<event>
 5   0  0.1630571E-08  0.3400901E+04  0.7818609E-02  0.8137685E-01
        1   -1    0    0  501    0  0.00000000000E+00  0.00000000000E+00  0.12312683383E+04  0.12312683384E+04  0.50400001928E-02 0.  1.
       -1   -1    0    0    0  501  0.00000000000E+00  0.00000000000E+00 -0.23484172885E+04  0.23484172885E+04  0.50400001928E-02 0. -1.
    10030    2    1    2    0    0  0.00000000000E+00  0.00000000000E+00 -0.11171489502E+04  0.35796856269E+04  0.34009009704E+04 0.  0.
        3    1    3    3  502    0 -0.94216228603E+03  0.80371594173E+03 -0.17851244177E+04  0.21726247456E+04  0.10100000352E+00 0. -1.
       -3    1    3    3    0  502  0.94216228603E+03 -0.80371594173E+03  0.66797546754E+03  0.14070608813E+04  0.10100000352E+00 0.  1.
</event>
<event>
 5   0  0.4764953E-08  0.3391597E+04  0.7818609E-02  0.8139972E-01
       -2   -1    0    0    0  501  0.00000000000E+00  0.00000000000E+00  0.11868488332E+04  0.11868488332E+04  0.25500000920E-02 0.  1.
        2   -1    0    0  501    0  0.00000000000E+00  0.00000000000E+00 -0.24229979554E+04  0.24229979554E+04  0.25500000920E-02 0. -1.
    10030    2    1    2    0    0  0.00000000000E+00  0.00000000000E+00 -0.12361491222E+04  0.36098467886E+04  0.33915968488E+04 0.  0.
        2    1    3    3  502    0 -0.84854259460E+03 -0.11346088170E+04 -0.16099042423E+04  0.21445636787E+04  0.25500000920E-02 0. -1.
       -2    1    3    3    0  502  0.84854259460E+03  0.11346088170E+04  0.37375512006E+03  0.14652831100E+04  0.25500000920E-02 0.  1.
</event>
<event>
 5   0  0.1625282E-08  0.3405463E+04  0.7818609E-02  0.8136567E-01
       -1   -1    0    0    0  501  0.00000000000E+00  0.00000000000E+00  0.18552921242E+04  0.18552921242E+04  0.50400001928E-02 0.  1.
        1   -1    0    0  501    0  0.00000000000E+00  0.00000000000E+00 -0.15627163681E+04  0.15627163681E+04  0.50400001928E-02 0. -1.
    10030    2    1    2    0    0  0.00000000000E+00  0.00000000000E+00  0.29257575613E+03  0.34180084923E+04  0.34054634751E+04 0.  0.
        1    1    3    3  502    0 -0.15611012973E+04  0.24714381251E+03 -0.48943155865E+03  0.16545877357E+04  0.50400001928E-02 0.  1.
       -1    1    3    3    0  502  0.15611012973E+04 -0.24714381251E+03  0.78200731478E+03  0.17634207566E+04  0.50400001928E-02 0. -1.
</event>
<event>
 5   0  0.4764953E-08  0.3396401E+04  0.7818609E-02  0.8138790E-01
        2   -1    0    0  501    0  0.00000000000E+00  0.00000000000E+00  0.17733677797E+04  0.17733677797E+04  0.25500000920E-02 0. -1.
       -2   -1    0    0    0  501  0.00000000000E+00  0.00000000000E+00 -0.16262195345E+04  0.16262195345E+04  0.25500000920E-02 0.  1.
    10030    2    1    2    0    0  0.00000000000E+00  0.00000000000E+00  0.14714824511E+03  0.33995873142E+04  0.33964012279E+04 0.  0.
        2    1    3    3  502    0  0.67883144773E+03 -0.14539533163E+04  0.63005693698E+03  0.17238805424E+04  0.25500000920E-02 0. -1.
       -2    1    3    3    0  502 -0.67883144773E+03  0.14539533163E+04 -0.48290869187E+03  0.16757067718E+04  0.25500000920E-02 0.  1.
</event>
<event>
 5   0  0.4764953E-08  0.3391791E+04  0.7818609E-02  0.8139924E-01
       -2   -1    0    0    0  501  0.00000000000E+00  0.00000000000E+00  0.18063613517E+04  0.18063613517E+04  0.25500000920E-02 0. -1.
        2   -1    0    0  501    0  0.00000000000E+00  0.00000000000E+00 -0.15921849102E+04  0.15921849102E+04  0.25500000920E-02 0.  1.
    10030    2    1    2    0    0  0.00000000000E+00  0.00000000000E+00  0.21417644141E+03  0.33985462619E+04  0.33917908465E+04 0.  0.
        2    1    3    3  502    0  0.13713731327E+04 -0.52135022003E+03  0.95942394218E+03  0.17529873422E+04  0.25500000920E-02 0. -1.
       -2    1    3    3    0  502 -0.13713731327E+04  0.52135022003E+03 -0.74524750077E+03  0.16455589197E+04  0.25500000920E-02 0.  1.
</event>
<event>
 5   0  0.1630571E-08  0.3400587E+04  0.7818609E-02  0.8137762E-01
       -1   -1    0    0    0  501  0.00000000000E+00  0.00000000000E+00  0.12175254981E+04  0.12175254982E+04  0.50400001928E-02 0.  1.
        1   -1    0    0  501    0  0.00000000000E+00  0.00000000000E+00 -0.23744861843E+04  0.23744861843E+04  0.50400001928E-02 0. -1.
    10030    2    1    2    0    0  0.00000000000E+00  0.00000000000E+00 -0.11569606861E+04  0.35920116824E+04  0.34005866990E+04 0.  0.
        3    1    3    3  502    0 -0.25105106627E+03 -0.31940237447E+03 -0.23224666329E+04  0.23577310673E+04  0.10100000352E+00 0. -1.
       -3    1    3    3    0  502  0.25105106627E+03  0.31940237447E+03  0.11655059468E+04  0.12342806151E+04  0.10100000352E+00 0.  1.
</event>
<event>
 5   0  0.1625282E-08  0.3401818E+04  0.7818609E-02  0.8137460E-01
        1   -1    0    0  501    0  0.00000000000E+00  0.00000000000E+00  0.22398262526E+04  0.22398262526E+04  0.50400001928E-02 0.  1.
       -1   -1    0    0    0  501  0.00000000000E+00  0.00000000000E+00 -0.12916585277E+04  0.12916585277E+04  0.50400001928E-02 0. -1.
    10030    2    1    2    0    0  0.00000000000E+00  0.00000000000E+00  0.94816772492E+03  0.35314847803E+04  0.34018175611E+04 0.  0.
        1    1    3    3  502    0  0.70342048292E+03  0.13248283025E+04  0.13065995389E+04  0.19892643771E+04  0.50400001928E-02 0.  1.
       -1    1    3    3    0  502 -0.70342048292E+03 -0.13248283025E+04 -0.35843181401E+03  0.15422204032E+04  0.50400001928E-02 0. -1.
</event>
<event>
 5   0  0.1630571E-08  0.3399134E+04  0.7818609E-02  0.8138119E-01
        1   -1    0    0  501    0  0.00000000000E+00  0.00000000000E+00  0.88957141439E+03  0.88957141440E+03  0.50400001928E-02 0.  1.
       -1   -1    0    0    0  501  0.00000000000E+00  0.00000000000E+00 -0.32471003365E+04  0.32471003365E+04  0.50400001928E-02 0. -1.
    10030    2    1    2    0    0  0.00000000000E+00  0.00000000000E+00 -0.23575289221E+04  0.41366717509E+04  0.33991337950E+04 0.  0.
        3    1    3    3  502    0 -0.43573208352E+03 -0.10080969479E+04 -0.27572774860E+04  0.29679455942E+04  0.10100000352E+00 0. -1.
       -3    1    3    3    0  502  0.43573208352E+03  0.10080969479E+04  0.39974856388E+03  0.11687261567E+04  0.10100000352E+00 0.  1.
</event>
<event>
 5   0  0.1573625E-08  0.3401540E+04  0.7818609E-02  0.8137528E-01
       -3   -1    0    0    0  501  0.00000000000E+00  0.00000000000E+00  0.13634747453E+04  0.13634747490E+04  0.10100000352E+00 0.  1.
        3   -1    0    0  501    0  0.00000000000E+00  0.00000000000E+00 -0.21215052174E+04  0.21215052198E+04  0.10100000352E+00 0. -1.
    10030    2    1    2    0    0  0.00000000000E+00  0.00000000000E+00 -0.75803047211E+03  0.34849799688E+04  0.34015401198E+04 0.  0.
        4    1    3    3  502    0 -0.68056234355E+03 -0.55327451565E+03 -0.18719278819E+04  0.20672187599E+04  0.12699999809E+01 0. -1.
       -4    1    3    3    0  502  0.68056234355E+03  0.55327451565E+03  0.11138974098E+04  0.14177612090E+04  0.12699999809E+01 0.  1.
</event>
<event>
 5   0  0.1645631E-08  0.3399183E+04  0.7818609E-02  0.8138107E-01
       -1   -1    0    0    0  501  0.00000000000E+00  0.00000000000E+00  0.15121694711E+04  0.15121694712E+04  0.50400001928E-02 0. -1.
        1   -1    0    0  501    0  0.00000000000E+00  0.00000000000E+00 -0.19102428057E+04  0.19102428057E+04  0.50400001928E-02 0.  1.
    10030    2    1    2    0    0  0.00000000000E+00  0.00000000000E+00 -0.39807333459E+03  0.34224122769E+04  0.33991827567E+04 0.  0.
        4    1    3    3  502    0 -0.98406357763E+03 -0.54748233390E+03 -0.14807212195E+04  0.18602835734E+04  0.12699999809E+01 0. -1.
       -4    1    3    3    0  502  0.98406357763E+03  0.54748233390E+03  0.10826478849E+04  0.15621287035E+04  0.12699999809E+01 0.  1.
</event>
<event>
 5   0  0.1645631E-08  0.3399735E+04  0.7818609E-02  0.8137971E-01
       -1   -1    0    0    0  501  0.00000000000E+00  0.00000000000E+00  0.11321280151E+04  0.11321280151E+04  0.50400001928E-02 0.  1.
        1   -1    0    0  501    0  0.00000000000E+00  0.00000000000E+00 -0.25523168222E+04  0.25523168222E+04  0.50400001928E-02 0. -1.
    10030    2    1    2    0    0  0.00000000000E+00  0.00000000000E+00 -0.14201888071E+04  0.36844448374E+04  0.33997349179E+04 0.  0.
        4    1    3    3  502    0 -0.45102136881E+03  0.12883786932E+04 -0.18079485981E+04  0.22653961417E+04  0.12699999809E+01 0. -1.
       -4    1    3    3    0  502  0.45102136881E+03 -0.12883786932E+04  0.38775979099E+03  0.14190486957E+04  0.12699999809E+01 0.  1.
</event>
<event>
 5   0  0.4973409E-08  0.3399471E+04  0.7818609E-02  0.8138036E-01
        2   -1    0    0  501    0  0.00000000000E+00  0.00000000000E+00  0.15570889092E+04  0.15570889092E+04  0.25500000920E-02 0.  1.
       -2   -1    0    0    0  501  0.00000000000E+00  0.00000000000E+00 -0.18554500328E+04  0.18554500328E+04  0.25500000920E-02 0. -1.
    10030    2    1    2    0    0  0.00000000000E+00  0.00000000000E+00 -0.29836112362E+03  0.34125389420E+04  0.33994709398E+04 0.  0.
        1    1    3    3  502    0  0.13329947205E+04 -0.13588996684E+03 -0.11990305164E+04  0.17980587274E+04  0.50400001928E-02 0. -1.
       -1    1    3    3    0  502 -0.13329947205E+04  0.13588996684E+03  0.90066939277E+03  0.16144802145E+04  0.50400001928E-02 0.  1.
</event>
<event>
 5   0  0.4946315E-08  0.3401167E+04  0.7818609E-02  0.8137620E-01
        2   -1    0    0  501    0  0.00000000000E+00  0.00000000000E+00  0.22679881294E+04  0.22679881294E+04  0.25500000920E-02 0.  1.
       -2   -1    0    0    0  501  0.00000000000E+00  0.00000000000E+00 -0.12751316494E+04  0.12751316494E+04  0.25500000920E-02 0. -1.
    10030    2    1    2    0    0  0.00000000000E+00  0.00000000000E+00  0.99285648000E+03  0.35431197789E+04  0.34011665319E+04 0.  0.
        3    1    3    3  502    0  0.63562718567E+02  0.16835063667E+04  0.25491259667E+03  0.17038821403E+04  0.10100000352E+00 0. -1.
       -3    1    3    3    0  502 -0.63562718567E+02 -0.16835063667E+04  0.73794388333E+03  0.18392376386E+04  0.10100000352E+00 0.  1.
</event>
<event>
 5   0  0.1579536E-08  0.3400244E+04  0.7818609E-02  0.8137846E-01
        1   -1    0    0  501    0  0.00000000000E+00  0.00000000000E+00  0.15614245151E+04  0.15614245151E+04  0.50400001928E-02 0.  1.
       -1   -1    0    0    0  501  0.00000000000E+00  0.00000000000E+00 -0.18511398927E+04  0.18511398927E+04  0.50400001928E-02 0. -1.
    10030    2    1    2    0    0  0.00000000000E+00  0.00000000000E+00 -0.28971537756E+03  0.34125644078E+04  0.34002442320E+04 0.  0.
        5    1    3    3  502    0 -0.94225646471E+03  0.13640021847E+04 -0.52311040884E+03  0.17383946028E+04  0.46999998093E+01 0. -1.
       -5    1    3    3    0  502  0.94225646471E+03 -0.13640021847E+04  0.23339503128E+03  0.16741698050E+04  0.46999998093E+01 0.  1.
</event>
<event>
 5   0  0.4764953E-08  0.3400516E+04  0.7818609E-02  0.8137780E-01
       -2   -1    0    0    0  501  0.00000000000E+00  0.00000000000E+00  0.12401957555E+04  0.12401957555E+04  0.25500000920E-02 0.  1.
        2   -1    0    0  501    0  0.00000000000E+00  0.00000000000E+00 -0.23309841879E+04  0.23309841879E+04  0.25500000920E-02 0. -1.
    10030    2    1    2    0    0  0.00000000000E+00  0.00000000000E+00 -0.10907884324E+04  0.35711799434E+04  0.34005156644E+04 0.  0.
        2    1    3    3  502    0  0.17000311775E+03  0.11873127212E+04  0.72018624296E+03  0.13990285139E+04  0.25500000920E-02 0.  1.
       -2    1    3    3    0  502 -0.17000311775E+03 -0.11873127212E+04 -0.18109746753E+04  0.21721514295E+04  0.25500000920E-02 0. -1.
</event>
<event>
 5   0  0.4775023E-08  0.3398384E+04  0.7818609E-02  0.8138303E-01
       -2   -1    0    0    0  501  0.00000000000E+00  0.00000000000E+00  0.18881322040E+04  0.18881322040E+04  0.25500000920E-02 0.  1.
        2   -1    0    0  501    0  0.00000000000E+00  0.00000000000E+00 -0.15291589465E+04  0.15291589466E+04  0.25500000920E-02 0. -1.
    10030    2    1    2    0    0  0.00000000000E+00  0.00000000000E+00  0.35897325743E+03  0.34172911505E+04  0.33983844703E+04 0.  0.
        4    1    3    3  502    0 -0.15207660054E+02  0.72559362674E+02  0.18865046755E+04  0.18879612384E+04  0.12699999809E+01 0.  1.
       -4    1    3    3    0  502  0.15207660054E+02 -0.72559362674E+02 -0.15275314181E+04  0.15293299121E+04  0.12699999809E+01 0. -1.
</event>
<event>
 5   0  0.1645631E-08  0.3400552E+04  0.7818609E-02  0.8137771E-01
       -1   -1    0    0    0  501  0.00000000000E+00  0.00000000000E+00  0.28783163651E+04  0.28783163651E+04  0.50400001928E-02 0. -1.
        1   -1    0    0  501    0  0.00000000000E+00  0.00000000000E+00 -0.10043854295E+04  0.10043854296E+04  0.50400001928E-02 0.  1.
    10030    2    1    2    0    0  0.00000000000E+00  0.00000000000E+00  0.18739309355E+04  0.38827017946E+04  0.34005523191E+04 0.  0.
        4    1    3    3  502    0  0.67618967671E+03 -0.11543109455E+04  0.21351720749E+04  0.25196483168E+04  0.12699999809E+01 0. -1.
       -4    1    3    3    0  502 -0.67618967671E+03  0.11543109455E+04 -0.26124113941E+03  0.13630534779E+04  0.12699999809E+01 0.  1.
</event>
<event>
 5   0  0.5001197E-08  0.3399969E+04  0.7818609E-02  0.8137914E-01
        2   -1    0    0  501    0  0.00000000000E+00  0.00000000000E+00  0.21903862548E+04  0.21903862548E+04  0.25500000920E-02 0.  1.
       -2   -1    0    0    0  501  0.00000000000E+00  0.00000000000E+00 -0.13193782328E+04  0.13193782328E+04  0.25500000920E-02 0. -1.
    10030    2    1    2    0    0  0.00000000000E+00  0.00000000000E+00  0.87100802200E+03  0.35097644876E+04  0.33999693798E+04 0.  0.
        5    1    3    3  502    0 -0.25811933316E+03 -0.15695470705E+04 -0.18371885138E+03  0.16012115111E+04  0.46999998093E+01 0.  1.
       -5    1    3    3    0  502  0.25811933316E+03  0.15695470705E+04  0.10547268734E+04  0.19085529765E+04  0.46999998093E+01 0. -1.
</event>
<event>
 5   0  0.4973409E-08  0.3376996E+04  0.7818609E-02  0.8143575E-01
       -2   -1    0    0    0  501  0.00000000000E+00  0.00000000000E+00  0.12515126053E+04  0.12515126053E+04  0.25500000920E-02 0. -1.
        2   -1    0    0  501    0  0.00000000000E+00  0.00000000000E+00 -0.22780640497E+04  0.22780640497E+04  0.25500000920E-02 0.  1.
    10030    2    1    2    0    0  0.00000000000E+00  0.00000000000E+00 -0.10265514444E+04  0.35295766550E+04  0.33769962237E+04 0.  0.
        1    1    3    3  502    0  0.61336538423E+03 -0.94094854023E+03  0.80441052068E+03  0.13815489625E+04  0.50400001928E-02 0. -1.
       -1    1    3    3    0  502 -0.61336538423E+03  0.94094854023E+03 -0.18309619651E+04  0.21480276925E+04  0.50400001928E-02 0.  1.
</event>
<event>
 5   0  0.1645631E-08  0.3398513E+04  0.7818609E-02  0.8138271E-01
       -1   -1    0    0    0  501  0.00000000000E+00  0.00000000000E+00  0.15549084610E+04  0.15549084610E+04  0.50400001928E-02 0. -1.
        1   -1    0    0  501    0  0.00000000000E+00  0.00000000000E+00 -0.18570049814E+04  0.18570049814E+04  0.50400001928E-02 0.  1.
    10030    2    1    2    0    0  0.00000000000E+00  0.00000000000E+00 -0.30209652033E+03  0.34119134424E+04  0.33985130617E+04 0.  0.
        4    1    3    3  502    0  0.42292571746E+03  0.62669742849E+03 -0.16788421649E+04  0.18412301477E+04  0.12699999809E+01 0.  1.
       -4    1    3    3    0  502 -0.42292571746E+03 -0.62669742849E+03  0.13767456446E+04  0.15706832947E+04  0.12699999809E+01 0. -1.
</event>
<event>
 5   0  0.1630571E-08  0.3399669E+04  0.7818609E-02  0.8137987E-01
        1   -1    0    0  501    0  0.00000000000E+00  0.00000000000E+00  0.14287593535E+04  0.14287593535E+04  0.50400001928E-02 0.  1.
       -1   -1    0    0    0  501  0.00000000000E+00  0.00000000000E+00 -0.20223404516E+04  0.20223404516E+04  0.50400001928E-02 0. -1.
    10030    2    1    2    0    0  0.00000000000E+00  0.00000000000E+00 -0.59358109812E+03  0.34510998052E+04  0.33996692994E+04 0.  0.
        3    1    3    3  502    0 -0.74952418443E+03 -0.55521486247E+03  0.11457588949E+04  0.14774347708E+04  0.10100000352E+00 0.  1.
       -3    1    3    3    0  502  0.74952418443E+03  0.55521486247E+03 -0.17393399930E+04  0.19736650344E+04  0.10100000352E+00 0. -1.
</event>
<event>
 5   0  0.4775023E-08  0.3400447E+04  0.7818609E-02  0.8137797E-01
       -2   -1    0    0    0  501  0.00000000000E+00  0.00000000000E+00  0.13828635682E+04  0.13828635682E+04  0.25500000920E-02 0. -1.
        2   -1    0    0  501    0  0.00000000000E+00  0.00000000000E+00 -0.20904163444E+04  0.20904163444E+04  0.25500000920E-02 0.  1.
    10030    2    1    2    0    0  0.00000000000E+00  0.00000000000E+00 -0.70755277619E+03  0.34732799125E+04  0.34004473852E+04 0.  0.
        4    1    3    3  502    0 -0.16207959185E+04  0.19147062794E+03 -0.84055339790E+03  0.18358028321E+04  0.12699999809E+01 0. -1.
       -4    1    3    3    0  502  0.16207959185E+04 -0.19147062794E+03  0.13300062171E+03  0.16374770804E+04  0.12699999809E+01 0.  1.
</event>
<event>
 5   0  0.4946315E-08  0.3402890E+04  0.7818609E-02  0.8137197E-01
       -2   -1    0    0    0  501  0.00000000000E+00  0.00000000000E+00  0.21228252515E+04  0.21228252515E+04  0.25500000920E-02 0. -1.
        2   -1    0    0  501    0  0.00000000000E+00  0.00000000000E+00 -0.13637087735E+04  0.13637087735E+04  0.25500000920E-02 0.  1.
    10030    2    1    2    0    0  0.00000000000E+00  0.00000000000E+00  0.75911647802E+03  0.34865340250E+04  0.34028901952E+04 0.  0.
        3    1    3    3  502    0  0.15205754046E+04 -0.19693767342E+02 -0.40233679410E+03  0.15730264815E+04  0.10100000352E+00 0.  1.
       -3    1    3    3    0  502 -0.15205754046E+04  0.19693767342E+02  0.11614532721E+04  0.19135075435E+04  0.10100000352E+00 0. -1.
</event>
<event>
 5   0  0.4764953E-08  0.3399248E+04  0.7818609E-02  0.8138091E-01
       -2   -1    0    0    0  501  0.00000000000E+00  0.00000000000E+00  0.12467059419E+04  0.12467059419E+04  0.25500000920E-02 0.  1.
        2   -1    0    0  501    0  0.00000000000E+00  0.00000000000E+00 -0.23170833713E+04  0.23170833713E+04  0.25500000920E-02 0. -1.
    10030    2    1    2    0    0  0.00000000000E+00  0.00000000000E+00 -0.10703774295E+04  0.35637893132E+04  0.33992479209E+04 0.  0.
        2    1    3    3  502    0  0.82343030604E+03  0.55102114949E+03 -0.19829979409E+04  0.22167414395E+04  0.25500000920E-02 0. -1.
       -2    1    3    3    0  502 -0.82343030604E+03 -0.55102114949E+03  0.91262051144E+03  0.13470478737E+04  0.25500000920E-02 0.  1.
</event>
<event>
 5   0  0.4764953E-08  0.3399107E+04  0.7818609E-02  0.8138125E-01
       -2   -1    0    0    0  501  0.00000000000E+00  0.00000000000E+00  0.14966328429E+04  0.14966328429E+04  0.25500000920E-02 0. -1.
        2   -1    0    0  501    0  0.00000000000E+00  0.00000000000E+00 -0.19299875676E+04  0.19299875676E+04  0.25500000920E-02 0.  1.
    10030    2    1    2    0    0  0.00000000000E+00  0.00000000000E+00 -0.43335472469E+03  0.34266204105E+04  0.33991074005E+04 0.  0.
        2    1    3    3  502    0  0.28178896211E+02  0.73413988472E+03  0.13282832566E+04  0.15179235258E+04  0.25500000920E-02 0. -1.
       -2    1    3    3    0  502 -0.28178896211E+02 -0.73413988472E+03 -0.17616379813E+04  0.19086968847E+04  0.25500000920E-02 0.  1.
</event>
<event>
 5   0  0.4775023E-08  0.3398901E+04  0.7818609E-02  0.8138176E-01
        2   -1    0    0  501    0  0.00000000000E+00  0.00000000000E+00  0.12055663602E+04  0.12055663603E+04  0.25500000920E-02 0.  1.
       -2   -1    0    0    0  501  0.00000000000E+00  0.00000000000E+00 -0.23956638330E+04  0.23956638330E+04  0.25500000920E-02 0. -1.
    10030    2    1    2    0    0  0.00000000000E+00  0.00000000000E+00 -0.11900974728E+04  0.36012301933E+04  0.33989008386E+04 0.  0.
        4    1    3    3  502    0 -0.35267696728E+03  0.13922768089E+04 -0.15575960556E+04  0.21187078235E+04  0.12699999809E+01 0. -1.
       -4    1    3    3    0  502  0.35267696728E+03 -0.13922768089E+04  0.36749858285E+03  0.14825223698E+04  0.12699999809E+01 0.  1.
</event>
<event>
 5   0  0.5001197E-08  0.3399126E+04  0.7818609E-02  0.8138121E-01
       -2   -1    0    0    0  501  0.00000000000E+00  0.00000000000E+00  0.15192648052E+04  0.15192648052E+04  0.25500000920E-02 0. -1.
        2   -1    0    0  501    0  0.00000000000E+00  0.00000000000E+00 -0.19012583081E+04  0.19012583081E+04  0.25500000920E-02 0.  1.
    10030    2    1    2    0    0  0.00000000000E+00  0.00000000000E+00 -0.38199350285E+03  0.34205231133E+04  0.33991262602E+04 0.  0.
        5    1    3    3  502    0  0.23038590354E+03 -0.95510217768E+03 -0.15865193800E+04  0.18661092324E+04  0.46999998093E+01 0.  1.
       -5    1    3    3    0  502 -0.23038590354E+03  0.95510217768E+03  0.12045258771E+04  0.15544138809E+04  0.46999998093E+01 0. -1.
</event>
<event>
 5   0  0.5001197E-08  0.3400299E+04  0.7818609E-02  0.8137833E-01
        2   -1    0    0  501    0  0.00000000000E+00  0.00000000000E+00  0.15957666464E+04  0.15957666464E+04  0.25500000920E-02 0.  1.
       -2   -1    0    0    0  501  0.00000000000E+00  0.00000000000E+00 -0.18113602396E+04  0.18113602396E+04  0.25500000920E-02 0. -1.
    10030    2    1    2    0    0  0.00000000000E+00  0.00000000000E+00 -0.21559359326E+03  0.34071268860E+04  0.34002989603E+04 0.  0.
        5    1    3    3  502    0  0.63434795580E+03  0.60251553039E+02  0.14715848460E+04  0.16036245282E+04  0.46999998093E+01 0.  1.
       -5    1    3    3    0  502 -0.63434795580E+03 -0.60251553039E+02 -0.16871784392E+04  0.18035023578E+04  0.46999998093E+01 0. -1.
</event>
<event>
 5   0  0.4946315E-08  0.3398246E+04  0.7818609E-02  0.8138337E-01
        2   -1    0    0  501    0  0.00000000000E+00  0.00000000000E+00  0.19866841118E+04  0.19866841118E+04  0.25500000920E-02 0.  1.
       -2   -1    0    0    0  501  0.00000000000E+00  0.00000000000E+00 -0.14531846512E+04  0.14531846512E+04  0.25500000920E-02 0. -1.
    10030    2    1    2    0    0  0.00000000000E+00  0.00000000000E+00  0.53349946069E+03  0.34398687630E+04  0.33982459346E+04 0.  0.
        3    1    3    3  502    0 -0.57383669375E+03 -0.81227240558E+03 -0.11277831100E+04  0.15036521424E+04  0.10100000352E+00 0. -1.
       -3    1    3    3    0  502  0.57383669375E+03  0.81227240558E+03  0.16612825707E+04  0.19362166206E+04  0.10100000352E+00 0.  1.
</event>
<event>
 5   0  0.1625282E-08  0.3401014E+04  0.7818609E-02  0.8137657E-01
        1   -1    0    0  501    0  0.00000000000E+00  0.00000000000E+00  0.17613163821E+04  0.17613163821E+04  0.50400001928E-02 0.  1.
       -1   -1    0    0    0  501  0.00000000000E+00  0.00000000000E+00 -0.16417971643E+04  0.16417971643E+04  0.50400001928E-02 0. -1.
    10030    2    1    2    0    0  0.00000000000E+00  0.00000000000E+00  0.11951921781E+03  0.34031135465E+04  0.34010141086E+04 0.  0.
        1    1    3    3  502    0 -0.61655676965E+03  0.38267131520E+03  0.15986116335E+04  0.17556021020E+04  0.50400001928E-02 0.  1.
       -1    1    3    3    0  502  0.61655676965E+03 -0.38267131520E+03 -0.14790924157E+04  0.16475114445E+04  0.50400001928E-02 0. -1.
</event>
<event>
 5   0  0.1625282E-08  0.3399490E+04  0.7818609E-02  0.8138032E-01
        1   -1    0    0  501    0  0.00000000000E+00  0.00000000000E+00  0.25171570061E+04  0.25171570061E+04  0.50400001928E-02 0. -1.
       -1   -1    0    0    0  501  0.00000000000E+00  0.00000000000E+00 -0.11477762103E+04  0.11477762103E+04  0.50400001928E-02 0.  1.
    10030    2    1    2    0    0  0.00000000000E+00  0.00000000000E+00  0.13693807958E+04  0.36649332164E+04  0.33994899201E+04 0.  0.
        1    1    3    3  502    0  0.10980505696E+04 -0.69417144803E+03  0.18664309114E+04  0.22740170183E+04  0.50400001928E-02 0. -1.
       -1    1    3    3    0  502 -0.10980505696E+04  0.69417144803E+03 -0.49705011557E+03  0.13909161981E+04  0.50400001928E-02 0.  1.
</event>
<event>
 5   0  0.4764953E-08  0.3413706E+04  0.7818609E-02  0.8134550E-01
        2   -1    0    0  501    0  0.00000000000E+00  0.00000000000E+00  0.14631401659E+04  0.14631401659E+04  0.25500000920E-02 0.  1.
       -2   -1    0    0    0  501  0.00000000000E+00  0.00000000000E+00 -0.19911612228E+04  0.19911612228E+04  0.25500000920E-02 0. -1.
    10030    2    1    2    0    0  0.00000000000E+00  0.00000000000E+00 -0.52802105691E+03  0.34543013887E+04  0.34137064677E+04 0.  0.
        2    1    3    3  502    0  0.13458247846E+04 -0.10490482202E+04 -0.22351661314E+03  0.17209608350E+04  0.25500000920E-02 0. -1.
       -2    1    3    3    0  502 -0.13458247846E+04  0.10490482202E+04 -0.30450444377E+03  0.17333405538E+04  0.25500000920E-02 0.  1.
</event>
<event>
 5   0  0.4775023E-08  0.3399661E+04  0.7818609E-02  0.8137989E-01
        2   -1    0    0  501    0  0.00000000000E+00  0.00000000000E+00  0.23220335402E+04  0.23220335402E+04  0.25500000920E-02 0.  1.
       -2   -1    0    0    0  501  0.00000000000E+00  0.00000000000E+00 -0.12443506920E+04  0.12443506920E+04  0.25500000920E-02 0. -1.
    10030    2    1    2    0    0  0.00000000000E+00  0.00000000000E+00  0.10776828482E+04  0.35663842323E+04  0.33996611847E+04 0.  0.
        4    1    3    3  502    0 -0.61170810733E+03 -0.15277264362E+04  0.92182008719E+02  0.16482214681E+04  0.12699999809E+01 0. -1.
       -4    1    3    3    0  502  0.61170810733E+03  0.15277264362E+04  0.98550083947E+03  0.19181627642E+04  0.12699999809E+01 0.  1.
</event>
<event>
 5   0  0.1579536E-08  0.3398804E+04  0.7818609E-02  0.8138200E-01
        1   -1    0    0  501    0  0.00000000000E+00  0.00000000000E+00  0.29955425448E+04  0.29955425448E+04  0.50400001928E-02 0. -1.
       -1   -1    0    0    0  501  0.00000000000E+00  0.00000000000E+00 -0.96408807003E+03  0.96408807005E+03  0.50400001928E-02 0.  1.
    10030    2    1    2    0    0  0.00000000000E+00  0.00000000000E+00  0.20314544747E+04  0.39596306148E+04  0.33988038077E+04 0.  0.
        5    1    3    3  502    0  0.12934050544E+04  0.10890119554E+04  0.81698826741E+03  0.18778539860E+04  0.46999998093E+01 0.  1.
       -5    1    3    3    0  502 -0.12934050544E+04 -0.10890119554E+04  0.12144662073E+04  0.20817766288E+04  0.46999998093E+01 0. -1.
</event>
<event>
 5   0  0.4775023E-08  0.3400483E+04  0.7818609E-02  0.8137788E-01
        2   -1    0    0  501    0  0.00000000000E+00  0.00000000000E+00  0.15374223358E+04  0.15374223358E+04  0.25500000920E-02 0. -1.
       -2   -1    0    0    0  501  0.00000000000E+00  0.00000000000E+00 -0.18803040520E+04  0.18803040520E+04  0.25500000920E-02 0.  1.
    10030    2    1    2    0    0  0.00000000000E+00  0.00000000000E+00 -0.34288171626E+03  0.34177263878E+04  0.34004831702E+04 0.  0.
        4    1    3    3  502    0 -0.13679182637E+03 -0.16380132426E+04 -0.60841028901E+03  0.17527019368E+04  0.12699999809E+01 0.  1.
       -4    1    3    3    0  502  0.13679182637E+03  0.16380132426E+04  0.26552857275E+03  0.16650244510E+04  0.12699999809E+01 0. -1.
</event>
<event>
 5   0  0.1579536E-08  0.3399558E+04  0.7818609E-02  0.8138015E-01
       -1   -1    0    0    0  501  0.00000000000E+00  0.00000000000E+00  0.18252619546E+04  0.18252619546E+04  0.50400001928E-02 0.  1.
        1   -1    0    0  501    0  0.00000000000E+00  0.00000000000E+00 -0.15829226246E+04  0.15829226246E+04  0.50400001928E-02 0. -1.
    10030    2    1    2    0    0  0.00000000000E+00  0.00000000000E+00  0.24233933004E+03  0.34081845792E+04  0.33995578794E+04 0.  0.
        5    1    3    3  502    0  0.23440529735E+03 -0.12975065792E+03  0.18039538127E+04  0.18237468369E+04  0.46999998093E+01 0.  1.
       -5    1    3    3    0  502 -0.23440529735E+03  0.12975065792E+03 -0.15616144827E+04  0.15844377423E+04  0.46999998093E+01 0. -1.
</event>
<event>
 5   0  0.1645631E-08  0.3398372E+04  0.7818609E-02  0.8138306E-01
        1   -1    0    0  501    0  0.00000000000E+00  0.00000000000E+00  0.19354269952E+04  0.19354269952E+04  0.50400001928E-02 0.  1.
       -1   -1    0    0    0  501  0.00000000000E+00  0.00000000000E+00 -0.14917811285E+04  0.14917811285E+04  0.50400001928E-02 0. -1.
    10030    2    1    2    0    0  0.00000000000E+00  0.00000000000E+00  0.44364586673E+03  0.34272081237E+04  0.33983722381E+04 0.  0.
        4    1    3    3  502    0 -0.39696205918E+03  0.15890813002E+03 -0.14366374054E+04  0.14989193833E+04  0.12699999809E+01 0. -1.
       -4    1    3    3    0  502  0.39696205918E+03 -0.15890813002E+03  0.18802832721E+04  0.19282887404E+04  0.12699999809E+01 0.  1.
</event>
<event>
 5   0  0.1625282E-08  0.3400446E+04  0.7818609E-02  0.8137797E-01
       -1   -1    0    0    0  501  0.00000000000E+00  0.00000000000E+00  0.12626939062E+04  0.12626939062E+04  0.50400001928E-02 0.  1.
        1   -1    0    0  501    0  0.00000000000E+00  0.00000000000E+00 -0.22893576453E+04  0.22893576453E+04  0.50400001928E-02 0. -1.
    10030    2    1    2    0    0  0.00000000000E+00  0.00000000000E+00 -0.10266637391E+04  0.35520515515E+04  0.34004458224E+04 0.  0.
        1    1    3    3  502    0  0.31865014392E+03  0.35226499338E+03  0.11919750372E+04  0.12831340652E+04  0.50400001928E-02 0.  1.
       -1    1    3    3    0  502 -0.31865014392E+03 -0.35226499338E+03 -0.22186387763E+04  0.22689174863E+04  0.50400001928E-02 0. -1.
</event>
<event>
 5   0  0.1625282E-08  0.3398881E+04  0.7818609E-02  0.8138181E-01
        1   -1    0    0  501    0  0.00000000000E+00  0.00000000000E+00  0.29351095949E+04  0.29351095949E+04  0.50400001928E-02 0. -1.
       -1   -1    0    0    0  501  0.00000000000E+00  0.00000000000E+00 -0.98398281501E+03  0.98398281502E+03  0.50400001928E-02 0.  1.
    10030    2    1    2    0    0  0.00000000000E+00  0.00000000000E+00  0.19511267799E+04  0.39190924099E+04  0.33988806402E+04 0.  0.
        1    1    3    3  502    0 -0.78829840299E+03 -0.11918009560E+04 -0.85179417891E+02  0.14314536053E+04  0.50400001928E-02 0.  1.
       -1    1    3    3    0  502  0.78829840299E+03  0.11918009560E+04  0.20363061978E+04  0.24876388046E+04  0.50400001928E-02 0. -1.
</event>
<event>
 5   0  0.1625282E-08  0.3399546E+04  0.7818609E-02  0.8138018E-01
        1   -1    0    0  501    0  0.00000000000E+00  0.00000000000E+00  0.18819939953E+04  0.18819939953E+04  0.50400001928E-02 0.  1.
       -1   -1    0    0    0  501  0.00000000000E+00  0.00000000000E+00 -0.15351956210E+04  0.15351956210E+04  0.50400001928E-02 0. -1.
    10030    2    1    2    0    0  0.00000000000E+00  0.00000000000E+00  0.34679837430E+03  0.34171896163E+04  0.33995464052E+04 0.  0.
        1    1    3    3  502    0  0.93793130070E+03 -0.42615935685E+03 -0.11856167831E+04  0.15706731292E+04  0.50400001928E-02 0. -1.
       -1    1    3    3    0  502 -0.93793130070E+03  0.42615935685E+03  0.15324151574E+04  0.18465164871E+04  0.50400001928E-02 0.  1.
</event>
<event>
 5   0  0.1595851E-08  0.3400838E+04  0.7818609E-02  0.8137701E-01
       -1   -1    0    0    0  501  0.00000000000E+00  0.00000000000E+00  0.18155651673E+04  0.18155651673E+04  0.50400001928E-02 0.  1.
        1   -1    0    0  501    0  0.00000000000E+00  0.00000000000E+00 -0.15925757300E+04  0.15925757300E+04  0.50400001928E-02 0. -1.
    10030    2    1    2    0    0  0.00000000000E+00  0.00000000000E+00  0.22298943735E+03  0.34081408973E+04  0.34008381448E+04 0.  0.
        2    1    3    3  502    0  0.11368810276E+04 -0.25991586911E+03 -0.11286480535E+04  0.16229298071E+04  0.25500000920E-02 0. -1.
       -2    1    3    3    0  502 -0.11368810276E+04  0.25991586911E+03  0.13516374909E+04  0.17852110902E+04  0.25500000920E-02 0.  1.
</event>
<event>
 5   0  0.1579536E-08  0.3399552E+04  0.7818609E-02  0.8138016E-01
       -1   -1    0    0    0  501  0.00000000000E+00  0.00000000000E+00  0.94542846044E+03  0.94542846046E+03  0.50400001928E-02 0. -1.
        1   -1    0    0  501    0  0.00000000000E+00  0.00000000000E+00 -0.30560088039E+04  0.30560088039E+04  0.50400001928E-02 0.  1.
    10030    2    1    2    0    0  0.00000000000E+00  0.00000000000E+00 -0.21105803435E+04  0.40014372644E+04  0.33995515579E+04 0.  0.
        5    1    3    3  502    0 -0.52277074334E+03  0.91438930671E+03  0.51500843424E+03  0.11724558975E+04  0.46999998093E+01 0. -1.
       -5    1    3    3    0  502  0.52277074334E+03 -0.91438930671E+03 -0.26255887777E+04  0.28289813669E+04  0.46999998093E+01 0.  1.
</event>
<event>
 5   0  0.4946315E-08  0.3399071E+04  0.7818609E-02  0.8138134E-01
       -2   -1    0    0    0  501  0.00000000000E+00  0.00000000000E+00  0.30925890840E+04  0.30925890840E+04  0.25500000920E-02 0. -1.
        2   -1    0    0  501    0  0.00000000000E+00  0.00000000000E+00 -0.93398129224E+03  0.93398129224E+03  0.25500000920E-02 0.  1.
    10030    2    1    2    0    0  0.00000000000E+00  0.00000000000E+00  0.21586077918E+04  0.40265703762E+04  0.33990706665E+04 0.  0.
        3    1    3    3  502    0  0.46170797493E+03  0.13196119464E+04  0.22240743303E+04  0.26269862162E+04  0.10100000352E+00 0. -1.
       -3    1    3    3    0  502 -0.46170797493E+03 -0.13196119464E+04 -0.65466538512E+02  0.13995841601E+04  0.10100000352E+00 0.  1.
</event>
<event>
 5   0  0.1630571E-08  0.3398755E+04  0.7818609E-02  0.8138212E-01
       -1   -1    0    0    0  501  0.00000000000E+00  0.00000000000E+00  0.17737242215E+04  0.17737242215E+04  0.50400001928E-02 0. -1.
        1   -1    0    0  501    0  0.00000000000E+00  0.00000000000E+00 -0.16281468913E+04  0.16281468913E+04  0.50400001928E-02 0.  1.
    10030    2    1    2    0    0  0.00000000000E+00  0.00000000000E+00  0.14557733020E+03  0.34018711128E+04  0.33987548174E+04 0.  0.
        3    1    3    3  502    0 -0.43501478532E+03 -0.95952783855E+03 -0.12618325957E+04  0.16438226931E+04  0.10100000352E+00 0.  1.
       -3    1    3    3    0  502  0.43501478532E+03  0.95952783855E+03  0.14074099259E+04  0.17580484197E+04  0.10100000352E+00 0. -1.
</event>
<event>
 5   0  0.1595851E-08  0.3399660E+04  0.7818609E-02  0.8137990E-01
        1   -1    0    0  501    0  0.00000000000E+00  0.00000000000E+00  0.11933068161E+04  0.11933068161E+04  0.50400001928E-02 0. -1.
       -1   -1    0    0    0  501  0.00000000000E+00  0.00000000000E+00 -0.24213577019E+04  0.24213577019E+04  0.50400001928E-02 0.  1.
    10030    2    1    2    0    0  0.00000000000E+00  0.00000000000E+00 -0.12280508858E+04  0.36146645181E+04  0.33996603654E+04 0.  0.
        2    1    3    3  502    0 -0.12963379527E+04 -0.60164360545E+03 -0.15925298118E+04  0.21397706225E+04  0.25500000920E-02 0.  1.
       -2    1    3    3    0  502  0.12963379527E+04  0.60164360545E+03  0.36447892595E+03  0.14748938955E+04  0.25500000920E-02 0. -1.
</event>
<event>
 5   0  0.5001197E-08  0.3400326E+04  0.7818609E-02  0.8137826E-01
       -2   -1    0    0    0  501  0.00000000000E+00  0.00000000000E+00  0.12032067633E+04  0.12032067633E+04  0.25500000920E-02 0.  1.
        2   -1    0    0  501    0  0.00000000000E+00  0.00000000000E+00 -0.24023751709E+04  0.24023751709E+04  0.25500000920E-02 0. -1.
    10030    2    1    2    0    0  0.00000000000E+00  0.00000000000E+00 -0.11991684076E+04  0.36055819342E+04  0.34003258983E+04 0.  0.
        5    1    3    3  502    0  0.15090962364E+04  0.74266560647E+03 -0.86277728825E+03  0.18903254727E+04  0.46999998093E+01 0. -1.
       -5    1    3    3    0  502 -0.15090962364E+04 -0.74266560647E+03 -0.33639111932E+03  0.17152564615E+04  0.46999998093E+01 0.  1.
</event>
<event>
 5   0  0.4946315E-08  0.3400002E+04  0.7818609E-02  0.8137906E-01
       -2   -1    0    0    0  501  0.00000000000E+00  0.00000000000E+00  0.22363841728E+04  0.22363841728E+04  0.25500000920E-02 0. -1.
        2   -1    0    0  501    0  0.00000000000E+00  0.00000000000E+00 -0.12922659457E+04  0.12922659457E+04  0.25500000920E-02 0.  1.
    10030    2    1    2    0    0  0.00000000000E+00  0.00000000000E+00  0.94411822718E+03  0.35286501185E+04  0.34000018282E+04 0.  0.
        3    1    3    3  502    0  0.73514915604E+02  0.13291325689E+04  0.15694247919E+04  0.20579339193E+04  0.10100000352E+00 0. -1.
       -3    1    3    3    0  502 -0.73514915604E+02 -0.13291325689E+04 -0.62530656472E+03  0.14707161992E+04  0.10100000352E+00 0.  1.
</event>
<event>
 5   0  0.1625282E-08  0.3400765E+04  0.7818609E-02  0.8137718E-01
        1   -1    0    0  501    0  0.00000000000E+00  0.00000000000E+00  0.12478957004E+04  0.12478957004E+04  0.50400001928E-02 0.  1.
       -1   -1    0    0    0  501  0.00000000000E+00  0.00000000000E+00 -0.23169414548E+04  0.23169414548E+04  0.50400001928E-02 0. -1.
    10030    2    1    2    0    0  0.00000000000E+00  0.00000000000E+00 -0.10690457543E+04  0.35648371552E+04  0.34007653724E+04 0.  0.
        1    1    3    3  502    0  0.34292361394E+03 -0.80286663345E+03  0.99502142219E+03  0.13237292271E+04  0.50400001928E-02 0.  1.
       -1    1    3    3    0  502 -0.34292361394E+03  0.80286663345E+03 -0.20640671765E+04  0.22411079281E+04  0.50400001928E-02 0. -1.
</event>
<event>
 5   0  0.4775023E-08  0.3399511E+04  0.7818609E-02  0.8138026E-01
       -2   -1    0    0    0  501  0.00000000000E+00  0.00000000000E+00  0.12262227824E+04  0.12262227824E+04  0.25500000920E-02 0. -1.
        2   -1    0    0  501    0  0.00000000000E+00  0.00000000000E+00 -0.23561536793E+04  0.23561536793E+04  0.25500000920E-02 0.  1.
    10030    2    1    2    0    0  0.00000000000E+00  0.00000000000E+00 -0.11299308970E+04  0.35823764617E+04  0.33995113299E+04 0.  0.
        4    1    3    3  502    0  0.16463317869E+04 -0.51910574735E+02 -0.12279388385E+03  0.16517212268E+04  0.12699999809E+01 0.  1.
       -4    1    3    3    0  502 -0.16463317869E+04  0.51910574735E+02 -0.10071370131E+04  0.19306552350E+04  0.12699999809E+01 0. -1.
</event>
<event>
 5   0  0.4973409E-08  0.3399294E+04  0.7818609E-02  0.8138080E-01
       -2   -1    0    0    0  501  0.00000000000E+00  0.00000000000E+00  0.16757708994E+04  0.16757708994E+04  0.25500000920E-02 0.  1.
        2   -1    0    0  501    0  0.00000000000E+00  0.00000000000E+00 -0.17238628499E+04  0.17238628499E+04  0.25500000920E-02 0. -1.
    10030    2    1    2    0    0  0.00000000000E+00  0.00000000000E+00 -0.48091950516E+02  0.33996337494E+04  0.33992935728E+04 0.  0.
        1    1    3    3  502    0 -0.52102747158E+03 -0.15985381275E+04  0.22498783389E+03  0.16962939888E+04  0.50400001928E-02 0.  1.
       -1    1    3    3    0  502  0.52102747158E+03  0.15985381275E+04 -0.27307978440E+03  0.17033397605E+04  0.50400001928E-02 0. -1.
</event>
<event>
 5   0  0.4946315E-08  0.3400517E+04  0.7818609E-02  0.8137779E-01
        2   -1    0    0  501    0  0.00000000000E+00  0.00000000000E+00  0.20677973433E+04  0.20677973433E+04  0.25500000920E-02 0.  1.
       -2   -1    0    0    0  501  0.00000000000E+00  0.00000000000E+00 -0.13980477339E+04  0.13980477339E+04  0.25500000920E-02 0. -1.
    10030    2    1    2    0    0  0.00000000000E+00  0.00000000000E+00  0.66974960943E+03  0.34658450771E+04  0.34005172488E+04 0.  0.
        3    1    3    3  502    0 -0.42470101318E+03 -0.13816683138E+04  0.12473398260E+04  0.19092498348E+04  0.10100000352E+00 0.  1.
       -3    1    3    3    0  502  0.42470101318E+03  0.13816683138E+04 -0.57759021656E+03  0.15565952423E+04  0.10100000352E+00 0. -1.
</event>
<event>
 5   0  0.1579536E-08  0.3400778E+04  0.7818609E-02  0.8137715E-01
        1   -1    0    0  501    0  0.00000000000E+00  0.00000000000E+00  0.15073662777E+04  0.15073662778E+04  0.50400001928E-02 0. -1.
       -1   -1    0    0    0  501  0.00000000000E+00  0.00000000000E+00 -0.19181286222E+04  0.19181286222E+04  0.50400001928E-02 0.  1.
    10030    2    1    2    0    0  0.00000000000E+00  0.00000000000E+00 -0.41076234448E+03  0.34254949000E+04  0.34007777943E+04 0.  0.
        5    1    3    3  502    0 -0.31912492549E+03 -0.15752470895E+04  0.35368092122E+03  0.16457084781E+04  0.46999998093E+01 0. -1.
       -5    1    3    3    0  502  0.31912492549E+03  0.15752470895E+04 -0.76444326569E+03  0.17797864219E+04  0.46999998093E+01 0.  1.
</event>
<event>
 5   0  0.1595851E-08  0.3403035E+04  0.7818609E-02  0.8137162E-01
        1   -1    0    0  501    0  0.00000000000E+00  0.00000000000E+00  0.31750806306E+04  0.31750806306E+04  0.50400001928E-02 0.  1.
       -1   -1    0    0    0  501  0.00000000000E+00  0.00000000000E+00 -0.91183871768E+03  0.91183871770E+03  0.50400001928E-02 0. -1.
    10030    2    1    2    0    0  0.00000000000E+00  0.00000000000E+00  0.22632419129E+04  0.40869193483E+04  0.34030347931E+04 0.  0.
        2    1    3    3  502    0  0.69333711541E+03  0.29426183314E+03 -0.70072572888E+03  0.10287482341E+04  0.25500000920E-02 0. -1.
       -2    1    3    3    0  502 -0.69333711541E+03 -0.29426183314E+03  0.29639676418E+04  0.30581711142E+04  0.25500000920E-02 0.  1.
</event>
<event>
 5   0  0.1630571E-08  0.3404598E+04  0.7818609E-02  0.8136779E-01
       -1   -1    0    0    0  501  0.00000000000E+00  0.00000000000E+00  0.12724276813E+04  0.12724276813E+04  0.50400001928E-02 0.  1.
        1   -1    0    0  501    0  0.00000000000E+00  0.00000000000E+00 -0.22773957060E+04  0.22773957060E+04  0.50400001928E-02 0. -1.
    10030    2    1    2    0    0  0.00000000000E+00  0.00000000000E+00 -0.10049680247E+04  0.35498233874E+04  0.34045976783E+04 0.  0.
        3    1    3    3  502    0  0.83039294749E+03 -0.13152306702E+04 -0.12236801657E+04  0.19790849706E+04  0.10100000352E+00 0. -1.
       -3    1    3    3    0  502 -0.83039294749E+03  0.13152306702E+04  0.21871214094E+03  0.15707384167E+04  0.10100000352E+00 0.  1.
</event>
<event>
 5   0  0.4764953E-08  0.3400439E+04  0.7818609E-02  0.8137799E-01
       -2   -1    0    0    0  501  0.00000000000E+00  0.00000000000E+00  0.15070703006E+04  0.15070703006E+04  0.25500000920E-02 0. -1.
        2   -1    0    0  501    0  0.00000000000E+00  0.00000000000E+00 -0.19181233760E+04  0.19181233760E+04  0.25500000920E-02 0.  1.
    10030    2    1    2    0    0  0.00000000000E+00  0.00000000000E+00 -0.41105307533E+03  0.34251936766E+04  0.34004392498E+04 0.  0.
        2    1    3    3  502    0  0.91467684472E+03  0.11644451687E+04  0.63612819159E+03  0.16115909398E+04  0.25500000920E-02 0. -1.
       -2    1    3    3    0  502 -0.91467684472E+03 -0.11644451687E+04 -0.10471812669E+04  0.18136027368E+04  0.25500000920E-02 0.  1.
</event>
<event>
 5   0  0.4775023E-08  0.3399107E+04  0.7818609E-02  0.8138125E-01
       -2   -1    0    0    0  501  0.00000000000E+00  0.00000000000E+00  0.15552914838E+04  0.15552914838E+04  0.25500000920E-02 0. -1.
        2   -1    0    0  501    0  0.00000000000E+00  0.00000000000E+00 -0.18571971680E+04  0.18571971680E+04  0.25500000920E-02 0.  1.
    10030    2    1    2    0    0  0.00000000000E+00  0.00000000000E+00 -0.30190568416E+03  0.34124886518E+04  0.33991074941E+04 0.  0.
        4    1    3    3  502    0  0.10189292221E+04  0.81569824921E+03  0.94186389412E+03  0.16095619284E+04  0.12699999809E+01 0. -1.
       -4    1    3    3    0  502 -0.10189292221E+04 -0.81569824921E+03 -0.12437695783E+04  0.18029267234E+04  0.12699999809E+01 0.  1.
</event>
<event>
 5   0  0.1595851E-08  0.3401364E+04  0.7818609E-02  0.8137572E-01
        1   -1    0    0  501    0  0.00000000000E+00  0.00000000000E+00  0.20302342484E+04  0.20302342484E+04  0.50400001928E-02 0.  1.
       -1   -1    0    0    0  501  0.00000000000E+00  0.00000000000E+00 -0.14246232218E+04  0.14246232219E+04  0.50400001928E-02 0. -1.
    10030    2    1    2    0    0  0.00000000000E+00  0.00000000000E+00  0.60561102657E+03  0.34548574703E+04  0.34013637595E+04 0.  0.
        2    1    3    3  502    0  0.12751641285E+03  0.45208608231E+03 -0.13574273191E+04  0.14364021679E+04  0.25500000920E-02 0. -1.
       -2    1    3    3    0  502 -0.12751641285E+03 -0.45208608231E+03  0.19630383456E+04  0.20184553024E+04  0.25500000920E-02 0.  1.
</event>
<event>
 5   0  0.1579536E-08  0.3399482E+04  0.7818609E-02  0.8138034E-01
       -1   -1    0    0    0  501  0.00000000000E+00  0.00000000000E+00  0.13624220626E+04  0.13624220626E+04  0.50400001928E-02 0.  1.
        1   -1    0    0  501    0  0.00000000000E+00  0.00000000000E+00 -0.21205757240E+04  0.21205757241E+04  0.50400001928E-02 0. -1.
    10030    2    1    2    0    0  0.00000000000E+00  0.00000000000E+00 -0.75815366149E+03  0.34829977866E+04  0.33994818145E+04 0.  0.
        5    1    3    3  502    0 -0.79836001769E+03 -0.11234579706E+04  0.64012843543E+03  0.15196456934E+04  0.46999998093E+01 0.  1.
       -5    1    3    3    0  502  0.79836001769E+03  0.11234579706E+04 -0.13982820969E+04  0.19633520933E+04  0.46999998093E+01 0. -1.
</event>
<event>
 5   0  0.1595851E-08  0.3401225E+04  0.7818609E-02  0.8137606E-01
       -1   -1    0    0    0  501  0.00000000000E+00  0.00000000000E+00  0.22750797351E+04  0.22750797351E+04  0.50400001928E-02 0.  1.
        1   -1    0    0  501    0  0.00000000000E+00  0.00000000000E+00 -0.12712003689E+04  0.12712003689E+04  0.50400001928E-02 0. -1.
    10030    2    1    2    0    0  0.00000000000E+00  0.00000000000E+00  0.10038793662E+04  0.35462801041E+04  0.34012246022E+04 0.  0.
        2    1    3    3  502    0 -0.11516157895E+04  0.10498021463E+03  0.18020521266E+04  0.21411752939E+04  0.25500000920E-02 0.  1.
       -2    1    3    3    0  502  0.11516157895E+04 -0.10498021463E+03 -0.79817276041E+03  0.14051048102E+04  0.25500000920E-02 0. -1.
</event>
<event>
 5   0  0.4764953E-08  0.3396164E+04  0.7818609E-02  0.8138848E-01
       -2   -1    0    0    0  501  0.00000000000E+00  0.00000000000E+00  0.11130414847E+04  0.11130414847E+04  0.25500000920E-02 0. -1.
        2   -1    0    0  501    0  0.00000000000E+00  0.00000000000E+00 -0.25906333670E+04  0.25906333670E+04  0.25500000920E-02 0.  1.
    10030    2    1    2    0    0  0.00000000000E+00  0.00000000000E+00 -0.14775918823E+04  0.37036748517E+04  0.33961639590E+04 0.  0.
        2    1    3    3  502    0  0.27814517349E+03 -0.11172754808E+04  0.62234121544E+03  0.13088077881E+04  0.25500000920E-02 0. -1.
       -2    1    3    3    0  502 -0.27814517349E+03  0.11172754808E+04 -0.20999330977E+04  0.23948670636E+04  0.25500000920E-02 0.  1.
</event>
<event>
 5   0  0.4946315E-08  0.3400654E+04  0.7818609E-02  0.8137746E-01
        2   -1    0    0  501    0  0.00000000000E+00  0.00000000000E+00  0.20754569273E+04  0.20754569273E+04  0.25500000920E-02 0.  1.
       -2   -1    0    0    0  501  0.00000000000E+00  0.00000000000E+00 -0.13930002703E+04  0.13930002703E+04  0.25500000920E-02 0. -1.
    10030    2    1    2    0    0  0.00000000000E+00  0.00000000000E+00  0.68245665702E+03  0.34684571976E+04  0.34006540905E+04 0.  0.
        3    1    3    3  502    0  0.14202276995E+04 -0.82952576177E+02  0.12910226307E+04  0.19211109524E+04  0.10100000352E+00 0.  1.
       -3    1    3    3    0  502 -0.14202276995E+04  0.82952576177E+02 -0.60856597366E+03  0.15473462453E+04  0.10100000352E+00 0. -1.
</event>
<event>
 5   0  0.4764953E-08  0.3398892E+04  0.7818609E-02  0.8138178E-01
       -2   -1    0    0    0  501  0.00000000000E+00  0.00000000000E+00  0.23351011316E+04  0.23351011316E+04  0.25500000920E-02 0.  1.
        2   -1    0    0  501    0  0.00000000000E+00  0.00000000000E+00 -0.12368274221E+04  0.12368274221E+04  0.25500000920E-02 0. -1.
    10030    2    1    2    0    0  0.00000000000E+00  0.00000000000E+00  0.10982737095E+04  0.35719285537E+04  0.33988922389E+04 0.  0.
        2    1    3    3  502    0  0.14954285271E+04  0.35799604433E+03 -0.21133947366E+03  0.15521378871E+04  0.25500000920E-02 0. -1.
       -2    1    3    3    0  502 -0.14954285271E+04 -0.35799604433E+03  0.13096131832E+04  0.20197906666E+04  0.25500000920E-02 0.  1.
</event>
<event>
 5   0  0.1630571E-08  0.3402794E+04  0.7818609E-02  0.8137221E-01
       -1   -1    0    0    0  501  0.00000000000E+00  0.00000000000E+00  0.13860010624E+04  0.13860010624E+04  0.50400001928E-02 0.  1.
        1   -1    0    0  501    0  0.00000000000E+00  0.00000000000E+00 -0.20885636520E+04  0.20885636520E+04  0.50400001928E-02 0. -1.
    10030    2    1    2    0    0  0.00000000000E+00  0.00000000000E+00 -0.70256258958E+03  0.34745647144E+04  0.34027938172E+04 0.  0.
        3    1    3    3  502    0 -0.14243071559E+04  0.39624254298E+03  0.50855581739E+03  0.15634219062E+04  0.10100000352E+00 0. -1.
       -3    1    3    3    0  502  0.14243071559E+04 -0.39624254298E+03 -0.12111184070E+04  0.19111428082E+04  0.10100000352E+00 0.  1.
</event>
<event>
 5   0  0.1579536E-08  0.3399335E+04  0.7818609E-02  0.8138070E-01
        1   -1    0    0  501    0  0.00000000000E+00  0.00000000000E+00  0.25486575809E+04  0.25486575809E+04  0.50400001928E-02 0. -1.
       -1   -1    0    0    0  501  0.00000000000E+00  0.00000000000E+00 -0.11334864280E+04  0.11334864281E+04  0.50400001928E-02 0.  1.
    10030    2    1    2    0    0  0.00000000000E+00  0.00000000000E+00  0.14151711529E+04  0.36821440090E+04  0.33993345100E+04 0.  0.
        5    1    3    3  502    0 -0.12377979751E+04 -0.95241268177E+03  0.14339026772E+04  0.21202199700E+04  0.46999998093E+01 0. -1.
       -5    1    3    3    0  502  0.12377979751E+04  0.95241268177E+03 -0.18731524339E+02  0.15619240390E+04  0.46999998093E+01 0.  1.
</event>
<event>
 5   0  0.5001197E-08  0.3399657E+04  0.7818609E-02  0.8137991E-01
        2   -1    0    0  501    0  0.00000000000E+00  0.00000000000E+00  0.21254127727E+04  0.21254127727E+04  0.25500000920E-02 0.  1.
       -2   -1    0    0    0  501  0.00000000000E+00  0.00000000000E+00 -0.13594614485E+04  0.13594614485E+04  0.25500000920E-02 0. -1.
    10030    2    1    2    0    0  0.00000000000E+00  0.00000000000E+00  0.76595132419E+03  0.34848742212E+04  0.33996568808E+04 0.  0.
        5    1    3    3  502    0  0.48657904002E+03 -0.52464483006E+03 -0.11975502583E+04  0.13950484117E+04  0.46999998093E+01 0. -1.
       -5    1    3    3    0  502 -0.48657904002E+03  0.52464483006E+03  0.19635015825E+04  0.20898258095E+04  0.46999998093E+01 0.  1.
</event>
<event>
 5   0  0.1579536E-08  0.3400583E+04  0.7818609E-02  0.8137763E-01
        1   -1    0    0  501    0  0.00000000000E+00  0.00000000000E+00  0.13861599034E+04  0.13861599034E+04  0.50400001928E-02 0. -1.
       -1   -1    0    0    0  501  0.00000000000E+00  0.00000000000E+00 -0.20856112439E+04  0.20856112439E+04  0.50400001928E-02 0.  1.
    10030    2    1    2    0    0  0.00000000000E+00  0.00000000000E+00 -0.69945134055E+03  0.34717711473E+04  0.34005827032E+04 0.  0.
        5    1    3    3  502    0 -0.23820688200E+03  0.16145709007E+04 -0.83655916214E+03  0.18339670209E+04  0.46999998093E+01 0.  1.
       -5    1    3    3    0  502  0.23820688200E+03 -0.16145709007E+04  0.13710782160E+03  0.16378041264E+04  0.46999998093E+01 0. -1.
</event>
<event>
 5   0  0.1595851E-08  0.3400417E+04  0.7818609E-02  0.8137804E-01
       -1   -1    0    0    0  501  0.00000000000E+00  0.00000000000E+00  0.20493294608E+04  0.20493294608E+04  0.50400001928E-02 0. -1.
        1   -1    0    0  501    0  0.00000000000E+00  0.00000000000E+00 -0.14105636669E+04  0.14105636669E+04  0.50400001928E-02 0.  1.
    10030    2    1    2    0    0  0.00000000000E+00  0.00000000000E+00  0.63876579392E+03  0.34598931276E+04  0.34004174325E+04 0.  0.
        2    1    3    3  502    0  0.21277298241E+03 -0.49755403345E+03  0.19593674952E+04  0.20327206743E+04  0.25500000920E-02 0. -1.
       -2    1    3    3    0  502 -0.21277298241E+03  0.49755403345E+03 -0.13206017013E+04  0.14271724534E+04  0.25500000920E-02 0.  1.
</event>
<event>
 5   0  0.5001197E-08  0.3404214E+04  0.7818609E-02  0.8136873E-01
       -2   -1    0    0    0  501  0.00000000000E+00  0.00000000000E+00  0.11346123749E+04  0.11346123749E+04  0.25500000920E-02 0.  1.
        2   -1    0    0  501    0  0.00000000000E+00  0.00000000000E+00 -0.25534426997E+04  0.25534426997E+04  0.25500000920E-02 0. -1.
    10030    2    1    2    0    0  0.00000000000E+00  0.00000000000E+00 -0.14188303248E+04  0.36880550746E+04  0.34042136747E+04 0.  0.
        5    1    3    3  502    0 -0.36845549337E+03 -0.16580692265E+04 -0.58978836271E+03  0.17980059548E+04  0.46999998093E+01 0. -1.
       -5    1    3    3    0  502  0.36845549337E+03  0.16580692265E+04 -0.82904196209E+03  0.18900491199E+04  0.46999998093E+01 0.  1.
</event>
<event>
 5   0  0.1625282E-08  0.3400042E+04  0.7818609E-02  0.8137896E-01
        1   -1    0    0  501    0  0.00000000000E+00  0.00000000000E+00  0.26331444864E+04  0.26331444864E+04  0.50400001928E-02 0. -1.
       -1   -1    0    0    0  501  0.00000000000E+00  0.00000000000E+00 -0.10975741297E+04  0.10975741297E+04  0.50400001928E-02 0.  1.
    10030    2    1    2    0    0  0.00000000000E+00  0.00000000000E+00  0.15355703567E+04  0.37307186161E+04  0.34000419221E+04 0.  0.
        1    1    3    3  502    0 -0.27346716723E+03 -0.14014340071E+04 -0.24459074985E+03  0.14486635920E+04  0.50400001928E-02 0.  1.
       -1    1    3    3    0  502  0.27346716723E+03  0.14014340071E+04  0.17801611066E+04  0.22820550241E+04  0.50400001928E-02 0. -1.
</event>
<event>
 5   0  0.4946315E-08  0.3399832E+04  0.7818609E-02  0.8137948E-01
       -2   -1    0    0    0  501  0.00000000000E+00  0.00000000000E+00  0.21618706078E+04  0.21618706078E+04  0.25500000920E-02 0.  1.
        2   -1    0    0  501    0  0.00000000000E+00  0.00000000000E+00 -0.13366729255E+04  0.13366729255E+04  0.25500000920E-02 0. -1.
    10030    2    1    2    0    0  0.00000000000E+00  0.00000000000E+00  0.82519768237E+03  0.34985435333E+04  0.33998317075E+04 0.  0.
        3    1    3    3  502    0  0.13127352037E+04 -0.72318138191E+03  0.12380414534E+04  0.19439680235E+04  0.10100000352E+00 0.  1.
       -3    1    3    3    0  502 -0.13127352037E+04  0.72318138191E+03 -0.41284377099E+03  0.15545755097E+04  0.10100000352E+00 0. -1.
</event>
<event>
 5   0  0.4775023E-08  0.3395774E+04  0.7818609E-02  0.8138944E-01
        2   -1    0    0  501    0  0.00000000000E+00  0.00000000000E+00  0.24981048744E+04  0.24981048744E+04  0.25500000920E-02 0. -1.
       -2   -1    0    0    0  501  0.00000000000E+00  0.00000000000E+00 -0.11540026069E+04  0.11540026069E+04  0.25500000920E-02 0.  1.
    10030    2    1    2    0    0  0.00000000000E+00  0.00000000000E+00  0.13441022675E+04  0.36521074814E+04  0.33957735717E+04 0.  0.
        4    1    3    3  502    0  0.12419391209E+04  0.75854859364E+03 -0.26862071756E+03  0.14798538616E+04  0.12699999809E+01 0.  1.
       -4    1    3    3    0  502 -0.12419391209E+04 -0.75854859364E+03  0.16127229851E+04  0.21722536197E+04  0.12699999809E+01 0. -1.
</event>
<event>
 5   0  0.4946315E-08  0.3401233E+04  0.7818609E-02  0.8137604E-01
        2   -1    0    0  501    0  0.00000000000E+00  0.00000000000E+00  0.25798742548E+04  0.25798742548E+04  0.25500000920E-02 0.  1.
       -2   -1    0    0    0  501  0.00000000000E+00  0.00000000000E+00 -0.11210220865E+04  0.11210220865E+04  0.25500000920E-02 0. -1.
    10030    2    1    2    0    0  0.00000000000E+00  0.00000000000E+00  0.14588521684E+04  0.37008963413E+04  0.34012327295E+04 0.  0.
        3    1    3    3  502    0  0.91526758306E+03 -0.87161781008E+03  0.19675070577E+04  0.23384859178E+04  0.10100000352E+00 0.  1.
       -3    1    3    3    0  502 -0.91526758306E+03  0.87161781008E+03 -0.50865488934E+03  0.13624104235E+04  0.10100000352E+00 0. -1.
</event>
<event>
 5   0  0.1595851E-08  0.3399975E+04  0.7818609E-02  0.8137912E-01
       -1   -1    0    0    0  501  0.00000000000E+00  0.00000000000E+00  0.22362962688E+04  0.22362962688E+04  0.50400001928E-02 0. -1.
        1   -1    0    0  501    0  0.00000000000E+00  0.00000000000E+00 -0.12922966928E+04  0.12922966928E+04  0.50400001928E-02 0.  1.
    10030    2    1    2    0    0  0.00000000000E+00  0.00000000000E+00  0.94399957605E+03  0.35285929617E+04  0.33999754542E+04 0.  0.
        2    1    3    3  502    0  0.58960532675E+03 -0.14729190980E+04  0.11056988273E+04  0.19338291050E+04  0.25500000920E-02 0. -1.
       -2    1    3    3    0  502 -0.58960532675E+03  0.14729190980E+04 -0.16169925129E+03  0.15947638566E+04  0.25500000920E-02 0.  1.
</event>
<event>
 5   0  0.4775023E-08  0.3398069E+04  0.7818609E-02  0.8138380E-01
       -2   -1    0    0    0  501  0.00000000000E+00  0.00000000000E+00  0.11886247167E+04  0.11886247167E+04  0.25500000920E-02 0. -1.
        2   -1    0    0  501    0  0.00000000000E+00  0.00000000000E+00 -0.24286202572E+04  0.24286202572E+04  0.25500000920E-02 0.  1.
    10030    2    1    2    0    0  0.00000000000E+00  0.00000000000E+00 -0.12399955405E+04  0.36172449740E+04  0.33980689018E+04 0.  0.
        4    1    3    3  502    0 -0.14686467107E+04 -0.59058605264E+02 -0.15272026333E+04  0.21196133081E+04  0.12699999809E+01 0.  1.
       -4    1    3    3    0  502  0.14686467107E+04  0.59058605264E+02  0.28720709282E+03  0.14976316659E+04  0.12699999809E+01 0. -1.
</event>
<event>
 5   0  0.1579536E-08  0.3400474E+04  0.7818609E-02  0.8137790E-01
        1   -1    0    0  501    0  0.00000000000E+00  0.00000000000E+00  0.25964470352E+04  0.25964470352E+04  0.50400001928E-02 0. -1.
       -1   -1    0    0    0  501  0.00000000000E+00  0.00000000000E+00 -0.11133698340E+04  0.11133698340E+04  0.50400001928E-02 0.  1.
    10030    2    1    2    0    0  0.00000000000E+00  0.00000000000E+00  0.14830772012E+04  0.37098168692E+04  0.34004739697E+04 0.  0.
        5    1    3    3  502    0  0.62198411372E+03 -0.15338938451E+04  0.11656008906E+04  0.20244362405E+04  0.46999998093E+01 0.  1.
       -5    1    3    3    0  502 -0.62198411372E+03  0.15338938451E+04  0.31747631060E+03  0.16853806287E+04  0.46999998093E+01 0. -1.
</event>
<event>
 5   0  0.1595851E-08  0.3400233E+04  0.7818609E-02  0.8137849E-01
       -1   -1    0    0    0  501  0.00000000000E+00  0.00000000000E+00  0.17407774504E+04  0.17407774504E+04  0.50400001928E-02 0.  1.
        1   -1    0    0  501    0  0.00000000000E+00  0.00000000000E+00 -0.16604057647E+04  0.16604057647E+04  0.50400001928E-02 0. -1.
    10030    2    1    2    0    0  0.00000000000E+00  0.00000000000E+00  0.80371685646E+02  0.34011832151E+04  0.34002334706E+04 0.  0.
        2    1    3    3  502    0 -0.11902594698E+04 -0.11617766389E+04 -0.31198400911E+03  0.16922696552E+04  0.25500000920E-02 0. -1.
       -2    1    3    3    0  502  0.11902594698E+04  0.11617766389E+04  0.39235569476E+03  0.17089135599E+04  0.25500000920E-02 0.  1.
</event>
<event>
 5   0  0.1573625E-08  0.3403349E+04  0.7818609E-02  0.8137085E-01
       -3   -1    0    0    0  501  0.00000000000E+00  0.00000000000E+00  0.20100075905E+04  0.20100075930E+04  0.10100000352E+00 0. -1.
        3   -1    0    0  501    0  0.00000000000E+00  0.00000000000E+00 -0.14406395821E+04  0.14406395857E+04  0.10100000352E+00 0.  1.
    10030    2    1    2    0    0  0.00000000000E+00  0.00000000000E+00  0.56936800835E+03  0.34506471787E+04  0.34033492361E+04 0.  0.
        5    1    3    3  502    0  0.53392925497E+03 -0.11771451766E+04  0.14068276878E+04  0.19104809471E+04  0.46999998093E+01 0.  1.
       -5    1    3    3    0  502 -0.53392925497E+03  0.11771451766E+04 -0.83745967943E+03  0.15401662316E+04  0.46999998093E+01 0. -1.
</event>
<event>
 5   0  0.1595851E-08  0.3399277E+04  0.7818609E-02  0.8138084E-01
        1   -1    0    0  501    0  0.00000000000E+00  0.00000000000E+00  0.24286038536E+04  0.24286038537E+04  0.50400001928E-02 0.  1.
       -1   -1    0    0    0  501  0.00000000000E+00  0.00000000000E+00 -0.11894780487E+04  0.11894780487E+04  0.50400001928E-02 0. -1.
    10030    2    1    2    0    0  0.00000000000E+00  0.00000000000E+00  0.12391258050E+04  0.36180819023E+04  0.33992769660E+04 0.  0.
        2    1    3    3  502    0  0.72895562543E+03  0.17733084019E+03  0.22428370953E+04  0.23649821916E+04  0.25500000920E-02 0.  1.
       -2    1    3    3    0  502 -0.72895562543E+03 -0.17733084019E+03 -0.10037112903E+04  0.12530997107E+04  0.25500000920E-02 0. -1.
</event>
<event>
 5   0  0.1630571E-08  0.3400294E+04  0.7818609E-02  0.8137834E-01
        1   -1    0    0  501    0  0.00000000000E+00  0.00000000000E+00  0.30652933949E+04  0.30652933949E+04  0.50400001928E-02 0.  1.
       -1   -1    0    0    0  501  0.00000000000E+00  0.00000000000E+00 -0.94297670152E+03  0.94297670153E+03  0.50400001928E-02 0. -1.
    10030    2    1    2    0    0  0.00000000000E+00  0.00000000000E+00  0.21223166933E+04  0.40082700964E+04  0.34002942547E+04 0.  0.
        3    1    3    3  502    0 -0.22792367129E+03 -0.50235124663E+03  0.29568646300E+04  0.30078820498E+04  0.10100000352E+00 0.  1.
       -3    1    3    3    0  502  0.22792367129E+03  0.50235124663E+03 -0.83454793670E+03  0.10003880466E+04  0.10100000352E+00 0. -1.
</event>
<event>
 5   0  0.1579536E-08  0.3394042E+04  0.7818609E-02  0.8139370E-01
        1   -1    0    0  501    0  0.00000000000E+00  0.00000000000E+00  0.10794021436E+04  0.10794021436E+04  0.50400001928E-02 0. -1.
       -1   -1    0    0    0  501  0.00000000000E+00  0.00000000000E+00 -0.26680330080E+04  0.26680330080E+04  0.50400001928E-02 0.  1.
    10030    2    1    2    0    0  0.00000000000E+00  0.00000000000E+00 -0.15886308644E+04  0.37474351517E+04  0.33940421613E+04 0.  0.
        5    1    3    3  502    0  0.32217957057E+03  0.13986272481E+04  0.20544857233E+03  0.14498927756E+04  0.46999998093E+01 0. -1.
       -5    1    3    3    0  502 -0.32217957057E+03 -0.13986272481E+04 -0.17940794367E+04  0.22975423761E+04  0.46999998093E+01 0.  1.
</event>
<event>
 5   0  0.5001197E-08  0.3394584E+04  0.7818609E-02  0.8139237E-01
        2   -1    0    0  501    0  0.00000000000E+00  0.00000000000E+00  0.21404585855E+04  0.21404585855E+04  0.25500000920E-02 0.  1.
       -2   -1    0    0    0  501  0.00000000000E+00  0.00000000000E+00 -0.13458799971E+04  0.13458799971E+04  0.25500000920E-02 0. -1.
    10030    2    1    2    0    0  0.00000000000E+00  0.00000000000E+00  0.79457858837E+03  0.34863385825E+04  0.33945841541E+04 0.  0.
        5    1    3    3  502    0  0.10035218637E+04  0.96836448606E+03  0.13909065905E+04  0.19696266505E+04  0.46999998093E+01 0.  1.
       -5    1    3    3    0  502 -0.10035218637E+04 -0.96836448606E+03 -0.59632800216E+03  0.15167119321E+04  0.46999998093E+01 0. -1.
</event>
<event>
 5   0  0.1625282E-08  0.3400188E+04  0.7818609E-02  0.8137860E-01
        1   -1    0    0  501    0  0.00000000000E+00  0.00000000000E+00  0.14556165054E+04  0.14556165054E+04  0.50400001928E-02 0.  1.
       -1   -1    0    0    0  501  0.00000000000E+00  0.00000000000E+00 -0.19856331523E+04  0.19856331523E+04  0.50400001928E-02 0. -1.
    10030    2    1    2    0    0  0.00000000000E+00  0.00000000000E+00 -0.53001664690E+03  0.34412496577E+04  0.34001884596E+04 0.  0.
        1    1    3    3  502    0 -0.32785571879E+02 -0.14280599441E+04  0.66801956805E+03  0.15769211271E+04  0.50400001928E-02 0.  1.
       -1    1    3    3    0  502  0.32785571879E+02  0.14280599441E+04 -0.11980362149E+04  0.18643285306E+04  0.50400001928E-02 0. -1.
</event>
<event>
 5   0  0.1579536E-08  0.3399705E+04  0.7818609E-02  0.8137979E-01
       -1   -1    0    0    0  501  0.00000000000E+00  0.00000000000E+00  0.13281641214E+04  0.13281641214E+04  0.50400001928E-02 0.  1.
        1   -1    0    0  501    0  0.00000000000E+00  0.00000000000E+00 -0.21755580299E+04  0.21755580299E+04  0.50400001928E-02 0. -1.
    10030    2    1    2    0    0  0.00000000000E+00  0.00000000000E+00 -0.84739390858E+03  0.35037221513E+04  0.33997047632E+04 0.  0.
        5    1    3    3  502    0 -0.50249800057E+02 -0.45571274531E+03  0.12632337905E+04  0.13438678685E+04  0.46999998093E+01 0.  1.
       -5    1    3    3    0  502  0.50249800057E+02  0.45571274531E+03 -0.21106276991E+04  0.21598542828E+04  0.46999998093E+01 0. -1.
</event>
<event>
 5   0  0.1645631E-08  0.3400779E+04  0.7818609E-02  0.8137715E-01
        1   -1    0    0  501    0  0.00000000000E+00  0.00000000000E+00  0.18100820151E+04  0.18100820151E+04  0.50400001928E-02 0.  1.
       -1   -1    0    0    0  501  0.00000000000E+00  0.00000000000E+00 -0.15973441279E+04  0.15973441279E+04  0.50400001928E-02 0. -1.
    10030    2    1    2    0    0  0.00000000000E+00  0.00000000000E+00  0.21273788719E+03  0.34074261430E+04  0.34007786625E+04 0.  0.
        4    1    3    3  502    0  0.27625476036E+03 -0.41813587192E+03  0.17344044136E+04  0.18053571899E+04  0.12699999809E+01 0.  1.
       -4    1    3    3    0  502 -0.27625476036E+03  0.41813587192E+03 -0.15216665265E+04  0.16020689531E+04  0.12699999809E+01 0. -1.
</event>
<event>
 5   0  0.1595851E-08  0.3403331E+04  0.7818609E-02  0.8137089E-01
        1   -1    0    0  501    0  0.00000000000E+00  0.00000000000E+00  0.13121867910E+04  0.13121867910E+04  0.50400001928E-02 0.  1.
       -1   -1    0    0    0  501  0.00000000000E+00  0.00000000000E+00 -0.22067473691E+04  0.22067473691E+04  0.50400001928E-02 0. -1.
    10030    2    1    2    0    0  0.00000000000E+00  0.00000000000E+00 -0.89456057813E+03  0.35189341601E+04  0.34033305739E+04 0.  0.
        2    1    3    3  502    0 -0.15929497881E+02 -0.10984599623E+04 -0.17909597948E+04  0.21010485535E+04  0.25500000920E-02 0. -1.
       -2    1    3    3    0  502  0.15929497881E+02  0.10984599623E+04  0.89639921662E+03  0.14178856066E+04  0.25500000920E-02 0.  1.
</event>
<event>
 5   0  0.4764953E-08  0.3399597E+04  0.7818609E-02  0.8138005E-01
       -2   -1    0    0    0  501  0.00000000000E+00  0.00000000000E+00  0.18049141794E+04  0.18049141794E+04  0.25500000920E-02 0.  1.
        2   -1    0    0  501    0  0.00000000000E+00  0.00000000000E+00 -0.16008046615E+04  0.16008046615E+04  0.25500000920E-02 0. -1.
    10030    2    1    2    0    0  0.00000000000E+00  0.00000000000E+00  0.20410951791E+03  0.34057188409E+04  0.33995970538E+04 0.  0.
        2    1    3    3  502    0 -0.83708391345E+02  0.15955434999E+04  0.68322774693E+03  0.17376899346E+04  0.25500000920E-02 0.  1.
       -2    1    3    3    0  502  0.83708391345E+02 -0.15955434999E+04 -0.47911822902E+03  0.16680289063E+04  0.25500000920E-02 0. -1.
</event>
<event>
 5   0  0.4946315E-08  0.3399342E+04  0.7818609E-02  0.8138068E-01
        2   -1    0    0  501    0  0.00000000000E+00  0.00000000000E+00  0.33379330090E+04  0.33379330090E+04  0.25500000920E-02 0. -1.
       -2   -1    0    0    0  501  0.00000000000E+00  0.00000000000E+00 -0.86547007431E+03  0.86547007431E+03  0.25500000920E-02 0.  1.
    10030    2    1    2    0    0  0.00000000000E+00  0.00000000000E+00  0.24724629347E+04  0.42034030833E+04  0.33993417771E+04 0.  0.
        3    1    3    3  502    0 -0.12634179858E+04  0.89125696485E+03  0.36334227311E+03  0.15882637066E+04  0.10100000352E+00 0.  1.
       -3    1    3    3    0  502  0.12634179858E+04 -0.89125696485E+03  0.21091206616E+04  0.26151393767E+04  0.10100000352E+00 0. -1.
</event>
<event>
 5   0  0.4775023E-08  0.3400010E+04  0.7818609E-02  0.8137904E-01
       -2   -1    0    0    0  501  0.00000000000E+00  0.00000000000E+00  0.20100019005E+04  0.20100019005E+04  0.25500000920E-02 0.  1.
        2   -1    0    0  501    0  0.00000000000E+00  0.00000000000E+00 -0.14378181142E+04  0.14378181142E+04  0.25500000920E-02 0. -1.
    10030    2    1    2    0    0  0.00000000000E+00  0.00000000000E+00  0.57218378632E+03  0.34478200148E+04  0.34000100836E+04 0.  0.
        4    1    3    3  502    0  0.25689360988E+03 -0.13080826040E+04  0.13558866684E+04  0.19014480524E+04  0.12699999809E+01 0.  1.
       -4    1    3    3    0  502 -0.25689360988E+03  0.13080826040E+04 -0.78370288207E+03  0.15463719623E+04  0.12699999809E+01 0. -1.
</event>
<event>
 5   0  0.1579536E-08  0.3401774E+04  0.7818609E-02  0.8137471E-01
       -1   -1    0    0    0  501  0.00000000000E+00  0.00000000000E+00  0.16033082261E+04  0.16033082261E+04  0.50400001928E-02 0.  1.
        1   -1    0    0  501    0  0.00000000000E+00  0.00000000000E+00 -0.18044044522E+04  0.18044044522E+04  0.50400001928E-02 0. -1.
    10030    2    1    2    0    0  0.00000000000E+00  0.00000000000E+00 -0.20109622607E+03  0.34077126783E+04  0.34017739499E+04 0.  0.
        5    1    3    3  502    0 -0.25862658985E+03 -0.16810684398E+04 -0.89777641980E+02  0.17032207512E+04  0.46999998093E+01 0.  1.
       -5    1    3    3    0  502  0.25862658985E+03  0.16810684398E+04 -0.11131858409E+03  0.17044919271E+04  0.46999998093E+01 0. -1.
</event>
<event>
 5   0  0.4973409E-08  0.3397046E+04  0.7818609E-02  0.8138632E-01
        2   -1    0    0  501    0  0.00000000000E+00  0.00000000000E+00  0.20270117521E+04  0.20270117521E+04  0.25500000920E-02 0. -1.
       -2   -1    0    0    0  501  0.00000000000E+00  0.00000000000E+00 -0.14232677990E+04  0.14232677990E+04  0.25500000920E-02 0.  1.
    10030    2    1    2    0    0  0.00000000000E+00  0.00000000000E+00  0.60374395305E+03  0.34502795511E+04  0.33970461021E+04 0.  0.
        1    1    3    3  502    0 -0.87473865872E+03 -0.10977592994E+04  0.12732785782E+04  0.18951204548E+04  0.50400001928E-02 0. -1.
       -1    1    3    3    0  502  0.87473865872E+03  0.10977592994E+04 -0.66953462520E+03  0.15551590963E+04  0.50400001928E-02 0.  1.
</event>
<event>
 5   0  0.5001197E-08  0.3400446E+04  0.7818609E-02  0.8137797E-01
        2   -1    0    0  501    0  0.00000000000E+00  0.00000000000E+00  0.18419268973E+04  0.18419268973E+04  0.25500000920E-02 0.  1.
       -2   -1    0    0    0  501  0.00000000000E+00  0.00000000000E+00 -0.15694207852E+04  0.15694207852E+04  0.25500000920E-02 0. -1.
    10030    2    1    2    0    0  0.00000000000E+00  0.00000000000E+00  0.27250611214E+03  0.34113476825E+04  0.34004460634E+04 0.  0.
        5    1    3    3  502    0  0.19073718379E+03  0.15264442613E+04 -0.59017023500E+03  0.16476455178E+04  0.46999998093E+01 0. -1.
       -5    1    3    3    0  502 -0.19073718379E+03 -0.15264442613E+04  0.86267634713E+03  0.17637021647E+04  0.46999998093E+01 0.  1.
</event>
<event>
 5   0  0.1645631E-08  0.3399741E+04  0.7818609E-02  0.8137970E-01
       -1   -1    0    0    0  501  0.00000000000E+00  0.00000000000E+00  0.15295556988E+04  0.15295556988E+04  0.50400001928E-02 0.  1.
        1   -1    0    0  501    0  0.00000000000E+00  0.00000000000E+00 -0.18891501581E+04  0.18891501581E+04  0.50400001928E-02 0. -1.
    10030    2    1    2    0    0  0.00000000000E+00  0.00000000000E+00 -0.35959445924E+03  0.34187058569E+04  0.33997413962E+04 0.  0.
        4    1    3    3  502    0 -0.70542003163E+03 -0.64000310642E+03 -0.15956061289E+04  0.18582739111E+04  0.12699999809E+01 0. -1.
       -4    1    3    3    0  502  0.70542003163E+03  0.64000310642E+03  0.12360116696E+04  0.15604319458E+04  0.12699999809E+01 0.  1.
</event>
<event>
 5   0  0.1595851E-08  0.3400227E+04  0.7818609E-02  0.8137851E-01
        1   -1    0    0  501    0  0.00000000000E+00  0.00000000000E+00  0.18099612960E+04  0.18099612960E+04  0.50400001928E-02 0.  1.
       -1   -1    0    0    0  501  0.00000000000E+00  0.00000000000E+00 -0.15969323585E+04  0.15969323585E+04  0.50400001928E-02 0. -1.
    10030    2    1    2    0    0  0.00000000000E+00  0.00000000000E+00  0.21302893754E+03  0.34068936545E+04  0.34002269108E+04 0.  0.
        2    1    3    3  502    0 -0.10145847084E+04 -0.84850519748E+03  0.11768047923E+04  0.17703707860E+04  0.25500000920E-02 0.  1.
       -2    1    3    3    0  502  0.10145847084E+04  0.84850519748E+03 -0.96377585480E+03  0.16365228685E+04  0.25500000920E-02 0. -1.
</event>
<event>
 5   0  0.1595851E-08  0.3400233E+04  0.7818609E-02  0.8137849E-01
        1   -1    0    0  501    0  0.00000000000E+00  0.00000000000E+00  0.22141290209E+04  0.22141290209E+04  0.50400001928E-02 0. -1.
       -1   -1    0    0    0  501  0.00000000000E+00  0.00000000000E+00 -0.13054325638E+04  0.13054325638E+04  0.50400001928E-02 0.  1.
    10030    2    1    2    0    0  0.00000000000E+00  0.00000000000E+00  0.90869645709E+03  0.35195615847E+04  0.34002330063E+04 0.  0.
        2    1    3    3  502    0  0.52666957661E+03 -0.73050598827E+03 -0.10382620676E+04  0.13744118607E+04  0.25500000920E-02 0.  1.
       -2    1    3    3    0  502 -0.52666957661E+03  0.73050598827E+03  0.19469585246E+04  0.21451497240E+04  0.25500000920E-02 0. -1.
</event>
<event>
 5   0  0.1579536E-08  0.3400428E+04  0.7818609E-02  0.8137801E-01
       -1   -1    0    0    0  501  0.00000000000E+00  0.00000000000E+00  0.17041868988E+04  0.17041868989E+04  0.50400001928E-02 0.  1.
        1   -1    0    0  501    0  0.00000000000E+00  0.00000000000E+00 -0.16962502530E+04  0.16962502530E+04  0.50400001928E-02 0. -1.
    10030    2    1    2    0    0  0.00000000000E+00  0.00000000000E+00  0.79366458324E+01  0.34004371519E+04  0.34004278898E+04 0.  0.
        5    1    3    3  502    0 -0.74272326876E+03 -0.91092556418E+03 -0.12245634646E+04  0.16973511735E+04  0.46999998093E+01 0. -1.
       -5    1    3    3    0  502  0.74272326876E+03  0.91092556418E+03  0.12325001104E+04  0.17030859784E+04  0.46999998093E+01 0.  1.
</event>
<event>
 5   0  0.1595851E-08  0.3400455E+04  0.7818609E-02  0.8137795E-01
       -1   -1    0    0    0  501  0.00000000000E+00  0.00000000000E+00  0.10888347891E+04  0.10888347891E+04  0.50400001928E-02 0.  1.
        1   -1    0    0  501    0  0.00000000000E+00  0.00000000000E+00 -0.26549235624E+04  0.26549235624E+04  0.50400001928E-02 0. -1.
    10030    2    1    2    0    0  0.00000000000E+00  0.00000000000E+00 -0.15660887733E+04  0.37437583515E+04  0.34004547561E+04 0.  0.
        2    1    3    3  502    0 -0.71954802718E+03 -0.10838081833E+04 -0.19882710621E+04  0.23760495277E+04  0.25500000920E-02 0. -1.
       -2    1    3    3    0  502  0.71954802718E+03  0.10838081833E+04  0.42218228880E+03  0.13677088238E+04  0.25500000920E-02 0.  1.
</event>
<event>
 5   0  0.4764953E-08  0.3399285E+04  0.7818609E-02  0.8138082E-01
        2   -1    0    0  501    0  0.00000000000E+00  0.00000000000E+00  0.15083394406E+04  0.15083394406E+04  0.25500000920E-02 0. -1.
       -2   -1    0    0    0  501  0.00000000000E+00  0.00000000000E+00 -0.19152083632E+04  0.19152083632E+04  0.25500000920E-02 0.  1.
    10030    2    1    2    0    0  0.00000000000E+00  0.00000000000E+00 -0.40686892262E+03  0.34235478037E+04  0.33992848136E+04 0.  0.
        2    1    3    3  502    0  0.67640518234E+03 -0.84618304863E+03 -0.15224521062E+04  0.18685315459E+04  0.25500000920E-02 0.  1.
       -2    1    3    3    0  502 -0.67640518234E+03  0.84618304863E+03  0.11155831836E+04  0.15550162578E+04  0.25500000920E-02 0. -1.
</event>
<event>
 5   0  0.4764953E-08  0.3423825E+04  0.7818609E-02  0.8132083E-01
       -2   -1    0    0    0  501  0.00000000000E+00  0.00000000000E+00  0.12974851506E+04  0.12974851506E+04  0.25500000920E-02 0. -1.
        2   -1    0    0  501    0  0.00000000000E+00  0.00000000000E+00 -0.22587116405E+04  0.22587116405E+04  0.25500000920E-02 0.  1.
    10030    2    1    2    0    0  0.00000000000E+00  0.00000000000E+00 -0.96122648995E+03  0.35561967911E+04  0.34238252368E+04 0.  0.
        2    1    3    3  502    0  0.15254411416E+04 -0.14965594547E+03 -0.12725050600E+04  0.19921437464E+04  0.25500000920E-02 0. -1.
       -2    1    3    3    0  502 -0.15254411416E+04  0.14965594547E+03  0.31127857008E+03  0.15640530447E+04  0.25500000920E-02 0.  1.
</event>
<event>
 5   0  0.4946315E-08  0.3405694E+04  0.7818609E-02  0.8136510E-01
        2   -1    0    0  501    0  0.00000000000E+00  0.00000000000E+00  0.19467067173E+04  0.19467067173E+04  0.25500000920E-02 0. -1.
       -2   -1    0    0    0  501  0.00000000000E+00  0.00000000000E+00 -0.14895352486E+04  0.14895352486E+04  0.25500000920E-02 0.  1.
    10030    2    1    2    0    0  0.00000000000E+00  0.00000000000E+00  0.45717146872E+03  0.34362419659E+04  0.34056942165E+04 0.  0.
        3    1    3    3  502    0  0.41482540818E+03 -0.97870325524E+03 -0.11136654964E+04  0.15395424740E+04  0.10100000352E+00 0.  1.
       -3    1    3    3    0  502 -0.41482540818E+03  0.97870325524E+03  0.15708369652E+04  0.18966994919E+04  0.10100000352E+00 0. -1.
</event>
<event>
 5   0  0.1625282E-08  0.3398783E+04  0.7818609E-02  0.8138205E-01
        1   -1    0    0  501    0  0.00000000000E+00  0.00000000000E+00  0.13161602040E+04  0.13161602040E+04  0.50400001928E-02 0. -1.
       -1   -1    0    0    0  501  0.00000000000E+00  0.00000000000E+00 -0.21942093228E+04  0.21942093228E+04  0.50400001928E-02 0.  1.
    10030    2    1    2    0    0  0.00000000000E+00  0.00000000000E+00 -0.87804911884E+03  0.35103695268E+04  0.33987827173E+04 0.  0.
        1    1    3    3  502    0 -0.22306197143E+03  0.76190953183E+03  0.11128602916E+04  0.13670116336E+04  0.50400001928E-02 0. -1.
       -1    1    3    3    0  502  0.22306197143E+03 -0.76190953183E+03 -0.19909094104E+04  0.21433578932E+04  0.50400001928E-02 0.  1.
</event>
<event>
 5   0  0.1595851E-08  0.3401121E+04  0.7818609E-02  0.8137631E-01
       -1   -1    0    0    0  501  0.00000000000E+00  0.00000000000E+00  0.17751782065E+04  0.17751782065E+04  0.50400001928E-02 0. -1.
        1   -1    0    0  501    0  0.00000000000E+00  0.00000000000E+00 -0.16290796469E+04  0.16290796469E+04  0.50400001928E-02 0.  1.
    10030    2    1    2    0    0  0.00000000000E+00  0.00000000000E+00  0.14609855961E+03  0.34042578534E+04  0.34011213950E+04 0.  0.
        2    1    3    3  502    0  0.15379724116E+04 -0.15511727912E+03  0.78256557507E+03  0.17325788260E+04  0.25500000920E-02 0. -1.
       -2    1    3    3    0  502 -0.15379724116E+04  0.15511727912E+03 -0.63646701547E+03  0.16716790274E+04  0.25500000920E-02 0.  1.
</event>
<event>
 5   0  0.1595851E-08  0.3399385E+04  0.7818609E-02  0.8138057E-01
        1   -1    0    0  501    0  0.00000000000E+00  0.00000000000E+00  0.28904751673E+04  0.28904751673E+04  0.50400001928E-02 0.  1.
       -1   -1    0    0    0  501  0.00000000000E+00  0.00000000000E+00 -0.99947420920E+03  0.99947420922E+03  0.50400001928E-02 0. -1.
    10030    2    1    2    0    0  0.00000000000E+00  0.00000000000E+00  0.18910009581E+04  0.38899493765E+04  0.33993854633E+04 0.  0.
        2    1    3    3  502    0 -0.53403329981E+02  0.16638554624E+04  0.55293646192E+03  0.17541395743E+04  0.25500000920E-02 0. -1.
       -2    1    3    3    0  502  0.53403329981E+02 -0.16638554624E+04  0.13380644962E+04  0.21358098022E+04  0.25500000920E-02 0.  1.
</event>
<event>
 5   0  0.4946315E-08  0.3398776E+04  0.7818609E-02  0.8138207E-01
        2   -1    0    0  501    0  0.00000000000E+00  0.00000000000E+00  0.21540653519E+04  0.21540653519E+04  0.25500000920E-02 0.  1.
       -2   -1    0    0    0  501  0.00000000000E+00  0.00000000000E+00 -0.13406832725E+04  0.13406832725E+04  0.25500000920E-02 0. -1.
    10030    2    1    2    0    0  0.00000000000E+00  0.00000000000E+00  0.81338207942E+03  0.34947486245E+04  0.33987758886E+04 0.  0.
        3    1    3    3  502    0  0.12302186801E+03 -0.15447749689E+04 -0.31046701319E+03  0.15804600157E+04  0.10100000352E+00 0. -1.
       -3    1    3    3    0  502 -0.12302186801E+03  0.15447749689E+04  0.11238490926E+04  0.19142886088E+04  0.10100000352E+00 0.  1.
</event>
<event>
 5   0  0.4764953E-08  0.3397465E+04  0.7818609E-02  0.8138529E-01
       -2   -1    0    0    0  501  0.00000000000E+00  0.00000000000E+00  0.15782826663E+04  0.15782826663E+04  0.25500000920E-02 0.  1.
        2   -1    0    0  501    0  0.00000000000E+00  0.00000000000E+00 -0.18283750378E+04  0.18283750378E+04  0.25500000920E-02 0. -1.
    10030    2    1    2    0    0  0.00000000000E+00  0.00000000000E+00 -0.25009237158E+03  0.34066577041E+04  0.33974653079E+04 0.  0.
        2    1    3    3  502    0  0.66811802014E+03  0.14964758660E+04  0.32323269304E+03  0.16704194324E+04  0.25500000920E-02 0.  1.
       -2    1    3    3    0  502 -0.66811802014E+03 -0.14964758660E+04 -0.57332506463E+03  0.17362382717E+04  0.25500000920E-02 0. -1.
</event>
<event>
 5   0  0.4764953E-08  0.3399349E+04  0.7818609E-02  0.8138066E-01
       -2   -1    0    0    0  501  0.00000000000E+00  0.00000000000E+00  0.12480455399E+04  0.12480455399E+04  0.25500000920E-02 0. -1.
        2   -1    0    0  501    0  0.00000000000E+00  0.00000000000E+00 -0.23147342900E+04  0.23147342900E+04  0.25500000920E-02 0.  1.
    10030    2    1    2    0    0  0.00000000000E+00  0.00000000000E+00 -0.10666887502E+04  0.35627798299E+04  0.33993492358E+04 0.  0.
        2    1    3    3  502    0  0.85740845150E+03 -0.10304483141E+04 -0.16285326234E+04  0.21092869615E+04  0.25500000920E-02 0.  1.
       -2    1    3    3    0  502 -0.85740845150E+03  0.10304483141E+04  0.56184387322E+03  0.14534928684E+04  0.25500000920E-02 0. -1.
</event>
<event>
 5   0  0.1645631E-08  0.3400588E+04  0.7818609E-02  0.8137762E-01
       -1   -1    0    0    0  501  0.00000000000E+00  0.00000000000E+00  0.17241072396E+04  0.17241072397E+04  0.50400001928E-02 0. -1.
        1   -1    0    0  501    0  0.00000000000E+00  0.00000000000E+00 -0.16768092878E+04  0.16768092878E+04  0.50400001928E-02 0.  1.
    10030    2    1    2    0    0  0.00000000000E+00  0.00000000000E+00  0.47297951882E+02  0.34009165274E+04  0.34005876154E+04 0.  0.
        4    1    3    3  502    0  0.18727842937E+03  0.15412860098E+04 -0.66949932932E+03  0.16908183637E+04  0.12699999809E+01 0. -1.
       -4    1    3    3    0  502 -0.18727842937E+03 -0.15412860098E+04  0.71679728120E+03  0.17100981637E+04  0.12699999809E+01 0.  1.
</event>
<event>
 5   0  0.1573625E-08  0.3399898E+04  0.7818609E-02  0.8137931E-01
        3   -1    0    0  501    0  0.00000000000E+00  0.00000000000E+00  0.16242234704E+04  0.16242234735E+04  0.10100000352E+00 0. -1.
       -3   -1    0    0    0  501  0.00000000000E+00  0.00000000000E+00 -0.17792050778E+04  0.17792050807E+04  0.10100000352E+00 0.  1.
    10030    2    1    2    0    0  0.00000000000E+00  0.00000000000E+00 -0.15498160746E+03  0.34034285542E+04  0.33998980316E+04 0.  0.
        4    1    3    3  502    0 -0.29172903810E+03 -0.61742741433E+03 -0.16358676648E+04  0.17726779384E+04  0.12699999809E+01 0.  1.
       -4    1    3    3    0  502  0.29172903810E+03  0.61742741433E+03  0.14808860573E+04  0.16307506159E+04  0.12699999809E+01 0. -1.
</event>
<event>
 5   0  0.4973409E-08  0.3399689E+04  0.7818609E-02  0.8137983E-01
       -2   -1    0    0    0  501  0.00000000000E+00  0.00000000000E+00  0.12267158427E+04  0.12267158427E+04  0.25500000920E-02 0. -1.
        2   -1    0    0  501    0  0.00000000000E+00  0.00000000000E+00 -0.23554532796E+04  0.23554532796E+04  0.25500000920E-02 0.  1.
    10030    2    1    2    0    0  0.00000000000E+00  0.00000000000E+00 -0.11287374368E+04  0.35821691223E+04  0.33996893122E+04 0.  0.
        1    1    3    3  502    0  0.13801043054E+04 -0.27565524227E+03  0.44010961369E+03  0.14745745754E+04  0.50400001928E-02 0. -1.
       -1    1    3    3    0  502 -0.13801043054E+04  0.27565524227E+03 -0.15688470505E+04  0.21075945469E+04  0.50400001928E-02 0.  1.
</event>
<event>
 5   0  0.4946315E-08  0.3398260E+04  0.7818609E-02  0.8138333E-01
       -2   -1    0    0    0  501  0.00000000000E+00  0.00000000000E+00  0.13098574498E+04  0.13098574498E+04  0.25500000920E-02 0.  1.
        2   -1    0    0  501    0  0.00000000000E+00  0.00000000000E+00 -0.22040897492E+04  0.22040897492E+04  0.25500000920E-02 0. -1.
    10030    2    1    2    0    0  0.00000000000E+00  0.00000000000E+00 -0.89423229932E+03  0.35139471990E+04  0.33982603656E+04 0.  0.
        3    1    3    3  502    0  0.11371842587E+04 -0.12597537938E+04 -0.36137341793E+03  0.17351537155E+04  0.10100000352E+00 0.  1.
       -3    1    3    3    0  502 -0.11371842587E+04  0.12597537938E+04 -0.53285888138E+03  0.17787934835E+04  0.10100000352E+00 0. -1.
</event>
<event>
 5   0  0.1595851E-08  0.3397091E+04  0.7818609E-02  0.8138621E-01
        1   -1    0    0  501    0  0.00000000000E+00  0.00000000000E+00  0.21860602225E+04  0.21860602225E+04  0.50400001928E-02 0.  1.
       -1   -1    0    0    0  501  0.00000000000E+00  0.00000000000E+00 -0.13197513867E+04  0.13197513867E+04  0.50400001928E-02 0. -1.
    10030    2    1    2    0    0  0.00000000000E+00  0.00000000000E+00  0.86630883573E+03  0.35058116092E+04  0.33970905258E+04 0.  0.
        2    1    3    3  502    0 -0.10343593079E+04 -0.78068426128E+03 -0.70002607302E+03  0.14728895399E+04  0.25500000920E-02 0. -1.
       -2    1    3    3    0  502  0.10343593079E+04  0.78068426128E+03  0.15663349088E+04  0.20329220694E+04  0.25500000920E-02 0.  1.
</event>
<event>
 5   0  0.4946315E-08  0.3403558E+04  0.7818609E-02  0.8137034E-01
        2   -1    0    0  501    0  0.00000000000E+00  0.00000000000E+00  0.19083173009E+04  0.19083173009E+04  0.25500000920E-02 0. -1.
       -2   -1    0    0    0  501  0.00000000000E+00  0.00000000000E+00 -0.15175948865E+04  0.15175948865E+04  0.25500000920E-02 0.  1.
    10030    2    1    2    0    0  0.00000000000E+00  0.00000000000E+00  0.39072241443E+03  0.34259121874E+04  0.34035584777E+04 0.  0.
        3    1    3    3  502    0 -0.45329178669E+03 -0.16247568681E+04  0.42210551882E+03  0.17388160925E+04  0.10100000352E+00 0. -1.
       -3    1    3    3    0  502  0.45329178669E+03  0.16247568681E+04 -0.31383104390E+02  0.16870960950E+04  0.10100000352E+00 0.  1.
</event>
<event>
 5   0  0.4764953E-08  0.3397674E+04  0.7818609E-02  0.8138477E-01
       -2   -1    0    0    0  501  0.00000000000E+00  0.00000000000E+00  0.14614826679E+04  0.14614826679E+04  0.25500000920E-02 0.  1.
        2   -1    0    0  501    0  0.00000000000E+00  0.00000000000E+00 -0.19747389584E+04  0.19747389584E+04  0.25500000920E-02 0. -1.
    10030    2    1    2    0    0  0.00000000000E+00  0.00000000000E+00 -0.51325629053E+03  0.34362216263E+04  0.33976737697E+04 0.  0.
        2    1    3    3  502    0  0.86262423441E+03 -0.10852213590E+04 -0.12497161491E+04  0.18664448615E+04  0.25500000920E-02 0. -1.
       -2    1    3    3    0  502 -0.86262423441E+03  0.10852213590E+04  0.73645985853E+03  0.15697767647E+04  0.25500000920E-02 0.  1.
</event>
<event>
 5   0  0.4946315E-08  0.3399336E+04  0.7818609E-02  0.8138069E-01
        2   -1    0    0  501    0  0.00000000000E+00  0.00000000000E+00  0.20007254649E+04  0.20007254649E+04  0.25500000920E-02 0. -1.
       -2   -1    0    0    0  501  0.00000000000E+00  0.00000000000E+00 -0.14439119480E+04  0.14439119480E+04  0.25500000920E-02 0.  1.
    10030    2    1    2    0    0  0.00000000000E+00  0.00000000000E+00  0.55681351691E+03  0.34446374130E+04  0.33993360549E+04 0.  0.
        3    1    3    3  502    0  0.14113692439E+03 -0.13027078544E+04 -0.81856496615E+03  0.15449970872E+04  0.10100000352E+00 0.  1.
       -3    1    3    3    0  502 -0.14113692439E+03  0.13027078544E+04  0.13753784831E+04  0.18996403258E+04  0.10100000352E+00 0. -1.
</event>
<event>
 5   0  0.1579536E-08  0.3399521E+04  0.7818609E-02  0.8138024E-01
       -1   -1    0    0    0  501  0.00000000000E+00  0.00000000000E+00  0.12369705703E+04  0.12369705703E+04  0.50400001928E-02 0.  1.
        1   -1    0    0  501    0  0.00000000000E+00  0.00000000000E+00 -0.23356953392E+04  0.23356953393E+04  0.50400001928E-02 0. -1.
    10030    2    1    2    0    0  0.00000000000E+00  0.00000000000E+00 -0.10987247690E+04  0.35726659095E+04  0.33995213756E+04 0.  0.
        5    1    3    3  502    0 -0.16524195621E+04 -0.37674592409E+03 -0.41340408529E+03  0.17445208305E+04  0.46999998093E+01 0.  1.
       -5    1    3    3    0  502  0.16524195621E+04  0.37674592409E+03 -0.68532068369E+03  0.18281450790E+04  0.46999998093E+01 0. -1.
</event>
<event>
 5   0  0.1579536E-08  0.3400479E+04  0.7818609E-02  0.8137789E-01
       -1   -1    0    0    0  501  0.00000000000E+00  0.00000000000E+00  0.12322187002E+04  0.12322187002E+04  0.50400001928E-02 0.  1.
        1   -1    0    0  501    0  0.00000000000E+00  0.00000000000E+00 -0.23460232280E+04  0.23460232280E+04  0.50400001928E-02 0. -1.
    10030    2    1    2    0    0  0.00000000000E+00  0.00000000000E+00 -0.11138045278E+04  0.35782419282E+04  0.34004786090E+04 0.  0.
        5    1    3    3  502    0  0.14153998854E+04  0.51329395047E+03 -0.13881097582E+04  0.20478521201E+04  0.46999998093E+01 0.  1.
       -5    1    3    3    0  502 -0.14153998854E+04 -0.51329395047E+03  0.27430523033E+03  0.15303898080E+04  0.46999998093E+01 0. -1.
</event>
<event>
 5   0  0.4973409E-08  0.3399211E+04  0.7818609E-02  0.8138100E-01
        2   -1    0    0  501    0  0.00000000000E+00  0.00000000000E+00  0.21307004906E+04  0.21307004906E+04  0.25500000920E-02 0. -1.
       -2   -1    0    0    0  501  0.00000000000E+00  0.00000000000E+00 -0.13557318060E+04  0.13557318060E+04  0.25500000920E-02 0.  1.
    10030    2    1    2    0    0  0.00000000000E+00  0.00000000000E+00  0.77496868464E+03  0.34864322966E+04  0.33992107461E+04 0.  0.
        1    1    3    3  502    0  0.65805701845E+03  0.48557666305E+03 -0.11406567768E+04  0.14035389619E+04  0.50400001928E-02 0.  1.
       -1    1    3    3    0  502 -0.65805701845E+03 -0.48557666305E+03  0.19156254614E+04  0.20828933347E+04  0.50400001928E-02 0. -1.
</event>
<event>
 5   0  0.1645631E-08  0.3401923E+04  0.7818609E-02  0.8137435E-01
        1   -1    0    0  501    0  0.00000000000E+00  0.00000000000E+00  0.19977131387E+04  0.19977131387E+04  0.50400001928E-02 0.  1.
       -1   -1    0    0    0  501  0.00000000000E+00  0.00000000000E+00 -0.14482907929E+04  0.14482907929E+04  0.50400001928E-02 0. -1.
    10030    2    1    2    0    0  0.00000000000E+00  0.00000000000E+00  0.54942234574E+03  0.34460039316E+04  0.34019227185E+04 0.  0.
        4    1    3    3  502    0  0.17154920118E+03 -0.16457905012E+04 -0.12436387532E+03  0.16593744269E+04  0.12699999809E+01 0. -1.
       -4    1    3    3    0  502 -0.17154920118E+03  0.16457905012E+04  0.67378622106E+03  0.17866295047E+04  0.12699999809E+01 0.  1.
</event>
<event>
 5   0  0.4764953E-08  0.3387894E+04  0.7818609E-02  0.8140884E-01
       -2   -1    0    0    0  501  0.00000000000E+00  0.00000000000E+00  0.11270487391E+04  0.11270487391E+04  0.25500000920E-02 0. -1.
        2   -1    0    0  501    0  0.00000000000E+00  0.00000000000E+00 -0.25459910842E+04  0.25459910842E+04  0.25500000920E-02 0.  1.
    10030    2    1    2    0    0  0.00000000000E+00  0.00000000000E+00 -0.14189423451E+04  0.36730398233E+04  0.33878937653E+04 0.  0.
        2    1    3    3  502    0 -0.12770048746E+02  0.55506671082E+03  0.10255991598E+04  0.11662400114E+04  0.25500000920E-02 0. -1.
       -2    1    3    3    0  502  0.12770048746E+02 -0.55506671082E+03 -0.24445415049E+04  0.25067998119E+04  0.25500000920E-02 0.  1.
</event>
<event>
 5   0  0.1625282E-08  0.3400849E+04  0.7818609E-02  0.8137698E-01
        1   -1    0    0  501    0  0.00000000000E+00  0.00000000000E+00  0.21712905128E+04  0.21712905128E+04  0.50400001928E-02 0. -1.
       -1   -1    0    0    0  501  0.00000000000E+00  0.00000000000E+00 -0.13316705915E+04  0.13316705915E+04  0.50400001928E-02 0.  1.
    10030    2    1    2    0    0  0.00000000000E+00  0.00000000000E+00  0.83961992131E+03  0.35029611043E+04  0.34008491419E+04 0.  0.
        1    1    3    3  502    0 -0.16690464013E+04 -0.31671986949E+03  0.49561560690E+03  0.17696503031E+04  0.50400001928E-02 0. -1.
       -1    1    3    3    0  502  0.16690464013E+04  0.31671986949E+03  0.34400431442E+03  0.17333108013E+04  0.50400001928E-02 0.  1.
</event>
<event>
 5   0  0.4775023E-08  0.3400970E+04  0.7818609E-02  0.8137668E-01
       -2   -1    0    0    0  501  0.00000000000E+00  0.00000000000E+00  0.12987900073E+04  0.12987900073E+04  0.25500000920E-02 0.  1.
        2   -1    0    0  501    0  0.00000000000E+00  0.00000000000E+00 -0.22264181505E+04  0.22264181505E+04  0.25500000920E-02 0. -1.
    10030    2    1    2    0    0  0.00000000000E+00  0.00000000000E+00 -0.92762814322E+03  0.35252081578E+04  0.34009702416E+04 0.  0.
        4    1    3    3  502    0 -0.15272308441E+04  0.46876134197E+03  0.14011644586E+03  0.16036849685E+04  0.12699999809E+01 0.  1.
       -4    1    3    3    0  502  0.15272308441E+04 -0.46876134197E+03 -0.10677445891E+04  0.19215231894E+04  0.12699999809E+01 0. -1.
</event>
<event>
 5   0  0.1645631E-08  0.3388859E+04  0.7818609E-02  0.8140646E-01
       -1   -1    0    0    0  501  0.00000000000E+00  0.00000000000E+00  0.18519599801E+04  0.18519599801E+04  0.50400001928E-02 0.  1.
        1   -1    0    0  501    0  0.00000000000E+00  0.00000000000E+00 -0.15502989589E+04  0.15502989589E+04  0.50400001928E-02 0. -1.
    10030    2    1    2    0    0  0.00000000000E+00  0.00000000000E+00  0.30166102124E+03  0.34022589390E+04  0.33888591762E+04 0.  0.
        4    1    3    3  502    0  0.40770638173E+03 -0.81002322695E+03  0.15878279093E+04  0.18285407308E+04  0.12699999809E+01 0.  1.
       -4    1    3    3    0  502 -0.40770638173E+03  0.81002322695E+03 -0.12861668880E+04  0.15737182082E+04  0.12699999809E+01 0. -1.
</event>
<event>
 5   0  0.5001197E-08  0.3397029E+04  0.7818609E-02  0.8138636E-01
       -2   -1    0    0    0  501  0.00000000000E+00  0.00000000000E+00  0.29244177445E+04  0.29244177445E+04  0.25500000920E-02 0. -1.
        2   -1    0    0  501    0  0.00000000000E+00  0.00000000000E+00 -0.98650468102E+03  0.98650468102E+03  0.25500000920E-02 0.  1.
    10030    2    1    2    0    0  0.00000000000E+00  0.00000000000E+00  0.19379130635E+04  0.39109224255E+04  0.33970291692E+04 0.  0.
        5    1    3    3  502    0  0.10268214560E+04 -0.30361895897E+03 -0.54897663350E+03  0.12033055343E+04  0.46999998093E+01 0.  1.
       -5    1    3    3    0  502 -0.10268214560E+04  0.30361895897E+03  0.24868896970E+04  0.27076168912E+04  0.46999998093E+01 0. -1.
</event>
<event>
 5   0  0.1645631E-08  0.3400428E+04  0.7818609E-02  0.8137801E-01
        1   -1    0    0  501    0  0.00000000000E+00  0.00000000000E+00  0.29190373552E+04  0.29190373552E+04  0.50400001928E-02 0. -1.
       -1   -1    0    0    0  501  0.00000000000E+00  0.00000000000E+00 -0.99030178084E+03  0.99030178085E+03  0.50400001928E-02 0.  1.
    10030    2    1    2    0    0  0.00000000000E+00  0.00000000000E+00  0.19287355744E+04  0.39093391361E+04  0.34004281444E+04 0.  0.
        4    1    3    3  502    0 -0.91446179983E+03  0.88945672136E+03 -0.32783906772E+03  0.13171384550E+04  0.12699999809E+01 0.  1.
       -4    1    3    3    0  502  0.91446179983E+03 -0.88945672136E+03  0.22565746421E+04  0.25922006810E+04  0.12699999809E+01 0. -1.
</event>
<event>
 5   0  0.1579536E-08  0.3399242E+04  0.7818609E-02  0.8138092E-01
        1   -1    0    0  501    0  0.00000000000E+00  0.00000000000E+00  0.20879897841E+04  0.20879897841E+04  0.50400001928E-02 0.  1.
       -1   -1    0    0    0  501  0.00000000000E+00  0.00000000000E+00 -0.13834895313E+04  0.13834895313E+04  0.50400001928E-02 0. -1.
    10030    2    1    2    0    0  0.00000000000E+00  0.00000000000E+00  0.70450025282E+03  0.34714793154E+04  0.33992422731E+04 0.  0.
        5    1    3    3  502    0 -0.53317213811E+03 -0.65059763674E+02 -0.12945259726E+04  0.14015437508E+04  0.46999998093E+01 0. -1.
       -5    1    3    3    0  502  0.53317213811E+03  0.65059763674E+02  0.19990262254E+04  0.20699355646E+04  0.46999998093E+01 0.  1.
</event>
<event>
 5   0  0.4973409E-08  0.3399221E+04  0.7818609E-02  0.8138098E-01
       -2   -1    0    0    0  501  0.00000000000E+00  0.00000000000E+00  0.16654358514E+04  0.16654358514E+04  0.25500000920E-02 0.  1.
        2   -1    0    0  501    0  0.00000000000E+00  0.00000000000E+00 -0.17344862888E+04  0.17344862888E+04  0.25500000920E-02 0. -1.
    10030    2    1    2    0    0  0.00000000000E+00  0.00000000000E+00 -0.69050437472E+02  0.33999221402E+04  0.33992208808E+04 0.  0.
        1    1    3    3  502    0  0.52682629908E+03 -0.75754847116E+03 -0.14621423487E+04  0.17289551421E+04  0.50400001928E-02 0. -1.
       -1    1    3    3    0  502 -0.52682629908E+03  0.75754847116E+03  0.13930919112E+04  0.16709669981E+04  0.50400001928E-02 0.  1.
</event>
<event>
 5   0  0.1579536E-08  0.3403614E+04  0.7818609E-02  0.8137020E-01
       -1   -1    0    0    0  501  0.00000000000E+00  0.00000000000E+00  0.15502917191E+04  0.15502917191E+04  0.50400001928E-02 0.  1.
        1   -1    0    0  501    0  0.00000000000E+00  0.00000000000E+00 -0.18681303939E+04  0.18681303939E+04  0.50400001928E-02 0. -1.
    10030    2    1    2    0    0  0.00000000000E+00  0.00000000000E+00 -0.31783867480E+03  0.34184221130E+04  0.34036140086E+04 0.  0.
        5    1    3    3  502    0 -0.49942450509E+03 -0.83169533940E+03  0.12453709144E+04  0.15786427013E+04  0.46999998093E+01 0.  1.
       -5    1    3    3    0  502  0.49942450509E+03  0.83169533940E+03 -0.15632095892E+04  0.18397794117E+04  0.46999998093E+01 0. -1.
</event>
<event>
 5   0  0.4973409E-08  0.3399130E+04  0.7818609E-02  0.8138120E-01
        2   -1    0    0  501    0  0.00000000000E+00  0.00000000000E+00  0.20453298531E+04  0.20453298531E+04  0.25500000920E-02 0. -1.
       -2   -1    0    0    0  501  0.00000000000E+00  0.00000000000E+00 -0.14122522952E+04  0.14122522952E+04  0.25500000920E-02 0.  1.
    10030    2    1    2    0    0  0.00000000000E+00  0.00000000000E+00  0.63307755790E+03  0.34575821482E+04  0.33991303472E+04 0.  0.
        1    1    3    3  502    0  0.21811317600E+03 -0.12258694844E+04 -0.86015639597E+03  0.15133401388E+04  0.50400001928E-02 0.  1.
       -1    1    3    3    0  502 -0.21811317600E+03  0.12258694844E+04  0.14932339539E+04  0.19442420094E+04  0.50400001928E-02 0. -1.
</event>
<event>
 5   0  0.1630571E-08  0.3401620E+04  0.7818609E-02  0.8137509E-01
        1   -1    0    0  501    0  0.00000000000E+00  0.00000000000E+00  0.25192758875E+04  0.25192758875E+04  0.50400001928E-02 0.  1.
       -1   -1    0    0    0  501  0.00000000000E+00  0.00000000000E+00 -0.11482487576E+04  0.11482487576E+04  0.50400001928E-02 0. -1.
    10030    2    1    2    0    0  0.00000000000E+00  0.00000000000E+00  0.13710271299E+04  0.36675246451E+04  0.34016204420E+04 0.  0.
        3    1    3    3  502    0  0.40468126926E+03  0.34897778869E+03  0.24264167079E+04  0.24845624317E+04  0.10100000352E+00 0.  1.
       -3    1    3    3    0  502 -0.40468126926E+03 -0.34897778869E+03 -0.10553895780E+04  0.11829622134E+04  0.10100000352E+00 0. -1.
</event>
<event>
 5   0  0.1579536E-08  0.3399922E+04  0.7818609E-02  0.8137926E-01
       -1   -1    0    0    0  501  0.00000000000E+00  0.00000000000E+00  0.19538636697E+04  0.19538636697E+04  0.50400001928E-02 0.  1.
        1   -1    0    0  501    0  0.00000000000E+00  0.00000000000E+00 -0.14790524531E+04  0.14790524531E+04  0.50400001928E-02 0. -1.
    10030    2    1    2    0    0  0.00000000000E+00  0.00000000000E+00  0.47481121661E+03  0.34329161228E+04  0.33999216777E+04 0.  0.
        5    1    3    3  502    0  0.71989900644E+03  0.68000875491E+03  0.16325447456E+04  0.19094216199E+04  0.46999998093E+01 0.  1.
       -5    1    3    3    0  502 -0.71989900644E+03 -0.68000875491E+03 -0.11577335290E+04  0.15234945029E+04  0.46999998093E+01 0. -1.
</event>
<event>
 5   0  0.4775023E-08  0.3399923E+04  0.7818609E-02  0.8137925E-01
        2   -1    0    0  501    0  0.00000000000E+00  0.00000000000E+00  0.10605618321E+04  0.10605618321E+04  0.25500000920E-02 0. -1.
       -2   -1    0    0    0  501  0.00000000000E+00  0.00000000000E+00 -0.27248471985E+04  0.27248471985E+04  0.25500000920E-02 0.  1.
    10030    2    1    2    0    0  0.00000000000E+00  0.00000000000E+00 -0.16642853664E+04  0.37854090306E+04  0.33999229032E+04 0.  0.
        4    1    3    3  502    0 -0.10415692924E+04 -0.11173933176E+04 -0.16225828468E+01  0.15275597084E+04  0.12699999809E+01 0.  1.
       -4    1    3    3    0  502  0.10415692924E+04  0.11173933176E+04 -0.16626627836E+04  0.22578493222E+04  0.12699999809E+01 0. -1.
</event>
<event>
 5   0  0.4764953E-08  0.3400478E+04  0.7818609E-02  0.8137789E-01
        2   -1    0    0  501    0  0.00000000000E+00  0.00000000000E+00  0.22331227511E+04  0.22331227511E+04  0.25500000920E-02 0. -1.
       -2   -1    0    0    0  501  0.00000000000E+00  0.00000000000E+00 -0.12945154079E+04  0.12945154079E+04  0.25500000920E-02 0.  1.
    10030    2    1    2    0    0  0.00000000000E+00  0.00000000000E+00  0.93860734317E+03  0.35276381590E+04  0.34004775012E+04 0.  0.
        2    1    3    3  502    0  0.13486425982E+03 -0.88616547308E+03  0.19680913702E+04  0.21626052011E+04  0.25500000920E-02 0. -1.
       -2    1    3    3    0  502 -0.13486425982E+03  0.88616547308E+03 -0.10294840270E+04  0.13650329579E+04  0.25500000920E-02 0.  1.
</event>
<event>
 5   0  0.1645631E-08  0.3401660E+04  0.7818609E-02  0.8137499E-01
        1   -1    0    0  501    0  0.00000000000E+00  0.00000000000E+00  0.24684789971E+04  0.24684789971E+04  0.50400001928E-02 0.  1.
       -1   -1    0    0    0  501  0.00000000000E+00  0.00000000000E+00 -0.11719047592E+04  0.11719047592E+04  0.50400001928E-02 0. -1.
    10030    2    1    2    0    0  0.00000000000E+00  0.00000000000E+00  0.12965742379E+04  0.36403837563E+04  0.34016597624E+04 0.  0.
        4    1    3    3  502    0  0.87048241351E+03  0.12190306499E+04  0.15104589003E+04  0.21272665701E+04  0.12699999809E+01 0.  1.
       -4    1    3    3    0  502 -0.87048241351E+03 -0.12190306499E+04 -0.21388466241E+03  0.15131171863E+04  0.12699999809E+01 0. -1.
</event>
<event>
 5   0  0.5001197E-08  0.3399604E+04  0.7818609E-02  0.8138003E-01
        2   -1    0    0  501    0  0.00000000000E+00  0.00000000000E+00  0.92496815032E+03  0.92496815032E+03  0.25500000920E-02 0. -1.
       -2   -1    0    0    0  501  0.00000000000E+00  0.00000000000E+00 -0.31237044161E+04  0.31237044161E+04  0.25500000920E-02 0.  1.
    10030    2    1    2    0    0  0.00000000000E+00  0.00000000000E+00 -0.21987362657E+04  0.40486725664E+04  0.33996041510E+04 0.  0.
        5    1    3    3  502    0 -0.15133810631E+04  0.24179640665E+03 -0.22380173126E+03  0.15488373218E+04  0.46999998093E+01 0. -1.
       -5    1    3    3    0  502  0.15133810631E+04 -0.24179640665E+03 -0.19749345345E+04  0.24998352446E+04  0.46999998093E+01 0.  1.
</event>
<event>
 5   0  0.1625282E-08  0.3399279E+04  0.7818609E-02  0.8138083E-01
        1   -1    0    0  501    0  0.00000000000E+00  0.00000000000E+00  0.21197800728E+04  0.21197800728E+04  0.50400001928E-02 0. -1.
       -1   -1    0    0    0  501  0.00000000000E+00  0.00000000000E+00 -0.13627708273E+04  0.13627708273E+04  0.50400001928E-02 0.  1.
    10030    2    1    2    0    0  0.00000000000E+00  0.00000000000E+00  0.75700924545E+03  0.34825509001E+04  0.33992790080E+04 0.  0.
        1    1    3    3  502    0  0.39763726571E+03  0.69485856666E+03  0.19145089948E+04  0.20751598767E+04  0.50400001928E-02 0. -1.
       -1    1    3    3    0  502 -0.39763726571E+03 -0.69485856666E+03 -0.11574997494E+04  0.14073910233E+04  0.50400001928E-02 0.  1.
</event>
<event>
 5   0  0.4775023E-08  0.3400454E+04  0.7818609E-02  0.8137795E-01
        2   -1    0    0  501    0  0.00000000000E+00  0.00000000000E+00  0.18175812350E+04  0.18175812350E+04  0.25500000920E-02 0.  1.
       -2   -1    0    0    0  501  0.00000000000E+00  0.00000000000E+00 -0.15904498116E+04  0.15904498116E+04  0.25500000920E-02 0. -1.
    10030    2    1    2    0    0  0.00000000000E+00  0.00000000000E+00  0.22713142335E+03  0.34080310466E+04  0.34004539301E+04 0.  0.
        4    1    3    3  502    0  0.11821686557E+04 -0.11674642605E+04  0.47530568681E+03  0.17281240230E+04  0.12699999809E+01 0.  1.
       -4    1    3    3    0  502 -0.11821686557E+04  0.11674642605E+04 -0.24817426345E+03  0.16799070236E+04  0.12699999809E+01 0. -1.
</event>
<event>
 5   0  0.1595851E-08  0.3394916E+04  0.7818609E-02  0.8139155E-01
        1   -1    0    0  501    0  0.00000000000E+00  0.00000000000E+00  0.18087591215E+04  0.18087591215E+04  0.50400001928E-02 0. -1.
       -1   -1    0    0    0  501  0.00000000000E+00  0.00000000000E+00 -0.15930054690E+04  0.15930054690E+04  0.50400001928E-02 0.  1.
    10030    2    1    2    0    0  0.00000000000E+00  0.00000000000E+00  0.21575365252E+03  0.34017645905E+04  0.33949157118E+04 0.  0.
        2    1    3    3  502    0 -0.88216447844E+03 -0.52829722369E+03  0.14611758057E+04  0.17867139835E+04  0.25500000920E-02 0. -1.
       -2    1    3    3    0  502  0.88216447844E+03  0.52829722369E+03 -0.12454221532E+04  0.16150506070E+04  0.25500000920E-02 0.  1.
</event>
<event>
 5   0  0.1595851E-08  0.3399824E+04  0.7818609E-02  0.8137950E-01
       -1   -1    0    0    0  501  0.00000000000E+00  0.00000000000E+00  0.15305876203E+04  0.15305876203E+04  0.50400001928E-02 0.  1.
        1   -1    0    0  501    0  0.00000000000E+00  0.00000000000E+00 -0.18879677671E+04  0.18879677671E+04  0.50400001928E-02 0. -1.
    10030    2    1    2    0    0  0.00000000000E+00  0.00000000000E+00 -0.35738014678E+03  0.34185553874E+04  0.33998235788E+04 0.  0.
        2    1    3    3  502    0  0.37725647442E+03  0.12062347006E+04  0.96440037523E+03  0.15897775581E+04  0.25500000920E-02 0.  1.
       -2    1    3    3    0  502 -0.37725647442E+03 -0.12062347006E+04 -0.13217805220E+04  0.18287778293E+04  0.25500000920E-02 0. -1.
</event>
<event>
 5   0  0.4764953E-08  0.3400190E+04  0.7818609E-02  0.8137860E-01
        2   -1    0    0  501    0  0.00000000000E+00  0.00000000000E+00  0.20206573961E+04  0.20206573961E+04  0.25500000920E-02 0. -1.
       -2   -1    0    0    0  501  0.00000000000E+00  0.00000000000E+00 -0.14303872754E+04  0.14303872754E+04  0.25500000920E-02 0.  1.
    10030    2    1    2    0    0  0.00000000000E+00  0.00000000000E+00  0.59027012065E+03  0.34510446715E+04  0.34001897755E+04 0.  0.
        2    1    3    3  502    0  0.15556965758E+04 -0.52224176837E+03  0.74607090378E+03  0.18026508519E+04  0.25500000920E-02 0. -1.
       -2    1    3    3    0  502 -0.15556965758E+04  0.52224176837E+03 -0.15580078313E+03  0.16483938196E+04  0.25500000920E-02 0.  1.
</event>
<event>
 5   0  0.1579536E-08  0.3398800E+04  0.7818609E-02  0.8138201E-01
       -1   -1    0    0    0  501  0.00000000000E+00  0.00000000000E+00  0.18467199557E+04  0.18467199557E+04  0.50400001928E-02 0.  1.
        1   -1    0    0  501    0  0.00000000000E+00  0.00000000000E+00 -0.15638327222E+04  0.15638327223E+04  0.50400001928E-02 0. -1.
    10030    2    1    2    0    0  0.00000000000E+00  0.00000000000E+00  0.28288723345E+03  0.34105526780E+04  0.33988004328E+04 0.  0.
        5    1    3    3  502    0  0.40679159224E+03  0.14938471831E+04  0.84449465535E+03  0.17635906892E+04  0.46999998093E+01 0.  1.
       -5    1    3    3    0  502 -0.40679159224E+03 -0.14938471831E+04 -0.56160742190E+03  0.16469619888E+04  0.46999998093E+01 0. -1.
</event>
<event>
 5   0  0.1625282E-08  0.3413061E+04  0.7818609E-02  0.8134708E-01
        1   -1    0    0  501    0  0.00000000000E+00  0.00000000000E+00  0.13430249878E+04  0.13430249878E+04  0.50400001928E-02 0. -1.
       -1   -1    0    0    0  501  0.00000000000E+00  0.00000000000E+00 -0.21684235109E+04  0.21684235109E+04  0.50400001928E-02 0.  1.
    10030    2    1    2    0    0  0.00000000000E+00  0.00000000000E+00 -0.82539852304E+03  0.35114484987E+04  0.34130613586E+04 0.  0.
        1    1    3    3  502    0 -0.53224661389E+03  0.15977886560E+04 -0.12901178545E+03  0.16890408782E+04  0.50400001928E-02 0. -1.
       -1    1    3    3    0  502  0.53224661389E+03 -0.15977886560E+04 -0.69638673758E+03  0.18224076206E+04  0.50400001928E-02 0.  1.
</event>
<event>
 5   0  0.1579536E-08  0.3400145E+04  0.7818609E-02  0.8137871E-01
        1   -1    0    0  501    0  0.00000000000E+00  0.00000000000E+00  0.16798583522E+04  0.16798583522E+04  0.50400001928E-02 0.  1.
       -1   -1    0    0    0  501  0.00000000000E+00  0.00000000000E+00 -0.17205300573E+04  0.17205300573E+04  0.50400001928E-02 0. -1.
    10030    2    1    2    0    0  0.00000000000E+00  0.00000000000E+00 -0.40671705160E+02  0.34003884095E+04  0.34001451657E+04 0.  0.
        5    1    3    3  502    0  0.95190748115E+03 -0.38018525163E+01  0.13883395110E+04  0.16833451798E+04  0.46999998093E+01 0.  1.
       -5    1    3    3    0  502 -0.95190748115E+03  0.38018525163E+01 -0.14290112161E+04  0.17170432297E+04  0.46999998093E+01 0. -1.
</event>
<event>
 5   0  0.4764953E-08  0.3389106E+04  0.7818609E-02  0.8140585E-01
       -2   -1    0    0    0  501  0.00000000000E+00  0.00000000000E+00  0.14812158835E+04  0.14812158835E+04  0.25500000920E-02 0.  1.
        2   -1    0    0  501    0  0.00000000000E+00  0.00000000000E+00 -0.19386168801E+04  0.19386168801E+04  0.25500000920E-02 0. -1.
    10030    2    1    2    0    0  0.00000000000E+00  0.00000000000E+00 -0.45740099660E+03  0.34198327637E+04  0.33891061447E+04 0.  0.
        2    1    3    3  502    0  0.13933955938E+04 -0.83796945317E+03 -0.71027576464E+03  0.17743268434E+04  0.25500000920E-02 0. -1.
       -2    1    3    3    0  502 -0.13933955938E+04  0.83796945317E+03  0.25287476803E+03  0.16455059203E+04  0.25500000920E-02 0.  1.
</event>
<event>
 5   0  0.4764953E-08  0.3389580E+04  0.7818609E-02  0.8140469E-01
       -2   -1    0    0    0  501  0.00000000000E+00  0.00000000000E+00  0.17225604523E+04  0.17225604523E+04  0.25500000920E-02 0.  1.
        2   -1    0    0  501    0  0.00000000000E+00  0.00000000000E+00 -0.16674669994E+04  0.16674669994E+04  0.25500000920E-02 0. -1.
    10030    2    1    2    0    0  0.00000000000E+00  0.00000000000E+00  0.55093452940E+02  0.33900274518E+04  0.33895797431E+04 0.  0.
        2    1    3    3  502    0 -0.50617986289E+03 -0.76818184180E+03 -0.13960144945E+04  0.16718785436E+04  0.25500000920E-02 0. -1.
       -2    1    3    3    0  502  0.50617986289E+03  0.76818184180E+03  0.14511079474E+04  0.17181489082E+04  0.25500000920E-02 0.  1.
</event>
<event>
 5   0  0.1625282E-08  0.3399573E+04  0.7818609E-02  0.8138011E-01
        1   -1    0    0  501    0  0.00000000000E+00  0.00000000000E+00  0.16346414729E+04  0.16346414729E+04  0.50400001928E-02 0.  1.
       -1   -1    0    0    0  501  0.00000000000E+00  0.00000000000E+00 -0.17675275292E+04  0.17675275292E+04  0.50400001928E-02 0. -1.
    10030    2    1    2    0    0  0.00000000000E+00  0.00000000000E+00 -0.13288605628E+03  0.34021690021E+04  0.33995727988E+04 0.  0.
        1    1    3    3  502    0 -0.10549775862E+04 -0.13150276097E+04  0.15051386503E+03  0.16926103347E+04  0.50400001928E-02 0.  1.
       -1    1    3    3    0  502  0.10549775862E+04  0.13150276097E+04 -0.28339992131E+03  0.17095586673E+04  0.50400001928E-02 0. -1.
</event>
<event>
 5   0  0.4946315E-08  0.3409204E+04  0.7818609E-02  0.8135651E-01
        2   -1    0    0  501    0  0.00000000000E+00  0.00000000000E+00  0.22771909059E+04  0.22771909059E+04  0.25500000920E-02 0.  1.
       -2   -1    0    0    0  501  0.00000000000E+00  0.00000000000E+00 -0.12759876450E+04  0.12759876450E+04  0.25500000920E-02 0. -1.
    10030    2    1    2    0    0  0.00000000000E+00  0.00000000000E+00  0.10012032609E+04  0.35531785508E+04  0.34092036965E+04 0.  0.
        3    1    3    3  502    0 -0.65551058409E+03 -0.95230769497E+03 -0.80492907941E+03  0.14087210174E+04  0.10100000352E+00 0. -1.
       -3    1    3    3    0  502  0.65551058409E+03  0.95230769497E+03  0.18061323403E+04  0.21444575334E+04  0.10100000352E+00 0.  1.
</event>
<event>
 5   0  0.4946315E-08  0.3399571E+04  0.7818609E-02  0.8138012E-01
        2   -1    0    0  501    0  0.00000000000E+00  0.00000000000E+00  0.14364658889E+04  0.14364658889E+04  0.25500000920E-02 0. -1.
       -2   -1    0    0    0  501  0.00000000000E+00  0.00000000000E+00 -0.20113745029E+04  0.20113745029E+04  0.25500000920E-02 0.  1.
    10030    2    1    2    0    0  0.00000000000E+00  0.00000000000E+00 -0.57490861399E+03  0.34478403918E+04  0.33995710690E+04 0.  0.
        3    1    3    3  502    0  0.88897427698E+03  0.12987746436E+04  0.36367387513E+03  0.16153481165E+04  0.10100000352E+00 0. -1.
       -3    1    3    3    0  502 -0.88897427698E+03 -0.12987746436E+04 -0.93858248912E+03  0.18324922753E+04  0.10100000352E+00 0.  1.
</event>
<event>
 5   0  0.4775023E-08  0.3379177E+04  0.7818609E-02  0.8143036E-01
       -2   -1    0    0    0  501  0.00000000000E+00  0.00000000000E+00  0.13272990096E+04  0.13272990096E+04  0.25500000920E-02 0. -1.
        2   -1    0    0  501    0  0.00000000000E+00  0.00000000000E+00 -0.21507660394E+04  0.21507660394E+04  0.25500000920E-02 0.  1.
    10030    2    1    2    0    0  0.00000000000E+00  0.00000000000E+00 -0.82346702978E+03  0.34780650491E+04  0.33791771981E+04 0.  0.
        4    1    3    3  502    0 -0.10632363450E+04 -0.89411967942E+03 -0.14015335699E+04  0.19733776848E+04  0.12699999809E+01 0.  1.
       -4    1    3    3    0  502  0.10632363450E+04  0.89411967942E+03  0.57806654014E+03  0.15046873642E+04  0.12699999809E+01 0. -1.
</event>
<event>
 5   0  0.1645631E-08  0.3399133E+04  0.7818609E-02  0.8138119E-01
       -1   -1    0    0    0  501  0.00000000000E+00  0.00000000000E+00  0.26151479221E+04  0.26151479222E+04  0.50400001928E-02 0. -1.
        1   -1    0    0  501    0  0.00000000000E+00  0.00000000000E+00 -0.11045367674E+04  0.11045367674E+04  0.50400001928E-02 0.  1.
    10030    2    1    2    0    0  0.00000000000E+00  0.00000000000E+00  0.15106111548E+04  0.37196846895E+04  0.33991334379E+04 0.  0.
        4    1    3    3  502    0 -0.19077837557E+03 -0.65665741228E+03  0.24579699004E+04  0.25513159329E+04  0.12699999809E+01 0. -1.
       -4    1    3    3    0  502  0.19077837557E+03  0.65665741228E+03 -0.94735874556E+03  0.11683687566E+04  0.12699999809E+01 0.  1.
</event>
<event>
 5   0  0.1645631E-08  0.3401666E+04  0.7818609E-02  0.8137497E-01
        1   -1    0    0  501    0  0.00000000000E+00  0.00000000000E+00  0.12101467300E+04  0.12101467300E+04  0.50400001928E-02 0. -1.
       -1   -1    0    0    0  501  0.00000000000E+00  0.00000000000E+00 -0.23904814627E+04  0.23904814627E+04  0.50400001928E-02 0.  1.
    10030    2    1    2    0    0  0.00000000000E+00  0.00000000000E+00 -0.11803347327E+04  0.36006281927E+04  0.34016662536E+04 0.  0.
        4    1    3    3  502    0  0.15774962262E+03 -0.82678802813E+03  0.97423877172E+03  0.12874805568E+04  0.12699999809E+01 0. -1.
       -4    1    3    3    0  502 -0.15774962262E+03  0.82678802813E+03 -0.21545735044E+04  0.23131476360E+04  0.12699999809E+01 0.  1.
</event>
<event>
 5   0  0.5001197E-08  0.3403292E+04  0.7818609E-02  0.8137099E-01
       -2   -1    0    0    0  501  0.00000000000E+00  0.00000000000E+00  0.11978268978E+04  0.11978268978E+04  0.25500000920E-02 0.  1.
        2   -1    0    0  501    0  0.00000000000E+00  0.00000000000E+00 -0.24173766327E+04  0.24173766327E+04  0.25500000920E-02 0. -1.
    10030    2    1    2    0    0  0.00000000000E+00  0.00000000000E+00 -0.12195497349E+04  0.36152035305E+04  0.34032917905E+04 0.  0.
        5    1    3    3  502    0 -0.14972158253E+03 -0.10503612152E+04  0.80343970217E+03  0.13308691445E+04  0.46999998093E+01 0.  1.
       -5    1    3    3    0  502  0.14972158253E+03  0.10503612152E+04 -0.20229894370E+04  0.22843343860E+04  0.46999998093E+01 0. -1.
</event>
<event>
 5   0  0.1645631E-08  0.3399832E+04  0.7818609E-02  0.8137948E-01
       -1   -1    0    0    0  501  0.00000000000E+00  0.00000000000E+00  0.86613201117E+03  0.86613201119E+03  0.50400001928E-02 0. -1.
        1   -1    0    0  501    0  0.00000000000E+00  0.00000000000E+00 -0.33363435802E+04  0.33363435802E+04  0.50400001928E-02 0.  1.
    10030    2    1    2    0    0  0.00000000000E+00  0.00000000000E+00 -0.24702115690E+04  0.42024755914E+04  0.33998317459E+04 0.  0.
        4    1    3    3  502    0 -0.16943796512E+04  0.61124605066E+01 -0.10658363701E+04  0.20017413783E+04  0.12699999809E+01 0.  1.
       -4    1    3    3    0  502  0.16943796512E+04 -0.61124605066E+01 -0.14043751989E+04  0.22007342131E+04  0.12699999809E+01 0. -1.
</event>
<event>
 5   0  0.4946315E-08  0.3399836E+04  0.7818609E-02  0.8137947E-01
        2   -1    0    0  501    0  0.00000000000E+00  0.00000000000E+00  0.18570096625E+04  0.18570096625E+04  0.25500000920E-02 0.  1.
       -2   -1    0    0    0  501  0.00000000000E+00  0.00000000000E+00 -0.15561153457E+04  0.15561153457E+04  0.25500000920E-02 0. -1.
    10030    2    1    2    0    0  0.00000000000E+00  0.00000000000E+00  0.30089431677E+03  0.34131250081E+04  0.33998360154E+04 0.  0.
        3    1    3    3  502    0 -0.10730628650E+04 -0.67356177481E+02  0.14723019858E+04  0.18230945983E+04  0.10100000352E+00 0.  1.
       -3    1    3    3    0  502  0.10730628650E+04  0.67356177481E+02 -0.11714076690E+04  0.15900304098E+04  0.10100000352E+00 0. -1.
</event>
<event>
 5   0  0.4946315E-08  0.3403842E+04  0.7818609E-02  0.8136964E-01
       -2   -1    0    0    0  501  0.00000000000E+00  0.00000000000E+00  0.22159418849E+04  0.22159418849E+04  0.25500000920E-02 0. -1.
        2   -1    0    0  501    0  0.00000000000E+00  0.00000000000E+00 -0.13071352499E+04  0.13071352499E+04  0.25500000920E-02 0.  1.
    10030    2    1    2    0    0  0.00000000000E+00  0.00000000000E+00  0.90880663495E+03  0.35230771348E+04  0.34038423873E+04 0.  0.
        3    1    3    3  502    0 -0.13108593791E+04  0.10704849378E+04  0.26854296082E+03  0.17135943644E+04  0.10100000352E+00 0. -1.
       -3    1    3    3    0  502  0.13108593791E+04 -0.10704849378E+04  0.64026367413E+03  0.18094827704E+04  0.10100000352E+00 0.  1.
</event>
<event>
 5   0  0.1645631E-08  0.3399348E+04  0.7818609E-02  0.8138066E-01
       -1   -1    0    0    0  501  0.00000000000E+00  0.00000000000E+00  0.13856219325E+04  0.13856219325E+04  0.50400001928E-02 0.  1.
        1   -1    0    0  501    0  0.00000000000E+00  0.00000000000E+00 -0.20849062278E+04  0.20849062278E+04  0.50400001928E-02 0. -1.
    10030    2    1    2    0    0  0.00000000000E+00  0.00000000000E+00 -0.69928429530E+03  0.34705281602E+04  0.33993480530E+04 0.  0.
        4    1    3    3  502    0 -0.77366889212E+03  0.91525504284E+03  0.88084807314E+03  0.14873299193E+04  0.12699999809E+01 0.  1.
       -4    1    3    3    0  502  0.77366889212E+03 -0.91525504284E+03 -0.15801323684E+04  0.19831982409E+04  0.12699999809E+01 0. -1.
</event>
<event>
 5   0  0.1630571E-08  0.3399787E+04  0.7818609E-02  0.8137959E-01
       -1   -1    0    0    0  501  0.00000000000E+00  0.00000000000E+00  0.15044861800E+04  0.15044861800E+04  0.50400001928E-02 0.  1.
        1   -1    0    0  501    0  0.00000000000E+00  0.00000000000E+00 -0.19206809014E+04  0.19206809014E+04  0.50400001928E-02 0. -1.
    10030    2    1    2    0    0  0.00000000000E+00  0.00000000000E+00 -0.41619472147E+03  0.34251670814E+04  0.33997869771E+04 0.  0.
        3    1    3    3  502    0 -0.72994023654E+03  0.92678404180E+02  0.13357377381E+04  0.15249909347E+04  0.10100000352E+00 0.  1.
       -3    1    3    3    0  502  0.72994023654E+03 -0.92678404180E+02 -0.17519324596E+04  0.19001761468E+04  0.10100000352E+00 0. -1.
</event>
<event>
 5   0  0.1645631E-08  0.3402519E+04  0.7818609E-02  0.8137288E-01
       -1   -1    0    0    0  501  0.00000000000E+00  0.00000000000E+00  0.23611449412E+04  0.23611449412E+04  0.50400001928E-02 0.  1.
        1   -1    0    0  501    0  0.00000000000E+00  0.00000000000E+00 -0.12257968497E+04  0.12257968497E+04  0.50400001928E-02 0. -1.
    10030    2    1    2    0    0  0.00000000000E+00  0.00000000000E+00  0.11353480915E+04  0.35869417909E+04  0.34025190848E+04 0.  0.
        4    1    3    3  502    0 -0.12300153645E+04  0.72154782158E+03  0.15457059716E+04  0.21030400898E+04  0.12699999809E+01 0.  1.
       -4    1    3    3    0  502  0.12300153645E+04 -0.72154782158E+03 -0.41035788015E+03  0.14839017010E+04  0.12699999809E+01 0. -1.
</event>
<event>
 5   0  0.5001197E-08  0.3400481E+04  0.7818609E-02  0.8137788E-01
       -2   -1    0    0    0  501  0.00000000000E+00  0.00000000000E+00  0.97758423836E+03  0.97758423836E+03  0.25500000920E-02 0.  1.
        2   -1    0    0  501    0  0.00000000000E+00  0.00000000000E+00 -0.29571041253E+04  0.29571041253E+04  0.25500000920E-02 0. -1.
    10030    2    1    2    0    0  0.00000000000E+00  0.00000000000E+00 -0.19795198869E+04  0.39346883636E+04  0.34004813683E+04 0.  0.
        5    1    3    3  502    0 -0.60968788649E+03 -0.10917147560E+04 -0.23228024441E+04  0.26379904685E+04  0.46999998093E+01 0. -1.
       -5    1    3    3    0  502  0.60968788649E+03  0.10917147560E+04  0.34328255719E+03  0.12966978952E+04  0.46999998093E+01 0.  1.
</event>
<event>
 5   0  0.1645631E-08  0.3412594E+04  0.7818609E-02  0.8134822E-01
       -1   -1    0    0    0  501  0.00000000000E+00  0.00000000000E+00  0.16214711878E+04  0.16214711878E+04  0.50400001928E-02 0.  1.
        1   -1    0    0  501    0  0.00000000000E+00  0.00000000000E+00 -0.17955606844E+04  0.17955606844E+04  0.50400001928E-02 0. -1.
    10030    2    1    2    0    0  0.00000000000E+00  0.00000000000E+00 -0.17408949658E+03  0.34170318722E+04  0.34125942716E+04 0.  0.
        4    1    3    3  502    0 -0.21830006385E+02  0.24565500765E+03  0.16035302629E+04  0.16223852345E+04  0.12699999809E+01 0.  1.
       -4    1    3    3    0  502  0.21830006385E+02 -0.24565500765E+03 -0.17776197595E+04  0.17946466377E+04  0.12699999809E+01 0. -1.
</event>
<event>
 5   0  0.1595851E-08  0.3399176E+04  0.7818609E-02  0.8138109E-01
       -1   -1    0    0    0  501  0.00000000000E+00  0.00000000000E+00  0.18121625901E+04  0.18121625901E+04  0.50400001928E-02 0.  1.
        1   -1    0    0  501    0  0.00000000000E+00  0.00000000000E+00 -0.15940066174E+04  0.15940066175E+04  0.50400001928E-02 0. -1.
    10030    2    1    2    0    0  0.00000000000E+00  0.00000000000E+00  0.21815597269E+03  0.34061692076E+04  0.33991758769E+04 0.  0.
        2    1    3    3  502    0 -0.78425821494E+03 -0.66909485462E+03 -0.12449422800E+04  0.16163632490E+04  0.25500000920E-02 0. -1.
       -2    1    3    3    0  502  0.78425821494E+03  0.66909485462E+03  0.14630982527E+04  0.17898059586E+04  0.25500000920E-02 0.  1.
</event>
<event>
 5   0  0.1579536E-08  0.3399141E+04  0.7818609E-02  0.8138117E-01
        1   -1    0    0  501    0  0.00000000000E+00  0.00000000000E+00  0.91805382731E+03  0.91805382733E+03  0.50400001928E-02 0. -1.
       -1   -1    0    0    0  501  0.00000000000E+00  0.00000000000E+00 -0.31463733437E+04  0.31463733437E+04  0.50400001928E-02 0.  1.
    10030    2    1    2    0    0  0.00000000000E+00  0.00000000000E+00 -0.22283195164E+04  0.40644271711E+04  0.33991411212E+04 0.  0.
        5    1    3    3  502    0  0.71370848827E+03 -0.13106377890E+04 -0.14174545316E+03  0.14990880840E+04  0.46999998093E+01 0. -1.
       -5    1    3    3    0  502 -0.71370848827E+03  0.13106377890E+04 -0.20865740633E+04  0.25653390871E+04  0.46999998093E+01 0.  1.
</event>
<event>
 5   0  0.4764953E-08  0.3400276E+04  0.7818609E-02  0.8137838E-01
        2   -1    0    0  501    0  0.00000000000E+00  0.00000000000E+00  0.18152795447E+04  0.18152795447E+04  0.25500000920E-02 0.  1.
       -2   -1    0    0    0  501  0.00000000000E+00  0.00000000000E+00 -0.15923001259E+04  0.15923001259E+04  0.25500000920E-02 0. -1.
    10030    2    1    2    0    0  0.00000000000E+00  0.00000000000E+00  0.22297941877E+03  0.34075796706E+04  0.34002763696E+04 0.  0.
        2    1    3    3  502    0 -0.85609991147E+03 -0.61186878986E+03  0.14497152588E+04  0.17913583690E+04  0.25500000920E-02 0.  1.
       -2    1    3    3    0  502  0.85609991147E+03  0.61186878986E+03 -0.12267358401E+04  0.16162213016E+04  0.25500000920E-02 0. -1.
</event>
<event>
 5   0  0.4775023E-08  0.3402685E+04  0.7818609E-02  0.8137248E-01
        2   -1    0    0  501    0  0.00000000000E+00  0.00000000000E+00  0.14285160579E+04  0.14285160579E+04  0.25500000920E-02 0. -1.
       -2   -1    0    0    0  501  0.00000000000E+00  0.00000000000E+00 -0.20262745100E+04  0.20262745100E+04  0.25500000920E-02 0.  1.
    10030    2    1    2    0    0  0.00000000000E+00  0.00000000000E+00 -0.59775845208E+03  0.34547905679E+04  0.34026846314E+04 0.  0.
        4    1    3    3  502    0 -0.10740027241E+04 -0.93401366592E+03  0.64743442953E+03  0.15636611951E+04  0.12699999809E+01 0. -1.
       -4    1    3    3    0  502  0.10740027241E+04  0.93401366592E+03 -0.12451928816E+04  0.18911293728E+04  0.12699999809E+01 0.  1.
</event>
<event>
 5   0  0.4946315E-08  0.3399834E+04  0.7818609E-02  0.8137947E-01
        2   -1    0    0  501    0  0.00000000000E+00  0.00000000000E+00  0.10979959238E+04  0.10979959238E+04  0.25500000920E-02 0.  1.
       -2   -1    0    0    0  501  0.00000000000E+00  0.00000000000E+00 -0.26318107884E+04  0.26318107884E+04  0.25500000920E-02 0. -1.
    10030    2    1    2    0    0  0.00000000000E+00  0.00000000000E+00 -0.15338148646E+04  0.37298067122E+04  0.33998338300E+04 0.  0.
        3    1    3    3  502    0 -0.10468231765E+04  0.44166920184E+03  0.62025290918E+03  0.12944590099E+04  0.10100000352E+00 0.  1.
       -3    1    3    3    0  502  0.10468231765E+04 -0.44166920184E+03 -0.21540677738E+04  0.24353477023E+04  0.10100000352E+00 0. -1.
</event>
<event>
 5   0  0.1625282E-08  0.3400837E+04  0.7818609E-02  0.8137701E-01
       -1   -1    0    0    0  501  0.00000000000E+00  0.00000000000E+00  0.23503368751E+04  0.23503368751E+04  0.50400001928E-02 0. -1.
        1   -1    0    0  501    0  0.00000000000E+00  0.00000000000E+00 -0.12302167846E+04  0.12302167846E+04  0.50400001928E-02 0.  1.
    10030    2    1    2    0    0  0.00000000000E+00  0.00000000000E+00  0.11201200905E+04  0.35805536597E+04  0.34008374693E+04 0.  0.
        1    1    3    3  502    0 -0.74407740981E+02 -0.42222924340E+03 -0.11723765563E+04  0.12483111934E+04  0.50400001928E-02 0.  1.
       -1    1    3    3    0  502  0.74407740981E+02  0.42222924340E+03  0.22924966468E+04  0.23322424662E+04  0.50400001928E-02 0. -1.
</event>
<event>
 5   0  0.1630571E-08  0.3400511E+04  0.7818609E-02  0.8137781E-01
        1   -1    0    0  501    0  0.00000000000E+00  0.00000000000E+00  0.16758371059E+04  0.16758371060E+04  0.50400001928E-02 0.  1.
       -1   -1    0    0    0  501  0.00000000000E+00  0.00000000000E+00 -0.17250295276E+04  0.17250295276E+04  0.50400001928E-02 0. -1.
    10030    2    1    2    0    0  0.00000000000E+00  0.00000000000E+00 -0.49192421609E+02  0.34008666335E+04  0.34005108388E+04 0.  0.
        3    1    3    3  502    0  0.13925990597E+04  0.70278879192E+03 -0.70114629838E+03  0.17102193921E+04  0.10100000352E+00 0. -1.
       -3    1    3    3    0  502 -0.13925990597E+04 -0.70278879192E+03  0.65195387678E+03  0.16906472414E+04  0.10100000352E+00 0.  1.
</event>
<event>
 5   0  0.1579536E-08  0.3399263E+04  0.7818609E-02  0.8138087E-01
        1   -1    0    0  501    0  0.00000000000E+00  0.00000000000E+00  0.19116888147E+04  0.19116888147E+04  0.50400001928E-02 0. -1.
       -1   -1    0    0    0  501  0.00000000000E+00  0.00000000000E+00 -0.15110971199E+04  0.15110971199E+04  0.50400001928E-02 0.  1.
    10030    2    1    2    0    0  0.00000000000E+00  0.00000000000E+00  0.40059169475E+03  0.34227859346E+04  0.33992631332E+04 0.  0.
        5    1    3    3  502    0 -0.92034282327E+03 -0.34609816158E+03 -0.11956273898E+04  0.15480186675E+04  0.46999998093E+01 0.  1.
       -5    1    3    3    0  502  0.92034282327E+03  0.34609816158E+03  0.15962190846E+04  0.18747672671E+04  0.46999998093E+01 0. -1.
</event>
<event>
 5   0  0.1579536E-08  0.3398630E+04  0.7818609E-02  0.8138243E-01
        1   -1    0    0  501    0  0.00000000000E+00  0.00000000000E+00  0.20300957546E+04  0.20300957546E+04  0.50400001928E-02 0.  1.
       -1   -1    0    0    0  501  0.00000000000E+00  0.00000000000E+00 -0.14224308022E+04  0.14224308022E+04  0.50400001928E-02 0. -1.
    10030    2    1    2    0    0  0.00000000000E+00  0.00000000000E+00  0.60766495243E+03  0.34525265568E+04  0.33986295666E+04 0.  0.
        5    1    3    3  502    0 -0.40784601889E+03  0.15619605015E+04 -0.23523303587E+03  0.16313845820E+04  0.46999998093E+01 0. -1.
       -5    1    3    3    0  502  0.40784601889E+03 -0.15619605015E+04  0.84289798831E+03  0.18211419747E+04  0.46999998093E+01 0.  1.
</event>
<event>
 5   0  0.4764953E-08  0.3401200E+04  0.7818609E-02  0.8137612E-01
       -2   -1    0    0    0  501  0.00000000000E+00  0.00000000000E+00  0.16650600320E+04  0.16650600320E+04  0.25500000920E-02 0.  1.
        2   -1    0    0  501    0  0.00000000000E+00  0.00000000000E+00 -0.17368982158E+04  0.17368982158E+04  0.25500000920E-02 0. -1.
    10030    2    1    2    0    0  0.00000000000E+00  0.00000000000E+00 -0.71838183807E+02  0.34019582478E+04  0.34011996700E+04 0.  0.
        2    1    3    3  502    0  0.48167871468E+03  0.12729827255E+04  0.98388684524E+03  0.16794441723E+04  0.25500000920E-02 0.  1.
       -2    1    3    3    0  502 -0.48167871468E+03 -0.12729827255E+04 -0.10557250290E+04  0.17225140756E+04  0.25500000920E-02 0. -1.
</event>
<event>
 5   0  0.4764953E-08  0.3398230E+04  0.7818609E-02  0.8138341E-01
        2   -1    0    0  501    0  0.00000000000E+00  0.00000000000E+00  0.83440507750E+03  0.83440507750E+03  0.25500000920E-02 0.  1.
       -2   -1    0    0    0  501  0.00000000000E+00  0.00000000000E+00 -0.34599402269E+04  0.34599402269E+04  0.25500000920E-02 0. -1.
    10030    2    1    2    0    0  0.00000000000E+00  0.00000000000E+00 -0.26255351494E+04  0.42943453044E+04  0.33982299470E+04 0.  0.
        2    1    3    3  502    0  0.15299941476E+04 -0.11712145538E+03 -0.22348293707E+04  0.27109153146E+04  0.25500000920E-02 0. -1.
       -2    1    3    3    0  502 -0.15299941476E+04  0.11712145538E+03 -0.39070577876E+03  0.15834299898E+04  0.25500000920E-02 0.  1.
</event>
<event>
 5   0  0.1630571E-08  0.3399716E+04  0.7818609E-02  0.8137976E-01
       -1   -1    0    0    0  501  0.00000000000E+00  0.00000000000E+00  0.29560088415E+04  0.29560088415E+04  0.50400001928E-02 0.  1.
        1   -1    0    0  501    0  0.00000000000E+00  0.00000000000E+00 -0.97750653899E+03  0.97750653901E+03  0.50400001928E-02 0. -1.
    10030    2    1    2    0    0  0.00000000000E+00  0.00000000000E+00  0.19785023025E+04  0.39335153805E+04  0.33997164422E+04 0.  0.
        3    1    3    3  502    0 -0.54410008768E+03  0.15547621998E+04  0.50359848708E+03  0.17224813061E+04  0.10100000352E+00 0. -1.
       -3    1    3    3    0  502  0.54410008768E+03 -0.15547621998E+04  0.14749038154E+04  0.22110340744E+04  0.10100000352E+00 0.  1.
</event>
<event>
 5   0  0.1625282E-08  0.3396749E+04  0.7818609E-02  0.8138705E-01
        1   -1    0    0  501    0  0.00000000000E+00  0.00000000000E+00  0.14765334472E+04  0.14765334472E+04  0.50400001928E-02 0. -1.
       -1   -1    0    0    0  501  0.00000000000E+00  0.00000000000E+00 -0.19535454618E+04  0.19535454618E+04  0.50400001928E-02 0.  1.
    10030    2    1    2    0    0  0.00000000000E+00  0.00000000000E+00 -0.47701201466E+03  0.34300789090E+04  0.33967485718E+04 0.  0.
        1    1    3    3  502    0 -0.15310816287E+04  0.49927962159E+03  0.30621654306E+03  0.16392863281E+04  0.50400001928E-02 0. -1.
       -1    1    3    3    0  502  0.15310816287E+04 -0.49927962159E+03 -0.78322855772E+03  0.17907925809E+04  0.50400001928E-02 0.  1.
</event>
<event>
 5   0  0.4973409E-08  0.3398577E+04  0.7818609E-02  0.8138256E-01
        2   -1    0    0  501    0  0.00000000000E+00  0.00000000000E+00  0.15374567586E+04  0.15374567586E+04  0.25500000920E-02 0.  1.
       -2   -1    0    0    0  501  0.00000000000E+00  0.00000000000E+00 -0.18781546150E+04  0.18781546150E+04  0.25500000920E-02 0. -1.
    10030    2    1    2    0    0  0.00000000000E+00  0.00000000000E+00 -0.34069785638E+03  0.34156113737E+04  0.33985770591E+04 0.  0.
        1    1    3    3  502    0  0.11213452357E+04 -0.62135897594E+03  0.95062465353E+03  0.15959916499E+04  0.50400001928E-02 0.  1.
       -1    1    3    3    0  502 -0.11213452357E+04  0.62135897594E+03 -0.12913225099E+04  0.18196197238E+04  0.50400001928E-02 0. -1.
</event>
<event>
 5   0  0.5001197E-08  0.3400463E+04  0.7818609E-02  0.8137793E-01
       -2   -1    0    0    0  501  0.00000000000E+00  0.00000000000E+00  0.16495930733E+04  0.16495930733E+04  0.25500000920E-02 0.  1.
        2   -1    0    0  501    0  0.00000000000E+00  0.00000000000E+00 -0.17524240917E+04  0.17524240917E+04  0.25500000920E-02 0. -1.
    10030    2    1    2    0    0  0.00000000000E+00  0.00000000000E+00 -0.10283101830E+03  0.34020171650E+04  0.34004626998E+04 0.  0.
        5    1    3    3  502    0  0.11341290964E+04  0.91171304604E+03  0.82835845452E+03  0.16744161086E+04  0.46999998093E+01 0.  1.
       -5    1    3    3    0  502 -0.11341290964E+04 -0.91171304604E+03 -0.93118947282E+03  0.17276010564E+04  0.46999998093E+01 0. -1.
</event>
<event>
 5   0  0.1595851E-08  0.3399336E+04  0.7818609E-02  0.8138069E-01
       -1   -1    0    0    0  501  0.00000000000E+00  0.00000000000E+00  0.14127007674E+04  0.14127007674E+04  0.50400001928E-02 0. -1.
        1   -1    0    0  501    0  0.00000000000E+00  0.00000000000E+00 -0.20449282608E+04  0.20449282608E+04  0.50400001928E-02 0.  1.
    10030    2    1    2    0    0  0.00000000000E+00  0.00000000000E+00 -0.63222749344E+03  0.34576290282E+04  0.33993362430E+04 0.  0.
        2    1    3    3  502    0  0.16026808028E+04  0.21475856890E+03  0.21647263699E+03  0.16314310899E+04  0.25500000920E-02 0. -1.
       -2    1    3    3    0  502 -0.16026808028E+04 -0.21475856890E+03 -0.84870013044E+03  0.18261979383E+04  0.25500000920E-02 0.  1.
</event>
<event>
 5   0  0.1595851E-08  0.3401412E+04  0.7818609E-02  0.8137560E-01
       -1   -1    0    0    0  501  0.00000000000E+00  0.00000000000E+00  0.12358926446E+04  0.12358926446E+04  0.50400001928E-02 0. -1.
        1   -1    0    0  501    0  0.00000000000E+00  0.00000000000E+00 -0.23403339472E+04  0.23403339472E+04  0.50400001928E-02 0.  1.
    10030    2    1    2    0    0  0.00000000000E+00  0.00000000000E+00 -0.11044413026E+04  0.35762265919E+04  0.34014123604E+04 0.  0.
        2    1    3    3  502    0 -0.15460798517E+04 -0.35753310007E+03 -0.11953860538E+04  0.19867412119E+04  0.25500000920E-02 0.  1.
       -2    1    3    3    0  502  0.15460798517E+04  0.35753310007E+03  0.90944751250E+02  0.15894853800E+04  0.25500000920E-02 0. -1.
</event>
<event>
 5   0  0.1630571E-08  0.3399129E+04  0.7818609E-02  0.8138120E-01
        1   -1    0    0  501    0  0.00000000000E+00  0.00000000000E+00  0.17340888222E+04  0.17340888222E+04  0.50400001928E-02 0. -1.
       -1   -1    0    0    0  501  0.00000000000E+00  0.00000000000E+00 -0.16657273769E+04  0.16657273769E+04  0.50400001928E-02 0.  1.
    10030    2    1    2    0    0  0.00000000000E+00  0.00000000000E+00  0.68361445331E+02  0.33998161991E+04  0.33991288444E+04 0.  0.
        3    1    3    3  502    0  0.92341462872E+03  0.14255297115E+04 -0.26574296829E+02  0.16986864744E+04  0.10100000352E+00 0.  1.
       -3    1    3    3    0  502 -0.92341462872E+03 -0.14255297115E+04  0.94935742160E+02  0.17011297247E+04  0.10100000352E+00 0. -1.
</event>
<event>
 5   0  0.4946315E-08  0.3400508E+04  0.7818609E-02  0.8137782E-01
        2   -1    0    0  501    0  0.00000000000E+00  0.00000000000E+00  0.96576707443E+03  0.96576707444E+03  0.25500000920E-02 0. -1.
       -2   -1    0    0    0  501  0.00000000000E+00  0.00000000000E+00 -0.29933347322E+04  0.29933347322E+04  0.25500000920E-02 0.  1.
    10030    2    1    2    0    0  0.00000000000E+00  0.00000000000E+00 -0.20275676577E+04  0.39591018066E+04  0.34005082721E+04 0.  0.
        3    1    3    3  502    0 -0.10465985808E+04 -0.91702161367E+03 -0.21512959068E+04  0.25621029093E+04  0.10100000352E+00 0.  1.
       -3    1    3    3    0  502  0.10465985808E+04  0.91702161367E+03  0.12372824905E+03  0.13969988973E+04  0.10100000352E+00 0. -1.
</event>
<event>
 5   0  0.1579536E-08  0.3400300E+04  0.7818609E-02  0.8137833E-01
       -1   -1    0    0    0  501  0.00000000000E+00  0.00000000000E+00  0.13190670544E+04  0.13190670544E+04  0.50400001928E-02 0.  1.
        1   -1    0    0  501    0  0.00000000000E+00  0.00000000000E+00 -0.21913294744E+04  0.21913294744E+04  0.50400001928E-02 0. -1.
    10030    2    1    2    0    0  0.00000000000E+00  0.00000000000E+00 -0.87226242000E+03  0.35103965288E+04  0.34003002897E+04 0.  0.
        5    1    3    3  502    0 -0.53053399897E+03  0.14005566501E+04 -0.12668354724E+04  0.19616114443E+04  0.46999998093E+01 0. -1.
       -5    1    3    3    0  502  0.53053399897E+03 -0.14005566501E+04  0.39457305239E+03  0.15487850845E+04  0.46999998093E+01 0.  1.
</event>
<event>
 5   0  0.1595851E-08  0.3403092E+04  0.7818609E-02  0.8137148E-01
        1   -1    0    0  501    0  0.00000000000E+00  0.00000000000E+00  0.14696235850E+04  0.14696235850E+04  0.50400001928E-02 0.  1.
       -1   -1    0    0    0  501  0.00000000000E+00  0.00000000000E+00 -0.19700687373E+04  0.19700687373E+04  0.50400001928E-02 0. -1.
    10030    2    1    2    0    0  0.00000000000E+00  0.00000000000E+00 -0.50044515232E+03  0.34396923223E+04  0.34030924057E+04 0.  0.
        2    1    3    3  502    0 -0.58911718485E+02 -0.89035224962E+03 -0.17146183395E+04  0.19329029384E+04  0.25500000920E-02 0. -1.
       -2    1    3    3    0  502  0.58911718485E+02  0.89035224962E+03  0.12141731872E+04  0.15067893839E+04  0.25500000920E-02 0.  1.
</event>
<event>
 5   0  0.4946315E-08  0.3401602E+04  0.7818609E-02  0.8137513E-01
       -2   -1    0    0    0  501  0.00000000000E+00  0.00000000000E+00  0.19635074388E+04  0.19635074388E+04  0.25500000920E-02 0.  1.
        2   -1    0    0  501    0  0.00000000000E+00  0.00000000000E+00 -0.14732433640E+04  0.14732433640E+04  0.25500000920E-02 0. -1.
    10030    2    1    2    0    0  0.00000000000E+00  0.00000000000E+00  0.49026407477E+03  0.34367508028E+04  0.34016021545E+04 0.  0.
        3    1    3    3  502    0 -0.13943739375E+04  0.15976013073E+03  0.12157472612E+04  0.18568369315E+04  0.10100000352E+00 0.  1.
       -3    1    3    3    0  502  0.13943739375E+04 -0.15976013073E+03 -0.72548318638E+03  0.15799138713E+04  0.10100000352E+00 0. -1.
</event>
<event>
 5   0  0.5001197E-08  0.3399711E+04  0.7818609E-02  0.8137977E-01
       -2   -1    0    0    0  501  0.00000000000E+00  0.00000000000E+00  0.11119525474E+04  0.11119525474E+04  0.25500000920E-02 0. -1.
        2   -1    0    0  501    0  0.00000000000E+00  0.00000000000E+00 -0.25985900061E+04  0.25985900061E+04  0.25500000920E-02 0.  1.
    10030    2    1    2    0    0  0.00000000000E+00  0.00000000000E+00 -0.14866374587E+04  0.37105425535E+04  0.33997110330E+04 0.  0.
        5    1    3    3  502    0 -0.10084545400E+04  0.13176708628E+04 -0.34045045379E+03  0.16938611701E+04  0.46999998093E+01 0. -1.
       -5    1    3    3    0  502  0.10084545400E+04 -0.13176708628E+04 -0.11461870049E+04  0.20166813834E+04  0.46999998093E+01 0.  1.
</event>
<event>
 5   0  0.5001197E-08  0.3400541E+04  0.7818609E-02  0.8137773E-01
       -2   -1    0    0    0  501  0.00000000000E+00  0.00000000000E+00  0.13086432484E+04  0.13086432484E+04  0.25500000920E-02 0. -1.
        2   -1    0    0  501    0  0.00000000000E+00  0.00000000000E+00 -0.22090972889E+04  0.22090972889E+04  0.25500000920E-02 0.  1.
    10030    2    1    2    0    0  0.00000000000E+00  0.00000000000E+00 -0.90045404052E+03  0.35177405373E+04  0.34005412818E+04 0.  0.
        5    1    3    3  502    0  0.62153088153E+03  0.91237621761E+03  0.88746333993E+03  0.14164548242E+04  0.46999998093E+01 0. -1.
       -5    1    3    3    0  502 -0.62153088153E+03 -0.91237621761E+03 -0.17879173804E+04  0.21012857132E+04  0.46999998093E+01 0.  1.
</event>
<event>
 5   0  0.5001197E-08  0.3393373E+04  0.7818609E-02  0.8139535E-01
        2   -1    0    0  501    0  0.00000000000E+00  0.00000000000E+00  0.21449140017E+04  0.21449140017E+04  0.25500000920E-02 0.  1.
       -2   -1    0    0    0  501  0.00000000000E+00  0.00000000000E+00 -0.13421259323E+04  0.13421259323E+04  0.25500000920E-02 0. -1.
    10030    2    1    2    0    0  0.00000000000E+00  0.00000000000E+00  0.80278806942E+03  0.34870399340E+04  0.33933727789E+04 0.  0.
        5    1    3    3  502    0  0.79848353148E+02  0.16682386699E+04  0.70851943731E+03  0.18142265301E+04  0.46999998093E+01 0.  1.
       -5    1    3    3    0  502 -0.79848353148E+02 -0.16682386699E+04  0.94268632110E+02  0.16728134039E+04  0.46999998093E+01 0. -1.
</event>
<event>
 5   0  0.4764953E-08  0.3397699E+04  0.7818609E-02  0.8138471E-01
       -2   -1    0    0    0  501  0.00000000000E+00  0.00000000000E+00  0.13352717877E+04  0.13352717877E+04  0.25500000920E-02 0. -1.
        2   -1    0    0  501    0  0.00000000000E+00  0.00000000000E+00 -0.21614243159E+04  0.21614243159E+04  0.25500000920E-02 0.  1.
    10030    2    1    2    0    0  0.00000000000E+00  0.00000000000E+00 -0.82615252814E+03  0.34966961036E+04  0.33976985801E+04 0.  0.
        2    1    3    3  502    0  0.21182534415E+02  0.69991802999E+03 -0.20059972688E+04  0.21247020947E+04  0.25500000920E-02 0.  1.
       -2    1    3    3    0  502 -0.21182534415E+02 -0.69991802999E+03  0.11798447407E+04  0.13719940090E+04  0.25500000920E-02 0. -1.
</event>
<event>
 5   0  0.4775023E-08  0.3401016E+04  0.7818609E-02  0.8137657E-01
        2   -1    0    0  501    0  0.00000000000E+00  0.00000000000E+00  0.24746018105E+04  0.24746018105E+04  0.25500000920E-02 0. -1.
       -2   -1    0    0    0  501  0.00000000000E+00  0.00000000000E+00 -0.11685625187E+04  0.11685625187E+04  0.25500000920E-02 0.  1.
    10030    2    1    2    0    0  0.00000000000E+00  0.00000000000E+00  0.13060392918E+04  0.36431643292E+04  0.34010156862E+04 0.  0.
        4    1    3    3  502    0 -0.30336651236E+03 -0.16688447938E+04  0.78267952513E+03  0.18680639814E+04  0.12699999809E+01 0.  1.
       -4    1    3    3    0  502  0.30336651236E+03  0.16688447938E+04  0.52335976668E+03  0.17751003478E+04  0.12699999809E+01 0. -1.
</event>
<event>
 5   0  0.4946315E-08  0.3400883E+04  0.7818609E-02  0.8137690E-01
        2   -1    0    0  501    0  0.00000000000E+00  0.00000000000E+00  0.14040277490E+04  0.14040277490E+04  0.25500000920E-02 0. -1.
       -2   -1    0    0    0  501  0.00000000000E+00  0.00000000000E+00 -0.20594335069E+04  0.20594335069E+04  0.25500000920E-02 0.  1.
    10030    2    1    2    0    0  0.00000000000E+00  0.00000000000E+00 -0.65540575792E+03  0.34634612559E+04  0.34008832916E+04 0.  0.
        3    1    3    3  502    0  0.13867754505E+04  0.67804285101E+03  0.39859128873E+03  0.15942908403E+04  0.10100000352E+00 0. -1.
       -3    1    3    3    0  502 -0.13867754505E+04 -0.67804285101E+03 -0.10539970467E+04  0.18691704156E+04  0.10100000352E+00 0.  1.
</event>
<event>
 5   0  0.5001197E-08  0.3400986E+04  0.7818609E-02  0.8137664E-01
        2   -1    0    0  501    0  0.00000000000E+00  0.00000000000E+00  0.16555803013E+04  0.16555803013E+04  0.25500000920E-02 0.  1.
       -2   -1    0    0    0  501  0.00000000000E+00  0.00000000000E+00 -0.17466240890E+04  0.17466240890E+04  0.25500000920E-02 0. -1.
    10030    2    1    2    0    0  0.00000000000E+00  0.00000000000E+00 -0.91043787711E+02  0.34022043904E+04  0.34009859956E+04 0.  0.
        5    1    3    3  502    0  0.74211970550E+03  0.15299669235E+04 -0.56198178397E+02  0.17013878951E+04  0.46999998093E+01 0.  1.
       -5    1    3    3    0  502 -0.74211970550E+03 -0.15299669235E+04 -0.34845609314E+02  0.17008164953E+04  0.46999998093E+01 0. -1.
</event>
<event>
 5   0  0.4775023E-08  0.3398974E+04  0.7818609E-02  0.8138158E-01
        2   -1    0    0  501    0  0.00000000000E+00  0.00000000000E+00  0.22523639725E+04  0.22523639725E+04  0.25500000920E-02 0. -1.
       -2   -1    0    0    0  501  0.00000000000E+00  0.00000000000E+00 -0.12823222607E+04  0.12823222607E+04  0.25500000920E-02 0.  1.
    10030    2    1    2    0    0  0.00000000000E+00  0.00000000000E+00  0.97004171173E+03  0.35346862332E+04  0.33989742342E+04 0.  0.
        4    1    3    3  502    0  0.78644054170E+03 -0.58407277771E+03 -0.95917769447E+03  0.13710044485E+04  0.12699999809E+01 0.  1.
       -4    1    3    3    0  502 -0.78644054170E+03  0.58407277771E+03  0.19292194062E+04  0.21636817847E+04  0.12699999809E+01 0. -1.
</event>
<event>
 5   0  0.1573625E-08  0.3399660E+04  0.7818609E-02  0.8137990E-01
       -3   -1    0    0    0  501  0.00000000000E+00  0.00000000000E+00  0.14695711951E+04  0.14695711986E+04  0.10100000352E+00 0. -1.
        3   -1    0    0  501    0  0.00000000000E+00  0.00000000000E+00 -0.19661672175E+04  0.19661672201E+04  0.10100000352E+00 0.  1.
    10030    2    1    2    0    0  0.00000000000E+00  0.00000000000E+00 -0.49659602245E+03  0.34357384187E+04  0.33996604054E+04 0.  0.
        5    1    3    3  502    0 -0.13332829054E+04 -0.55640251104E+03  0.65684817899E+03  0.15870408566E+04  0.46999998093E+01 0. -1.
       -5    1    3    3    0  502  0.13332829054E+04  0.55640251104E+03 -0.11534442014E+04  0.18486975621E+04  0.46999998093E+01 0.  1.
</event>
<event>
 5   0  0.4973409E-08  0.3399525E+04  0.7818609E-02  0.8138023E-01
       -2   -1    0    0    0  501  0.00000000000E+00  0.00000000000E+00  0.12862019935E+04  0.12862019935E+04  0.25500000920E-02 0.  1.
        2   -1    0    0  501    0  0.00000000000E+00  0.00000000000E+00 -0.22462972066E+04  0.22462972066E+04  0.25500000920E-02 0. -1.
    10030    2    1    2    0    0  0.00000000000E+00  0.00000000000E+00 -0.96009521303E+03  0.35324992001E+04  0.33995246404E+04 0.  0.
        1    1    3    3  502    0  0.13655490739E+04  0.11407205681E+03  0.56500273778E+03  0.14822161789E+04  0.50400001928E-02 0.  1.
       -1    1    3    3    0  502 -0.13655490739E+04 -0.11407205681E+03 -0.15250979508E+04  0.20502830212E+04  0.50400001928E-02 0. -1.
</event>
<event>
 5   0  0.1595851E-08  0.3398697E+04  0.7818609E-02  0.8138226E-01
        1   -1    0    0  501    0  0.00000000000E+00  0.00000000000E+00  0.10378689651E+04  0.10378689651E+04  0.50400001928E-02 0.  1.
       -1   -1    0    0    0  501  0.00000000000E+00  0.00000000000E+00 -0.27824172431E+04  0.27824172431E+04  0.50400001928E-02 0. -1.
    10030    2    1    2    0    0  0.00000000000E+00  0.00000000000E+00 -0.17445482779E+04  0.38202862082E+04  0.33986965176E+04 0.  0.
        2    1    3    3  502    0 -0.15317487711E+04 -0.65873406780E+03 -0.12409875316E+04  0.20785174821E+04  0.25500000920E-02 0. -1.
       -2    1    3    3    0  502  0.15317487711E+04  0.65873406780E+03 -0.50356074630E+03  0.17417687261E+04  0.25500000920E-02 0.  1.
</event>
<event>
 5   0  0.4946315E-08  0.3399526E+04  0.7818609E-02  0.8138023E-01
       -2   -1    0    0    0  501  0.00000000000E+00  0.00000000000E+00  0.12702501563E+04  0.12702501563E+04  0.25500000920E-02 0.  1.
        2   -1    0    0  501    0  0.00000000000E+00  0.00000000000E+00 -0.22745084610E+04  0.22745084610E+04  0.25500000920E-02 0. -1.
    10030    2    1    2    0    0  0.00000000000E+00  0.00000000000E+00 -0.10042583047E+04  0.35447586173E+04  0.33995262776E+04 0.  0.
        3    1    3    3  502    0  0.61030620755E+03 -0.32855550344E+03  0.11161973317E+04  0.13138945465E+04  0.10100000352E+00 0.  1.
       -3    1    3    3    0  502 -0.61030620755E+03  0.32855550344E+03 -0.21204556364E+04  0.22308640707E+04  0.10100000352E+00 0. -1.
</event>
<event>
 5   0  0.1645631E-08  0.3397991E+04  0.7818609E-02  0.8138400E-01
        1   -1    0    0  501    0  0.00000000000E+00  0.00000000000E+00  0.10951361407E+04  0.10951361407E+04  0.50400001928E-02 0. -1.
       -1   -1    0    0    0  501  0.00000000000E+00  0.00000000000E+00 -0.26358237994E+04  0.26358237995E+04  0.50400001928E-02 0.  1.
    10030    2    1    2    0    0  0.00000000000E+00  0.00000000000E+00 -0.15406876588E+04  0.37309599401E+04  0.33979911143E+04 0.  0.
        4    1    3    3  502    0 -0.40013944903E+03 -0.74631216125E+03 -0.23875942043E+04  0.25333182030E+04  0.12699999809E+01 0.  1.
       -4    1    3    3    0  502  0.40013944903E+03  0.74631216125E+03  0.84690654550E+03  0.11976417371E+04  0.12699999809E+01 0. -1.
</event>
<event>
 5   0  0.1625282E-08  0.3399939E+04  0.7818609E-02  0.8137921E-01
        1   -1    0    0  501    0  0.00000000000E+00  0.00000000000E+00  0.20095094677E+04  0.20095094677E+04  0.50400001928E-02 0.  1.
       -1   -1    0    0    0  501  0.00000000000E+00  0.00000000000E+00 -0.14381106841E+04  0.14381106841E+04  0.50400001928E-02 0. -1.
    10030    2    1    2    0    0  0.00000000000E+00  0.00000000000E+00  0.57139878356E+03  0.34476201518E+04  0.33999394320E+04 0.  0.
        1    1    3    3  502    0 -0.88029600650E+03  0.12844460806E+04 -0.40590231998E+03  0.16091859701E+04  0.50400001928E-02 0. -1.
       -1    1    3    3    0  502  0.88029600650E+03 -0.12844460806E+04  0.97730110354E+03  0.18384341816E+04  0.50400001928E-02 0.  1.
</event>
<event>
 5   0  0.1579536E-08  0.3397858E+04  0.7818609E-02  0.8138432E-01
       -1   -1    0    0    0  501  0.00000000000E+00  0.00000000000E+00  0.14756020659E+04  0.14756020659E+04  0.50400001928E-02 0. -1.
        1   -1    0    0  501    0  0.00000000000E+00  0.00000000000E+00 -0.19560559868E+04  0.19560559868E+04  0.50400001928E-02 0.  1.
    10030    2    1    2    0    0  0.00000000000E+00  0.00000000000E+00 -0.48045392086E+03  0.34316580527E+04  0.33978582991E+04 0.  0.
        5    1    3    3  502    0 -0.80406369165E+03  0.14612044021E+04  0.86567789156E+02  0.16700756861E+04  0.46999998093E+01 0.  1.
       -5    1    3    3    0  502  0.80406369165E+03 -0.14612044021E+04 -0.56702171001E+03  0.17615823667E+04  0.46999998093E+01 0. -1.
</event>
<event>
 5   0  0.4775023E-08  0.3399068E+04  0.7818609E-02  0.8138135E-01
        2   -1    0    0  501    0  0.00000000000E+00  0.00000000000E+00  0.18858895381E+04  0.18858895381E+04  0.25500000920E-02 0.  1.
       -2   -1    0    0    0  501  0.00000000000E+00  0.00000000000E+00 -0.15315937124E+04  0.15315937124E+04  0.25500000920E-02 0. -1.
    10030    2    1    2    0    0  0.00000000000E+00  0.00000000000E+00  0.35429582569E+03  0.34174832506E+04  0.33990684365E+04 0.  0.
        4    1    3    3  502    0  0.10674215233E+04  0.12862233713E+04  0.48647632949E+03  0.17408101853E+04  0.12699999809E+01 0.  1.
       -4    1    3    3    0  502 -0.10674215233E+04 -0.12862233713E+04 -0.13218050379E+03  0.16766730652E+04  0.12699999809E+01 0. -1.
</event>
<event>
 5   0  0.1595851E-08  0.3398311E+04  0.7818609E-02  0.8138321E-01
       -1   -1    0    0    0  501  0.00000000000E+00  0.00000000000E+00  0.19402396426E+04  0.19402396427E+04  0.50400001928E-02 0.  1.
        1   -1    0    0  501    0  0.00000000000E+00  0.00000000000E+00 -0.14880268803E+04  0.14880268803E+04  0.50400001928E-02 0. -1.
    10030    2    1    2    0    0  0.00000000000E+00  0.00000000000E+00  0.45221276239E+03  0.34282665229E+04  0.33983106052E+04 0.  0.
        2    1    3    3  502    0 -0.97085822965E+03 -0.83353058567E+03 -0.90168817901E+03  0.15653691295E+04  0.25500000920E-02 0. -1.
       -2    1    3    3    0  502  0.97085822965E+03  0.83353058567E+03  0.13539009414E+04  0.18628973934E+04  0.25500000920E-02 0.  1.
</event>
<event>
 5   0  0.4764953E-08  0.3398503E+04  0.7818609E-02  0.8138274E-01
        2   -1    0    0  501    0  0.00000000000E+00  0.00000000000E+00  0.20492009950E+04  0.20492009950E+04  0.25500000920E-02 0.  1.
       -2   -1    0    0    0  501  0.00000000000E+00  0.00000000000E+00 -0.14090643570E+04  0.14090643570E+04  0.25500000920E-02 0. -1.
    10030    2    1    2    0    0  0.00000000000E+00  0.00000000000E+00  0.64013663792E+03  0.34582653520E+04  0.33985032485E+04 0.  0.
        2    1    3    3  502    0 -0.13336893102E+04  0.61857271886E+03 -0.54702902317E+03  0.15686300191E+04  0.25500000920E-02 0. -1.
       -2    1    3    3    0  502  0.13336893102E+04 -0.61857271886E+03  0.11871656611E+04  0.18896353329E+04  0.25500000920E-02 0.  1.
</event>
<event>
 5   0  0.4973409E-08  0.3399665E+04  0.7818609E-02  0.8137989E-01
       -2   -1    0    0    0  501  0.00000000000E+00  0.00000000000E+00  0.15387036141E+04  0.15387036141E+04  0.25500000920E-02 0.  1.
        2   -1    0    0  501    0  0.00000000000E+00  0.00000000000E+00 -0.18778343105E+04  0.18778343105E+04  0.25500000920E-02 0. -1.
    10030    2    1    2    0    0  0.00000000000E+00  0.00000000000E+00 -0.33913069648E+03  0.34165379246E+04  0.33996649483E+04 0.  0.
        1    1    3    3  502    0 -0.10444331331E+04 -0.10199836479E+04  0.70551649108E+03  0.16214070219E+04  0.50400001928E-02 0.  1.
       -1    1    3    3    0  502  0.10444331331E+04  0.10199836479E+04 -0.10446471876E+04  0.17951309027E+04  0.50400001928E-02 0. -1.
</event>
<event>
 5   0  0.5001197E-08  0.3413339E+04  0.7818609E-02  0.8134640E-01
       -2   -1    0    0    0  501  0.00000000000E+00  0.00000000000E+00  0.13920454485E+04  0.13920454485E+04  0.25500000920E-02 0. -1.
        2   -1    0    0  501    0  0.00000000000E+00  0.00000000000E+00 -0.20924040043E+04  0.20924040043E+04  0.25500000920E-02 0.  1.
    10030    2    1    2    0    0  0.00000000000E+00  0.00000000000E+00 -0.70035855585E+03  0.34844494528E+04  0.34133394033E+04 0.  0.
        5    1    3    3  502    0  0.31055797880E+03 -0.10075197850E+04  0.10198519939E+04  0.14668546468E+04  0.46999998093E+01 0. -1.
       -5    1    3    3    0  502 -0.31055797880E+03  0.10075197850E+04 -0.17202105498E+04  0.20175948059E+04  0.46999998093E+01 0.  1.
</event>
<event>
 5   0  0.1595851E-08  0.3401646E+04  0.7818609E-02  0.8137503E-01
       -1   -1    0    0    0  501  0.00000000000E+00  0.00000000000E+00  0.14182964681E+04  0.14182964681E+04  0.50400001928E-02 0. -1.
        1   -1    0    0  501    0  0.00000000000E+00  0.00000000000E+00 -0.20396287397E+04  0.20396287397E+04  0.50400001928E-02 0.  1.
    10030    2    1    2    0    0  0.00000000000E+00  0.00000000000E+00 -0.62133227159E+03  0.34579252078E+04  0.34016456240E+04 0.  0.
        2    1    3    3  502    0 -0.16612650813E+04 -0.35678492971E+03 -0.38742086485E+03  0.17427541660E+04  0.25500000920E-02 0. -1.
       -2    1    3    3    0  502  0.16612650813E+04  0.35678492971E+03 -0.23391140674E+03  0.17151710418E+04  0.25500000920E-02 0.  1.
</event>
<event>
 5   0  0.1645631E-08  0.3402935E+04  0.7818609E-02  0.8137186E-01
        1   -1    0    0  501    0  0.00000000000E+00  0.00000000000E+00  0.14663737348E+04  0.14663737348E+04  0.50400001928E-02 0. -1.
       -1   -1    0    0    0  501  0.00000000000E+00  0.00000000000E+00 -0.19742521295E+04  0.19742521295E+04  0.50400001928E-02 0.  1.
    10030    2    1    2    0    0  0.00000000000E+00  0.00000000000E+00 -0.50787839470E+03  0.34406258643E+04  0.34029348913E+04 0.  0.
        4    1    3    3  502    0 -0.49711973124E+03 -0.76906951231E+03 -0.17038355752E+04  0.19343353438E+04  0.12699999809E+01 0.  1.
       -4    1    3    3    0  502  0.49711973124E+03  0.76906951231E+03  0.11959571805E+04  0.15062905206E+04  0.12699999809E+01 0. -1.
</event>
<event>
 5   0  0.4775023E-08  0.3400014E+04  0.7818609E-02  0.8137903E-01
       -2   -1    0    0    0  501  0.00000000000E+00  0.00000000000E+00  0.18270522698E+04  0.18270522698E+04  0.25500000920E-02 0. -1.
        2   -1    0    0  501    0  0.00000000000E+00  0.00000000000E+00 -0.15817962545E+04  0.15817962545E+04  0.25500000920E-02 0.  1.
    10030    2    1    2    0    0  0.00000000000E+00  0.00000000000E+00  0.24525601535E+03  0.34088485243E+04  0.34000143747E+04 0.  0.
        4    1    3    3  502    0  0.13972642150E+04  0.18177378723E+03  0.10762216832E+04  0.17730323518E+04  0.12699999809E+01 0. -1.
       -4    1    3    3    0  502 -0.13972642150E+04 -0.18177378723E+03 -0.83096566781E+03  0.16358161725E+04  0.12699999809E+01 0.  1.
</event>
<event>
 5   0  0.4946315E-08  0.3399656E+04  0.7818609E-02  0.8137991E-01
       -2   -1    0    0    0  501  0.00000000000E+00  0.00000000000E+00  0.11134626616E+04  0.11134626616E+04  0.25500000920E-02 0.  1.
        2   -1    0    0  501    0  0.00000000000E+00  0.00000000000E+00 -0.25949814546E+04  0.25949814546E+04  0.25500000920E-02 0. -1.
    10030    2    1    2    0    0  0.00000000000E+00  0.00000000000E+00 -0.14815187929E+04  0.37084441162E+04  0.33996558398E+04 0.  0.
        3    1    3    3  502    0 -0.18304610102E+03 -0.89493459649E+03 -0.23044931783E+04  0.24789317510E+04  0.10100000352E+00 0. -1.
       -3    1    3    3    0  502  0.18304610102E+03  0.89493459649E+03  0.82297438536E+03  0.12295123652E+04  0.10100000352E+00 0.  1.
</event>
<event>
 5   0  0.1625282E-08  0.3400020E+04  0.7818609E-02  0.8137901E-01
        1   -1    0    0  501    0  0.00000000000E+00  0.00000000000E+00  0.17164231556E+04  0.17164231556E+04  0.50400001928E-02 0.  1.
       -1   -1    0    0    0  501  0.00000000000E+00  0.00000000000E+00 -0.16837541595E+04  0.16837541595E+04  0.50400001928E-02 0. -1.
    10030    2    1    2    0    0  0.00000000000E+00  0.00000000000E+00  0.32668996085E+02  0.34001773151E+04  0.34000203691E+04 0.  0.
        1    1    3    3  502    0 -0.27471500537E+03 -0.16776489466E+04  0.85684946788E+01  0.17000140416E+04  0.50400001928E-02 0. -1.
       -1    1    3    3    0  502  0.27471500537E+03  0.16776489466E+04  0.24100501406E+02  0.17001632735E+04  0.50400001928E-02 0.  1.
</event>
<event>
 5   0  0.1630571E-08  0.3400856E+04  0.7818609E-02  0.8137696E-01
        1   -1    0    0  501    0  0.00000000000E+00  0.00000000000E+00  0.15317539856E+04  0.15317539856E+04  0.50400001928E-02 0.  1.
       -1   -1    0    0    0  501  0.00000000000E+00  0.00000000000E+00 -0.18876756961E+04  0.18876756961E+04  0.50400001928E-02 0. -1.
    10030    2    1    2    0    0  0.00000000000E+00  0.00000000000E+00 -0.35592171054E+03  0.34194296818E+04  0.34008556400E+04 0.  0.
        3    1    3    3  502    0 -0.27799311589E+03  0.15427608544E+04  0.48447240673E+03  0.16407634655E+04  0.10100000352E+00 0.  1.
       -3    1    3    3    0  502  0.27799311589E+03 -0.15427608544E+04 -0.84039411726E+03  0.17786662163E+04  0.10100000352E+00 0. -1.
</event>
<event>
 5   0  0.1595851E-08  0.3396699E+04  0.7818609E-02  0.8138717E-01
        1   -1    0    0  501    0  0.00000000000E+00  0.00000000000E+00  0.22822914236E+04  0.22822914236E+04  0.50400001928E-02 0.  1.
       -1   -1    0    0    0  501  0.00000000000E+00  0.00000000000E+00 -0.12638135629E+04  0.12638135630E+04  0.50400001928E-02 0. -1.
    10030    2    1    2    0    0  0.00000000000E+00  0.00000000000E+00  0.10184778606E+04  0.35461049865E+04  0.33966989008E+04 0.  0.
        2    1    3    3  502    0  0.76895912765E+03  0.92893423330E+03  0.17577401286E+04  0.21316348912E+04  0.25500000920E-02 0.  1.
       -2    1    3    3    0  502 -0.76895912765E+03 -0.92893423330E+03 -0.73926226793E+03  0.14144700953E+04  0.25500000920E-02 0. -1.
</event>
<event>
 5   0  0.1595851E-08  0.3401781E+04  0.7818609E-02  0.8137469E-01
        1   -1    0    0  501    0  0.00000000000E+00  0.00000000000E+00  0.20285441602E+04  0.20285441602E+04  0.50400001928E-02 0.  1.
       -1   -1    0    0    0  501  0.00000000000E+00  0.00000000000E+00 -0.14261597597E+04  0.14261597597E+04  0.50400001928E-02 0. -1.
    10030    2    1    2    0    0  0.00000000000E+00  0.00000000000E+00  0.60238440050E+03  0.34547039200E+04  0.34017807408E+04 0.  0.
        2    1    3    3  502    0  0.95518194690E+03  0.33383528221E+03  0.16896526234E+04  0.19694528517E+04  0.25500000920E-02 0.  1.
       -2    1    3    3    0  502 -0.95518194690E+03 -0.33383528221E+03 -0.10872682229E+04  0.14852510683E+04  0.25500000920E-02 0. -1.
</event>
<event>
 5   0  0.5001197E-08  0.3400855E+04  0.7818609E-02  0.8137697E-01
        2   -1    0    0  501    0  0.00000000000E+00  0.00000000000E+00  0.20577026922E+04  0.20577026922E+04  0.25500000920E-02 0. -1.
       -2   -1    0    0    0  501  0.00000000000E+00  0.00000000000E+00 -0.14051853257E+04  0.14051853257E+04  0.25500000920E-02 0.  1.
    10030    2    1    2    0    0  0.00000000000E+00  0.00000000000E+00  0.65251736653E+03  0.34628880179E+04  0.34008549676E+04 0.  0.
        5    1    3    3  502    0 -0.70179998187E+03  0.68005655464E+03 -0.10906811028E+04  0.14644478448E+04  0.46999998093E+01 0.  1.
       -5    1    3    3    0  502  0.70179998187E+03 -0.68005655464E+03  0.17431984693E+04  0.19984401731E+04  0.46999998093E+01 0. -1.
</event>
<event>
 5   0  0.1579536E-08  0.3394179E+04  0.7818609E-02  0.8139336E-01
       -1   -1    0    0    0  501  0.00000000000E+00  0.00000000000E+00  0.20096106492E+04  0.20096106492E+04  0.50400001928E-02 0.  1.
        1   -1    0    0  501    0  0.00000000000E+00  0.00000000000E+00 -0.14331694609E+04  0.14331694609E+04  0.50400001928E-02 0. -1.
    10030    2    1    2    0    0  0.00000000000E+00  0.00000000000E+00  0.57644118828E+03  0.34427801102E+04  0.33941789056E+04 0.  0.
        5    1    3    3  502    0 -0.39363687129E+03 -0.16480574402E+04  0.38469938385E+03  0.17375439616E+04  0.46999998093E+01 0. -1.
       -5    1    3    3    0  502  0.39363687129E+03  0.16480574402E+04  0.19174180444E+03  0.17052361485E+04  0.46999998093E+01 0.  1.
</event>
<event>
 5   0  0.1630571E-08  0.3401688E+04  0.7818609E-02  0.8137492E-01
       -1   -1    0    0    0  501  0.00000000000E+00  0.00000000000E+00  0.95691134860E+03  0.95691134861E+03  0.50400001928E-02 0.  1.
        1   -1    0    0  501    0  0.00000000000E+00  0.00000000000E+00 -0.30231322702E+04  0.30231322702E+04  0.50400001928E-02 0. -1.
    10030    2    1    2    0    0  0.00000000000E+00  0.00000000000E+00 -0.20662209216E+04  0.39800436188E+04  0.34016875681E+04 0.  0.
        3    1    3    3  502    0  0.84198914945E+03 -0.62299279076E+03 -0.26010266873E+04  0.28039981425E+04  0.10100000352E+00 0. -1.
       -3    1    3    3    0  502 -0.84198914945E+03  0.62299279076E+03  0.53480576567E+03  0.11760454763E+04  0.10100000352E+00 0.  1.
</event>
<event>
 5   0  0.1579536E-08  0.3400507E+04  0.7818609E-02  0.8137782E-01
        1   -1    0    0  501    0  0.00000000000E+00  0.00000000000E+00  0.17583932275E+04  0.17583932275E+04  0.50400001928E-02 0. -1.
       -1   -1    0    0    0  501  0.00000000000E+00  0.00000000000E+00 -0.16440362900E+04  0.16440362900E+04  0.50400001928E-02 0.  1.
    10030    2    1    2    0    0  0.00000000000E+00  0.00000000000E+00  0.11435693752E+03  0.34024295175E+04  0.34005071846E+04 0.  0.
        5    1    3    3  502    0 -0.14129593623E+04  0.36887185798E+03  0.92848621647E+03  0.17304997403E+04  0.46999998093E+01 0.  1.
       -5    1    3    3    0  502  0.14129593623E+04 -0.36887185798E+03 -0.81412927895E+03  0.16719297772E+04  0.46999998093E+01 0. -1.
</event>
<event>
 5   0  0.1625282E-08  0.3399847E+04  0.7818609E-02  0.8137944E-01
        1   -1    0    0  501    0  0.00000000000E+00  0.00000000000E+00  0.28064981702E+04  0.28064981702E+04  0.50400001928E-02 0. -1.
       -1   -1    0    0    0  501  0.00000000000E+00  0.00000000000E+00 -0.10296601793E+04  0.10296601793E+04  0.50400001928E-02 0.  1.
    10030    2    1    2    0    0  0.00000000000E+00  0.00000000000E+00  0.17768379909E+04  0.38361583495E+04  0.33998467078E+04 0.  0.
        1    1    3    3  502    0  0.30617054959E+02 -0.87641727631E+03  0.25315654408E+04  0.26791543867E+04  0.50400001928E-02 0. -1.
       -1    1    3    3    0  502 -0.30617054959E+02  0.87641727631E+03 -0.75472744994E+03  0.11570039628E+04  0.50400001928E-02 0.  1.
</event>
<event>
 5   0  0.4764953E-08  0.3401405E+04  0.7818609E-02  0.8137561E-01
        2   -1    0    0  501    0  0.00000000000E+00  0.00000000000E+00  0.23846355309E+04  0.23846355309E+04  0.25500000920E-02 0. -1.
       -2   -1    0    0    0  501  0.00000000000E+00  0.00000000000E+00 -0.12129273823E+04  0.12129273824E+04  0.25500000920E-02 0.  1.
    10030    2    1    2    0    0  0.00000000000E+00  0.00000000000E+00  0.11717081486E+04  0.35975629133E+04  0.34014054345E+04 0.  0.
        2    1    3    3  502    0  0.26994090310E+03 -0.58425038899E+03  0.22508601309E+04  0.23410655559E+04  0.25500000920E-02 0. -1.
       -2    1    3    3    0  502 -0.26994090310E+03  0.58425038899E+03 -0.10791519823E+04  0.12564973574E+04  0.25500000920E-02 0.  1.
</event>
<event>
 5   0  0.4973409E-08  0.3395473E+04  0.7818609E-02  0.8139018E-01
       -2   -1    0    0    0  501  0.00000000000E+00  0.00000000000E+00  0.12260543503E+04  0.12260543503E+04  0.25500000920E-02 0.  1.
        2   -1    0    0  501    0  0.00000000000E+00  0.00000000000E+00 -0.23508826080E+04  0.23508826080E+04  0.25500000920E-02 0. -1.
    10030    2    1    2    0    0  0.00000000000E+00  0.00000000000E+00 -0.11248282577E+04  0.35769369583E+04  0.33954733683E+04 0.  0.
        1    1    3    3  502    0  0.86062175955E+02 -0.91061120857E+03  0.94430016603E+03  0.13146567137E+04  0.50400001928E-02 0.  1.
       -1    1    3    3    0  502 -0.86062175955E+02  0.91061120857E+03 -0.20691284237E+04  0.22622802446E+04  0.50400001928E-02 0. -1.
</event>
<event>
 5   0  0.1579536E-08  0.3398364E+04  0.7818609E-02  0.8138308E-01
       -1   -1    0    0    0  501  0.00000000000E+00  0.00000000000E+00  0.12325068922E+04  0.12325068922E+04  0.50400001928E-02 0. -1.
        1   -1    0    0  501    0  0.00000000000E+00  0.00000000000E+00 -0.23425583116E+04  0.23425583116E+04  0.50400001928E-02 0.  1.
    10030    2    1    2    0    0  0.00000000000E+00  0.00000000000E+00 -0.11100514194E+04  0.35750652039E+04  0.33983638796E+04 0.  0.
        5    1    3    3  502    0 -0.49749172416E+03 -0.14702183474E+04 -0.12824694719E+04  0.20134026028E+04  0.46999998093E+01 0. -1.
       -5    1    3    3    0  502  0.49749172416E+03  0.14702183474E+04  0.17241805247E+03  0.15616626011E+04  0.46999998093E+01 0.  1.
</event>
<event>
 5   0  0.1595851E-08  0.3399670E+04  0.7818609E-02  0.8137987E-01
        1   -1    0    0  501    0  0.00000000000E+00  0.00000000000E+00  0.14142095068E+04  0.14142095068E+04  0.50400001928E-02 0. -1.
       -1   -1    0    0    0  501  0.00000000000E+00  0.00000000000E+00 -0.20431471909E+04  0.20431471909E+04  0.50400001928E-02 0.  1.
    10030    2    1    2    0    0  0.00000000000E+00  0.00000000000E+00 -0.62893768408E+03  0.34573566977E+04  0.33996695022E+04 0.  0.
        2    1    3    3  502    0 -0.12809153714E+04 -0.11171347580E+04 -0.28748706147E+03  0.17237700157E+04  0.25500000920E-02 0. -1.
       -2    1    3    3    0  502  0.12809153714E+04  0.11171347580E+04 -0.34145062261E+03  0.17335866820E+04  0.25500000920E-02 0.  1.
</event>
<event>
 5   0  0.1630571E-08  0.3396789E+04  0.7818609E-02  0.8138695E-01
       -1   -1    0    0    0  501  0.00000000000E+00  0.00000000000E+00  0.10533766300E+04  0.10533766300E+04  0.50400001928E-02 0.  1.
        1   -1    0    0  501    0  0.00000000000E+00  0.00000000000E+00 -0.27383792125E+04  0.27383792126E+04  0.50400001928E-02 0. -1.
    10030    2    1    2    0    0  0.00000000000E+00  0.00000000000E+00 -0.16850025826E+04  0.37917558425E+04  0.33967894645E+04 0.  0.
        3    1    3    3  502    0 -0.86097666431E+03 -0.14169687633E+04 -0.12533506965E+04  0.20784535769E+04  0.10100000352E+00 0. -1.
       -3    1    3    3    0  502  0.86097666431E+03  0.14169687633E+04 -0.43165188607E+03  0.17133022657E+04  0.10100000352E+00 0.  1.
</event>
<event>
 5   0  0.4764953E-08  0.3400566E+04  0.7818609E-02  0.8137768E-01
       -2   -1    0    0    0  501  0.00000000000E+00  0.00000000000E+00  0.12291636545E+04  0.12291636545E+04  0.25500000920E-02 0. -1.
        2   -1    0    0  501    0  0.00000000000E+00  0.00000000000E+00 -0.23519745646E+04  0.23519745646E+04  0.25500000920E-02 0.  1.
    10030    2    1    2    0    0  0.00000000000E+00  0.00000000000E+00 -0.11228109102E+04  0.35811382191E+04  0.34005656300E+04 0.  0.
        2    1    3    3  502    0 -0.15708643296E+04  0.64113580119E+03 -0.44464990104E+03  0.17539621980E+04  0.25500000920E-02 0.  1.
       -2    1    3    3    0  502  0.15708643296E+04 -0.64113580119E+03 -0.67816100913E+03  0.18271760211E+04  0.25500000920E-02 0. -1.
</event>
<event>
 5   0  0.4973409E-08  0.3399572E+04  0.7818609E-02  0.8138011E-01
       -2   -1    0    0    0  501  0.00000000000E+00  0.00000000000E+00  0.96778066589E+03  0.96778066590E+03  0.25500000920E-02 0.  1.
        2   -1    0    0  501    0  0.00000000000E+00  0.00000000000E+00 -0.29854616395E+04  0.29854616395E+04  0.25500000920E-02 0. -1.
    10030    2    1    2    0    0  0.00000000000E+00  0.00000000000E+00 -0.20176809736E+04  0.39532423054E+04  0.33995717692E+04 0.  0.
        1    1    3    3  502    0  0.88714295835E+03  0.53733538490E+03  0.55715464623E+03  0.11773585878E+04  0.50400001928E-02 0.  1.
       -1    1    3    3    0  502 -0.88714295835E+03 -0.53733538490E+03 -0.25748356199E+04  0.27758837176E+04  0.50400001928E-02 0. -1.
</event>
<event>
 5   0  0.1625282E-08  0.3402011E+04  0.7818609E-02  0.8137413E-01
       -1   -1    0    0    0  501  0.00000000000E+00  0.00000000000E+00  0.10953038083E+04  0.10953038083E+04  0.50400001928E-02 0.  1.
        1   -1    0    0  501    0  0.00000000000E+00  0.00000000000E+00 -0.26416592015E+04  0.26416592015E+04  0.50400001928E-02 0. -1.
    10030    2    1    2    0    0  0.00000000000E+00  0.00000000000E+00 -0.15463553931E+04  0.37369630098E+04  0.34020108075E+04 0.  0.
        1    1    3    3  502    0 -0.77462648431E+03 -0.10777282532E+04 -0.19418219962E+04  0.23520665472E+04  0.50400001928E-02 0. -1.
       -1    1    3    3    0  502  0.77462648431E+03  0.10777282532E+04  0.39546660302E+03  0.13848964625E+04  0.50400001928E-02 0.  1.
</event>
<event>
 5   0  0.4764953E-08  0.3399305E+04  0.7818609E-02  0.8138077E-01
       -2   -1    0    0    0  501  0.00000000000E+00  0.00000000000E+00  0.10946359024E+04  0.10946359024E+04  0.25500000920E-02 0.  1.
        2   -1    0    0  501    0  0.00000000000E+00  0.00000000000E+00 -0.26390685946E+04  0.26390685946E+04  0.25500000920E-02 0. -1.
    10030    2    1    2    0    0  0.00000000000E+00  0.00000000000E+00 -0.15444326923E+04  0.37337044970E+04  0.33993053600E+04 0.  0.
        2    1    3    3  502    0  0.11007177218E+04  0.12204640541E+04 -0.12480884594E+04  0.20636949418E+04  0.25500000920E-02 0.  1.
       -2    1    3    3    0  502 -0.11007177218E+04 -0.12204640541E+04 -0.29634423284E+03  0.16700095552E+04  0.25500000920E-02 0. -1.
</event>
<event>
 5   0  0.1645631E-08  0.3399399E+04  0.7818609E-02  0.8138054E-01
       -1   -1    0    0    0  501  0.00000000000E+00  0.00000000000E+00  0.16563963619E+04  0.16563963619E+04  0.50400001928E-02 0.  1.
        1   -1    0    0  501    0  0.00000000000E+00  0.00000000000E+00 -0.17441348291E+04  0.17441348291E+04  0.50400001928E-02 0. -1.
    10030    2    1    2    0    0  0.00000000000E+00  0.00000000000E+00 -0.87738467180E+02  0.34005311910E+04  0.33993991149E+04 0.  0.
        4    1    3    3  502    0  0.10650480529E+04  0.72505400664E+03 -0.11528169217E+04  0.17288779989E+04  0.12699999809E+01 0. -1.
       -4    1    3    3    0  502 -0.10650480529E+04 -0.72505400664E+03  0.10650784545E+04  0.16716531921E+04  0.12699999809E+01 0.  1.
</event>
<event>
 5   0  0.1630571E-08  0.3399992E+04  0.7818609E-02  0.8137908E-01
        1   -1    0    0  501    0  0.00000000000E+00  0.00000000000E+00  0.25499344850E+04  0.25499344850E+04  0.50400001928E-02 0.  1.
       -1   -1    0    0    0  501  0.00000000000E+00  0.00000000000E+00 -0.11333574375E+04  0.11333574375E+04  0.50400001928E-02 0. -1.
    10030    2    1    2    0    0  0.00000000000E+00  0.00000000000E+00  0.14165770475E+04  0.36832919224E+04  0.33999924786E+04 0.  0.
        3    1    3    3  502    0  0.34976824294E+03  0.14969366954E+04  0.14945977940E+04  0.21440568719E+04  0.10100000352E+00 0.  1.
       -3    1    3    3    0  502 -0.34976824294E+03 -0.14969366954E+04 -0.78020746520E+02  0.15392350506E+04  0.10100000352E+00 0. -1.
</event>
<event>
 5   0  0.5001197E-08  0.3400554E+04  0.7818609E-02  0.8137770E-01
       -2   -1    0    0    0  501  0.00000000000E+00  0.00000000000E+00  0.10980317124E+04  0.10980317124E+04  0.25500000920E-02 0.  1.
        2   -1    0    0  501    0  0.00000000000E+00  0.00000000000E+00 -0.26328398140E+04  0.26328398140E+04  0.25500000920E-02 0. -1.
    10030    2    1    2    0    0  0.00000000000E+00  0.00000000000E+00 -0.15348081016E+04  0.37308715264E+04  0.34005538428E+04 0.  0.
        5    1    3    3  502    0  0.15983032859E+04  0.49588379529E+03 -0.43744970704E+03  0.17296989531E+04  0.46999998093E+01 0. -1.
       -5    1    3    3    0  502 -0.15983032859E+04 -0.49588379529E+03 -0.10973583946E+04  0.20011725733E+04  0.46999998093E+01 0.  1.
</event>
<event>
 5   0  0.4764953E-08  0.3399514E+04  0.7818609E-02  0.8138026E-01
       -2   -1    0    0    0  501  0.00000000000E+00  0.00000000000E+00  0.12732122358E+04  0.12732122358E+04  0.25500000920E-02 0. -1.
        2   -1    0    0  501    0  0.00000000000E+00  0.00000000000E+00 -0.22692009032E+04  0.22692009032E+04  0.25500000920E-02 0.  1.
    10030    2    1    2    0    0  0.00000000000E+00  0.00000000000E+00 -0.99598866742E+03  0.35424131390E+04  0.33995142920E+04 0.  0.
        2    1    3    3  502    0 -0.16772955997E+04 -0.26855806485E+03 -0.56163864498E+03  0.17891008721E+04  0.25500000920E-02 0.  1.
       -2    1    3    3    0  502  0.16772955997E+04  0.26855806485E+03 -0.43435002244E+03  0.17533122668E+04  0.25500000920E-02 0. -1.
</event>
<event>
 5   0  0.1573625E-08  0.3411262E+04  0.7818609E-02  0.8135148E-01
        3   -1    0    0  501    0  0.00000000000E+00  0.00000000000E+00  0.18933103515E+04  0.18933103542E+04  0.10100000352E+00 0.  1.
       -3   -1    0    0    0  501  0.00000000000E+00  0.00000000000E+00 -0.15365562723E+04  0.15365562756E+04  0.10100000352E+00 0. -1.
    10030    2    1    2    0    0  0.00000000000E+00  0.00000000000E+00  0.35675407915E+03  0.34298666298E+04  0.34112624679E+04 0.  0.
        1    1    3    3  502    0 -0.87352938823E+03  0.12550100047E+03 -0.12891631528E+04  0.15622886186E+04  0.50400001928E-02 0. -1.
       -1    1    3    3    0  502  0.87352938823E+03 -0.12550100047E+03  0.16459172320E+04  0.18675780112E+04  0.50400001928E-02 0.  1.
</event>
<event>
 5   0  0.1579536E-08  0.3399781E+04  0.7818609E-02  0.8137960E-01
        1   -1    0    0  501    0  0.00000000000E+00  0.00000000000E+00  0.14950131487E+04  0.14950131488E+04  0.50400001928E-02 0. -1.
       -1   -1    0    0    0  501  0.00000000000E+00  0.00000000000E+00 -0.19328448016E+04  0.19328448016E+04  0.50400001928E-02 0.  1.
    10030    2    1    2    0    0  0.00000000000E+00  0.00000000000E+00 -0.43783165283E+03  0.34278579503E+04  0.33997814005E+04 0.  0.
        5    1    3    3  502    0  0.46918829464E+03  0.12536875515E+04  0.83746572988E+03  0.15790000226E+04  0.46999998093E+01 0. -1.
       -5    1    3    3    0  502 -0.46918829464E+03 -0.12536875515E+04 -0.12752973827E+04  0.18488579277E+04  0.46999998093E+01 0.  1.
</event>
<event>
 5   0  0.1595851E-08  0.3400734E+04  0.7818609E-02  0.8137726E-01
       -1   -1    0    0    0  501  0.00000000000E+00  0.00000000000E+00  0.18984038759E+04  0.18984038759E+04  0.50400001928E-02 0. -1.
        1   -1    0    0  501    0  0.00000000000E+00  0.00000000000E+00 -0.15229884605E+04  0.15229884605E+04  0.50400001928E-02 0.  1.
    10030    2    1    2    0    0  0.00000000000E+00  0.00000000000E+00  0.37541541541E+03  0.34213923364E+04  0.34007335658E+04 0.  0.
        2    1    3    3  502    0 -0.26857853402E+03  0.13806682184E+04 -0.77353768465E+03  0.16052226350E+04  0.25500000920E-02 0.  1.
       -2    1    3    3    0  502  0.26857853402E+03 -0.13806682184E+04  0.11489531001E+04  0.18161697014E+04  0.25500000920E-02 0. -1.
</event>
<event>
 5   0  0.1625282E-08  0.3399117E+04  0.7818609E-02  0.8138123E-01
       -1   -1    0    0    0  501  0.00000000000E+00  0.00000000000E+00  0.14419774959E+04  0.14419774959E+04  0.50400001928E-02 0.  1.
        1   -1    0    0  501    0  0.00000000000E+00  0.00000000000E+00 -0.20031511783E+04  0.20031511783E+04  0.50400001928E-02 0. -1.
    10030    2    1    2    0    0  0.00000000000E+00  0.00000000000E+00 -0.56117368246E+03  0.34451286742E+04  0.33991168970E+04 0.  0.
        1    1    3    3  502    0 -0.94764351666E+03  0.83868509575E+03  0.86926472096E+03  0.15352661266E+04  0.50400001928E-02 0.  1.
       -1    1    3    3    0  502  0.94764351666E+03 -0.83868509575E+03 -0.14304384034E+04  0.19098625475E+04  0.50400001928E-02 0. -1.
</event>
<event>
 5   0  0.4764953E-08  0.3399965E+04  0.7818609E-02  0.8137915E-01
        2   -1    0    0  501    0  0.00000000000E+00  0.00000000000E+00  0.17923245408E+04  0.17923245408E+04  0.25500000920E-02 0.  1.
       -2   -1    0    0    0  501  0.00000000000E+00  0.00000000000E+00 -0.16123981714E+04  0.16123981714E+04  0.25500000920E-02 0. -1.
    10030    2    1    2    0    0  0.00000000000E+00  0.00000000000E+00  0.17992636942E+03  0.34047227122E+04  0.33999651834E+04 0.  0.
        2    1    3    3  502    0 -0.16295272191E+03 -0.31222629086E+03  0.17553904469E+04  0.17903727174E+04  0.25500000920E-02 0.  1.
       -2    1    3    3    0  502  0.16295272191E+03  0.31222629086E+03 -0.15754640775E+04  0.16143499948E+04  0.25500000920E-02 0. -1.
</event>
<event>
 5   0  0.1625282E-08  0.3399474E+04  0.7818609E-02  0.8138035E-01
        1   -1    0    0  501    0  0.00000000000E+00  0.00000000000E+00  0.16264933640E+04  0.16264933640E+04  0.50400001928E-02 0.  1.
       -1   -1    0    0    0  501  0.00000000000E+00  0.00000000000E+00 -0.17762788317E+04  0.17762788317E+04  0.50400001928E-02 0. -1.
    10030    2    1    2    0    0  0.00000000000E+00  0.00000000000E+00 -0.14978546766E+03  0.34027721957E+04  0.33994739195E+04 0.  0.
        1    1    3    3  502    0 -0.10382971141E+03 -0.83811701730E+03  0.14016265721E+04  0.16363916986E+04  0.50400001928E-02 0.  1.
       -1    1    3    3    0  502  0.10382971141E+03  0.83811701730E+03 -0.15514120397E+04  0.17663804971E+04  0.50400001928E-02 0. -1.
</event>
<event>
 5   0  0.5001197E-08  0.3401107E+04  0.7818609E-02  0.8137635E-01
       -2   -1    0    0    0  501  0.00000000000E+00  0.00000000000E+00  0.15447704912E+04  0.15447704912E+04  0.25500000920E-02 0.  1.
        2   -1    0    0  501    0  0.00000000000E+00  0.00000000000E+00 -0.18720469033E+04  0.18720469033E+04  0.25500000920E-02 0. -1.
    10030    2    1    2    0    0  0.00000000000E+00  0.00000000000E+00 -0.32727641217E+03  0.34168173945E+04  0.34011073575E+04 0.  0.
        5    1    3    3  502    0 -0.16765247411E+04 -0.23157955698E+03 -0.33022460795E+03  0.17243650079E+04  0.46999998093E+01 0. -1.
       -5    1    3    3    0  502  0.16765247411E+04  0.23157955698E+03  0.29481957777E+01  0.16924523865E+04  0.46999998093E+01 0.  1.
</event>
<event>
 5   0  0.1630571E-08  0.3399888E+04  0.7818609E-02  0.8137934E-01
        1   -1    0    0  501    0  0.00000000000E+00  0.00000000000E+00  0.20928891677E+04  0.20928891677E+04  0.50400001928E-02 0.  1.
       -1   -1    0    0    0  501  0.00000000000E+00  0.00000000000E+00 -0.13807752347E+04  0.13807752347E+04  0.50400001928E-02 0. -1.
    10030    2    1    2    0    0  0.00000000000E+00  0.00000000000E+00  0.71211393296E+03  0.34736644024E+04  0.33998879580E+04 0.  0.
        3    1    3    3  502    0  0.10976274577E+04  0.10576868333E+04  0.11249306349E+04  0.18944541211E+04  0.10100000352E+00 0.  1.
       -3    1    3    3    0  502 -0.10976274577E+04 -0.10576868333E+04 -0.41281670199E+03  0.15792102814E+04  0.10100000352E+00 0. -1.
</event>
<event>
 5   0  0.1573625E-08  0.3397709E+04  0.7818609E-02  0.8138469E-01
        3   -1    0    0  501    0  0.00000000000E+00  0.00000000000E+00  0.20944744591E+04  0.20944744615E+04  0.10100000352E+00 0.  1.
       -3   -1    0    0    0  501  0.00000000000E+00  0.00000000000E+00 -0.13779618899E+04  0.13779618936E+04  0.10100000352E+00 0. -1.
    10030    2    1    2    0    0  0.00000000000E+00  0.00000000000E+00  0.71651256920E+03  0.34724363551E+04  0.33977086365E+04 0.  0.
        4    1    3    3  502    0 -0.27434100895E+03 -0.75913791217E+03  0.18859746453E+04  0.20514520064E+04  0.12699999809E+01 0.  1.
       -4    1    3    3    0  502  0.27434100895E+03  0.75913791217E+03 -0.11694620761E+04  0.14209843487E+04  0.12699999809E+01 0. -1.
</event>
<event>
 5   0  0.1579536E-08  0.3400007E+04  0.7818609E-02  0.8137904E-01
       -1   -1    0    0    0  501  0.00000000000E+00  0.00000000000E+00  0.11332364852E+04  0.11332364852E+04  0.50400001928E-02 0. -1.
        1   -1    0    0  501    0  0.00000000000E+00  0.00000000000E+00 -0.25502291504E+04  0.25502291504E+04  0.50400001928E-02 0.  1.
    10030    2    1    2    0    0  0.00000000000E+00  0.00000000000E+00 -0.14169926652E+04  0.36834656356E+04  0.34000074817E+04 0.  0.
        5    1    3    3  502    0  0.13103012936E+04 -0.10830940378E+04 -0.70534634120E+03  0.18405210474E+04  0.46999998093E+01 0. -1.
       -5    1    3    3    0  502 -0.13103012936E+04  0.10830940378E+04 -0.71164632399E+03  0.18429445882E+04  0.46999998093E+01 0.  1.
</event>
<event>
 5   0  0.4764953E-08  0.3400812E+04  0.7818609E-02  0.8137707E-01
       -2   -1    0    0    0  501  0.00000000000E+00  0.00000000000E+00  0.10382775666E+04  0.10382775666E+04  0.25500000920E-02 0.  1.
        2   -1    0    0  501    0  0.00000000000E+00  0.00000000000E+00 -0.27847849536E+04  0.27847849536E+04  0.25500000920E-02 0. -1.
    10030    2    1    2    0    0  0.00000000000E+00  0.00000000000E+00 -0.17465073870E+04  0.38230625202E+04  0.34008115180E+04 0.  0.
        2    1    3    3  502    0 -0.22347566581E+03 -0.88732773932E+03  0.73790509582E+03  0.11754981160E+04  0.25500000920E-02 0.  1.
       -2    1    3    3    0  502  0.22347566581E+03  0.88732773932E+03 -0.24844124828E+04  0.26475644043E+04  0.25500000920E-02 0. -1.
</event>
<event>
 5   0  0.1573625E-08  0.3399554E+04  0.7818609E-02  0.8138016E-01
       -3   -1    0    0    0  501  0.00000000000E+00  0.00000000000E+00  0.11693997312E+04  0.11693997355E+04  0.10100000352E+00 0. -1.
        3   -1    0    0  501    0  0.00000000000E+00  0.00000000000E+00 -0.24707044606E+04  0.24707044626E+04  0.10100000352E+00 0.  1.
    10030    2    1    2    0    0  0.00000000000E+00  0.00000000000E+00 -0.13013047294E+04  0.36401041982E+04  0.33995535846E+04 0.  0.
        1    1    3    3  502    0  0.10359717254E+04 -0.10844274164E+04 -0.15072739325E+04  0.21262866563E+04  0.50400001928E-02 0.  1.
       -1    1    3    3    0  502 -0.10359717254E+04  0.10844274164E+04  0.20596920306E+03  0.15138175418E+04  0.50400001928E-02 0. -1.
</event>
<event>
 5   0  0.1625282E-08  0.3407682E+04  0.7818609E-02  0.8136023E-01
       -1   -1    0    0    0  501  0.00000000000E+00  0.00000000000E+00  0.17594325526E+04  0.17594325526E+04  0.50400001928E-02 0. -1.
        1   -1    0    0  501    0  0.00000000000E+00  0.00000000000E+00 -0.16500063342E+04  0.16500063342E+04  0.50400001928E-02 0.  1.
    10030    2    1    2    0    0  0.00000000000E+00  0.00000000000E+00  0.10942621839E+03  0.34094388869E+04  0.34076824127E+04 0.  0.
        1    1    3    3  502    0 -0.24705950807E+03 -0.16504472476E+04 -0.28906309357E+03  0.16936859182E+04  0.50400001928E-02 0.  1.
       -1    1    3    3    0  502  0.24705950807E+03  0.16504472476E+04  0.39848931196E+03  0.17157529686E+04  0.50400001928E-02 0. -1.
</event>
<event>
 5   0  0.4764953E-08  0.3399332E+04  0.7818609E-02  0.8138070E-01
       -2   -1    0    0    0  501  0.00000000000E+00  0.00000000000E+00  0.16105422544E+04  0.16105422544E+04  0.25500000920E-02 0. -1.
        2   -1    0    0  501    0  0.00000000000E+00  0.00000000000E+00 -0.17937218797E+04  0.17937218797E+04  0.25500000920E-02 0.  1.
    10030    2    1    2    0    0  0.00000000000E+00  0.00000000000E+00 -0.18317962522E+03  0.34042641341E+04  0.33993322167E+04 0.  0.
        2    1    3    3  502    0  0.64734974539E+03  0.44769522264E+03 -0.16002189863E+04  0.17833097066E+04  0.25500000920E-02 0.  1.
       -2    1    3    3    0  502 -0.64734974539E+03 -0.44769522264E+03  0.14170393611E+04  0.16209544276E+04  0.25500000920E-02 0. -1.
</event>
<event>
 5   0  0.1595851E-08  0.3399463E+04  0.7818609E-02  0.8138038E-01
        1   -1    0    0  501    0  0.00000000000E+00  0.00000000000E+00  0.15139146887E+04  0.15139146887E+04  0.50400001928E-02 0. -1.
       -1   -1    0    0    0  501  0.00000000000E+00  0.00000000000E+00 -0.19083552938E+04  0.19083552938E+04  0.50400001928E-02 0.  1.
    10030    2    1    2    0    0  0.00000000000E+00  0.00000000000E+00 -0.39444060513E+03  0.34222699825E+04  0.33994629638E+04 0.  0.
        2    1    3    3  502    0  0.75917638458E+03  0.15097876980E+04 -0.13569883395E+02  0.16899679931E+04  0.25500000920E-02 0. -1.
       -2    1    3    3    0  502 -0.75917638458E+03 -0.15097876980E+04 -0.38087072174E+03  0.17323019894E+04  0.25500000920E-02 0.  1.
</event>
<event>
 5   0  0.1595851E-08  0.3398660E+04  0.7818609E-02  0.8138235E-01
        1   -1    0    0  501    0  0.00000000000E+00  0.00000000000E+00  0.21845843431E+04  0.21845843432E+04  0.50400001928E-02 0. -1.
       -1   -1    0    0    0  501  0.00000000000E+00  0.00000000000E+00 -0.13218634366E+04  0.13218634366E+04  0.50400001928E-02 0.  1.
    10030    2    1    2    0    0  0.00000000000E+00  0.00000000000E+00  0.86272090657E+03  0.35064477797E+04  0.33986598343E+04 0.  0.
        2    1    3    3  502    0 -0.46411730855E+03 -0.97564274209E+03  0.17846142578E+04  0.20861763313E+04  0.25500000920E-02 0. -1.
       -2    1    3    3    0  502  0.46411730855E+03  0.97564274209E+03 -0.92189335119E+03  0.14202714484E+04  0.25500000920E-02 0.  1.
</event>
<event>
 5   0  0.1645631E-08  0.3401053E+04  0.7818609E-02  0.8137648E-01
       -1   -1    0    0    0  501  0.00000000000E+00  0.00000000000E+00  0.11486087961E+04  0.11486087961E+04  0.50400001928E-02 0.  1.
        1   -1    0    0  501    0  0.00000000000E+00  0.00000000000E+00 -0.25176453504E+04  0.25176453504E+04  0.50400001928E-02 0. -1.
    10030    2    1    2    0    0  0.00000000000E+00  0.00000000000E+00 -0.13690365543E+04  0.36662541465E+04  0.34010525399E+04 0.  0.
        4    1    3    3  502    0  0.12989685928E+04 -0.86393630163E+03  0.45075539398E+02  0.15606853480E+04  0.12699999809E+01 0. -1.
       -4    1    3    3    0  502 -0.12989685928E+04  0.86393630163E+03 -0.14141120937E+04  0.21055687984E+04  0.12699999809E+01 0.  1.
</event>
<event>
 5   0  0.1645631E-08  0.3373495E+04  0.7818609E-02  0.8144442E-01
        1   -1    0    0  501    0  0.00000000000E+00  0.00000000000E+00  0.27986064172E+04  0.27986064172E+04  0.50400001928E-02 0. -1.
       -1   -1    0    0    0  501  0.00000000000E+00  0.00000000000E+00 -0.10166191770E+04  0.10166191770E+04  0.50400001928E-02 0.  1.
    10030    2    1    2    0    0  0.00000000000E+00  0.00000000000E+00  0.17819872401E+04  0.38152255942E+04  0.33734948956E+04 0.  0.
        4    1    3    3  502    0 -0.99906831177E+03 -0.12622333485E+04  0.14606838348E+04  0.21736994723E+04  0.12699999809E+01 0. -1.
       -4    1    3    3    0  502  0.99906831177E+03  0.12622333485E+04  0.32130340537E+03  0.16415261219E+04  0.12699999809E+01 0.  1.
</event>
<event>
 5   0  0.1579536E-08  0.3393127E+04  0.7818609E-02  0.8139595E-01
       -1   -1    0    0    0  501  0.00000000000E+00  0.00000000000E+00  0.16709995846E+04  0.16709995846E+04  0.50400001928E-02 0. -1.
        1   -1    0    0  501    0  0.00000000000E+00  0.00000000000E+00 -0.17225184851E+04  0.17225184851E+04  0.50400001928E-02 0.  1.
    10030    2    1    2    0    0  0.00000000000E+00  0.00000000000E+00 -0.51518900561E+02  0.33935180697E+04  0.33931269785E+04 0.  0.
        5    1    3    3  502    0  0.52271457036E+03 -0.12548849141E+04 -0.10409325589E+04  0.17121709470E+04  0.46999998093E+01 0.  1.
       -5    1    3    3    0  502 -0.52271457036E+03  0.12548849141E+04  0.98941365836E+03  0.16813471227E+04  0.46999998093E+01 0. -1.
</event>
<event>
 5   0  0.1630571E-08  0.3394345E+04  0.7818609E-02  0.8139296E-01
        1   -1    0    0  501    0  0.00000000000E+00  0.00000000000E+00  0.19002445629E+04  0.19002445629E+04  0.50400001928E-02 0.  1.
       -1   -1    0    0    0  501  0.00000000000E+00  0.00000000000E+00 -0.15158024236E+04  0.15158024236E+04  0.50400001928E-02 0. -1.
    10030    2    1    2    0    0  0.00000000000E+00  0.00000000000E+00  0.38444213927E+03  0.34160469865E+04  0.33943454826E+04 0.  0.
        3    1    3    3  502    0 -0.66816859536E+03  0.14491101753E+04  0.77386574137E+03  0.17734818206E+04  0.10100000352E+00 0.  1.
       -3    1    3    3    0  502  0.66816859536E+03 -0.14491101753E+04 -0.38942360210E+03  0.16425651659E+04  0.10100000352E+00 0. -1.
</event>
<event>
 5   0  0.5001197E-08  0.3397145E+04  0.7818609E-02  0.8138607E-01
       -2   -1    0    0    0  501  0.00000000000E+00  0.00000000000E+00  0.13514552037E+04  0.13514552037E+04  0.25500000920E-02 0. -1.
        2   -1    0    0  501    0  0.00000000000E+00  0.00000000000E+00 -0.21348459072E+04  0.21348459072E+04  0.25500000920E-02 0.  1.
    10030    2    1    2    0    0  0.00000000000E+00  0.00000000000E+00 -0.78339070354E+03  0.34863011109E+04  0.33971450427E+04 0.  0.
        5    1    3    3  502    0  0.90478388244E+03 -0.13461388466E+04  0.12592553509E+03  0.16268383443E+04  0.46999998093E+01 0. -1.
       -5    1    3    3    0  502 -0.90478388244E+03  0.13461388466E+04 -0.90931623863E+03  0.18594627665E+04  0.46999998093E+01 0.  1.
</event>
<event>
 5   0  0.1579536E-08  0.3400635E+04  0.7818609E-02  0.8137750E-01
       -1   -1    0    0    0  501  0.00000000000E+00  0.00000000000E+00  0.20907231136E+04  0.20907231136E+04  0.50400001928E-02 0.  1.
        1   -1    0    0  501    0  0.00000000000E+00  0.00000000000E+00 -0.13828134033E+04  0.13828134033E+04  0.50400001928E-02 0. -1.
    10030    2    1    2    0    0  0.00000000000E+00  0.00000000000E+00  0.70790971031E+03  0.34735365169E+04  0.34006352018E+04 0.  0.
        5    1    3    3  502    0  0.12846798954E+04 -0.67893079966E+03 -0.54798572342E+03  0.15529519978E+04  0.46999998093E+01 0. -1.
       -5    1    3    3    0  502 -0.12846798954E+04  0.67893079966E+03  0.12558954337E+04  0.19205845191E+04  0.46999998093E+01 0.  1.
</event>
<event>
 5   0  0.4973409E-08  0.3400976E+04  0.7818609E-02  0.8137667E-01
       -2   -1    0    0    0  501  0.00000000000E+00  0.00000000000E+00  0.25057991794E+04  0.25057991794E+04  0.25500000920E-02 0. -1.
        2   -1    0    0  501    0  0.00000000000E+00  0.00000000000E+00 -0.11539870362E+04  0.11539870362E+04  0.25500000920E-02 0.  1.
    10030    2    1    2    0    0  0.00000000000E+00  0.00000000000E+00  0.13518121433E+04  0.36597862156E+04  0.34009761941E+04 0.  0.
        1    1    3    3  502    0  0.97325734960E+03  0.97726189082E+03 -0.39446825795E+03  0.14345298457E+04  0.50400001928E-02 0.  1.
       -1    1    3    3    0  502 -0.97325734960E+03 -0.97726189082E+03  0.17462804012E+04  0.22252563698E+04  0.50400001928E-02 0. -1.
</event>
<event>
 5   0  0.1630571E-08  0.3397900E+04  0.7818609E-02  0.8138422E-01
       -1   -1    0    0    0  501  0.00000000000E+00  0.00000000000E+00  0.14784628217E+04  0.14784628217E+04  0.50400001928E-02 0.  1.
        1   -1    0    0  501    0  0.00000000000E+00  0.00000000000E+00 -0.19523188710E+04  0.19523188710E+04  0.50400001928E-02 0. -1.
    10030    2    1    2    0    0  0.00000000000E+00  0.00000000000E+00 -0.47385604930E+03  0.34307816926E+04  0.33978998612E+04 0.  0.
        3    1    3    3  502    0  0.54207949339E+03 -0.14503975305E+04  0.46907217203E+03  0.16178788231E+04  0.10100000352E+00 0.  1.
       -3    1    3    3    0  502 -0.54207949339E+03  0.14503975305E+04 -0.94292822133E+03  0.18129028695E+04  0.10100000352E+00 0. -1.
</event>
<event>
 5   0  0.1645631E-08  0.3401620E+04  0.7818609E-02  0.8137509E-01
        1   -1    0    0  501    0  0.00000000000E+00  0.00000000000E+00  0.26221489976E+04  0.26221489976E+04  0.50400001928E-02 0.  1.
       -1   -1    0    0    0  501  0.00000000000E+00  0.00000000000E+00 -0.11032002719E+04  0.11032002719E+04  0.50400001928E-02 0. -1.
    10030    2    1    2    0    0  0.00000000000E+00  0.00000000000E+00  0.15189487256E+04  0.37253492695E+04  0.34016204886E+04 0.  0.
        4    1    3    3  502    0 -0.14412149018E+03 -0.88936854204E+03 -0.82038290502E+03  0.12185143131E+04  0.12699999809E+01 0. -1.
       -4    1    3    3    0  502  0.14412149018E+03  0.88936854204E+03  0.23393316307E+04  0.25068349564E+04  0.12699999809E+01 0.  1.
</event>
<event>
 5   0  0.4973409E-08  0.3403528E+04  0.7818609E-02  0.8137041E-01
       -2   -1    0    0    0  501  0.00000000000E+00  0.00000000000E+00  0.19599062507E+04  0.19599062507E+04  0.25500000920E-02 0. -1.
        2   -1    0    0  501    0  0.00000000000E+00  0.00000000000E+00 -0.14776218640E+04  0.14776218640E+04  0.25500000920E-02 0.  1.
    10030    2    1    2    0    0  0.00000000000E+00  0.00000000000E+00  0.48228438667E+03  0.34375281147E+04  0.34035277742E+04 0.  0.
        1    1    3    3  502    0 -0.12411825050E+04  0.24599834735E+03  0.13904692993E+04  0.18800143802E+04  0.50400001928E-02 0. -1.
       -1    1    3    3    0  502  0.12411825050E+04 -0.24599834735E+03 -0.90818491263E+03  0.15575137345E+04  0.50400001928E-02 0.  1.
</event>
<event>
 5   0  0.4946315E-08  0.3399738E+04  0.7818609E-02  0.8137971E-01
       -2   -1    0    0    0  501  0.00000000000E+00  0.00000000000E+00  0.15103276453E+04  0.15103276453E+04  0.25500000920E-02 0. -1.
        2   -1    0    0  501    0  0.00000000000E+00  0.00000000000E+00 -0.19131970414E+04  0.19131970414E+04  0.25500000920E-02 0.  1.
    10030    2    1    2    0    0  0.00000000000E+00  0.00000000000E+00 -0.40286939608E+03  0.34235246867E+04  0.33997378620E+04 0.  0.
        3    1    3    3  502    0 -0.13726819115E+04  0.78222488059E+03 -0.83305763531E+03  0.17860897032E+04  0.10100000352E+00 0. -1.
       -3    1    3    3    0  502  0.13726819115E+04 -0.78222488059E+03  0.43018823923E+03  0.16374349835E+04  0.10100000352E+00 0.  1.
</event>
<event>
 5   0  0.4973409E-08  0.3401652E+04  0.7818609E-02  0.8137501E-01
       -2   -1    0    0    0  501  0.00000000000E+00  0.00000000000E+00  0.15576803655E+04  0.15576803655E+04  0.25500000920E-02 0.  1.
        2   -1    0    0  501    0  0.00000000000E+00  0.00000000000E+00 -0.18571261957E+04  0.18571261957E+04  0.25500000920E-02 0. -1.
    10030    2    1    2    0    0  0.00000000000E+00  0.00000000000E+00 -0.29944583020E+03  0.34148065611E+04  0.34016519582E+04 0.  0.
        1    1    3    3  502    0  0.60015655088E+03 -0.95597825877E+03 -0.14269349291E+04  0.18194025417E+04  0.50400001928E-02 0. -1.
       -1    1    3    3    0  502 -0.60015655088E+03  0.95597825877E+03  0.11274890989E+04  0.15954040194E+04  0.50400001928E-02 0.  1.
</event>
<event>
 5   0  0.4946315E-08  0.3403231E+04  0.7818609E-02  0.8137114E-01
        2   -1    0    0  501    0  0.00000000000E+00  0.00000000000E+00  0.21185515249E+04  0.21185515249E+04  0.25500000920E-02 0. -1.
       -2   -1    0    0    0  501  0.00000000000E+00  0.00000000000E+00 -0.13667336761E+04  0.13667336761E+04  0.25500000920E-02 0.  1.
    10030    2    1    2    0    0  0.00000000000E+00  0.00000000000E+00  0.75181784880E+03  0.34852852011E+04  0.34032312374E+04 0.  0.
        3    1    3    3  502    0 -0.12520520095E+04  0.13522599878E+03 -0.79604926268E+03  0.14898371536E+04  0.10100000352E+00 0.  1.
       -3    1    3    3    0  502  0.12520520095E+04 -0.13522599878E+03  0.15478671115E+04  0.19954480475E+04  0.10100000352E+00 0. -1.
</event>
<event>
 5   0  0.4764953E-08  0.3399303E+04  0.7818609E-02  0.8138077E-01
       -2   -1    0    0    0  501  0.00000000000E+00  0.00000000000E+00  0.20160230100E+04  0.20160230100E+04  0.25500000920E-02 0.  1.
        2   -1    0    0  501    0  0.00000000000E+00  0.00000000000E+00 -0.14329276683E+04  0.14329276683E+04  0.25500000920E-02 0. -1.
    10030    2    1    2    0    0  0.00000000000E+00  0.00000000000E+00  0.58309534173E+03  0.34489506783E+04  0.33993029585E+04 0.  0.
        2    1    3    3  502    0 -0.44960673611E+03 -0.15212815135E+04 -0.32758728290E+03  0.16198015583E+04  0.25500000920E-02 0. -1.
       -2    1    3    3    0  502  0.44960673611E+03  0.15212815135E+04  0.91068262463E+03  0.18291491200E+04  0.25500000920E-02 0.  1.
</event>
<event>
 5   0  0.4973409E-08  0.3398510E+04  0.7818609E-02  0.8138272E-01
       -2   -1    0    0    0  501  0.00000000000E+00  0.00000000000E+00  0.16401636440E+04  0.16401636440E+04  0.25500000920E-02 0. -1.
        2   -1    0    0  501    0  0.00000000000E+00  0.00000000000E+00 -0.17604753218E+04  0.17604753218E+04  0.25500000920E-02 0.  1.
    10030    2    1    2    0    0  0.00000000000E+00  0.00000000000E+00 -0.12031167773E+03  0.34006389658E+04  0.33985100376E+04 0.  0.
        1    1    3    3  502    0  0.10234138994E+04  0.69299171409E+03 -0.12270141566E+04  0.17416019252E+04  0.50400001928E-02 0.  1.
       -1    1    3    3    0  502 -0.10234138994E+04 -0.69299171409E+03  0.11067024789E+04  0.16590370406E+04  0.50400001928E-02 0. -1.
</event>
<event>
 5   0  0.1579536E-08  0.3399044E+04  0.7818609E-02  0.8138141E-01
        1   -1    0    0  501    0  0.00000000000E+00  0.00000000000E+00  0.22980547561E+04  0.22980547561E+04  0.50400001928E-02 0. -1.
       -1   -1    0    0    0  501  0.00000000000E+00  0.00000000000E+00 -0.12568783640E+04  0.12568783640E+04  0.50400001928E-02 0.  1.
    10030    2    1    2    0    0  0.00000000000E+00  0.00000000000E+00  0.10411763922E+04  0.35549331201E+04  0.33990441611E+04 0.  0.
        5    1    3    3  502    0 -0.80275645117E+02  0.11944124918E+04 -0.74109139135E+03  0.14079431523E+04  0.46999998093E+01 0.  1.
       -5    1    3    3    0  502  0.80275645117E+02 -0.11944124918E+04  0.17822677835E+04  0.21469899678E+04  0.46999998093E+01 0. -1.
</event>
<event>
 5   0  0.1579536E-08  0.3401078E+04  0.7818609E-02  0.8137642E-01
       -1   -1    0    0    0  501  0.00000000000E+00  0.00000000000E+00  0.23379732650E+04  0.23379732650E+04  0.50400001928E-02 0. -1.
        1   -1    0    0  501    0  0.00000000000E+00  0.00000000000E+00 -0.12368969694E+04  0.12368969694E+04  0.50400001928E-02 0.  1.
    10030    2    1    2    0    0  0.00000000000E+00  0.00000000000E+00  0.11010762956E+04  0.35748702344E+04  0.34010775034E+04 0.  0.
        5    1    3    3  502    0 -0.31156264413E+03 -0.11877367488E+02  0.23076661271E+04  0.23286385286E+04  0.46999998093E+01 0. -1.
       -5    1    3    3    0  502  0.31156264413E+03  0.11877367488E+02 -0.12065898315E+04  0.12462317058E+04  0.46999998093E+01 0.  1.
</event>
<event>
 5   0  0.4764953E-08  0.3400416E+04  0.7818609E-02  0.8137804E-01
       -2   -1    0    0    0  501  0.00000000000E+00  0.00000000000E+00  0.10134152920E+04  0.10134152920E+04  0.25500000920E-02 0.  1.
        2   -1    0    0  501    0  0.00000000000E+00  0.00000000000E+00 -0.28524416657E+04  0.28524416657E+04  0.25500000920E-02 0. -1.
    10030    2    1    2    0    0  0.00000000000E+00  0.00000000000E+00 -0.18390263737E+04  0.38658569578E+04  0.34004164473E+04 0.  0.
        2    1    3    3  502    0 -0.10166138861E+04  0.58001827981E+03 -0.23215108756E+04  0.25998726400E+04  0.25500000920E-02 0. -1.
       -2    1    3    3    0  502  0.10166138861E+04 -0.58001827981E+03  0.48248450194E+03  0.12659843178E+04  0.25500000920E-02 0.  1.
</event>
<event>
 5   0  0.1630571E-08  0.3399074E+04  0.7818609E-02  0.8138134E-01
       -1   -1    0    0    0  501  0.00000000000E+00  0.00000000000E+00  0.14271429014E+04  0.14271429014E+04  0.50400001928E-02 0.  1.
        1   -1    0    0  501    0  0.00000000000E+00  0.00000000000E+00 -0.20239223080E+04  0.20239223080E+04  0.50400001928E-02 0. -1.
    10030    2    1    2    0    0  0.00000000000E+00  0.00000000000E+00 -0.59677940657E+03  0.34510652094E+04  0.33990742004E+04 0.  0.
        3    1    3    3  502    0  0.21184100284E+03  0.17282858467E+03 -0.20014494075E+04  0.20200361559E+04  0.10100000352E+00 0. -1.
       -3    1    3    3    0  502 -0.21184100284E+03 -0.17282858467E+03  0.14046700010E+04  0.14310290535E+04  0.10100000352E+00 0.  1.
</event>
<event>
 5   0  0.1579536E-08  0.3398716E+04  0.7818609E-02  0.8138222E-01
        1   -1    0    0  501    0  0.00000000000E+00  0.00000000000E+00  0.27654136575E+04  0.27654136575E+04  0.50400001928E-02 0.  1.
       -1   -1    0    0    0  501  0.00000000000E+00  0.00000000000E+00 -0.10442623464E+04  0.10442623464E+04  0.50400001928E-02 0. -1.
    10030    2    1    2    0    0  0.00000000000E+00  0.00000000000E+00  0.17211513111E+04  0.38096760039E+04  0.33987158485E+04 0.  0.
        5    1    3    3  502    0 -0.15752095224E+04  0.23351906890E+03  0.19556040445E+03  0.16043946387E+04  0.46999998093E+01 0. -1.
       -5    1    3    3    0  502  0.15752095224E+04 -0.23351906890E+03  0.15255909067E+04  0.22052813651E+04  0.46999998093E+01 0.  1.
</event>
<event>
 5   0  0.5001197E-08  0.3400225E+04  0.7818609E-02  0.8137851E-01
        2   -1    0    0  501    0  0.00000000000E+00  0.00000000000E+00  0.25415459379E+04  0.25415459379E+04  0.25500000920E-02 0. -1.
       -2   -1    0    0    0  501  0.00000000000E+00  0.00000000000E+00 -0.11372536425E+04  0.11372536425E+04  0.25500000920E-02 0.  1.
    10030    2    1    2    0    0  0.00000000000E+00  0.00000000000E+00  0.14042922954E+04  0.36787995804E+04  0.34002249193E+04 0.  0.
        5    1    3    3  502    0  0.85000074428E+03  0.14661104233E+04  0.55546903923E+03  0.17834093703E+04  0.46999998093E+01 0. -1.
       -5    1    3    3    0  502 -0.85000074428E+03 -0.14661104233E+04  0.84882325613E+03  0.18953902101E+04  0.46999998093E+01 0.  1.
</event>
<event>
 5   0  0.4946315E-08  0.3399717E+04  0.7818609E-02  0.8137976E-01
       -2   -1    0    0    0  501  0.00000000000E+00  0.00000000000E+00  0.12889444880E+04  0.12889444880E+04  0.25500000920E-02 0. -1.
        2   -1    0    0  501    0  0.00000000000E+00  0.00000000000E+00 -0.22417716455E+04  0.22417716455E+04  0.25500000920E-02 0.  1.
    10030    2    1    2    0    0  0.00000000000E+00  0.00000000000E+00 -0.95282715752E+03  0.35307161335E+04  0.33997171682E+04 0.  0.
        3    1    3    3  502    0 -0.16709990377E+04 -0.19939949643E+03 -0.22733626044E+03  0.16981400792E+04  0.10100000352E+00 0.  1.
       -3    1    3    3    0  502  0.16709990377E+04  0.19939949643E+03 -0.72549089708E+03  0.18325760544E+04  0.10100000352E+00 0. -1.
</event>
<event>
 5   0  0.1579536E-08  0.3399717E+04  0.7818609E-02  0.8137976E-01
        1   -1    0    0  501    0  0.00000000000E+00  0.00000000000E+00  0.13186070839E+04  0.13186070839E+04  0.50400001928E-02 0. -1.
       -1   -1    0    0    0  501  0.00000000000E+00  0.00000000000E+00 -0.21913416578E+04  0.21913416578E+04  0.50400001928E-02 0.  1.
    10030    2    1    2    0    0  0.00000000000E+00  0.00000000000E+00 -0.87273457390E+03  0.35099487417E+04  0.33997168313E+04 0.  0.
        5    1    3    3  502    0  0.16985850953E+04  0.29684964652E+02 -0.37595487239E+03  0.17399530681E+04  0.46999998093E+01 0. -1.
       -5    1    3    3    0  502 -0.16985850953E+04 -0.29684964652E+02 -0.49677970151E+03  0.17699956737E+04  0.46999998093E+01 0.  1.
</event>
<event>
 5   0  0.4764953E-08  0.3399997E+04  0.7818609E-02  0.8137907E-01
        2   -1    0    0  501    0  0.00000000000E+00  0.00000000000E+00  0.12192758734E+04  0.12192758734E+04  0.25500000920E-02 0.  1.
       -2   -1    0    0    0  501  0.00000000000E+00  0.00000000000E+00 -0.23702544897E+04  0.23702544897E+04  0.25500000920E-02 0. -1.
    10030    2    1    2    0    0  0.00000000000E+00  0.00000000000E+00 -0.11509786163E+04  0.35895303631E+04  0.33999965372E+04 0.  0.
        2    1    3    3  502    0  0.13564422976E+04 -0.98632689390E+03 -0.86886051560E+03  0.18888343082E+04  0.25500000920E-02 0.  1.
       -2    1    3    3    0  502 -0.13564422976E+04  0.98632689390E+03 -0.28211810068E+03  0.17006960549E+04  0.25500000920E-02 0. -1.
</event>
<event>
 5   0  0.1625282E-08  0.3401623E+04  0.7818609E-02  0.8137508E-01
        1   -1    0    0  501    0  0.00000000000E+00  0.00000000000E+00  0.30951488054E+04  0.30951488054E+04  0.50400001928E-02 0.  1.
       -1   -1    0    0    0  501  0.00000000000E+00  0.00000000000E+00 -0.93461103347E+03  0.93461103348E+03  0.50400001928E-02 0. -1.
    10030    2    1    2    0    0  0.00000000000E+00  0.00000000000E+00  0.21605377720E+04  0.40297598389E+04  0.34016232736E+04 0.  0.
        1    1    3    3  502    0  0.57334398709E+03  0.15986962201E+04  0.97294586355E+03  0.19573391595E+04  0.50400001928E-02 0.  1.
       -1    1    3    3    0  502 -0.57334398709E+03 -0.15986962201E+04  0.11875919084E+04  0.20724206795E+04  0.50400001928E-02 0. -1.
</event>
<event>
 5   0  0.4973409E-08  0.3388961E+04  0.7818609E-02  0.8140621E-01
       -2   -1    0    0    0  501  0.00000000000E+00  0.00000000000E+00  0.14985459800E+04  0.14985459800E+04  0.25500000920E-02 0. -1.
        2   -1    0    0  501    0  0.00000000000E+00  0.00000000000E+00 -0.19160330375E+04  0.19160330375E+04  0.25500000920E-02 0.  1.
    10030    2    1    2    0    0  0.00000000000E+00  0.00000000000E+00 -0.41748705747E+03  0.34145790176E+04  0.33889606702E+04 0.  0.
        1    1    3    3  502    0  0.11350166100E+04 -0.72338339010E+03  0.82846401174E+03  0.15804742493E+04  0.50400001928E-02 0. -1.
       -1    1    3    3    0  502 -0.11350166100E+04  0.72338339010E+03 -0.12459510692E+04  0.18341047682E+04  0.50400001928E-02 0.  1.
</event>
<event>
 5   0  0.1595851E-08  0.3400038E+04  0.7818609E-02  0.8137897E-01
        1   -1    0    0  501    0  0.00000000000E+00  0.00000000000E+00  0.16762177035E+04  0.16762177035E+04  0.50400001928E-02 0.  1.
       -1   -1    0    0    0  501  0.00000000000E+00  0.00000000000E+00 -0.17241580784E+04  0.17241580784E+04  0.50400001928E-02 0. -1.
    10030    2    1    2    0    0  0.00000000000E+00  0.00000000000E+00 -0.47940374920E+02  0.34003757819E+04  0.34000378202E+04 0.  0.
        2    1    3    3  502    0  0.59697233116E+03  0.42687578721E+03  0.15096310921E+04  0.16785663335E+04  0.25500000920E-02 0.  1.
       -2    1    3    3    0  502 -0.59697233116E+03 -0.42687578721E+03 -0.15575714670E+04  0.17218094484E+04  0.25500000920E-02 0. -1.
</event>
<event>
 5   0  0.1630571E-08  0.3398977E+04  0.7818609E-02  0.8138158E-01
        1   -1    0    0  501    0  0.00000000000E+00  0.00000000000E+00  0.23805437950E+04  0.23805437950E+04  0.50400001928E-02 0.  1.
       -1   -1    0    0    0  501  0.00000000000E+00  0.00000000000E+00 -0.12132776741E+04  0.12132776741E+04  0.50400001928E-02 0. -1.
    10030    2    1    2    0    0  0.00000000000E+00  0.00000000000E+00  0.11672661208E+04  0.35938214691E+04  0.33989766923E+04 0.  0.
        3    1    3    3  502    0 -0.68170367342E+03  0.15552022915E+04  0.50972189550E+03  0.17729045341E+04  0.10100000352E+00 0. -1.
       -3    1    3    3    0  502  0.68170367342E+03 -0.15552022915E+04  0.65754422534E+03  0.18209169351E+04  0.10100000352E+00 0.  1.
</event>
<event>
 5   0  0.1579536E-08  0.3398447E+04  0.7818609E-02  0.8138288E-01
        1   -1    0    0  501    0  0.00000000000E+00  0.00000000000E+00  0.25715763274E+04  0.25715763274E+04  0.50400001928E-02 0.  1.
       -1   -1    0    0    0  501  0.00000000000E+00  0.00000000000E+00 -0.11227980569E+04  0.11227980570E+04  0.50400001928E-02 0. -1.
    10030    2    1    2    0    0  0.00000000000E+00  0.00000000000E+00  0.14487782704E+04  0.36943743843E+04  0.33984472358E+04 0.  0.
        5    1    3    3  502    0  0.88785171434E+02  0.69167816319E+03  0.24088457457E+04  0.25077602367E+04  0.46999998093E+01 0.  1.
       -5    1    3    3    0  502 -0.88785171434E+02 -0.69167816319E+03 -0.96006747533E+03  0.11866141476E+04  0.46999998093E+01 0. -1.
</event>
<event>
 5   0  0.1595851E-08  0.3401449E+04  0.7818609E-02  0.8137551E-01
        1   -1    0    0  501    0  0.00000000000E+00  0.00000000000E+00  0.20539939628E+04  0.20539939628E+04  0.50400001928E-02 0. -1.
       -1   -1    0    0    0  501  0.00000000000E+00  0.00000000000E+00 -0.14082143841E+04  0.14082143841E+04  0.50400001928E-02 0.  1.
    10030    2    1    2    0    0  0.00000000000E+00  0.00000000000E+00  0.64577957869E+03  0.34622083469E+04  0.34014490108E+04 0.  0.
        2    1    3    3  502    0 -0.82343230822E+03  0.77908940735E+03  0.16133867740E+04  0.19718108310E+04  0.25500000920E-02 0. -1.
       -2    1    3    3    0  502  0.82343230822E+03 -0.77908940735E+03 -0.96760719532E+03  0.14903975159E+04  0.25500000920E-02 0.  1.
</event>
<event>
 5   0  0.4775023E-08  0.3399801E+04  0.7818609E-02  0.8137955E-01
        2   -1    0    0  501    0  0.00000000000E+00  0.00000000000E+00  0.21245243906E+04  0.21245243906E+04  0.25500000920E-02 0.  1.
       -2   -1    0    0    0  501  0.00000000000E+00  0.00000000000E+00 -0.13601454113E+04  0.13601454113E+04  0.25500000920E-02 0. -1.
    10030    2    1    2    0    0  0.00000000000E+00  0.00000000000E+00  0.76437897927E+03  0.34846698019E+04  0.33998012301E+04 0.  0.
        4    1    3    3  502    0  0.67797860979E+02 -0.39748525438E+03  0.20747967564E+04  0.21136163963E+04  0.12699999809E+01 0.  1.
       -4    1    3    3    0  502 -0.67797860979E+02  0.39748525438E+03 -0.13104177771E+04  0.13710534056E+04  0.12699999809E+01 0. -1.
</event>
<event>
 5   0  0.1645631E-08  0.3393597E+04  0.7818609E-02  0.8139480E-01
       -1   -1    0    0    0  501  0.00000000000E+00  0.00000000000E+00  0.12510622559E+04  0.12510622559E+04  0.50400001928E-02 0. -1.
        1   -1    0    0  501    0  0.00000000000E+00  0.00000000000E+00 -0.23013441409E+04  0.23013441409E+04  0.50400001928E-02 0.  1.
    10030    2    1    2    0    0  0.00000000000E+00  0.00000000000E+00 -0.10502818850E+04  0.35524063968E+04  0.33935967896E+04 0.  0.
        4    1    3    3  502    0  0.27409808434E+03  0.61133951134E+03  0.11067402686E+04  0.12937315769E+04  0.12699999809E+01 0. -1.
       -4    1    3    3    0  502 -0.27409808434E+03 -0.61133951134E+03 -0.21570221536E+04  0.22586748199E+04  0.12699999809E+01 0.  1.
</event>
<event>
 5   0  0.1579536E-08  0.3397884E+04  0.7818609E-02  0.8138426E-01
        1   -1    0    0  501    0  0.00000000000E+00  0.00000000000E+00  0.27566765279E+04  0.27566765279E+04  0.50400001928E-02 0.  1.
       -1   -1    0    0    0  501  0.00000000000E+00  0.00000000000E+00 -0.10470595676E+04  0.10470595676E+04  0.50400001928E-02 0. -1.
    10030    2    1    2    0    0  0.00000000000E+00  0.00000000000E+00  0.17096169603E+04  0.38037360956E+04  0.33978843614E+04 0.  0.
        5    1    3    3  502    0 -0.75698291445E+03  0.11041329524E+04 -0.31619991347E+03  0.13755497754E+04  0.46999998093E+01 0. -1.
       -5    1    3    3    0  502  0.75698291445E+03 -0.11041329524E+04  0.20258168738E+04  0.24281863202E+04  0.46999998093E+01 0.  1.
</event>
<event>
 5   0  0.1595851E-08  0.3401249E+04  0.7818609E-02  0.8137600E-01
       -1   -1    0    0    0  501  0.00000000000E+00  0.00000000000E+00  0.97006707906E+03  0.97006707907E+03  0.50400001928E-02 0.  1.
        1   -1    0    0  501    0  0.00000000000E+00  0.00000000000E+00 -0.29813645524E+04  0.29813645524E+04  0.50400001928E-02 0. -1.
    10030    2    1    2    0    0  0.00000000000E+00  0.00000000000E+00 -0.20112974734E+04  0.39514316315E+04  0.34012489489E+04 0.  0.
        2    1    3    3  502    0 -0.76580159314E+03 -0.13796988673E+04 -0.17423382195E+04  0.23506942624E+04  0.25500000920E-02 0. -1.
       -2    1    3    3    0  502  0.76580159314E+03  0.13796988673E+04 -0.26895925391E+03  0.16007373691E+04  0.25500000920E-02 0.  1.
</event>
<event>
 5   0  0.4973409E-08  0.3400029E+04  0.7818609E-02  0.8137899E-01
       -2   -1    0    0    0  501  0.00000000000E+00  0.00000000000E+00  0.22518552893E+04  0.22518552893E+04  0.25500000920E-02 0. -1.
        2   -1    0    0  501    0  0.00000000000E+00  0.00000000000E+00 -0.12834081208E+04  0.12834081208E+04  0.25500000920E-02 0.  1.
    10030    2    1    2    0    0  0.00000000000E+00  0.00000000000E+00  0.96844716858E+03  0.35352634101E+04  0.34000290382E+04 0.  0.
        1    1    3    3  502    0  0.56504779078E+03 -0.14686507777E+04 -0.18466362877E+03  0.15843972887E+04  0.50400001928E-02 0.  1.
       -1    1    3    3    0  502 -0.56504779078E+03  0.14686507777E+04  0.11531107974E+04  0.19508661214E+04  0.50400001928E-02 0. -1.
</event>
<event>
 5   0  0.4946315E-08  0.3398549E+04  0.7818609E-02  0.8138263E-01
        2   -1    0    0  501    0  0.00000000000E+00  0.00000000000E+00  0.16073276816E+04  0.16073276816E+04  0.25500000920E-02 0.  1.
       -2   -1    0    0    0  501  0.00000000000E+00  0.00000000000E+00 -0.17964806818E+04  0.17964806818E+04  0.25500000920E-02 0. -1.
    10030    2    1    2    0    0  0.00000000000E+00  0.00000000000E+00 -0.18915300021E+03  0.34038083634E+04  0.33985485898E+04 0.  0.
        3    1    3    3  502    0 -0.10207196129E+04 -0.13799931296E+03  0.12590405453E+04  0.16266823425E+04  0.10100000352E+00 0.  1.
       -3    1    3    3    0  502  0.10207196129E+04  0.13799931296E+03 -0.14481935455E+04  0.17771260209E+04  0.10100000352E+00 0. -1.
</event>
<event>
 5   0  0.4946315E-08  0.3400019E+04  0.7818609E-02  0.8137902E-01
       -2   -1    0    0    0  501  0.00000000000E+00  0.00000000000E+00  0.27806615417E+04  0.27806615417E+04  0.25500000920E-02 0.  1.
        2   -1    0    0  501    0  0.00000000000E+00  0.00000000000E+00 -0.10393327476E+04  0.10393327476E+04  0.25500000920E-02 0. -1.
    10030    2    1    2    0    0  0.00000000000E+00  0.00000000000E+00  0.17413287940E+04  0.38199942893E+04  0.34000191766E+04 0.  0.
        3    1    3    3  502    0  0.89815342376E+03  0.14403317347E+04  0.76528365015E+03  0.18619597616E+04  0.10100000352E+00 0.  1.
       -3    1    3    3    0  502 -0.89815342376E+03 -0.14403317347E+04  0.97604514388E+03  0.19580345277E+04  0.10100000352E+00 0. -1.
</event>
<event>
 5   0  0.1645631E-08  0.3399971E+04  0.7818609E-02  0.8137914E-01
        1   -1    0    0  501    0  0.00000000000E+00  0.00000000000E+00  0.17622817871E+04  0.17622817871E+04  0.50400001928E-02 0.  1.
       -1   -1    0    0    0  501  0.00000000000E+00  0.00000000000E+00 -0.16398909797E+04  0.16398909797E+04  0.50400001928E-02 0. -1.
    10030    2    1    2    0    0  0.00000000000E+00  0.00000000000E+00  0.12239080741E+03  0.34021727668E+04  0.33999705919E+04 0.  0.
        4    1    3    3  502    0  0.88082694120E+03  0.66881234691E+03 -0.12306800549E+04  0.16546120591E+04  0.12699999809E+01 0. -1.
       -4    1    3    3    0  502 -0.88082694120E+03 -0.66881234691E+03  0.13530708623E+04  0.17475607077E+04  0.12699999809E+01 0.  1.
</event>
<event>
 5   0  0.4973409E-08  0.3400964E+04  0.7818609E-02  0.8137670E-01
       -2   -1    0    0    0  501  0.00000000000E+00  0.00000000000E+00  0.16845785448E+04  0.16845785448E+04  0.25500000920E-02 0. -1.
        2   -1    0    0  501    0  0.00000000000E+00  0.00000000000E+00 -0.17165355855E+04  0.17165355855E+04  0.25500000920E-02 0.  1.
    10030    2    1    2    0    0  0.00000000000E+00  0.00000000000E+00 -0.31957040672E+02  0.34011141303E+04  0.34009639920E+04 0.  0.
        1    1    3    3  502    0  0.13291384692E+04 -0.88467794174E+03  0.56917540567E+03  0.16950589292E+04  0.50400001928E-02 0. -1.
       -1    1    3    3    0  502 -0.13291384692E+04  0.88467794174E+03 -0.60113244635E+03  0.17060552011E+04  0.50400001928E-02 0.  1.
</event>
<event>
 5   0  0.1595851E-08  0.3401290E+04  0.7818609E-02  0.8137590E-01
        1   -1    0    0  501    0  0.00000000000E+00  0.00000000000E+00  0.14399935156E+04  0.14399935156E+04  0.50400001928E-02 0. -1.
       -1   -1    0    0    0  501  0.00000000000E+00  0.00000000000E+00 -0.20084764407E+04  0.20084764407E+04  0.50400001928E-02 0.  1.
    10030    2    1    2    0    0  0.00000000000E+00  0.00000000000E+00 -0.56848292513E+03  0.34484699563E+04  0.34012897853E+04 0.  0.
        2    1    3    3  502    0  0.69057479646E+03  0.13267473212E+04 -0.11048141726E+04  0.18595070206E+04  0.25500000920E-02 0.  1.
       -2    1    3    3    0  502 -0.69057479646E+03 -0.13267473212E+04  0.53633124744E+03  0.15889629357E+04  0.25500000920E-02 0. -1.
</event>
<event>
 5   0  0.1625282E-08  0.3401319E+04  0.7818609E-02  0.8137583E-01
       -1   -1    0    0    0  501  0.00000000000E+00  0.00000000000E+00  0.10963423187E+04  0.10963423187E+04  0.50400001928E-02 0. -1.
        1   -1    0    0  501    0  0.00000000000E+00  0.00000000000E+00 -0.26380838182E+04  0.26380838182E+04  0.50400001928E-02 0.  1.
    10030    2    1    2    0    0  0.00000000000E+00  0.00000000000E+00 -0.15417414995E+04  0.37344261368E+04  0.34013191147E+04 0.  0.
        1    1    3    3  502    0  0.57060204634E+03 -0.79568304583E+03 -0.22975703974E+04  0.24975043415E+04  0.50400001928E-02 0.  1.
       -1    1    3    3    0  502 -0.57060204634E+03  0.79568304583E+03  0.75582889794E+03  0.12369217953E+04  0.50400001928E-02 0. -1.
</event>
<event>
 5   0  0.1579536E-08  0.3401512E+04  0.7818609E-02  0.8137535E-01
       -1   -1    0    0    0  501  0.00000000000E+00  0.00000000000E+00  0.11058685969E+04  0.11058685970E+04  0.50400001928E-02 0.  1.
        1   -1    0    0  501    0  0.00000000000E+00  0.00000000000E+00 -0.26156559329E+04  0.26156559329E+04  0.50400001928E-02 0. -1.
    10030    2    1    2    0    0  0.00000000000E+00  0.00000000000E+00 -0.15097873359E+04  0.37215245298E+04  0.34015124616E+04 0.  0.
        5    1    3    3  502    0  0.79560351540E+02  0.16961523816E+04 -0.86032861158E+03  0.19035362253E+04  0.46999998093E+01 0. -1.
       -5    1    3    3    0  502 -0.79560351540E+02 -0.16961523816E+04 -0.64945872436E+03  0.18179883046E+04  0.46999998093E+01 0.  1.
</event>
<event>
 5   0  0.4764953E-08  0.3399800E+04  0.7818609E-02  0.8137955E-01
       -2   -1    0    0    0  501  0.00000000000E+00  0.00000000000E+00  0.12966986815E+04  0.12966986815E+04  0.25500000920E-02 0.  1.
        2   -1    0    0  501    0  0.00000000000E+00  0.00000000000E+00 -0.22284747903E+04  0.22284747903E+04  0.25500000920E-02 0. -1.
    10030    2    1    2    0    0  0.00000000000E+00  0.00000000000E+00 -0.93177610884E+03  0.35251734718E+04  0.33998001837E+04 0.  0.
        2    1    3    3  502    0 -0.75501432435E+03 -0.14437151557E+04  0.37077550212E+02  0.16296425453E+04  0.25500000920E-02 0. -1.
       -2    1    3    3    0  502  0.75501432435E+03  0.14437151557E+04 -0.96885365905E+03  0.18955309265E+04  0.25500000920E-02 0.  1.
</event>
<event>
 5   0  0.4775023E-08  0.3398384E+04  0.7818609E-02  0.8138303E-01
        2   -1    0    0  501    0  0.00000000000E+00  0.00000000000E+00  0.31513033201E+04  0.31513033201E+04  0.25500000920E-02 0. -1.
       -2   -1    0    0    0  501  0.00000000000E+00  0.00000000000E+00 -0.91620923693E+03  0.91620923693E+03  0.25500000920E-02 0.  1.
    10030    2    1    2    0    0  0.00000000000E+00  0.00000000000E+00  0.22350940832E+04  0.40675125571E+04  0.33983838572E+04 0.  0.
        4    1    3    3  502    0  0.16696769343E+04 -0.24398456557E+03  0.13566330448E+04  0.21651337982E+04  0.12699999809E+01 0. -1.
       -4    1    3    3    0  502 -0.16696769343E+04  0.24398456557E+03  0.87846103839E+03  0.19023787588E+04  0.12699999809E+01 0.  1.
</event>
<event>
 5   0  0.4946315E-08  0.3399786E+04  0.7818609E-02  0.8137959E-01
       -2   -1    0    0    0  501  0.00000000000E+00  0.00000000000E+00  0.14606670185E+04  0.14606670185E+04  0.25500000920E-02 0. -1.
        2   -1    0    0  501    0  0.00000000000E+00  0.00000000000E+00 -0.19782988222E+04  0.19782988222E+04  0.25500000920E-02 0.  1.
    10030    2    1    2    0    0  0.00000000000E+00  0.00000000000E+00 -0.51763180374E+03  0.34389658407E+04  0.33997857829E+04 0.  0.
        3    1    3    3  502    0 -0.42302269772E+03 -0.92223926568E+03  0.11207794911E+04  0.15118267572E+04  0.10100000352E+00 0. -1.
       -3    1    3    3    0  502  0.42302269772E+03  0.92223926568E+03 -0.16384112948E+04  0.19271390835E+04  0.10100000352E+00 0.  1.
</event>
<event>
 5   0  0.1573625E-08  0.3397227E+04  0.7818609E-02  0.8138587E-01
        3   -1    0    0  501    0  0.00000000000E+00  0.00000000000E+00  0.15010059409E+04  0.15010059443E+04  0.10100000352E+00 0. -1.
       -3   -1    0    0    0  501  0.00000000000E+00  0.00000000000E+00 -0.19222360112E+04  0.19222360139E+04  0.10100000352E+00 0.  1.
    10030    2    1    2    0    0  0.00000000000E+00  0.00000000000E+00 -0.42123007028E+03  0.34232419582E+04  0.33972269180E+04 0.  0.
        5    1    3    3  502    0  0.16767286167E+04  0.21335883013E+03 -0.41026662908E+02  0.16907531226E+04  0.46999998093E+01 0.  1.
       -5    1    3    3    0  502 -0.16767286167E+04 -0.21335883013E+03 -0.38020340737E+03  0.17324888356E+04  0.46999998093E+01 0. -1.
</event>
<event>
 5   0  0.1595851E-08  0.3402002E+04  0.7818609E-02  0.8137415E-01
       -1   -1    0    0    0  501  0.00000000000E+00  0.00000000000E+00  0.16445655251E+04  0.16445655251E+04  0.50400001928E-02 0.  1.
        1   -1    0    0  501    0  0.00000000000E+00  0.00000000000E+00 -0.17593731167E+04  0.17593731167E+04  0.50400001928E-02 0. -1.
    10030    2    1    2    0    0  0.00000000000E+00  0.00000000000E+00 -0.11480759157E+03  0.34039386418E+04  0.34020019833E+04 0.  0.
        2    1    3    3  502    0  0.14659000576E+04  0.76884823476E+03  0.33449989657E+03  0.16887512451E+04  0.25500000920E-02 0. -1.
       -2    1    3    3    0  502 -0.14659000576E+04 -0.76884823476E+03 -0.44930748814E+03  0.17151873967E+04  0.25500000920E-02 0.  1.
</event>
<event>
 5   0  0.4775023E-08  0.3399751E+04  0.7818609E-02  0.8137967E-01
        2   -1    0    0  501    0  0.00000000000E+00  0.00000000000E+00  0.32686095490E+04  0.32686095491E+04  0.25500000920E-02 0.  1.
       -2   -1    0    0    0  501  0.00000000000E+00  0.00000000000E+00 -0.88403851042E+03  0.88403851042E+03  0.25500000920E-02 0. -1.
    10030    2    1    2    0    0  0.00000000000E+00  0.00000000000E+00  0.23845710386E+04  0.41526480595E+04  0.33997510008E+04 0.  0.
        4    1    3    3  502    0  0.45946609486E+03  0.11030894398E+04 -0.28444466507E+03  0.12283426985E+04  0.12699999809E+01 0. -1.
       -4    1    3    3    0  502 -0.45946609486E+03 -0.11030894398E+04  0.26690157037E+04  0.29243053610E+04  0.12699999809E+01 0.  1.
</event>
<event>
 5   0  0.4973409E-08  0.3401421E+04  0.7818609E-02  0.8137558E-01
        2   -1    0    0  501    0  0.00000000000E+00  0.00000000000E+00  0.22254154511E+04  0.22254154511E+04  0.25500000920E-02 0. -1.
       -2   -1    0    0    0  501  0.00000000000E+00  0.00000000000E+00 -0.12997192942E+04  0.12997192942E+04  0.25500000920E-02 0.  1.
    10030    2    1    2    0    0  0.00000000000E+00  0.00000000000E+00  0.92569615690E+03  0.35251347453E+04  0.34014205264E+04 0.  0.
        1    1    3    3  502    0 -0.84827725283E+03  0.39620714185E+03  0.19342986759E+04  0.21489685350E+04  0.50400001928E-02 0. -1.
       -1    1    3    3    0  502  0.84827725283E+03 -0.39620714185E+03 -0.10086025190E+04  0.13761662103E+04  0.50400001928E-02 0.  1.
</event>
<event>
 5   0  0.1625282E-08  0.3401898E+04  0.7818609E-02  0.8137441E-01
        1   -1    0    0  501    0  0.00000000000E+00  0.00000000000E+00  0.17596065800E+04  0.17596065800E+04  0.50400001928E-02 0.  1.
       -1   -1    0    0    0  501  0.00000000000E+00  0.00000000000E+00 -0.16442471596E+04  0.16442471596E+04  0.50400001928E-02 0. -1.
    10030    2    1    2    0    0  0.00000000000E+00  0.00000000000E+00  0.11535942042E+03  0.34038537395E+04  0.34018983648E+04 0.  0.
        1    1    3    3  502    0  0.93888623709E+03  0.92382853343E+03 -0.10191645177E+04  0.16654317276E+04  0.50400001928E-02 0. -1.
       -1    1    3    3    0  502 -0.93888623709E+03 -0.92382853343E+03  0.11345239381E+04  0.17384220119E+04  0.50400001928E-02 0.  1.
</event>
<event>
 5   0  0.1579536E-08  0.3399015E+04  0.7818609E-02  0.8138148E-01
        1   -1    0    0  501    0  0.00000000000E+00  0.00000000000E+00  0.19925665861E+04  0.19925665861E+04  0.50400001928E-02 0. -1.
       -1   -1    0    0    0  501  0.00000000000E+00  0.00000000000E+00 -0.14495504275E+04  0.14495504275E+04  0.50400001928E-02 0.  1.
    10030    2    1    2    0    0  0.00000000000E+00  0.00000000000E+00  0.54301615862E+03  0.34421170137E+04  0.33990150025E+04 0.  0.
        5    1    3    3  502    0  0.13922684727E+04 -0.80182060246E+03 -0.28957177259E+03  0.16325445415E+04  0.46999998093E+01 0.  1.
       -5    1    3    3    0  502 -0.13922684727E+04  0.80182060246E+03  0.83258793121E+03  0.18095724721E+04  0.46999998093E+01 0. -1.
</event>
<event>
 5   0  0.5001197E-08  0.3400272E+04  0.7818609E-02  0.8137840E-01
        2   -1    0    0  501    0  0.00000000000E+00  0.00000000000E+00  0.28437645310E+04  0.28437645310E+04  0.25500000920E-02 0.  1.
       -2   -1    0    0    0  501  0.00000000000E+00  0.00000000000E+00 -0.10164210126E+04  0.10164210126E+04  0.25500000920E-02 0. -1.
    10030    2    1    2    0    0  0.00000000000E+00  0.00000000000E+00  0.18273435184E+04  0.38601855436E+04  0.34002717681E+04 0.  0.
        5    1    3    3  502    0  0.59150609549E+02 -0.88080664336E+03 -0.73582357858E+03  0.11492508718E+04  0.46999998093E+01 0. -1.
       -5    1    3    3    0  502 -0.59150609549E+02  0.88080664336E+03  0.25631670970E+04  0.27109346717E+04  0.46999998093E+01 0.  1.
</event>
<event>
 5   0  0.5001197E-08  0.3399941E+04  0.7818609E-02  0.8137921E-01
        2   -1    0    0  501    0  0.00000000000E+00  0.00000000000E+00  0.26577836733E+04  0.26577836733E+04  0.25500000920E-02 0. -1.
       -2   -1    0    0    0  501  0.00000000000E+00  0.00000000000E+00 -0.10873345824E+04  0.10873345824E+04  0.25500000920E-02 0.  1.
    10030    2    1    2    0    0  0.00000000000E+00  0.00000000000E+00  0.15704490909E+04  0.37451182557E+04  0.33999412350E+04 0.  0.
        5    1    3    3  502    0 -0.92344359750E+03  0.13083458949E+04  0.15691039621E+03  0.16090867040E+04  0.46999998093E+01 0.  1.
       -5    1    3    3    0  502  0.92344359750E+03 -0.13083458949E+04  0.14135386947E+04  0.21360315517E+04  0.46999998093E+01 0. -1.
</event>
<event>
 5   0  0.5001197E-08  0.3397975E+04  0.7818609E-02  0.8138404E-01
        2   -1    0    0  501    0  0.00000000000E+00  0.00000000000E+00  0.18986739504E+04  0.18986739504E+04  0.25500000920E-02 0. -1.
       -2   -1    0    0    0  501  0.00000000000E+00  0.00000000000E+00 -0.15203020512E+04  0.15203020512E+04  0.25500000920E-02 0.  1.
    10030    2    1    2    0    0  0.00000000000E+00  0.00000000000E+00  0.37837189918E+03  0.34189760015E+04  0.33979746328E+04 0.  0.
        5    1    3    3  502    0 -0.14566125651E+04 -0.46330965307E+02  0.10678927596E+04  0.18067328964E+04  0.46999998093E+01 0. -1.
       -5    1    3    3    0  502  0.14566125651E+04  0.46330965307E+02 -0.68952086038E+03  0.16122431051E+04  0.46999998093E+01 0.  1.
</event>
<event>
 5   0  0.4775023E-08  0.3391204E+04  0.7818609E-02  0.8140069E-01
        2   -1    0    0  501    0  0.00000000000E+00  0.00000000000E+00  0.16808627887E+04  0.16808627887E+04  0.25500000920E-02 0.  1.
       -2   -1    0    0    0  501  0.00000000000E+00  0.00000000000E+00 -0.17104704273E+04  0.17104704273E+04  0.25500000920E-02 0. -1.
    10030    2    1    2    0    0  0.00000000000E+00  0.00000000000E+00 -0.29607638549E+02  0.33913332160E+04  0.33912039706E+04 0.  0.
        4    1    3    3  502    0  0.15896605026E+04 -0.54989362406E+03  0.19888859703E+03  0.16938009913E+04  0.12699999809E+01 0.  1.
       -4    1    3    3    0  502 -0.15896605026E+04  0.54989362406E+03 -0.22849623558E+03  0.16975322247E+04  0.12699999809E+01 0. -1.
</event>
<event>
 5   0  0.4775023E-08  0.3399148E+04  0.7818609E-02  0.8138115E-01
       -2   -1    0    0    0  501  0.00000000000E+00  0.00000000000E+00  0.15284238046E+04  0.15284238046E+04  0.25500000920E-02 0.  1.
        2   -1    0    0  501    0  0.00000000000E+00  0.00000000000E+00 -0.18898897231E+04  0.18898897231E+04  0.25500000920E-02 0. -1.
    10030    2    1    2    0    0  0.00000000000E+00  0.00000000000E+00 -0.36146591854E+03  0.34183135278E+04  0.33991483880E+04 0.  0.
        4    1    3    3  502    0  0.36208816410E+03  0.93352218795E+03  0.12003196804E+04  0.15631188253E+04  0.12699999809E+01 0.  1.
       -4    1    3    3    0  502 -0.36208816410E+03 -0.93352218795E+03 -0.15617855989E+04  0.18551947024E+04  0.12699999809E+01 0. -1.
</event>
<event>
 5   0  0.1579536E-08  0.3400737E+04  0.7818609E-02  0.8137725E-01
       -1   -1    0    0    0  501  0.00000000000E+00  0.00000000000E+00  0.15458362003E+04  0.15458362003E+04  0.50400001928E-02 0. -1.
        1   -1    0    0  501    0  0.00000000000E+00  0.00000000000E+00 -0.18703489050E+04  0.18703489050E+04  0.50400001928E-02 0.  1.
    10030    2    1    2    0    0  0.00000000000E+00  0.00000000000E+00 -0.32451270474E+03  0.34161851053E+04  0.34007370052E+04 0.  0.
        5    1    3    3  502    0  0.65727310191E+03 -0.43720540222E+03  0.13505975913E+04  0.15643824462E+04  0.46999998093E+01 0. -1.
       -5    1    3    3    0  502 -0.65727310191E+03  0.43720540222E+03 -0.16751102961E+04  0.18518026591E+04  0.46999998093E+01 0.  1.
</event>
<event>
 5   0  0.4946315E-08  0.3398391E+04  0.7818609E-02  0.8138301E-01
        2   -1    0    0  501    0  0.00000000000E+00  0.00000000000E+00  0.22420405642E+04  0.22420405642E+04  0.25500000920E-02 0.  1.
       -2   -1    0    0    0  501  0.00000000000E+00  0.00000000000E+00 -0.12877842607E+04  0.12877842607E+04  0.25500000920E-02 0. -1.
    10030    2    1    2    0    0  0.00000000000E+00  0.00000000000E+00  0.95425630350E+03  0.35298248249E+04  0.33983905311E+04 0.  0.
        3    1    3    3  502    0  0.61178083756E+03  0.82429928476E+03  0.18835727428E+04  0.21451320219E+04  0.10100000352E+00 0.  1.
       -3    1    3    3    0  502 -0.61178083756E+03 -0.82429928476E+03 -0.92931643925E+03  0.13846928029E+04  0.10100000352E+00 0. -1.
</event>
<event>
 5   0  0.4764953E-08  0.3398013E+04  0.7818609E-02  0.8138394E-01
        2   -1    0    0  501    0  0.00000000000E+00  0.00000000000E+00  0.18127885276E+04  0.18127885276E+04  0.25500000920E-02 0. -1.
       -2   -1    0    0    0  501  0.00000000000E+00  0.00000000000E+00 -0.15923660815E+04  0.15923660815E+04  0.25500000920E-02 0.  1.
    10030    2    1    2    0    0  0.00000000000E+00  0.00000000000E+00  0.22042244615E+03  0.34051546091E+04  0.33980129278E+04 0.  0.
        2    1    3    3  502    0  0.69766086202E+03  0.15473656246E+04  0.35543482528E+02  0.16977439129E+04  0.25500000920E-02 0.  1.
       -2    1    3    3    0  502 -0.69766086202E+03 -0.15473656246E+04  0.18487896362E+03  0.17074106963E+04  0.25500000920E-02 0. -1.
</event>
<event>
 5   0  0.1630571E-08  0.3401543E+04  0.7818609E-02  0.8137528E-01
       -1   -1    0    0    0  501  0.00000000000E+00  0.00000000000E+00  0.15987483013E+04  0.15987483014E+04  0.50400001928E-02 0. -1.
        1   -1    0    0  501    0  0.00000000000E+00  0.00000000000E+00 -0.18093055057E+04  0.18093055057E+04  0.50400001928E-02 0.  1.
    10030    2    1    2    0    0  0.00000000000E+00  0.00000000000E+00 -0.21055720434E+03  0.34080538071E+04  0.34015432403E+04 0.  0.
        3    1    3    3  502    0  0.12394261195E+04 -0.47641474194E+03 -0.11700808195E+04  0.17698127716E+04  0.10100000352E+00 0.  1.
       -3    1    3    3    0  502 -0.12394261195E+04  0.47641474194E+03  0.95952361517E+03  0.16382410355E+04  0.10100000352E+00 0. -1.
</event>
<event>
 5   0  0.5001197E-08  0.3402136E+04  0.7818609E-02  0.8137382E-01
        2   -1    0    0  501    0  0.00000000000E+00  0.00000000000E+00  0.20857547960E+04  0.20857547960E+04  0.25500000920E-02 0. -1.
       -2   -1    0    0    0  501  0.00000000000E+00  0.00000000000E+00 -0.13873307527E+04  0.13873307527E+04  0.25500000920E-02 0.  1.
    10030    2    1    2    0    0  0.00000000000E+00  0.00000000000E+00  0.69842404336E+03  0.34730855487E+04  0.34021356652E+04 0.  0.
        5    1    3    3  502    0  0.42843667469E+03  0.15495782428E+04  0.91655274759E+03  0.18506327955E+04  0.46999998093E+01 0.  1.
       -5    1    3    3    0  502 -0.42843667469E+03 -0.15495782428E+04 -0.21812870423E+03  0.16224527532E+04  0.46999998093E+01 0. -1.
</event>
<event>
 5   0  0.4764953E-08  0.3401287E+04  0.7818609E-02  0.8137591E-01
       -2   -1    0    0    0  501  0.00000000000E+00  0.00000000000E+00  0.12321787297E+04  0.12321787297E+04  0.25500000920E-02 0.  1.
        2   -1    0    0  501    0  0.00000000000E+00  0.00000000000E+00 -0.23472149555E+04  0.23472149555E+04  0.25500000920E-02 0. -1.
    10030    2    1    2    0    0  0.00000000000E+00  0.00000000000E+00 -0.11150362259E+04  0.35793936852E+04  0.34012870165E+04 0.  0.
        2    1    3    3  502    0 -0.27512525586E+03  0.54057939817E+03  0.11144729330E+04  0.12688458970E+04  0.25500000920E-02 0.  1.
       -2    1    3    3    0  502  0.27512525586E+03 -0.54057939817E+03 -0.22295091588E+04  0.23105477882E+04  0.25500000920E-02 0. -1.
</event>
<event>
 5   0  0.1625282E-08  0.3399648E+04  0.7818609E-02  0.8137993E-01
        1   -1    0    0  501    0  0.00000000000E+00  0.00000000000E+00  0.15967278731E+04  0.15967278731E+04  0.50400001928E-02 0.  1.
       -1   -1    0    0    0  501  0.00000000000E+00  0.00000000000E+00 -0.18095770341E+04  0.18095770341E+04  0.50400001928E-02 0. -1.
    10030    2    1    2    0    0  0.00000000000E+00  0.00000000000E+00 -0.21284916099E+03  0.34063049072E+04  0.33996482694E+04 0.  0.
        1    1    3    3  502    0 -0.15613242905E+04 -0.15700417027E+03  0.54832125707E+03  0.16622394684E+04  0.50400001928E-02 0.  1.
       -1    1    3    3    0  502  0.15613242905E+04  0.15700417027E+03 -0.76117041807E+03  0.17440654388E+04  0.50400001928E-02 0. -1.
</event>
<event>
 5   0  0.5001197E-08  0.3401235E+04  0.7818609E-02  0.8137603E-01
        2   -1    0    0  501    0  0.00000000000E+00  0.00000000000E+00  0.23746470834E+04  0.23746470834E+04  0.25500000920E-02 0.  1.
       -2   -1    0    0    0  501  0.00000000000E+00  0.00000000000E+00 -0.12179074524E+04  0.12179074524E+04  0.25500000920E-02 0. -1.
    10030    2    1    2    0    0  0.00000000000E+00  0.00000000000E+00  0.11567396309E+04  0.35925545358E+04  0.34012352931E+04 0.  0.
        5    1    3    3  502    0 -0.14720363475E+04  0.69208582115E+03  0.11024704478E+04  0.19650284910E+04  0.46999998093E+01 0.  1.
       -5    1    3    3    0  502  0.14720363475E+04 -0.69208582115E+03  0.54269183088E+02  0.16275260448E+04  0.46999998093E+01 0. -1.
</event>
<event>
 5   0  0.5001197E-08  0.3398716E+04  0.7818609E-02  0.8138222E-01
       -2   -1    0    0    0  501  0.00000000000E+00  0.00000000000E+00  0.17285539748E+04  0.17285539748E+04  0.25500000920E-02 0.  1.
        2   -1    0    0  501    0  0.00000000000E+00  0.00000000000E+00 -0.16706551445E+04  0.16706551445E+04  0.25500000920E-02 0. -1.
    10030    2    1    2    0    0  0.00000000000E+00  0.00000000000E+00  0.57898830354E+02  0.33992091193E+04  0.33987159872E+04 0.  0.
        5    1    3    3  502    0  0.29773010517E+03  0.47217172683E+03  0.16342387292E+04  0.17269475004E+04  0.46999998093E+01 0.  1.
       -5    1    3    3    0  502 -0.29773010517E+03 -0.47217172683E+03 -0.15763398989E+04  0.16722616188E+04  0.46999998093E+01 0. -1.
</event>
<event>
 5   0  0.4946315E-08  0.3400139E+04  0.7818609E-02  0.8137872E-01
       -2   -1    0    0    0  501  0.00000000000E+00  0.00000000000E+00  0.12659035919E+04  0.12659035919E+04  0.25500000920E-02 0.  1.
        2   -1    0    0  501    0  0.00000000000E+00  0.00000000000E+00 -0.22831403488E+04  0.22831403488E+04  0.25500000920E-02 0. -1.
    10030    2    1    2    0    0  0.00000000000E+00  0.00000000000E+00 -0.10172367569E+04  0.35490439407E+04  0.34001385669E+04 0.  0.
        3    1    3    3  502    0  0.68044323382E+03 -0.15248410618E+04 -0.17510654019E+03  0.16789298880E+04  0.10100000352E+00 0.  1.
       -3    1    3    3    0  502 -0.68044323382E+03  0.15248410618E+04 -0.84213021669E+03  0.18701140527E+04  0.10100000352E+00 0. -1.
</event>
<event>
 5   0  0.1595851E-08  0.3400588E+04  0.7818609E-02  0.8137762E-01
       -1   -1    0    0    0  501  0.00000000000E+00  0.00000000000E+00  0.14287641850E+04  0.14287641850E+04  0.50400001928E-02 0.  1.
        1   -1    0    0  501    0  0.00000000000E+00  0.00000000000E+00 -0.20234263119E+04  0.20234263119E+04  0.50400001928E-02 0. -1.
    10030    2    1    2    0    0  0.00000000000E+00  0.00000000000E+00 -0.59466212693E+03  0.34521904969E+04  0.34005876230E+04 0.  0.
        2    1    3    3  502    0 -0.13748959016E+04  0.95711678948E+03 -0.20779156951E+01  0.16752359854E+04  0.25500000920E-02 0. -1.
       -2    1    3    3    0  502  0.13748959016E+04 -0.95711678948E+03 -0.59258421123E+03  0.17769545116E+04  0.25500000920E-02 0.  1.
</event>
<event>
 5   0  0.1579536E-08  0.3402376E+04  0.7818609E-02  0.8137323E-01
        1   -1    0    0  501    0  0.00000000000E+00  0.00000000000E+00  0.21046094590E+04  0.21046094590E+04  0.50400001928E-02 0.  1.
       -1   -1    0    0    0  501  0.00000000000E+00  0.00000000000E+00 -0.13750960554E+04  0.13750960554E+04  0.50400001928E-02 0. -1.
    10030    2    1    2    0    0  0.00000000000E+00  0.00000000000E+00  0.72951340355E+03  0.34797055144E+04  0.34023757378E+04 0.  0.
        5    1    3    3  502    0 -0.63021647011E+03  0.13980012144E+04 -0.38848650538E+03  0.15819368033E+04  0.46999998093E+01 0. -1.
       -5    1    3    3    0  502  0.63021647011E+03 -0.13980012144E+04  0.11179999089E+04  0.18977687112E+04  0.46999998093E+01 0.  1.
</event>
<event>
 5   0  0.4764953E-08  0.3399988E+04  0.7818609E-02  0.8137909E-01
       -2   -1    0    0    0  501  0.00000000000E+00  0.00000000000E+00  0.35718635715E+04  0.35718635715E+04  0.25500000920E-02 0. -1.
        2   -1    0    0  501    0  0.00000000000E+00  0.00000000000E+00 -0.80909590955E+03  0.80909590956E+03  0.25500000920E-02 0.  1.
    10030    2    1    2    0    0  0.00000000000E+00  0.00000000000E+00  0.27627676620E+04  0.43809594811E+04  0.33999883560E+04 0.  0.
        2    1    3    3  502    0 -0.69289337614E+03  0.12760466203E+04  0.25205304779E+04  0.29088606185E+04  0.25500000920E-02 0. -1.
       -2    1    3    3    0  502  0.69289337614E+03 -0.12760466203E+04  0.24223718412E+03  0.14720988626E+04  0.25500000920E-02 0.  1.
</event>
<event>
 5   0  0.4973409E-08  0.3399258E+04  0.7818609E-02  0.8138088E-01
        2   -1    0    0  501    0  0.00000000000E+00  0.00000000000E+00  0.24408178986E+04  0.24408178986E+04  0.25500000920E-02 0.  1.
       -2   -1    0    0    0  501  0.00000000000E+00  0.00000000000E+00 -0.11835128547E+04  0.11835128547E+04  0.25500000920E-02 0. -1.
    10030    2    1    2    0    0  0.00000000000E+00  0.00000000000E+00  0.12573050439E+04  0.36243307532E+04  0.33992583655E+04 0.  0.
        1    1    3    3  502    0  0.96116637693E+02  0.10603036148E+04  0.20412357001E+04  0.23022001101E+04  0.50400001928E-02 0.  1.
       -1    1    3    3    0  502 -0.96116637693E+02 -0.10603036148E+04 -0.78393065620E+03  0.13221306431E+04  0.50400001928E-02 0. -1.
</event>
<event>
 5   0  0.1645631E-08  0.3400709E+04  0.7818609E-02  0.8137732E-01
       -1   -1    0    0    0  501  0.00000000000E+00  0.00000000000E+00  0.11067068420E+04  0.11067068420E+04  0.50400001928E-02 0. -1.
        1   -1    0    0  501    0  0.00000000000E+00  0.00000000000E+00 -0.26124397788E+04  0.26124397788E+04  0.50400001928E-02 0.  1.
    10030    2    1    2    0    0  0.00000000000E+00  0.00000000000E+00 -0.15057329368E+04  0.37191466209E+04  0.34007087365E+04 0.  0.
        4    1    3    3  502    0 -0.85702960072E+03  0.10948052514E+04  0.31761816261E+03  0.14261771227E+04  0.12699999809E+01 0. -1.
       -4    1    3    3    0  502  0.85702960072E+03 -0.10948052514E+04 -0.18233510994E+04  0.22929694982E+04  0.12699999809E+01 0.  1.
</event>
<event>
 5   0  0.1630571E-08  0.3398633E+04  0.7818609E-02  0.8138242E-01
        1   -1    0    0  501    0  0.00000000000E+00  0.00000000000E+00  0.23259754828E+04  0.23259754829E+04  0.50400001928E-02 0.  1.
       -1   -1    0    0    0  501  0.00000000000E+00  0.00000000000E+00 -0.12414902950E+04  0.12414902950E+04  0.50400001928E-02 0. -1.
    10030    2    1    2    0    0  0.00000000000E+00  0.00000000000E+00  0.10844851878E+04  0.35674657779E+04  0.33986326594E+04 0.  0.
        3    1    3    3  502    0 -0.70860293860E+03 -0.88152742222E+03 -0.78901378434E+03  0.13790400584E+04  0.10100000352E+00 0. -1.
       -3    1    3    3    0  502  0.70860293860E+03  0.88152742222E+03  0.18734989722E+04  0.21884257195E+04  0.10100000352E+00 0.  1.
</event>
<event>
 5   0  0.4764953E-08  0.3400629E+04  0.7818609E-02  0.8137752E-01
       -2   -1    0    0    0  501  0.00000000000E+00  0.00000000000E+00  0.21110108829E+04  0.21110108829E+04  0.25500000920E-02 0.  1.
        2   -1    0    0  501    0  0.00000000000E+00  0.00000000000E+00 -0.13695185481E+04  0.13695185481E+04  0.25500000920E-02 0. -1.
    10030    2    1    2    0    0  0.00000000000E+00  0.00000000000E+00  0.74149233479E+03  0.34805294311E+04  0.34006285063E+04 0.  0.
        2    1    3    3  502    0 -0.44382143450E+03  0.13543871888E+04  0.13197462717E+04  0.19424397918E+04  0.25500000920E-02 0.  1.
       -2    1    3    3    0  502  0.44382143450E+03 -0.13543871888E+04 -0.57825393688E+03  0.15380896393E+04  0.25500000920E-02 0. -1.
</event>
<event>
 5   0  0.1625282E-08  0.3399088E+04  0.7818609E-02  0.8138130E-01
        1   -1    0    0  501    0  0.00000000000E+00  0.00000000000E+00  0.10372787976E+04  0.10372787976E+04  0.50400001928E-02 0. -1.
       -1   -1    0    0    0  501  0.00000000000E+00  0.00000000000E+00 -0.27846420028E+04  0.27846420028E+04  0.50400001928E-02 0.  1.
    10030    2    1    2    0    0  0.00000000000E+00  0.00000000000E+00 -0.17473632053E+04  0.38219208004E+04  0.33990881768E+04 0.  0.
        1    1    3    3  502    0  0.10610915460E+04 -0.11306406330E+04 -0.16560758247E+04  0.22686671521E+04  0.50400001928E-02 0.  1.
       -1    1    3    3    0  502 -0.10610915460E+04  0.11306406330E+04 -0.91287380550E+02  0.15532536483E+04  0.50400001928E-02 0. -1.
</event>
<event>
 5   0  0.1625282E-08  0.3399957E+04  0.7818609E-02  0.8137917E-01
       -1   -1    0    0    0  501  0.00000000000E+00  0.00000000000E+00  0.14096442244E+04  0.14096442244E+04  0.50400001928E-02 0.  1.
        1   -1    0    0  501    0  0.00000000000E+00  0.00000000000E+00 -0.20501104423E+04  0.20501104423E+04  0.50400001928E-02 0. -1.
    10030    2    1    2    0    0  0.00000000000E+00  0.00000000000E+00 -0.64046621794E+03  0.34597546667E+04  0.33999566728E+04 0.  0.
        1    1    3    3  502    0  0.69712026433E+03 -0.14044876440E+04  0.34810148289E+03  0.16061559225E+04  0.50400001928E-02 0.  1.
       -1    1    3    3    0  502 -0.69712026433E+03  0.14044876440E+04 -0.98856770083E+03  0.18535987441E+04  0.50400001928E-02 0. -1.
</event>
<event>
 5   0  0.1595851E-08  0.3403503E+04  0.7818609E-02  0.8137047E-01
       -1   -1    0    0    0  501  0.00000000000E+00  0.00000000000E+00  0.15215366233E+04  0.15215366233E+04  0.50400001928E-02 0. -1.
        1   -1    0    0  501    0  0.00000000000E+00  0.00000000000E+00 -0.19033120314E+04  0.19033120314E+04  0.50400001928E-02 0.  1.
    10030    2    1    2    0    0  0.00000000000E+00  0.00000000000E+00 -0.38177540808E+03  0.34248486548E+04  0.34035034664E+04 0.  0.
        2    1    3    3  502    0 -0.12093658899E+04  0.47570120391E+03  0.91468441239E+03  0.15891837733E+04  0.25500000920E-02 0. -1.
       -2    1    3    3    0  502  0.12093658899E+04 -0.47570120391E+03 -0.12964598205E+04  0.18356648815E+04  0.25500000920E-02 0.  1.
</event>
<event>
 5   0  0.4775023E-08  0.3398360E+04  0.7818609E-02  0.8138309E-01
       -2   -1    0    0    0  501  0.00000000000E+00  0.00000000000E+00  0.13862634533E+04  0.13862634533E+04  0.25500000920E-02 0.  1.
        2   -1    0    0  501    0  0.00000000000E+00  0.00000000000E+00 -0.20827305916E+04  0.20827305916E+04  0.25500000920E-02 0. -1.
    10030    2    1    2    0    0  0.00000000000E+00  0.00000000000E+00 -0.69646713833E+03  0.34689940450E+04  0.33983603707E+04 0.  0.
        4    1    3    3  502    0  0.13562790125E+03  0.14287804218E+04  0.58028958835E+03  0.15480781765E+04  0.12699999809E+01 0.  1.
       -4    1    3    3    0  502 -0.13562790125E+03 -0.14287804218E+04 -0.12767567267E+04  0.19209158684E+04  0.12699999809E+01 0. -1.
</event>
<event>
 5   0  0.5001197E-08  0.3399601E+04  0.7818609E-02  0.8138004E-01
       -2   -1    0    0    0  501  0.00000000000E+00  0.00000000000E+00  0.15003644113E+04  0.15003644113E+04  0.25500000920E-02 0.  1.
        2   -1    0    0  501    0  0.00000000000E+00  0.00000000000E+00 -0.19257463730E+04  0.19257463730E+04  0.25500000920E-02 0. -1.
    10030    2    1    2    0    0  0.00000000000E+00  0.00000000000E+00 -0.42538196166E+03  0.34261107844E+04  0.33996007550E+04 0.  0.
        5    1    3    3  502    0  0.12011853778E+04 -0.90526238039E+03  0.58528709228E+03  0.16139793554E+04  0.46999998093E+01 0.  1.
       -5    1    3    3    0  502 -0.12011853778E+04  0.90526238039E+03 -0.10106690539E+04  0.18121314290E+04  0.46999998093E+01 0. -1.
</event>
<event>
 5   0  0.4775023E-08  0.3398540E+04  0.7818609E-02  0.8138265E-01
       -2   -1    0    0    0  501  0.00000000000E+00  0.00000000000E+00  0.11493634720E+04  0.11493634720E+04  0.25500000920E-02 0. -1.
        2   -1    0    0  501    0  0.00000000000E+00  0.00000000000E+00 -0.25122755258E+04  0.25122755258E+04  0.25500000920E-02 0.  1.
    10030    2    1    2    0    0  0.00000000000E+00  0.00000000000E+00 -0.13629120538E+04  0.36616389978E+04  0.33985395222E+04 0.  0.
        4    1    3    3  502    0  0.44274047082E+03  0.14993484097E+04 -0.13989300488E+04  0.20978731307E+04  0.12699999809E+01 0.  1.
       -4    1    3    3    0  502 -0.44274047082E+03 -0.14993484097E+04  0.36017995018E+02  0.15637658671E+04  0.12699999809E+01 0. -1.
</event>
<event>
 5   0  0.4973409E-08  0.3399075E+04  0.7818609E-02  0.8138133E-01
       -2   -1    0    0    0  501  0.00000000000E+00  0.00000000000E+00  0.92636317412E+03  0.92636317412E+03  0.25500000920E-02 0. -1.
        2   -1    0    0  501    0  0.00000000000E+00  0.00000000000E+00 -0.31180302142E+04  0.31180302142E+04  0.25500000920E-02 0.  1.
    10030    2    1    2    0    0  0.00000000000E+00  0.00000000000E+00 -0.21916670400E+04  0.40443933883E+04  0.33990753838E+04 0.  0.
        1    1    3    3  502    0  0.97506796572E+03  0.69530490684E+02 -0.27500415949E+04  0.29186162476E+04  0.50400001928E-02 0.  1.
       -1    1    3    3    0  502 -0.97506796572E+03 -0.69530490684E+02  0.55837455489E+03  0.11257771407E+04  0.50400001928E-02 0. -1.
</event>
<event>
 5   0  0.5001197E-08  0.3400611E+04  0.7818609E-02  0.8137756E-01
        2   -1    0    0  501    0  0.00000000000E+00  0.00000000000E+00  0.14176507638E+04  0.14176507638E+04  0.25500000920E-02 0. -1.
       -2   -1    0    0    0  501  0.00000000000E+00  0.00000000000E+00 -0.20393169129E+04  0.20393169129E+04  0.25500000920E-02 0.  1.
    10030    2    1    2    0    0  0.00000000000E+00  0.00000000000E+00 -0.62166614907E+03  0.34569676767E+04  0.34006112270E+04 0.  0.
        5    1    3    3  502    0  0.20887967292E+03  0.66338909508E+03 -0.18880940491E+04  0.20121225205E+04  0.46999998093E+01 0.  1.
       -5    1    3    3    0  502 -0.20887967292E+03 -0.66338909508E+03  0.12664279001E+04  0.14448451562E+04  0.46999998093E+01 0. -1.
</event>
<event>
 5   0  0.4946315E-08  0.3402811E+04  0.7818609E-02  0.8137217E-01
        2   -1    0    0  501    0  0.00000000000E+00  0.00000000000E+00  0.16231802493E+04  0.16231802493E+04  0.25500000920E-02 0. -1.
       -2   -1    0    0    0  501  0.00000000000E+00  0.00000000000E+00 -0.17834005158E+04  0.17834005158E+04  0.25500000920E-02 0.  1.
    10030    2    1    2    0    0  0.00000000000E+00  0.00000000000E+00 -0.16022026652E+03  0.34065807651E+04  0.34028108932E+04 0.  0.
        3    1    3    3  502    0 -0.40301988125E+03 -0.15710826779E+03 -0.17274338028E+04  0.17807682572E+04  0.10100000352E+00 0.  1.
       -3    1    3    3    0  502  0.40301988125E+03  0.15710826779E+03  0.15672135363E+04  0.16258125079E+04  0.10100000352E+00 0. -1.
</event>
<event>
 5   0  0.4775023E-08  0.3400679E+04  0.7818609E-02  0.8137740E-01
       -2   -1    0    0    0  501  0.00000000000E+00  0.00000000000E+00  0.13986119258E+04  0.13986119258E+04  0.25500000920E-02 0. -1.
        2   -1    0    0  501    0  0.00000000000E+00  0.00000000000E+00 -0.20671601676E+04  0.20671601676E+04  0.25500000920E-02 0.  1.
    10030    2    1    2    0    0  0.00000000000E+00  0.00000000000E+00 -0.66854824181E+03  0.34657720934E+04  0.34006792633E+04 0.  0.
        4    1    3    3  502    0 -0.59157263162E+03 -0.10160673723E+04 -0.15861188838E+04  0.19743671922E+04  0.12699999809E+01 0.  1.
       -4    1    3    3    0  502  0.59157263162E+03  0.10160673723E+04  0.91757064196E+03  0.14914049012E+04  0.12699999809E+01 0. -1.
</event>
<event>
 5   0  0.1630571E-08  0.3399028E+04  0.7818609E-02  0.8138145E-01
       -1   -1    0    0    0  501  0.00000000000E+00  0.00000000000E+00  0.13045834328E+04  0.13045834328E+04  0.50400001928E-02 0.  1.
        1   -1    0    0  501    0  0.00000000000E+00  0.00000000000E+00 -0.22140004714E+04  0.22140004714E+04  0.50400001928E-02 0. -1.
    10030    2    1    2    0    0  0.00000000000E+00  0.00000000000E+00 -0.90941703863E+03  0.35185839042E+04  0.33990282937E+04 0.  0.
        3    1    3    3  502    0  0.11005069380E+04  0.56320862905E+03  0.75251362079E+03  0.14472719994E+04  0.10100000352E+00 0.  1.
       -3    1    3    3    0  502 -0.11005069380E+04 -0.56320862905E+03 -0.16619306594E+04  0.20713119049E+04  0.10100000352E+00 0. -1.
</event>
<event>
 5   0  0.1595851E-08  0.3405405E+04  0.7818609E-02  0.8136581E-01
        1   -1    0    0  501    0  0.00000000000E+00  0.00000000000E+00  0.25545268771E+04  0.25545268771E+04  0.50400001928E-02 0.  1.
       -1   -1    0    0    0  501  0.00000000000E+00  0.00000000000E+00 -0.11349246898E+04  0.11349246898E+04  0.50400001928E-02 0. -1.
    10030    2    1    2    0    0  0.00000000000E+00  0.00000000000E+00  0.14196021873E+04  0.36894515669E+04  0.34054048944E+04 0.  0.
        2    1    3    3  502    0  0.57951084543E+03  0.14898505489E+04  0.13449681576E+04  0.20891210647E+04  0.25500000920E-02 0. -1.
       -2    1    3    3    0  502 -0.57951084543E+03 -0.14898505489E+04  0.74634029690E+02  0.16003305022E+04  0.25500000920E-02 0.  1.
</event>
<event>
 5   0  0.1579536E-08  0.3399454E+04  0.7818609E-02  0.8138040E-01
       -1   -1    0    0    0  501  0.00000000000E+00  0.00000000000E+00  0.91013352909E+03  0.91013352911E+03  0.50400001928E-02 0. -1.
        1   -1    0    0  501    0  0.00000000000E+00  0.00000000000E+00 -0.31743389259E+04  0.31743389259E+04  0.50400001928E-02 0.  1.
    10030    2    1    2    0    0  0.00000000000E+00  0.00000000000E+00 -0.22642053968E+04  0.40844724550E+04  0.33994542440E+04 0.  0.
        5    1    3    3  502    0 -0.67031457525E+03  0.13654465530E+04 -0.22078873409E+03  0.15370542196E+04  0.46999998093E+01 0. -1.
       -5    1    3    3    0  502  0.67031457525E+03 -0.13654465530E+04 -0.20434166627E+04  0.25474182354E+04  0.46999998093E+01 0.  1.
</event>
<event>
 5   0  0.4775023E-08  0.3398193E+04  0.7818609E-02  0.8138350E-01
       -2   -1    0    0    0  501  0.00000000000E+00  0.00000000000E+00  0.16344332201E+04  0.16344332201E+04  0.25500000920E-02 0. -1.
        2   -1    0    0  501    0  0.00000000000E+00  0.00000000000E+00 -0.17663179534E+04  0.17663179534E+04  0.25500000920E-02 0.  1.
    10030    2    1    2    0    0  0.00000000000E+00  0.00000000000E+00 -0.13188473326E+03  0.34007511735E+04  0.33981928964E+04 0.  0.
        4    1    3    3  502    0  0.22682794071E+03 -0.16837812184E+04 -0.47033134364E+02  0.16996422667E+04  0.12699999809E+01 0.  1.
       -4    1    3    3    0  502 -0.22682794071E+03  0.16837812184E+04 -0.84851598894E+02  0.17011089068E+04  0.12699999809E+01 0. -1.
</event>
<event>
 5   0  0.1625282E-08  0.3400179E+04  0.7818609E-02  0.8137862E-01
        1   -1    0    0  501    0  0.00000000000E+00  0.00000000000E+00  0.18660601313E+04  0.18660601313E+04  0.50400001928E-02 0.  1.
       -1   -1    0    0    0  501  0.00000000000E+00  0.00000000000E+00 -0.15488807047E+04  0.15488807047E+04  0.50400001928E-02 0. -1.
    10030    2    1    2    0    0  0.00000000000E+00  0.00000000000E+00  0.31717942661E+03  0.34149408360E+04  0.34001791313E+04 0.  0.
        1    1    3    3  502    0  0.12622154604E+04  0.90672647359E+02  0.12988137143E+04  0.18133743303E+04  0.50400001928E-02 0.  1.
       -1    1    3    3    0  502 -0.12622154604E+04 -0.90672647359E+02 -0.98163428767E+03  0.16015665057E+04  0.50400001928E-02 0. -1.
</event>
<event>
 5   0  0.1579536E-08  0.3400719E+04  0.7818609E-02  0.8137730E-01
       -1   -1    0    0    0  501  0.00000000000E+00  0.00000000000E+00  0.11826318054E+04  0.11826318054E+04  0.50400001928E-02 0.  1.
        1   -1    0    0  501    0  0.00000000000E+00  0.00000000000E+00 -0.24447353559E+04  0.24447353560E+04  0.50400001928E-02 0. -1.
    10030    2    1    2    0    0  0.00000000000E+00  0.00000000000E+00 -0.12621035506E+04  0.36273671613E+04  0.34007186227E+04 0.  0.
        5    1    3    3  502    0 -0.13723066577E+04  0.51373792977E+03  0.28901879793E+03  0.14935548797E+04  0.46999998093E+01 0.  1.
       -5    1    3    3    0  502  0.13723066577E+04 -0.51373792977E+03 -0.15511223485E+04  0.21338122816E+04  0.46999998093E+01 0. -1.
</event>
<event>
 5   0  0.1625282E-08  0.3398194E+04  0.7818609E-02  0.8138350E-01
        1   -1    0    0  501    0  0.00000000000E+00  0.00000000000E+00  0.12994858786E+04  0.12994858786E+04  0.50400001928E-02 0. -1.
       -1   -1    0    0    0  501  0.00000000000E+00  0.00000000000E+00 -0.22215939647E+04  0.22215939647E+04  0.50400001928E-02 0.  1.
    10030    2    1    2    0    0  0.00000000000E+00  0.00000000000E+00 -0.92210808611E+03  0.35210798433E+04  0.33981936290E+04 0.  0.
        1    1    3    3  502    0 -0.13403186459E+04  0.10362266740E+04 -0.32711151886E+03  0.17254627606E+04  0.50400001928E-02 0. -1.
       -1    1    3    3    0  502  0.13403186459E+04 -0.10362266740E+04 -0.59499656725E+03  0.17956170827E+04  0.50400001928E-02 0.  1.
</event>
<event>
 5   0  0.1595851E-08  0.3396299E+04  0.7818609E-02  0.8138815E-01
       -1   -1    0    0    0  501  0.00000000000E+00  0.00000000000E+00  0.11077287602E+04  0.11077287602E+04  0.50400001928E-02 0.  1.
        1   -1    0    0  501    0  0.00000000000E+00  0.00000000000E+00 -0.26032658756E+04  0.26032658756E+04  0.50400001928E-02 0. -1.
    10030    2    1    2    0    0  0.00000000000E+00  0.00000000000E+00 -0.14955371154E+04  0.37109946358E+04  0.33962994455E+04 0.  0.
        2    1    3    3  502    0 -0.55835400988E+03  0.15455407892E+04 -0.28001771494E+03  0.16669929371E+04  0.25500000920E-02 0.  1.
       -2    1    3    3    0  502  0.55835400988E+03 -0.15455407892E+04 -0.12155194004E+04  0.20440016987E+04  0.25500000920E-02 0. -1.
</event>
<event>
 5   0  0.5001197E-08  0.3400079E+04  0.7818609E-02  0.8137887E-01
        2   -1    0    0  501    0  0.00000000000E+00  0.00000000000E+00  0.19455645496E+04  0.19455645496E+04  0.25500000920E-02 0. -1.
       -2   -1    0    0    0  501  0.00000000000E+00  0.00000000000E+00 -0.14854988025E+04  0.14854988025E+04  0.25500000920E-02 0.  1.
    10030    2    1    2    0    0  0.00000000000E+00  0.00000000000E+00  0.46006574704E+03  0.34310633521E+04  0.34000787100E+04 0.  0.
        5    1    3    3  502    0 -0.88813478149E+03 -0.10633838953E+04 -0.76410624082E+03  0.15822291668E+04  0.46999998093E+01 0.  1.
       -5    1    3    3    0  502  0.88813478149E+03  0.10633838953E+04  0.12241719879E+04  0.18488341853E+04  0.46999998093E+01 0. -1.
</event>
<event>
 5   0  0.4775023E-08  0.3396695E+04  0.7818609E-02  0.8138718E-01
        2   -1    0    0  501    0  0.00000000000E+00  0.00000000000E+00  0.23666837657E+04  0.23666837657E+04  0.25500000920E-02 0.  1.
       -2   -1    0    0    0  501  0.00000000000E+00  0.00000000000E+00 -0.12187450878E+04  0.12187450878E+04  0.25500000920E-02 0. -1.
    10030    2    1    2    0    0  0.00000000000E+00  0.00000000000E+00  0.11479386778E+04  0.35854288535E+04  0.33966949900E+04 0.  0.
        4    1    3    3  502    0 -0.88564672021E+03 -0.50274362774E+03 -0.86068979688E+03  0.13333828436E+04  0.12699999809E+01 0. -1.
       -4    1    3    3    0  502  0.88564672021E+03  0.50274362774E+03  0.20086284747E+04  0.22520460099E+04  0.12699999809E+01 0.  1.
</event>
<event>
 5   0  0.1630571E-08  0.3403475E+04  0.7818609E-02  0.8137054E-01
        1   -1    0    0  501    0  0.00000000000E+00  0.00000000000E+00  0.22888603861E+04  0.22888603861E+04  0.50400001928E-02 0. -1.
       -1   -1    0    0    0  501  0.00000000000E+00  0.00000000000E+00 -0.12652197056E+04  0.12652197056E+04  0.50400001928E-02 0.  1.
    10030    2    1    2    0    0  0.00000000000E+00  0.00000000000E+00  0.10236406805E+04  0.35540800917E+04  0.34034754378E+04 0.  0.
        3    1    3    3  502    0 -0.64174543271E+03  0.12553110423E+04  0.15070232885E+04  0.20636768680E+04  0.10100000352E+00 0. -1.
       -3    1    3    3    0  502  0.64174543271E+03 -0.12553110423E+04 -0.48338260805E+03  0.14904032237E+04  0.10100000352E+00 0.  1.
</event>
<event>
 5   0  0.1595851E-08  0.3399997E+04  0.7818609E-02  0.8137907E-01
        1   -1    0    0  501    0  0.00000000000E+00  0.00000000000E+00  0.21330358245E+04  0.21330358245E+04  0.50400001928E-02 0. -1.
       -1   -1    0    0    0  501  0.00000000000E+00  0.00000000000E+00 -0.13548741862E+04  0.13548741862E+04  0.50400001928E-02 0.  1.
    10030    2    1    2    0    0  0.00000000000E+00  0.00000000000E+00  0.77816163828E+03  0.34879100107E+04  0.33999971629E+04 0.  0.
        2    1    3    3  502    0  0.15375875653E+04 -0.72382867539E+03  0.34446248311E+03  0.17340005405E+04  0.25500000920E-02 0.  1.
       -2    1    3    3    0  502 -0.15375875653E+04  0.72382867539E+03  0.43369915517E+03  0.17539094702E+04  0.25500000920E-02 0. -1.
</event>
<event>
 5   0  0.4775023E-08  0.3400030E+04  0.7818609E-02  0.8137899E-01
       -2   -1    0    0    0  501  0.00000000000E+00  0.00000000000E+00  0.12802437597E+04  0.12802437597E+04  0.25500000920E-02 0.  1.
        2   -1    0    0  501    0  0.00000000000E+00  0.00000000000E+00 -0.22574224973E+04  0.22574224973E+04  0.25500000920E-02 0. -1.
    10030    2    1    2    0    0  0.00000000000E+00  0.00000000000E+00 -0.97717873762E+03  0.35376662570E+04  0.34000300382E+04 0.  0.
        4    1    3    3  502    0 -0.65657225121E+03 -0.63030827492E+03  0.10053882187E+04  0.13561647118E+04  0.12699999809E+01 0.  1.
       -4    1    3    3    0  502  0.65657225121E+03  0.63030827492E+03 -0.19825669563E+04  0.21815015452E+04  0.12699999809E+01 0. -1.
</event>
<event>
 5   0  0.1625282E-08  0.3399234E+04  0.7818609E-02  0.8138094E-01
        1   -1    0    0  501    0  0.00000000000E+00  0.00000000000E+00  0.26849539849E+04  0.26849539849E+04  0.50400001928E-02 0.  1.
       -1   -1    0    0    0  501  0.00000000000E+00  0.00000000000E+00 -0.10758836935E+04  0.10758836935E+04  0.50400001928E-02 0. -1.
    10030    2    1    2    0    0  0.00000000000E+00  0.00000000000E+00  0.16090702914E+04  0.37608376784E+04  0.33992341550E+04 0.  0.
        1    1    3    3  502    0 -0.45164136287E+03 -0.31422650487E+03  0.25836995771E+04  0.26416323971E+04  0.50400001928E-02 0.  1.
       -1    1    3    3    0  502  0.45164136287E+03  0.31422650487E+03 -0.97462928570E+03  0.11192052813E+04  0.50400001928E-02 0. -1.
</event>
<event>
 5   0  0.4775023E-08  0.3400475E+04  0.7818609E-02  0.8137790E-01
       -2   -1    0    0    0  501  0.00000000000E+00  0.00000000000E+00  0.17524562736E+04  0.17524562736E+04  0.25500000920E-02 0. -1.
        2   -1    0    0  501    0  0.00000000000E+00  0.00000000000E+00 -0.16495746855E+04  0.16495746855E+04  0.25500000920E-02 0.  1.
    10030    2    1    2    0    0  0.00000000000E+00  0.00000000000E+00  0.10288158809E+03  0.34020309591E+04  0.34004749706E+04 0.  0.
        4    1    3    3  502    0 -0.98737973960E+03 -0.11966038130E+04  0.74747924176E+03  0.17220645358E+04  0.12699999809E+01 0. -1.
       -4    1    3    3    0  502  0.98737973960E+03  0.11966038130E+04 -0.64459765367E+03  0.16799664234E+04  0.12699999809E+01 0.  1.
</event>
<event>
 5   0  0.1625282E-08  0.3399425E+04  0.7818609E-02  0.8138047E-01
       -1   -1    0    0    0  501  0.00000000000E+00  0.00000000000E+00  0.17639596695E+04  0.17639596695E+04  0.50400001928E-02 0. -1.
        1   -1    0    0  501    0  0.00000000000E+00  0.00000000000E+00 -0.16378054769E+04  0.16378054769E+04  0.50400001928E-02 0.  1.
    10030    2    1    2    0    0  0.00000000000E+00  0.00000000000E+00  0.12615419263E+03  0.34017651464E+04  0.33994251324E+04 0.  0.
        1    1    3    3  502    0 -0.10834453958E+04  0.85200303561E+03  0.10583771030E+04  0.17377931956E+04  0.50400001928E-02 0. -1.
       -1    1    3    3    0  502  0.10834453958E+04 -0.85200303561E+03 -0.93222291037E+03  0.16639719508E+04  0.50400001928E-02 0.  1.
</event>
<event>
 5   0  0.1625282E-08  0.3399509E+04  0.7818609E-02  0.8138027E-01
       -1   -1    0    0    0  501  0.00000000000E+00  0.00000000000E+00  0.18218510428E+04  0.18218510428E+04  0.50400001928E-02 0. -1.
        1   -1    0    0  501    0  0.00000000000E+00  0.00000000000E+00 -0.15858402817E+04  0.15858402817E+04  0.50400001928E-02 0.  1.
    10030    2    1    2    0    0  0.00000000000E+00  0.00000000000E+00  0.23601076112E+03  0.34076913245E+04  0.33995086533E+04 0.  0.
        1    1    3    3  502    0 -0.14874809018E+03 -0.19345302591E+03 -0.15681894339E+04  0.15870627487E+04  0.50400001928E-02 0.  1.
       -1    1    3    3    0  502  0.14874809018E+03  0.19345302591E+03  0.18042001950E+04  0.18206285759E+04  0.50400001928E-02 0. -1.
</event>
<event>
 5   0  0.4946315E-08  0.3400229E+04  0.7818609E-02  0.8137850E-01
        2   -1    0    0  501    0  0.00000000000E+00  0.00000000000E+00  0.18188310435E+04  0.18188310435E+04  0.25500000920E-02 0. -1.
       -2   -1    0    0    0  501  0.00000000000E+00  0.00000000000E+00 -0.15891466913E+04  0.15891466913E+04  0.25500000920E-02 0.  1.
    10030    2    1    2    0    0  0.00000000000E+00  0.00000000000E+00  0.22968435219E+03  0.34079777348E+04  0.34002290128E+04 0.  0.
        3    1    3    3  502    0 -0.36950969722E+03  0.16396548102E+04 -0.14144351619E+03  0.16867162155E+04  0.10100000352E+00 0.  1.
       -3    1    3    3    0  502  0.36950969722E+03 -0.16396548102E+04  0.37112786838E+03  0.17212615193E+04  0.10100000352E+00 0. -1.
</event>
<event>
 5   0  0.1579536E-08  0.3399741E+04  0.7818609E-02  0.8137970E-01
       -1   -1    0    0    0  501  0.00000000000E+00  0.00000000000E+00  0.13093014614E+04  0.13093014614E+04  0.50400001928E-02 0. -1.
        1   -1    0    0  501    0  0.00000000000E+00  0.00000000000E+00 -0.22069480284E+04  0.22069480284E+04  0.50400001928E-02 0.  1.
    10030    2    1    2    0    0  0.00000000000E+00  0.00000000000E+00 -0.89764656700E+03  0.35162494897E+04  0.33997413306E+04 0.  0.
        5    1    3    3  502    0  0.69574761283E+03 -0.81050127991E+03 -0.18164709105E+04  0.21072649867E+04  0.46999998093E+01 0.  1.
       -5    1    3    3    0  502 -0.69574761283E+03  0.81050127991E+03  0.91882434353E+03  0.14089845030E+04  0.46999998093E+01 0. -1.
</event>
<event>
 5   0  0.4946315E-08  0.3399711E+04  0.7818609E-02  0.8137977E-01
        2   -1    0    0  501    0  0.00000000000E+00  0.00000000000E+00  0.16203613493E+04  0.16203613493E+04  0.25500000920E-02 0.  1.
       -2   -1    0    0    0  501  0.00000000000E+00  0.00000000000E+00 -0.17832497710E+04  0.17832497710E+04  0.25500000920E-02 0. -1.
    10030    2    1    2    0    0  0.00000000000E+00  0.00000000000E+00 -0.16288842176E+03  0.34036111203E+04  0.33997111672E+04 0.  0.
        3    1    3    3  502    0  0.66171929243E+03 -0.68971461224E+03  0.13258461906E+04  0.16344561174E+04  0.10100000352E+00 0.  1.
       -3    1    3    3    0  502 -0.66171929243E+03  0.68971461224E+03 -0.14887346123E+04  0.17691550030E+04  0.10100000352E+00 0. -1.
</event>
<event>
 5   0  0.4775023E-08  0.3400197E+04  0.7818609E-02  0.8137858E-01
       -2   -1    0    0    0  501  0.00000000000E+00  0.00000000000E+00  0.14570760352E+04  0.14570760352E+04  0.25500000920E-02 0. -1.
        2   -1    0    0  501    0  0.00000000000E+00  0.00000000000E+00 -0.19836535843E+04  0.19836535843E+04  0.25500000920E-02 0.  1.
    10030    2    1    2    0    0  0.00000000000E+00  0.00000000000E+00 -0.52657754913E+03  0.34407296195E+04  0.34001965236E+04 0.  0.
        4    1    3    3  502    0  0.13081849879E+04 -0.64801999436E+03 -0.11449120323E+04  0.18552905568E+04  0.12699999809E+01 0.  1.
       -4    1    3    3    0  502 -0.13081849879E+04  0.64801999436E+03  0.61833448316E+03  0.15854390627E+04  0.12699999809E+01 0. -1.
</event>
<event>
 5   0  0.4946315E-08  0.3400570E+04  0.7818609E-02  0.8137767E-01
        2   -1    0    0  501    0  0.00000000000E+00  0.00000000000E+00  0.17463214139E+04  0.17463214139E+04  0.25500000920E-02 0. -1.
       -2   -1    0    0    0  501  0.00000000000E+00  0.00000000000E+00 -0.16554619253E+04  0.16554619253E+04  0.25500000920E-02 0.  1.
    10030    2    1    2    0    0  0.00000000000E+00  0.00000000000E+00  0.90859488599E+02  0.34017833392E+04  0.34005697229E+04 0.  0.
        3    1    3    3  502    0  0.66474408746E+03  0.15510118061E+04 -0.16308234547E+03  0.16953224431E+04  0.10100000352E+00 0.  1.
       -3    1    3    3    0  502 -0.66474408746E+03 -0.15510118061E+04  0.25394183407E+03  0.17064608961E+04  0.10100000352E+00 0. -1.
</event>
<event>
 5   0  0.4973409E-08  0.3400354E+04  0.7818609E-02  0.8137819E-01
       -2   -1    0    0    0  501  0.00000000000E+00  0.00000000000E+00  0.11672663866E+04  0.11672663866E+04  0.25500000920E-02 0. -1.
        2   -1    0    0  501    0  0.00000000000E+00  0.00000000000E+00 -0.24763860824E+04  0.24763860824E+04  0.25500000920E-02 0.  1.
    10030    2    1    2    0    0  0.00000000000E+00  0.00000000000E+00 -0.13091196958E+04  0.36436524690E+04  0.34003542370E+04 0.  0.
        1    1    3    3  502    0  0.12189843640E+03 -0.15216996954E+04 -0.14565589597E+04  0.21099746905E+04  0.50400001928E-02 0.  1.
       -1    1    3    3    0  502 -0.12189843640E+03  0.15216996954E+04  0.14743926389E+03  0.15336777785E+04  0.50400001928E-02 0. -1.
</event>
<event>
 5   0  0.1595851E-08  0.3400258E+04  0.7818609E-02  0.8137843E-01
        1   -1    0    0  501    0  0.00000000000E+00  0.00000000000E+00  0.21224546777E+04  0.21224546777E+04  0.50400001928E-02 0. -1.
       -1   -1    0    0    0  501  0.00000000000E+00  0.00000000000E+00 -0.13618374310E+04  0.13618374310E+04  0.50400001928E-02 0.  1.
    10030    2    1    2    0    0  0.00000000000E+00  0.00000000000E+00  0.76061724666E+03  0.34842921087E+04  0.34002577700E+04 0.  0.
        2    1    3    3  502    0  0.15544921346E+04  0.63001576636E+03  0.66478919801E+03  0.18042478600E+04  0.25500000920E-02 0. -1.
       -2    1    3    3    0  502 -0.15544921346E+04 -0.63001576636E+03  0.95828048646E+02  0.16800442487E+04  0.25500000920E-02 0.  1.
</event>
<event>
 5   0  0.1645631E-08  0.3394479E+04  0.7818609E-02  0.8139263E-01
       -1   -1    0    0    0  501  0.00000000000E+00  0.00000000000E+00  0.99368674470E+03  0.99368674471E+03  0.50400001928E-02 0.  1.
        1   -1    0    0  501    0  0.00000000000E+00  0.00000000000E+00 -0.28989241101E+04  0.28989241101E+04  0.50400001928E-02 0. -1.
    10030    2    1    2    0    0  0.00000000000E+00  0.00000000000E+00 -0.19052373654E+04  0.38926108549E+04  0.33944793192E+04 0.  0.
        4    1    3    3  502    0  0.45815530170E+03 -0.14247364581E+04 -0.34618369579E+02  0.14969904141E+04  0.12699999809E+01 0. -1.
       -4    1    3    3    0  502 -0.45815530170E+03  0.14247364581E+04 -0.18706189959E+04  0.23956204407E+04  0.12699999809E+01 0.  1.
</event>
<event>
 5   0  0.5001197E-08  0.3397009E+04  0.7818609E-02  0.8138641E-01
        2   -1    0    0  501    0  0.00000000000E+00  0.00000000000E+00  0.21161251749E+04  0.21161251749E+04  0.25500000920E-02 0.  1.
       -2   -1    0    0    0  501  0.00000000000E+00  0.00000000000E+00 -0.13633017604E+04  0.13633017604E+04  0.25500000920E-02 0. -1.
    10030    2    1    2    0    0  0.00000000000E+00  0.00000000000E+00  0.75282341443E+03  0.34794269353E+04  0.33970087879E+04 0.  0.
        5    1    3    3  502    0 -0.11132153522E+04  0.40141726830E+03  0.16243776622E+04  0.20097286192E+04  0.46999998093E+01 0.  1.
       -5    1    3    3    0  502  0.11132153522E+04 -0.40141726830E+03 -0.87155424772E+03  0.14696983161E+04  0.46999998093E+01 0. -1.
</event>
<event>
 5   0  0.1625282E-08  0.3398265E+04  0.7818609E-02  0.8138332E-01
        1   -1    0    0  501    0  0.00000000000E+00  0.00000000000E+00  0.19932393706E+04  0.19932393706E+04  0.50400001928E-02 0.  1.
       -1   -1    0    0    0  501  0.00000000000E+00  0.00000000000E+00 -0.14484220190E+04  0.14484220190E+04  0.50400001928E-02 0. -1.
    10030    2    1    2    0    0  0.00000000000E+00  0.00000000000E+00  0.54481735158E+03  0.34416613897E+04  0.33982653184E+04 0.  0.
        1    1    3    3  502    0 -0.20176323866E+03  0.16048510109E+04  0.79943520580E+03  0.18042593549E+04  0.50400001928E-02 0.  1.
       -1    1    3    3    0  502  0.20176323866E+03 -0.16048510109E+04 -0.25461785422E+03  0.16374020347E+04  0.50400001928E-02 0. -1.
</event>
<event>
 5   0  0.1645631E-08  0.3401127E+04  0.7818609E-02  0.8137630E-01
       -1   -1    0    0    0  501  0.00000000000E+00  0.00000000000E+00  0.11520388559E+04  0.11520388559E+04  0.50400001928E-02 0.  1.
        1   -1    0    0  501    0  0.00000000000E+00  0.00000000000E+00 -0.25102587889E+04  0.25102587889E+04  0.50400001928E-02 0. -1.
    10030    2    1    2    0    0  0.00000000000E+00  0.00000000000E+00 -0.13582199331E+04  0.36622976448E+04  0.34011266740E+04 0.  0.
        4    1    3    3  502    0 -0.76651656964E+03 -0.92819846673E+03 -0.19725193427E+04  0.23108297677E+04  0.12699999809E+01 0. -1.
       -4    1    3    3    0  502  0.76651656964E+03  0.92819846673E+03  0.61429940967E+03  0.13514678771E+04  0.12699999809E+01 0.  1.
</event>
<event>
 5   0  0.1579536E-08  0.3401253E+04  0.7818609E-02  0.8137599E-01
        1   -1    0    0  501    0  0.00000000000E+00  0.00000000000E+00  0.19465750485E+04  0.19465750485E+04  0.50400001928E-02 0. -1.
       -1   -1    0    0    0  501  0.00000000000E+00  0.00000000000E+00 -0.14857533951E+04  0.14857533951E+04  0.50400001928E-02 0.  1.
    10030    2    1    2    0    0  0.00000000000E+00  0.00000000000E+00  0.46082165342E+03  0.34323284435E+04  0.34012529968E+04 0.  0.
        5    1    3    3  502    0 -0.91858958739E+03  0.13608754928E+04 -0.21671687502E+03  0.16561332165E+04  0.46999998093E+01 0.  1.
       -5    1    3    3    0  502  0.91858958739E+03 -0.13608754928E+04  0.67753852844E+03  0.17761952270E+04  0.46999998093E+01 0. -1.
</event>
<event>
 5   0  0.4775023E-08  0.3400013E+04  0.7818609E-02  0.8137903E-01
       -2   -1    0    0    0  501  0.00000000000E+00  0.00000000000E+00  0.19956156277E+04  0.19956156277E+04  0.25500000920E-02 0. -1.
        2   -1    0    0  501    0  0.00000000000E+00  0.00000000000E+00 -0.14481853473E+04  0.14481853473E+04  0.25500000920E-02 0.  1.
    10030    2    1    2    0    0  0.00000000000E+00  0.00000000000E+00  0.54743028040E+03  0.34438009751E+04  0.34000125359E+04 0.  0.
        4    1    3    3  502    0 -0.15152524663E+04  0.73196315731E+03  0.29236305095E+02  0.16830378708E+04  0.12699999809E+01 0. -1.
       -4    1    3    3    0  502  0.15152524663E+04 -0.73196315731E+03  0.51819397530E+03  0.17607631042E+04  0.12699999809E+01 0.  1.
</event>
<event>
 5   0  0.1625282E-08  0.3399555E+04  0.7818609E-02  0.8138015E-01
        1   -1    0    0  501    0  0.00000000000E+00  0.00000000000E+00  0.19390041192E+04  0.19390041192E+04  0.50400001928E-02 0.  1.
       -1   -1    0    0    0  501  0.00000000000E+00  0.00000000000E+00 -0.14900660051E+04  0.14900660051E+04  0.50400001928E-02 0. -1.
    10030    2    1    2    0    0  0.00000000000E+00  0.00000000000E+00  0.44893811414E+03  0.34290701243E+04  0.33995553367E+04 0.  0.
        1    1    3    3  502    0 -0.12904371968E+04 -0.26113572082E+02 -0.89117789330E+03  0.15684731795E+04  0.50400001928E-02 0. -1.
       -1    1    3    3    0  502  0.12904371968E+04  0.26113572082E+02  0.13401160074E+04  0.18605969448E+04  0.50400001928E-02 0.  1.
</event>
<event>
 5   0  0.4764953E-08  0.3399831E+04  0.7818609E-02  0.8137948E-01
       -2   -1    0    0    0  501  0.00000000000E+00  0.00000000000E+00  0.18333335211E+04  0.18333335211E+04  0.25500000920E-02 0.  1.
        2   -1    0    0  501    0  0.00000000000E+00  0.00000000000E+00 -0.15762070852E+04  0.15762070852E+04  0.25500000920E-02 0. -1.
    10030    2    1    2    0    0  0.00000000000E+00  0.00000000000E+00  0.25712643591E+03  0.34095406064E+04  0.33998313403E+04 0.  0.
        2    1    3    3  502    0 -0.47699354552E+03 -0.20469005800E+03 -0.14947913023E+04  0.15823469593E+04  0.25500000920E-02 0. -1.
       -2    1    3    3    0  502  0.47699354552E+03  0.20469005800E+03  0.17519177382E+04  0.18271936470E+04  0.25500000920E-02 0.  1.
</event>
<event>
 5   0  0.5001197E-08  0.3400477E+04  0.7818609E-02  0.8137789E-01
        2   -1    0    0  501    0  0.00000000000E+00  0.00000000000E+00  0.19768234635E+04  0.19768234635E+04  0.25500000920E-02 0.  1.
       -2   -1    0    0    0  501  0.00000000000E+00  0.00000000000E+00 -0.14623517787E+04  0.14623517787E+04  0.25500000920E-02 0. -1.
    10030    2    1    2    0    0  0.00000000000E+00  0.00000000000E+00  0.51447168484E+03  0.34391752422E+04  0.34004772065E+04 0.  0.
        5    1    3    3  502    0 -0.12438985947E+04 -0.11590937046E+04  0.25450548669E+03  0.17191791829E+04  0.46999998093E+01 0. -1.
       -5    1    3    3    0  502  0.12438985947E+04  0.11590937046E+04  0.25996619816E+03  0.17199960593E+04  0.46999998093E+01 0.  1.
</event>
<event>
 5   0  0.1630571E-08  0.3403107E+04  0.7818609E-02  0.8137144E-01
       -1   -1    0    0    0  501  0.00000000000E+00  0.00000000000E+00  0.19324182275E+04  0.19324182276E+04  0.50400001928E-02 0.  1.
        1   -1    0    0  501    0  0.00000000000E+00  0.00000000000E+00 -0.14982704064E+04  0.14982704064E+04  0.50400001928E-02 0. -1.
    10030    2    1    2    0    0  0.00000000000E+00  0.00000000000E+00  0.43414782120E+03  0.34306886339E+04  0.34031074288E+04 0.  0.
        3    1    3    3  502    0  0.72614519484E+03  0.10033296231E+03  0.17650749054E+04  0.19112412143E+04  0.10100000352E+00 0.  1.
       -3    1    3    3    0  502 -0.72614519484E+03 -0.10033296231E+03 -0.13309270842E+04  0.15194474196E+04  0.10100000352E+00 0. -1.
</event>
<event>
 5   0  0.1579536E-08  0.3399075E+04  0.7818609E-02  0.8138133E-01
        1   -1    0    0  501    0  0.00000000000E+00  0.00000000000E+00  0.15557604273E+04  0.15557604273E+04  0.50400001928E-02 0. -1.
       -1   -1    0    0    0  501  0.00000000000E+00  0.00000000000E+00 -0.18566018286E+04  0.18566018286E+04  0.50400001928E-02 0.  1.
    10030    2    1    2    0    0  0.00000000000E+00  0.00000000000E+00 -0.30084140131E+03  0.34123622559E+04  0.33990749649E+04 0.  0.
        5    1    3    3  502    0 -0.13783541048E+04  0.59391271724E+03  0.65007528850E+03  0.16356076316E+04  0.46999998093E+01 0. -1.
       -5    1    3    3    0  502  0.13783541048E+04 -0.59391271724E+03 -0.95091668981E+03  0.17767546243E+04  0.46999998093E+01 0.  1.
</event>
<event>
 5   0  0.4764953E-08  0.3398790E+04  0.7818609E-02  0.8138203E-01
       -2   -1    0    0    0  501  0.00000000000E+00  0.00000000000E+00  0.24209425470E+04  0.24209425470E+04  0.25500000920E-02 0.  1.
        2   -1    0    0  501    0  0.00000000000E+00  0.00000000000E+00 -0.11929000772E+04  0.11929000772E+04  0.25500000920E-02 0. -1.
    10030    2    1    2    0    0  0.00000000000E+00  0.00000000000E+00  0.12280424698E+04  0.36138426243E+04  0.33987895206E+04 0.  0.
        2    1    3    3  502    0 -0.78379197436E+03  0.32268081717E+03 -0.95209420071E+03  0.12747298286E+04  0.25500000920E-02 0. -1.
       -2    1    3    3    0  502  0.78379197436E+03 -0.32268081717E+03  0.21801366705E+04  0.23391127957E+04  0.25500000920E-02 0.  1.
</event>
<event>
 5   0  0.1645631E-08  0.3401929E+04  0.7818609E-02  0.8137433E-01
        1   -1    0    0  501    0  0.00000000000E+00  0.00000000000E+00  0.17236426653E+04  0.17236426653E+04  0.50400001928E-02 0. -1.
       -1   -1    0    0    0  501  0.00000000000E+00  0.00000000000E+00 -0.16785848234E+04  0.16785848234E+04  0.50400001928E-02 0.  1.
    10030    2    1    2    0    0  0.00000000000E+00  0.00000000000E+00  0.45057841884E+02  0.34022274887E+04  0.34019291109E+04 0.  0.
        4    1    3    3  502    0 -0.55202671146E+03 -0.51211911352E+03  0.15478772142E+04  0.17213148927E+04  0.12699999809E+01 0. -1.
       -4    1    3    3    0  502  0.55202671146E+03  0.51211911352E+03 -0.15028193723E+04  0.16809125960E+04  0.12699999809E+01 0.  1.
</event>
<event>
 5   0  0.4946315E-08  0.3395207E+04  0.7818609E-02  0.8139084E-01
       -2   -1    0    0    0  501  0.00000000000E+00  0.00000000000E+00  0.14190091504E+04  0.14190091504E+04  0.25500000920E-02 0.  1.
        2   -1    0    0  501    0  0.00000000000E+00  0.00000000000E+00 -0.20308945181E+04  0.20308945181E+04  0.25500000920E-02 0. -1.
    10030    2    1    2    0    0  0.00000000000E+00  0.00000000000E+00 -0.61188536774E+03  0.34499036685E+04  0.33952071540E+04 0.  0.
        3    1    3    3  502    0 -0.82721477463E+03  0.14814916834E+04 -0.35928606547E+03  0.17344129780E+04  0.10100000352E+00 0. -1.
       -3    1    3    3    0  502  0.82721477463E+03 -0.14814916834E+04 -0.25259930226E+03  0.17154906904E+04  0.10100000352E+00 0.  1.
</event>
<event>
 5   0  0.5001197E-08  0.3402066E+04  0.7818609E-02  0.8137399E-01
        2   -1    0    0  501    0  0.00000000000E+00  0.00000000000E+00  0.24186035025E+04  0.24186035025E+04  0.25500000920E-02 0. -1.
       -2   -1    0    0    0  501  0.00000000000E+00  0.00000000000E+00 -0.11963570312E+04  0.11963570312E+04  0.25500000920E-02 0.  1.
    10030    2    1    2    0    0  0.00000000000E+00  0.00000000000E+00  0.12222464714E+04  0.36149605337E+04  0.34020660228E+04 0.  0.
        5    1    3    3  502    0 -0.12191249132E+04 -0.55690909519E+03  0.17240832466E+04  0.21837807640E+04  0.46999998093E+01 0. -1.
       -5    1    3    3    0  502  0.12191249132E+04  0.55690909519E+03 -0.50183677521E+03  0.14311797697E+04  0.46999998093E+01 0.  1.
</event>
<event>
 5   0  0.4775023E-08  0.3398690E+04  0.7818609E-02  0.8138228E-01
        2   -1    0    0  501    0  0.00000000000E+00  0.00000000000E+00  0.26769305513E+04  0.26769305513E+04  0.25500000920E-02 0. -1.
       -2   -1    0    0    0  501  0.00000000000E+00  0.00000000000E+00 -0.10787626237E+04  0.10787626237E+04  0.25500000920E-02 0.  1.
    10030    2    1    2    0    0  0.00000000000E+00  0.00000000000E+00  0.15981679276E+04  0.37556931750E+04  0.33986895268E+04 0.  0.
        4    1    3    3  502    0 -0.10104942257E+04 -0.72906082339E+03  0.20759415534E+04  0.24211904531E+04  0.12699999809E+01 0. -1.
       -4    1    3    3    0  502  0.10104942257E+04  0.72906082339E+03 -0.47777362577E+03  0.13345027219E+04  0.12699999809E+01 0.  1.
</event>
<event>
 5   0  0.1645631E-08  0.3397638E+04  0.7818609E-02  0.8138486E-01
        1   -1    0    0  501    0  0.00000000000E+00  0.00000000000E+00  0.18585318026E+04  0.18585318026E+04  0.50400001928E-02 0. -1.
       -1   -1    0    0    0  501  0.00000000000E+00  0.00000000000E+00 -0.15528310495E+04  0.15528310495E+04  0.50400001928E-02 0.  1.
    10030    2    1    2    0    0  0.00000000000E+00  0.00000000000E+00  0.30570075314E+03  0.34113628521E+04  0.33976379381E+04 0.  0.
        4    1    3    3  502    0  0.42937730682E+03 -0.16436491770E+04  0.14676056699E+03  0.17051357030E+04  0.12699999809E+01 0. -1.
       -4    1    3    3    0  502 -0.42937730682E+03  0.16436491770E+04  0.15894018615E+03  0.17062271491E+04  0.12699999809E+01 0.  1.
</event>
<event>
 5   0  0.4973409E-08  0.3400090E+04  0.7818609E-02  0.8137884E-01
       -2   -1    0    0    0  501  0.00000000000E+00  0.00000000000E+00  0.15220412572E+04  0.15220412573E+04  0.25500000920E-02 0.  1.
        2   -1    0    0  501    0  0.00000000000E+00  0.00000000000E+00 -0.18988660026E+04  0.18988660026E+04  0.25500000920E-02 0. -1.
    10030    2    1    2    0    0  0.00000000000E+00  0.00000000000E+00 -0.37682474531E+03  0.34209072598E+04  0.34000896446E+04 0.  0.
        1    1    3    3  502    0  0.84274243144E+03  0.25665750666E+03 -0.16512969172E+04  0.18715954131E+04  0.50400001928E-02 0. -1.
       -1    1    3    3    0  502 -0.84274243144E+03 -0.25665750666E+03  0.12744721719E+04  0.15493118467E+04  0.50400001928E-02 0.  1.
</event>
<event>
 5   0  0.1625282E-08  0.3399751E+04  0.7818609E-02  0.8137968E-01
        1   -1    0    0  501    0  0.00000000000E+00  0.00000000000E+00  0.15664174915E+04  0.15664174915E+04  0.50400001928E-02 0.  1.
       -1   -1    0    0    0  501  0.00000000000E+00  0.00000000000E+00 -0.18447036817E+04  0.18447036817E+04  0.50400001928E-02 0. -1.
    10030    2    1    2    0    0  0.00000000000E+00  0.00000000000E+00 -0.27828619015E+03  0.34111211732E+04  0.33997506460E+04 0.  0.
        1    1    3    3  502    0 -0.41019659371E+03  0.75521583274E+03 -0.16106647054E+04  0.18256103069E+04  0.50400001928E-02 0. -1.
       -1    1    3    3    0  502  0.41019659371E+03 -0.75521583274E+03  0.13323785152E+04  0.15855108664E+04  0.50400001928E-02 0.  1.
</event>
<event>
 5   0  0.4775023E-08  0.3400820E+04  0.7818609E-02  0.8137705E-01
       -2   -1    0    0    0  501  0.00000000000E+00  0.00000000000E+00  0.14026024006E+04  0.14026024006E+04  0.25500000920E-02 0. -1.
        2   -1    0    0  501    0  0.00000000000E+00  0.00000000000E+00 -0.20614502046E+04  0.20614502046E+04  0.25500000920E-02 0.  1.
    10030    2    1    2    0    0  0.00000000000E+00  0.00000000000E+00 -0.65884780395E+03  0.34640526052E+04  0.34008204926E+04 0.  0.
        4    1    3    3  502    0 -0.55016165457E+03 -0.39031266365E+03 -0.19193338669E+04  0.20344202926E+04  0.12699999809E+01 0.  1.
       -4    1    3    3    0  502  0.55016165457E+03  0.39031266365E+03  0.12604860629E+04  0.14296323126E+04  0.12699999809E+01 0. -1.
</event>
<event>
 5   0  0.1625282E-08  0.3399933E+04  0.7818609E-02  0.8137923E-01
        1   -1    0    0  501    0  0.00000000000E+00  0.00000000000E+00  0.17693643047E+04  0.17693643047E+04  0.50400001928E-02 0.  1.
       -1   -1    0    0    0  501  0.00000000000E+00  0.00000000000E+00 -0.16332901609E+04  0.16332901609E+04  0.50400001928E-02 0. -1.
    10030    2    1    2    0    0  0.00000000000E+00  0.00000000000E+00  0.13607414379E+03  0.34026544657E+04  0.33999325347E+04 0.  0.
        1    1    3    3  502    0  0.37097937152E+03  0.66815900099E+03 -0.14516723256E+04  0.16405531645E+04  0.50400001928E-02 0. -1.
       -1    1    3    3    0  502 -0.37097937152E+03 -0.66815900099E+03  0.15877464693E+04  0.17621013012E+04  0.50400001928E-02 0.  1.
</event>
<event>
 5   0  0.5001197E-08  0.3402370E+04  0.7818609E-02  0.8137325E-01
       -2   -1    0    0    0  501  0.00000000000E+00  0.00000000000E+00  0.14209477409E+04  0.14209477409E+04  0.25500000920E-02 0.  1.
        2   -1    0    0  501    0  0.00000000000E+00  0.00000000000E+00 -0.20366903390E+04  0.20366903390E+04  0.25500000920E-02 0. -1.
    10030    2    1    2    0    0  0.00000000000E+00  0.00000000000E+00 -0.61574259806E+03  0.34576380799E+04  0.34023700775E+04 0.  0.
        5    1    3    3  502    0 -0.10637509961E+04  0.12417138213E+04 -0.78516967650E+03  0.18138172197E+04  0.46999998093E+01 0. -1.
       -5    1    3    3    0  502  0.10637509961E+04 -0.12417138213E+04  0.16942707844E+03  0.16438208602E+04  0.46999998093E+01 0.  1.
</event>
<event>
 5   0  0.5001197E-08  0.3400595E+04  0.7818609E-02  0.8137760E-01
        2   -1    0    0  501    0  0.00000000000E+00  0.00000000000E+00  0.25005392912E+04  0.25005392912E+04  0.25500000920E-02 0.  1.
       -2   -1    0    0    0  501  0.00000000000E+00  0.00000000000E+00 -0.11561552416E+04  0.11561552416E+04  0.25500000920E-02 0. -1.
    10030    2    1    2    0    0  0.00000000000E+00  0.00000000000E+00  0.13443840496E+04  0.36566945328E+04  0.34005950116E+04 0.  0.
        5    1    3    3  502    0  0.63112193960E+03 -0.40779338239E+03  0.23123059638E+04  0.24313352927E+04  0.46999998093E+01 0.  1.
       -5    1    3    3    0  502 -0.63112193960E+03  0.40779338239E+03 -0.96792191416E+03  0.12253592401E+04  0.46999998093E+01 0. -1.
</event>
<event>
 5   0  0.4764953E-08  0.3394987E+04  0.7818609E-02  0.8139138E-01
       -2   -1    0    0    0  501  0.00000000000E+00  0.00000000000E+00  0.13162750527E+04  0.13162750527E+04  0.25500000920E-02 0. -1.
        2   -1    0    0  501    0  0.00000000000E+00  0.00000000000E+00 -0.21891200662E+04  0.21891200662E+04  0.25500000920E-02 0.  1.
    10030    2    1    2    0    0  0.00000000000E+00  0.00000000000E+00 -0.87284501350E+03  0.35053951189E+04  0.33949869693E+04 0.  0.
        2    1    3    3  502    0 -0.11398139855E+04  0.30561029193E+02  0.86200047819E+03  0.14293896328E+04  0.25500000920E-02 0. -1.
       -2    1    3    3    0  502  0.11398139855E+04 -0.30561029193E+02 -0.17348454917E+04  0.20760054861E+04  0.25500000920E-02 0.  1.
</event>
<event>
 5   0  0.4764953E-08  0.3402894E+04  0.7818609E-02  0.8137196E-01
        2   -1    0    0  501    0  0.00000000000E+00  0.00000000000E+00  0.23429776581E+04  0.23429776581E+04  0.25500000920E-02 0.  1.
       -2   -1    0    0    0  501  0.00000000000E+00  0.00000000000E+00 -0.12355738221E+04  0.12355738221E+04  0.25500000920E-02 0. -1.
    10030    2    1    2    0    0  0.00000000000E+00  0.00000000000E+00  0.11074038360E+04  0.35785514803E+04  0.34028939803E+04 0.  0.
        2    1    3    3  502    0 -0.50003557212E+03  0.60474345955E+03 -0.10339210252E+04  0.12979764680E+04  0.25500000920E-02 0. -1.
       -2    1    3    3    0  502  0.50003557212E+03 -0.60474345955E+03  0.21413248612E+04  0.22805750122E+04  0.25500000920E-02 0.  1.
</event>
<event>
 5   0  0.4973409E-08  0.3402962E+04  0.7818609E-02  0.8137180E-01
       -2   -1    0    0    0  501  0.00000000000E+00  0.00000000000E+00  0.19211510654E+04  0.19211510654E+04  0.25500000920E-02 0.  1.
        2   -1    0    0  501    0  0.00000000000E+00  0.00000000000E+00 -0.15069285522E+04  0.15069285522E+04  0.25500000920E-02 0. -1.
    10030    2    1    2    0    0  0.00000000000E+00  0.00000000000E+00  0.41422251320E+03  0.34280796177E+04  0.34029618826E+04 0.  0.
        1    1    3    3  502    0  0.19122256254E+03  0.25445331697E+03 -0.14766698407E+04  0.15105847799E+04  0.50400001928E-02 0. -1.
       -1    1    3    3    0  502 -0.19122256254E+03 -0.25445331697E+03  0.18908923539E+04  0.19174948378E+04  0.50400001928E-02 0.  1.
</event>
<event>
 5   0  0.1579536E-08  0.3400085E+04  0.7818609E-02  0.8137885E-01
       -1   -1    0    0    0  501  0.00000000000E+00  0.00000000000E+00  0.10897282719E+04  0.10897282719E+04  0.50400001928E-02 0. -1.
        1   -1    0    0  501    0  0.00000000000E+00  0.00000000000E+00 -0.26521697420E+04  0.26521697420E+04  0.50400001928E-02 0.  1.
    10030    2    1    2    0    0  0.00000000000E+00  0.00000000000E+00 -0.15624414701E+04  0.37418980140E+04  0.34000849106E+04 0.  0.
        5    1    3    3  502    0  0.52620694146E+03  0.67316546060E+03  0.83625128839E+03  0.11955683962E+04  0.46999998093E+01 0. -1.
       -5    1    3    3    0  502 -0.52620694146E+03 -0.67316546060E+03 -0.23986927585E+04  0.25463296178E+04  0.46999998093E+01 0.  1.
</event>
<event>
 5   0  0.1630571E-08  0.3400008E+04  0.7818609E-02  0.8137904E-01
       -1   -1    0    0    0  501  0.00000000000E+00  0.00000000000E+00  0.12734695012E+04  0.12734695012E+04  0.50400001928E-02 0. -1.
        1   -1    0    0  501    0  0.00000000000E+00  0.00000000000E+00 -0.22694012155E+04  0.22694012155E+04  0.50400001928E-02 0.  1.
    10030    2    1    2    0    0  0.00000000000E+00  0.00000000000E+00 -0.99593171437E+03  0.35428707167E+04  0.34000077846E+04 0.  0.
        3    1    3    3  502    0  0.18558998032E+00  0.13809807706E+04  0.53510766789E+03  0.14810294223E+04  0.10100000352E+00 0.  1.
       -3    1    3    3    0  502 -0.18558998032E+00 -0.13809807706E+04 -0.15310393823E+04  0.20618412944E+04  0.10100000352E+00 0. -1.
</event>
<event>
 5   0  0.4946315E-08  0.3399617E+04  0.7818609E-02  0.8138000E-01
        2   -1    0    0  501    0  0.00000000000E+00  0.00000000000E+00  0.19565442856E+04  0.19565442856E+04  0.25500000920E-02 0.  1.
       -2   -1    0    0    0  501  0.00000000000E+00  0.00000000000E+00 -0.14767614003E+04  0.14767614003E+04  0.25500000920E-02 0. -1.
    10030    2    1    2    0    0  0.00000000000E+00  0.00000000000E+00  0.47978288523E+03  0.34333056859E+04  0.33996170837E+04 0.  0.
        3    1    3    3  502    0  0.12299117921E+04 -0.38697691307E+03  0.13585297664E+04  0.18729755161E+04  0.10100000352E+00 0.  1.
       -3    1    3    3    0  502 -0.12299117921E+04  0.38697691307E+03 -0.87874688116E+03  0.15603301698E+04  0.10100000352E+00 0. -1.
</event>
<event>
 5   0  0.1625282E-08  0.3376155E+04  0.7818609E-02  0.8143783E-01
        1   -1    0    0  501    0  0.00000000000E+00  0.00000000000E+00  0.16983965039E+04  0.16983965039E+04  0.50400001928E-02 0.  1.
       -1   -1    0    0    0  501  0.00000000000E+00  0.00000000000E+00 -0.16778215430E+04  0.16778215430E+04  0.50400001928E-02 0. -1.
    10030    2    1    2    0    0  0.00000000000E+00  0.00000000000E+00  0.20574960837E+02  0.33762180469E+04  0.33761553536E+04 0.  0.
        1    1    3    3  502    0 -0.30902165287E+03 -0.15785786433E+04 -0.50177800927E+03  0.16849884527E+04  0.50400001928E-02 0. -1.
       -1    1    3    3    0  502  0.30902165287E+03  0.15785786433E+04  0.52235297011E+03  0.16912295942E+04  0.50400001928E-02 0.  1.
</event>
<event>
 5   0  0.4764953E-08  0.3391787E+04  0.7818609E-02  0.8139925E-01
       -2   -1    0    0    0  501  0.00000000000E+00  0.00000000000E+00  0.13426057319E+04  0.13426057319E+04  0.25500000920E-02 0.  1.
        2   -1    0    0  501    0  0.00000000000E+00  0.00000000000E+00 -0.21421434113E+04  0.21421434113E+04  0.25500000920E-02 0. -1.
    10030    2    1    2    0    0  0.00000000000E+00  0.00000000000E+00 -0.79953767943E+03  0.34847491432E+04  0.33917865632E+04 0.  0.
        2    1    3    3  502    0 -0.84907175636E+03 -0.69419940003E+03 -0.17287515054E+04  0.20472951478E+04  0.25500000920E-02 0. -1.
       -2    1    3    3    0  502  0.84907175636E+03  0.69419940003E+03  0.92921382601E+03  0.14374539954E+04  0.25500000920E-02 0.  1.
</event>
<event>
 5   0  0.1645631E-08  0.3401369E+04  0.7818609E-02  0.8137570E-01
       -1   -1    0    0    0  501  0.00000000000E+00  0.00000000000E+00  0.16836268745E+04  0.16836268745E+04  0.50400001928E-02 0. -1.
        1   -1    0    0  501    0  0.00000000000E+00  0.00000000000E+00 -0.17179154399E+04  0.17179154399E+04  0.50400001928E-02 0.  1.
    10030    2    1    2    0    0  0.00000000000E+00  0.00000000000E+00 -0.34288565438E+02  0.34015423144E+04  0.34013694905E+04 0.  0.
        4    1    3    3  502    0 -0.15571393501E+04 -0.14567027292E+03 -0.68532806928E+03  0.17075066499E+04  0.12699999809E+01 0.  1.
       -4    1    3    3    0  502  0.15571393501E+04  0.14567027292E+03  0.65103950384E+03  0.16940356645E+04  0.12699999809E+01 0. -1.
</event>
<event>
 5   0  0.1625282E-08  0.3400367E+04  0.7818609E-02  0.8137816E-01
        1   -1    0    0  501    0  0.00000000000E+00  0.00000000000E+00  0.12873157475E+04  0.12873157475E+04  0.50400001928E-02 0. -1.
       -1   -1    0    0    0  501  0.00000000000E+00  0.00000000000E+00 -0.22454663117E+04  0.22454663117E+04  0.50400001928E-02 0.  1.
    10030    2    1    2    0    0  0.00000000000E+00  0.00000000000E+00 -0.95815056420E+03  0.35327820591E+04  0.34003671234E+04 0.  0.
        1    1    3    3  502    0 -0.86592024725E+02 -0.14691736304E+04 -0.13634913554E+04  0.20062597069E+04  0.50400001928E-02 0.  1.
       -1    1    3    3    0  502  0.86592024725E+02  0.14691736304E+04  0.40534079124E+03  0.15265223523E+04  0.50400001928E-02 0. -1.
</event>
<event>
 5   0  0.1595851E-08  0.3399503E+04  0.7818609E-02  0.8138028E-01
        1   -1    0    0  501    0  0.00000000000E+00  0.00000000000E+00  0.22299298154E+04  0.22299298154E+04  0.50400001928E-02 0.  1.
       -1   -1    0    0    0  501  0.00000000000E+00  0.00000000000E+00 -0.12956258480E+04  0.12956258480E+04  0.50400001928E-02 0. -1.
    10030    2    1    2    0    0  0.00000000000E+00  0.00000000000E+00  0.93430396738E+03  0.35255556635E+04  0.33995027332E+04 0.  0.
        2    1    3    3  502    0 -0.57774380899E+02 -0.66321058975E+03  0.20891025547E+04  0.21926093244E+04  0.25500000920E-02 0.  1.
       -2    1    3    3    0  502  0.57774380899E+02  0.66321058975E+03 -0.11547985873E+04  0.13329463390E+04  0.25500000920E-02 0. -1.
</event>
<event>
 5   0  0.1630571E-08  0.3397130E+04  0.7818609E-02  0.8138611E-01
        1   -1    0    0  501    0  0.00000000000E+00  0.00000000000E+00  0.18664888909E+04  0.18664888909E+04  0.50400001928E-02 0.  1.
       -1   -1    0    0    0  501  0.00000000000E+00  0.00000000000E+00 -0.15457485209E+04  0.15457485209E+04  0.50400001928E-02 0. -1.
    10030    2    1    2    0    0  0.00000000000E+00  0.00000000000E+00  0.32074037005E+03  0.34122374118E+04  0.33971296369E+04 0.  0.
        3    1    3    3  502    0  0.10462002380E+04 -0.92528612460E+02  0.15012323365E+04  0.18321558395E+04  0.10100000352E+00 0.  1.
       -3    1    3    3    0  502 -0.10462002380E+04  0.92528612460E+02 -0.11804919664E+04  0.15800815723E+04  0.10100000352E+00 0. -1.
</event>
<event>
 5   0  0.4775023E-08  0.3400734E+04  0.7818609E-02  0.8137726E-01
        2   -1    0    0  501    0  0.00000000000E+00  0.00000000000E+00  0.12367159875E+04  0.12367159875E+04  0.25500000920E-02 0. -1.
       -2   -1    0    0    0  501  0.00000000000E+00  0.00000000000E+00 -0.23378433388E+04  0.23378433388E+04  0.25500000920E-02 0.  1.
    10030    2    1    2    0    0  0.00000000000E+00  0.00000000000E+00 -0.11011273513E+04  0.35745593263E+04  0.34007341757E+04 0.  0.
        4    1    3    3  502    0 -0.12478950670E+04  0.69892156605E+03 -0.15170818192E+04  0.20850113460E+04  0.12699999809E+01 0.  1.
       -4    1    3    3    0  502  0.12478950670E+04 -0.69892156605E+03  0.41595446789E+03  0.14895479804E+04  0.12699999809E+01 0. -1.
</event>
<event>
 5   0  0.4775023E-08  0.3398825E+04  0.7818609E-02  0.8138195E-01
       -2   -1    0    0    0  501  0.00000000000E+00  0.00000000000E+00  0.11118073540E+04  0.11118073540E+04  0.25500000920E-02 0.  1.
        2   -1    0    0  501    0  0.00000000000E+00  0.00000000000E+00 -0.25975744594E+04  0.25975744594E+04  0.25500000920E-02 0. -1.
    10030    2    1    2    0    0  0.00000000000E+00  0.00000000000E+00 -0.14857671054E+04  0.37093818133E+04  0.33988247300E+04 0.  0.
        4    1    3    3  502    0 -0.31953785711E+03  0.13355688233E+04 -0.18354292767E+04  0.22923025033E+04  0.12699999809E+01 0. -1.
       -4    1    3    3    0  502  0.31953785711E+03 -0.13355688233E+04  0.34966217133E+03  0.14170793100E+04  0.12699999809E+01 0.  1.
</event>
<event>
 5   0  0.1595851E-08  0.3402180E+04  0.7818609E-02  0.8137371E-01
        1   -1    0    0  501    0  0.00000000000E+00  0.00000000000E+00  0.28573281267E+04  0.28573281267E+04  0.50400001928E-02 0. -1.
       -1   -1    0    0    0  501  0.00000000000E+00  0.00000000000E+00 -0.10127319946E+04  0.10127319946E+04  0.50400001928E-02 0.  1.
    10030    2    1    2    0    0  0.00000000000E+00  0.00000000000E+00  0.18445961322E+04  0.38700601213E+04  0.34021802497E+04 0.  0.
        2    1    3    3  502    0 -0.30260395390E+03  0.42064356925E+03 -0.92077002131E+03  0.10565640527E+04  0.25500000920E-02 0.  1.
       -2    1    3    3    0  502  0.30260395390E+03 -0.42064356925E+03  0.27653661535E+04  0.28134960686E+04  0.25500000920E-02 0. -1.
</event>
<event>
 5   0  0.4775023E-08  0.3401214E+04  0.7818609E-02  0.8137608E-01
       -2   -1    0    0    0  501  0.00000000000E+00  0.00000000000E+00  0.10166491828E+04  0.10166491828E+04  0.25500000920E-02 0. -1.
        2   -1    0    0  501    0  0.00000000000E+00  0.00000000000E+00 -0.28447018262E+04  0.28447018262E+04  0.25500000920E-02 0.  1.
    10030    2    1    2    0    0  0.00000000000E+00  0.00000000000E+00 -0.18280526434E+04  0.38613510090E+04  0.34012137756E+04 0.  0.
        4    1    3    3  502    0  0.42082006149E+03  0.90975545956E+03  0.64562620770E+03  0.11923000182E+04  0.12699999809E+01 0. -1.
       -4    1    3    3    0  502 -0.42082006149E+03 -0.90975545956E+03 -0.24736788511E+04  0.26690509908E+04  0.12699999809E+01 0.  1.
</event>
<event>
 5   0  0.4973409E-08  0.3402123E+04  0.7818609E-02  0.8137386E-01
       -2   -1    0    0    0  501  0.00000000000E+00  0.00000000000E+00  0.28017660122E+04  0.28017660122E+04  0.25500000920E-02 0. -1.
        2   -1    0    0  501    0  0.00000000000E+00  0.00000000000E+00 -0.10327806984E+04  0.10327806984E+04  0.25500000920E-02 0.  1.
    10030    2    1    2    0    0  0.00000000000E+00  0.00000000000E+00  0.17689853138E+04  0.38345467106E+04  0.34021227837E+04 0.  0.
        1    1    3    3  502    0 -0.12645809278E+04 -0.21829657166E+03 -0.37402981011E+03  0.13366811943E+04  0.50400001928E-02 0.  1.
       -1    1    3    3    0  502  0.12645809278E+04  0.21829657166E+03  0.21430151239E+04  0.24978655163E+04  0.50400001928E-02 0. -1.
</event>
<event>
 5   0  0.4775023E-08  0.3400050E+04  0.7818609E-02  0.8137894E-01
       -2   -1    0    0    0  501  0.00000000000E+00  0.00000000000E+00  0.18524975345E+04  0.18524975345E+04  0.25500000920E-02 0.  1.
        2   -1    0    0  501    0  0.00000000000E+00  0.00000000000E+00 -0.15601018475E+04  0.15601018475E+04  0.25500000920E-02 0. -1.
    10030    2    1    2    0    0  0.00000000000E+00  0.00000000000E+00  0.29239568707E+03  0.34125993820E+04  0.34000498973E+04 0.  0.
        4    1    3    3  502    0  0.33325773785E+03  0.13439779553E+04  0.11361169075E+04  0.17911171666E+04  0.12699999809E+01 0.  1.
       -4    1    3    3    0  502 -0.33325773785E+03 -0.13439779553E+04 -0.84372122047E+03  0.16214822154E+04  0.12699999809E+01 0. -1.
</event>
<event>
 5   0  0.1579536E-08  0.3399683E+04  0.7818609E-02  0.8137984E-01
        1   -1    0    0  501    0  0.00000000000E+00  0.00000000000E+00  0.25284952557E+04  0.25284952557E+04  0.50400001928E-02 0. -1.
       -1   -1    0    0    0  501  0.00000000000E+00  0.00000000000E+00 -0.11427592098E+04  0.11427592098E+04  0.50400001928E-02 0.  1.
    10030    2    1    2    0    0  0.00000000000E+00  0.00000000000E+00  0.13857360458E+04  0.36712544655E+04  0.33996830678E+04 0.  0.
        5    1    3    3  502    0  0.80630991594E+03  0.12715592495E+04  0.15448393770E+04  0.21572087048E+04  0.46999998093E+01 0. -1.
       -5    1    3    3    0  502 -0.80630991594E+03 -0.12715592495E+04 -0.15910333114E+03  0.15140457607E+04  0.46999998093E+01 0.  1.
</event>
<event>
 5   0  0.5001197E-08  0.3401763E+04  0.7818609E-02  0.8137474E-01
       -2   -1    0    0    0  501  0.00000000000E+00  0.00000000000E+00  0.10082137804E+04  0.10082137804E+04  0.25500000920E-02 0. -1.
        2   -1    0    0  501    0  0.00000000000E+00  0.00000000000E+00 -0.28694287220E+04  0.28694287220E+04  0.25500000920E-02 0.  1.
    10030    2    1    2    0    0  0.00000000000E+00  0.00000000000E+00 -0.18612149416E+04  0.38776425024E+04  0.34017628250E+04 0.  0.
        5    1    3    3  502    0 -0.69942117146E+03 -0.10952121517E+04 -0.21815297641E+04  0.25392467060E+04  0.46999998093E+01 0.  1.
       -5    1    3    3    0  502  0.69942117146E+03  0.10952121517E+04  0.32031482248E+03  0.13383957964E+04  0.46999998093E+01 0. -1.
</event>
<event>
 5   0  0.1579536E-08  0.3399181E+04  0.7818609E-02  0.8138107E-01
        1   -1    0    0  501    0  0.00000000000E+00  0.00000000000E+00  0.22302329645E+04  0.22302329645E+04  0.50400001928E-02 0.  1.
       -1   -1    0    0    0  501  0.00000000000E+00  0.00000000000E+00 -0.12952042095E+04  0.12952042095E+04  0.50400001928E-02 0. -1.
    10030    2    1    2    0    0  0.00000000000E+00  0.00000000000E+00  0.93502875494E+03  0.35254371740E+04  0.33991805623E+04 0.  0.
        5    1    3    3  502    0  0.61353736317E+03 -0.15023073571E+04 -0.56452961113E+02  0.16237501402E+04  0.46999998093E+01 0. -1.
       -5    1    3    3    0  502 -0.61353736317E+03  0.15023073571E+04  0.99148171606E+03  0.19016870338E+04  0.46999998093E+01 0.  1.
</event>
<event>
 5   0  0.1630571E-08  0.3402766E+04  0.7818609E-02  0.8137228E-01
        1   -1    0    0  501    0  0.00000000000E+00  0.00000000000E+00  0.14906258410E+04  0.14906258410E+04  0.50400001928E-02 0.  1.
       -1   -1    0    0    0  501  0.00000000000E+00  0.00000000000E+00 -0.19419386109E+04  0.19419386109E+04  0.50400001928E-02 0. -1.
    10030    2    1    2    0    0  0.00000000000E+00  0.00000000000E+00 -0.45131276990E+03  0.34325644518E+04  0.34027658603E+04 0.  0.
        3    1    3    3  502    0  0.81924864843E+03 -0.13922580596E+03  0.12719834169E+04  0.15193728957E+04  0.10100000352E+00 0.  1.
       -3    1    3    3    0  502 -0.81924864843E+03  0.13922580596E+03 -0.17232961868E+04  0.19131915562E+04  0.10100000352E+00 0. -1.
</event>
<event>
 5   0  0.4946315E-08  0.3399913E+04  0.7818609E-02  0.8137928E-01
       -2   -1    0    0    0  501  0.00000000000E+00  0.00000000000E+00  0.13542436517E+04  0.13542436517E+04  0.25500000920E-02 0.  1.
        2   -1    0    0  501    0  0.00000000000E+00  0.00000000000E+00 -0.21339233259E+04  0.21339233259E+04  0.25500000920E-02 0. -1.
    10030    2    1    2    0    0  0.00000000000E+00  0.00000000000E+00 -0.77967967420E+03  0.34881669777E+04  0.33999130091E+04 0.  0.
        3    1    3    3  502    0  0.41457589729E+03  0.48051629242E+03  0.12281455792E+04  0.13824292589E+04  0.10100000352E+00 0.  1.
       -3    1    3    3    0  502 -0.41457589729E+03 -0.48051629242E+03 -0.20078252534E+04  0.21057377188E+04  0.10100000352E+00 0. -1.
</event>
<event>
 5   0  0.1625282E-08  0.3401748E+04  0.7818609E-02  0.8137477E-01
        1   -1    0    0  501    0  0.00000000000E+00  0.00000000000E+00  0.18532688175E+04  0.18532688175E+04  0.50400001928E-02 0. -1.
       -1   -1    0    0    0  501  0.00000000000E+00  0.00000000000E+00 -0.15610106274E+04  0.15610106274E+04  0.50400001928E-02 0.  1.
    10030    2    1    2    0    0  0.00000000000E+00  0.00000000000E+00  0.29225819013E+03  0.34142794449E+04  0.34017479739E+04 0.  0.
        1    1    3    3  502    0 -0.75820923503E+03 -0.38634809207E+03 -0.13319895897E+04  0.15806145511E+04  0.50400001928E-02 0.  1.
       -1    1    3    3    0  502  0.75820923503E+03  0.38634809207E+03  0.16242477798E+04  0.18336648937E+04  0.50400001928E-02 0. -1.
</event>
<event>
 5   0  0.1645631E-08  0.3399480E+04  0.7818609E-02  0.8138034E-01
       -1   -1    0    0    0  501  0.00000000000E+00  0.00000000000E+00  0.25440256047E+04  0.25440256047E+04  0.50400001928E-02 0. -1.
        1   -1    0    0  501    0  0.00000000000E+00  0.00000000000E+00 -0.11356470688E+04  0.11356470688E+04  0.50400001928E-02 0.  1.
    10030    2    1    2    0    0  0.00000000000E+00  0.00000000000E+00  0.14083785359E+04  0.36796726735E+04  0.33994795019E+04 0.  0.
        4    1    3    3  502    0  0.13198162082E+02 -0.99972395424E+03  0.21920737840E+04  0.24093175929E+04  0.12699999809E+01 0. -1.
       -4    1    3    3    0  502 -0.13198162082E+02  0.99972395424E+03 -0.78369524806E+03  0.12703550806E+04  0.12699999809E+01 0.  1.
</event>
<event>
 5   0  0.1579536E-08  0.3398188E+04  0.7818609E-02  0.8138351E-01
       -1   -1    0    0    0  501  0.00000000000E+00  0.00000000000E+00  0.12803588630E+04  0.12803588630E+04  0.50400001928E-02 0.  1.
        1   -1    0    0  501    0  0.00000000000E+00  0.00000000000E+00 -0.22547745446E+04  0.22547745446E+04  0.50400001928E-02 0. -1.
    10030    2    1    2    0    0  0.00000000000E+00  0.00000000000E+00 -0.97441568161E+03  0.35351334075E+04  0.33981880891E+04 0.  0.
        5    1    3    3  502    0  0.15776254325E+04  0.79786323534E+02 -0.11382314135E+04  0.19470132777E+04  0.46999998093E+01 0. -1.
       -5    1    3    3    0  502 -0.15776254325E+04 -0.79786323534E+02  0.16381573188E+03  0.15881201299E+04  0.46999998093E+01 0.  1.
</event>
<event>
 5   0  0.1625282E-08  0.3396906E+04  0.7818609E-02  0.8138666E-01
       -1   -1    0    0    0  501  0.00000000000E+00  0.00000000000E+00  0.20753072151E+04  0.20753072151E+04  0.50400001928E-02 0.  1.
        1   -1    0    0  501    0  0.00000000000E+00  0.00000000000E+00 -0.13900319912E+04  0.13900319912E+04  0.50400001928E-02 0. -1.
    10030    2    1    2    0    0  0.00000000000E+00  0.00000000000E+00  0.68527522390E+03  0.34653392064E+04  0.33969064872E+04 0.  0.
        1    1    3    3  502    0  0.12932562976E+04 -0.10372872586E+04 -0.33942213919E+02  0.16582004649E+04  0.50400001928E-02 0.  1.
       -1    1    3    3    0  502 -0.12932562976E+04  0.10372872586E+04  0.71921743782E+03  0.18071387415E+04  0.50400001928E-02 0. -1.
</event>
<event>
 5   0  0.1625282E-08  0.3400322E+04  0.7818609E-02  0.8137827E-01
        1   -1    0    0  501    0  0.00000000000E+00  0.00000000000E+00  0.14329797770E+04  0.14329797770E+04  0.50400001928E-02 0. -1.
       -1   -1    0    0    0  501  0.00000000000E+00  0.00000000000E+00 -0.20171590302E+04  0.20171590302E+04  0.50400001928E-02 0.  1.
    10030    2    1    2    0    0  0.00000000000E+00  0.00000000000E+00 -0.58417925316E+03  0.34501388072E+04  0.34003223949E+04 0.  0.
        1    1    3    3  502    0  0.96742353489E+03  0.51973439813E+03 -0.16089933845E+04  0.19480482160E+04  0.50400001928E-02 0.  1.
       -1    1    3    3    0  502 -0.96742353489E+03 -0.51973439813E+03  0.10248141313E+04  0.15020905912E+04  0.50400001928E-02 0. -1.
</event>
<event>
 5   0  0.4775023E-08  0.3405204E+04  0.7818609E-02  0.8136630E-01
       -2   -1    0    0    0  501  0.00000000000E+00  0.00000000000E+00  0.14105924353E+04  0.14105924353E+04  0.25500000920E-02 0. -1.
        2   -1    0    0  501    0  0.00000000000E+00  0.00000000000E+00 -0.20550606713E+04  0.20550606713E+04  0.25500000920E-02 0.  1.
    10030    2    1    2    0    0  0.00000000000E+00  0.00000000000E+00 -0.64446823603E+03  0.34656531065E+04  0.34052036867E+04 0.  0.
        4    1    3    3  502    0  0.74288328396E+03  0.66424336238E+03  0.10827639013E+04  0.14715549928E+04  0.12699999809E+01 0. -1.
       -4    1    3    3    0  502 -0.74288328396E+03 -0.66424336238E+03 -0.17272321373E+04  0.19940981137E+04  0.12699999809E+01 0.  1.
</event>
<event>
 5   0  0.1645631E-08  0.3402428E+04  0.7818609E-02  0.8137311E-01
        1   -1    0    0  501    0  0.00000000000E+00  0.00000000000E+00  0.12399119436E+04  0.12399119436E+04  0.50400001928E-02 0. -1.
       -1   -1    0    0    0  501  0.00000000000E+00  0.00000000000E+00 -0.23341403183E+04  0.23341403183E+04  0.50400001928E-02 0.  1.
    10030    2    1    2    0    0  0.00000000000E+00  0.00000000000E+00 -0.10942283747E+04  0.35740522620E+04  0.34024276385E+04 0.  0.
        4    1    3    3  502    0  0.55487392919E+03  0.15950169409E+04 -0.33142104037E+03  0.17209897263E+04  0.12699999809E+01 0. -1.
       -4    1    3    3    0  502 -0.55487392919E+03 -0.15950169409E+04 -0.76280733431E+03  0.18530625357E+04  0.12699999809E+01 0.  1.
</event>
<event>
 5   0  0.1625282E-08  0.3397868E+04  0.7818609E-02  0.8138430E-01
        1   -1    0    0  501    0  0.00000000000E+00  0.00000000000E+00  0.20941807197E+04  0.20941807197E+04  0.50400001928E-02 0.  1.
       -1   -1    0    0    0  501  0.00000000000E+00  0.00000000000E+00 -0.13782845865E+04  0.13782845865E+04  0.50400001928E-02 0. -1.
    10030    2    1    2    0    0  0.00000000000E+00  0.00000000000E+00  0.71589613321E+03  0.34724653062E+04  0.33978681595E+04 0.  0.
        1    1    3    3  502    0  0.47927750706E+02 -0.88669926785E+03  0.18381399635E+04  0.20413944220E+04  0.50400001928E-02 0.  1.
       -1    1    3    3    0  502 -0.47927750706E+02  0.88669926785E+03 -0.11222438303E+04  0.14310708842E+04  0.50400001928E-02 0. -1.
</event>
<event>
 5   0  0.1630571E-08  0.3400316E+04  0.7818609E-02  0.8137829E-01
        1   -1    0    0  501    0  0.00000000000E+00  0.00000000000E+00  0.21075795446E+04  0.21075795446E+04  0.50400001928E-02 0.  1.
       -1   -1    0    0    0  501  0.00000000000E+00  0.00000000000E+00 -0.13714959759E+04  0.13714959759E+04  0.50400001928E-02 0. -1.
    10030    2    1    2    0    0  0.00000000000E+00  0.00000000000E+00  0.73608356867E+03  0.34790755205E+04  0.34003157879E+04 0.  0.
        3    1    3    3  502    0 -0.79793314752E+03  0.12824624770E+04 -0.43050329029E+03  0.15705860072E+04  0.10100000352E+00 0. -1.
       -3    1    3    3    0  502  0.79793314752E+03 -0.12824624770E+04  0.11665868590E+04  0.19084895133E+04  0.10100000352E+00 0.  1.
</event>
<event>
 5   0  0.1630571E-08  0.3399896E+04  0.7818609E-02  0.8137932E-01
       -1   -1    0    0    0  501  0.00000000000E+00  0.00000000000E+00  0.12821608802E+04  0.12821608803E+04  0.50400001928E-02 0.  1.
        1   -1    0    0  501    0  0.00000000000E+00  0.00000000000E+00 -0.22538700815E+04  0.22538700815E+04  0.50400001928E-02 0. -1.
    10030    2    1    2    0    0  0.00000000000E+00  0.00000000000E+00 -0.97170920125E+03  0.35360309618E+04  0.33998964971E+04 0.  0.
        3    1    3    3  502    0 -0.45917140971E+03  0.13187248352E+04 -0.14941849664E+04  0.20451069161E+04  0.10100000352E+00 0.  1.
       -3    1    3    3    0  502  0.45917140971E+03 -0.13187248352E+04  0.52247576513E+03  0.14909240456E+04  0.10100000352E+00 0. -1.
</event>
<event>
 5   0  0.4775023E-08  0.3402731E+04  0.7818609E-02  0.8137236E-01
        2   -1    0    0  501    0  0.00000000000E+00  0.00000000000E+00  0.13516774599E+04  0.13516774599E+04  0.25500000920E-02 0.  1.
       -2   -1    0    0    0  501  0.00000000000E+00  0.00000000000E+00 -0.21415197443E+04  0.21415197443E+04  0.25500000920E-02 0. -1.
    10030    2    1    2    0    0  0.00000000000E+00  0.00000000000E+00 -0.78984228442E+03  0.34931972042E+04  0.34027306495E+04 0.  0.
        4    1    3    3  502    0  0.13816500021E+04  0.97226513199E+03 -0.60122706949E+03  0.17932461674E+04  0.12699999809E+01 0.  1.
       -4    1    3    3    0  502 -0.13816500021E+04 -0.97226513199E+03 -0.18861521493E+03  0.16999510367E+04  0.12699999809E+01 0. -1.
</event>
<event>
 5   0  0.1595851E-08  0.3400135E+04  0.7818609E-02  0.8137873E-01
        1   -1    0    0  501    0  0.00000000000E+00  0.00000000000E+00  0.19497922537E+04  0.19497922537E+04  0.50400001928E-02 0. -1.
       -1   -1    0    0    0  501  0.00000000000E+00  0.00000000000E+00 -0.14823271127E+04  0.14823271127E+04  0.50400001928E-02 0.  1.
    10030    2    1    2    0    0  0.00000000000E+00  0.00000000000E+00  0.46746514101E+03  0.34321193665E+04  0.34001352455E+04 0.  0.
        2    1    3    3  502    0 -0.76154301481E+02 -0.14232449304E+03  0.19420395083E+04  0.19487363061E+04  0.25500000920E-02 0. -1.
       -2    1    3    3    0  502  0.76154301481E+02  0.14232449304E+03 -0.14745743673E+04  0.14833830603E+04  0.25500000920E-02 0.  1.
</event>
<event>
 5   0  0.1645631E-08  0.3400170E+04  0.7818609E-02  0.8137865E-01
       -1   -1    0    0    0  501  0.00000000000E+00  0.00000000000E+00  0.13561519377E+04  0.13561519377E+04  0.50400001928E-02 0.  1.
        1   -1    0    0  501    0  0.00000000000E+00  0.00000000000E+00 -0.21312427966E+04  0.21312427966E+04  0.50400001928E-02 0. -1.
    10030    2    1    2    0    0  0.00000000000E+00  0.00000000000E+00 -0.77509085890E+03  0.34873947343E+04  0.34001700242E+04 0.  0.
        4    1    3    3  502    0 -0.68298656528E+03 -0.55852381515E+03  0.11029609915E+04  0.14124248872E+04  0.12699999809E+01 0. -1.
       -4    1    3    3    0  502  0.68298656528E+03  0.55852381515E+03 -0.18780518504E+04  0.20749698470E+04  0.12699999809E+01 0.  1.
</event>
<event>
 5   0  0.4775023E-08  0.3400874E+04  0.7818609E-02  0.8137692E-01
       -2   -1    0    0    0  501  0.00000000000E+00  0.00000000000E+00  0.10468739267E+04  0.10468739267E+04  0.25500000920E-02 0.  1.
        2   -1    0    0  501    0  0.00000000000E+00  0.00000000000E+00 -0.27620197260E+04  0.27620197260E+04  0.25500000920E-02 0. -1.
    10030    2    1    2    0    0  0.00000000000E+00  0.00000000000E+00 -0.17151457993E+04  0.38088936527E+04  0.34008742618E+04 0.  0.
        4    1    3    3  502    0 -0.69472069731E+03 -0.72791625206E+03  0.67764502665E+03  0.12131377961E+04  0.12699999809E+01 0.  1.
       -4    1    3    3    0  502  0.69472069731E+03  0.72791625206E+03 -0.23927908260E+04  0.25957558566E+04  0.12699999809E+01 0. -1.
</event>
<event>
 5   0  0.5001197E-08  0.3401274E+04  0.7818609E-02  0.8137594E-01
        2   -1    0    0  501    0  0.00000000000E+00  0.00000000000E+00  0.17150397881E+04  0.17150397881E+04  0.25500000920E-02 0. -1.
       -2   -1    0    0    0  501  0.00000000000E+00  0.00000000000E+00 -0.16863553675E+04  0.16863553675E+04  0.25500000920E-02 0.  1.
    10030    2    1    2    0    0  0.00000000000E+00  0.00000000000E+00  0.28684420539E+02  0.34013951556E+04  0.34012742037E+04 0.  0.
        5    1    3    3  502    0 -0.65682393882E+03 -0.15131159600E+04 -0.39944401951E+03  0.16972080631E+04  0.46999998093E+01 0. -1.
       -5    1    3    3    0  502  0.65682393882E+03  0.15131159600E+04  0.42812844005E+03  0.17041870924E+04  0.46999998093E+01 0.  1.
</event>
<event>
 5   0  0.1645631E-08  0.3399588E+04  0.7818609E-02  0.8138007E-01
       -1   -1    0    0    0  501  0.00000000000E+00  0.00000000000E+00  0.18815682855E+04  0.18815682855E+04  0.50400001928E-02 0.  1.
        1   -1    0    0  501    0  0.00000000000E+00  0.00000000000E+00 -0.15355807376E+04  0.15355807376E+04  0.50400001928E-02 0. -1.
    10030    2    1    2    0    0  0.00000000000E+00  0.00000000000E+00  0.34598754786E+03  0.34171490231E+04  0.33995882196E+04 0.  0.
        4    1    3    3  502    0  0.90678341940E+03  0.80443897081E+03 -0.10247655721E+04  0.15873009539E+04  0.12699999809E+01 0. -1.
       -4    1    3    3    0  502 -0.90678341940E+03 -0.80443897081E+03  0.13707531200E+04  0.18298480692E+04  0.12699999809E+01 0.  1.
</event>
<event>
 5   0  0.4775023E-08  0.3400119E+04  0.7818609E-02  0.8137877E-01
        2   -1    0    0  501    0  0.00000000000E+00  0.00000000000E+00  0.20553729202E+04  0.20553729202E+04  0.25500000920E-02 0. -1.
       -2   -1    0    0    0  501  0.00000000000E+00  0.00000000000E+00 -0.14061693612E+04  0.14061693612E+04  0.25500000920E-02 0.  1.
    10030    2    1    2    0    0  0.00000000000E+00  0.00000000000E+00  0.64920355908E+03  0.34615422814E+04  0.34001190721E+04 0.  0.
        4    1    3    3  502    0 -0.87600041736E+03  0.12865983365E+04  0.10206849294E+04  0.18613197868E+04  0.12699999809E+01 0. -1.
       -4    1    3    3    0  502  0.87600041736E+03 -0.12865983365E+04 -0.37148137033E+03  0.16002224946E+04  0.12699999809E+01 0.  1.
</event>
<event>
 5   0  0.4946315E-08  0.3398959E+04  0.7818609E-02  0.8138162E-01
       -2   -1    0    0    0  501  0.00000000000E+00  0.00000000000E+00  0.31723728168E+04  0.31723728168E+04  0.25500000920E-02 0. -1.
        2   -1    0    0  501    0  0.00000000000E+00  0.00000000000E+00 -0.91043248507E+03  0.91043248507E+03  0.25500000920E-02 0.  1.
    10030    2    1    2    0    0  0.00000000000E+00  0.00000000000E+00  0.22619403317E+04  0.40828053019E+04  0.33989594097E+04 0.  0.
        3    1    3    3  502    0  0.21449692786E+03  0.16341324182E+04  0.63304200194E+03  0.17655423752E+04  0.10100000352E+00 0.  1.
       -3    1    3    3    0  502 -0.21449692786E+03 -0.16341324182E+04  0.16288983298E+04  0.23172629266E+04  0.10100000352E+00 0. -1.
</event>
<event>
 5   0  0.1579536E-08  0.3401692E+04  0.7818609E-02  0.8137491E-01
       -1   -1    0    0    0  501  0.00000000000E+00  0.00000000000E+00  0.14776431030E+04  0.14776431030E+04  0.50400001928E-02 0.  1.
        1   -1    0    0  501    0  0.00000000000E+00  0.00000000000E+00 -0.19577645266E+04  0.19577645266E+04  0.50400001928E-02 0. -1.
    10030    2    1    2    0    0  0.00000000000E+00  0.00000000000E+00 -0.48012142361E+03  0.34354076297E+04  0.34016920790E+04 0.  0.
        5    1    3    3  502    0  0.62323301082E+03 -0.13435687987E+04  0.60444424522E+03  0.15996785422E+04  0.46999998093E+01 0.  1.
       -5    1    3    3    0  502 -0.62323301082E+03  0.13435687987E+04 -0.10845656688E+04  0.18357290875E+04  0.46999998093E+01 0. -1.
</event>
<event>
 5   0  0.4764953E-08  0.3400565E+04  0.7818609E-02  0.8137768E-01
        2   -1    0    0  501    0  0.00000000000E+00  0.00000000000E+00  0.21339540094E+04  0.21339540094E+04  0.25500000920E-02 0.  1.
       -2   -1    0    0    0  501  0.00000000000E+00  0.00000000000E+00 -0.13547440165E+04  0.13547440165E+04  0.25500000920E-02 0. -1.
    10030    2    1    2    0    0  0.00000000000E+00  0.00000000000E+00  0.77920999288E+03  0.34886980260E+04  0.34005654976E+04 0.  0.
        2    1    3    3  502    0 -0.12724084772E+04  0.92177747354E+03  0.10562650926E+04  0.18932493205E+04  0.25500000920E-02 0.  1.
       -2    1    3    3    0  502  0.12724084772E+04 -0.92177747354E+03 -0.27705509970E+03  0.15954487055E+04  0.25500000920E-02 0. -1.
</event>
<event>
 5   0  0.1573625E-08  0.3400095E+04  0.7818609E-02  0.8137883E-01
        3   -1    0    0  501    0  0.00000000000E+00  0.00000000000E+00  0.19852290778E+04  0.19852290804E+04  0.10100000352E+00 0. -1.
       -3   -1    0    0    0  501  0.00000000000E+00  0.00000000000E+00 -0.14558329635E+04  0.14558329670E+04  0.10100000352E+00 0.  1.
    10030    2    1    2    0    0  0.00000000000E+00  0.00000000000E+00  0.52939611433E+03  0.34410620474E+04  0.34000952587E+04 0.  0.
        2    1    3    3  502    0  0.59553271405E+03  0.13549474750E+04  0.11112089451E+04  0.18507639485E+04  0.25500000920E-02 0. -1.
       -2    1    3    3    0  502 -0.59553271405E+03 -0.13549474750E+04 -0.58181283075E+03  0.15902980989E+04  0.25500000920E-02 0.  1.
</event>
<event>
 5   0  0.4764953E-08  0.3398674E+04  0.7818609E-02  0.8138232E-01
        2   -1    0    0  501    0  0.00000000000E+00  0.00000000000E+00  0.18558033229E+04  0.18558033229E+04  0.25500000920E-02 0.  1.
       -2   -1    0    0    0  501  0.00000000000E+00  0.00000000000E+00 -0.15560623539E+04  0.15560623539E+04  0.25500000920E-02 0. -1.
    10030    2    1    2    0    0  0.00000000000E+00  0.00000000000E+00  0.29974096897E+03  0.34118656767E+04  0.33986736748E+04 0.  0.
        2    1    3    3  502    0  0.14320050903E+04 -0.52085979351E+03  0.90499506039E+03  0.17722724289E+04  0.25500000920E-02 0. -1.
       -2    1    3    3    0  502 -0.14320050903E+04  0.52085979351E+03 -0.60525409142E+03  0.16395932478E+04  0.25500000920E-02 0.  1.
</event>
<event>
 5   0  0.1630571E-08  0.3400253E+04  0.7818609E-02  0.8137844E-01
       -1   -1    0    0    0  501  0.00000000000E+00  0.00000000000E+00  0.16848360548E+04  0.16848360548E+04  0.50400001928E-02 0. -1.
        1   -1    0    0  501    0  0.00000000000E+00  0.00000000000E+00 -0.17155553905E+04  0.17155553906E+04  0.50400001928E-02 0.  1.
    10030    2    1    2    0    0  0.00000000000E+00  0.00000000000E+00 -0.30719335713E+02  0.34003914454E+04  0.34002526824E+04 0.  0.
        3    1    3    3  502    0  0.39733980523E+03  0.85731979885E+02 -0.16662452199E+04  0.17151099196E+04  0.10100000352E+00 0.  1.
       -3    1    3    3    0  502 -0.39733980523E+03 -0.85731979885E+02  0.16355258842E+04  0.16852815258E+04  0.10100000352E+00 0. -1.
</event>
<event>
 5   0  0.4946315E-08  0.3388181E+04  0.7818609E-02  0.8140813E-01
        2   -1    0    0  501    0  0.00000000000E+00  0.00000000000E+00  0.18844331160E+04  0.18844331160E+04  0.25500000920E-02 0. -1.
       -2   -1    0    0    0  501  0.00000000000E+00  0.00000000000E+00 -0.15229742604E+04  0.15229742604E+04  0.25500000920E-02 0.  1.
    10030    2    1    2    0    0  0.00000000000E+00  0.00000000000E+00  0.36145885551E+03  0.34074073764E+04  0.33881813004E+04 0.  0.
        3    1    3    3  502    0  0.91646210248E+03 -0.12827898348E+04 -0.44286218793E+03  0.16375528918E+04  0.10100000352E+00 0. -1.
       -3    1    3    3    0  502 -0.91646210248E+03  0.12827898348E+04  0.80432104344E+03  0.17698544846E+04  0.10100000352E+00 0.  1.
</event>
<event>
 5   0  0.1645631E-08  0.3397375E+04  0.7818609E-02  0.8138551E-01
        1   -1    0    0  501    0  0.00000000000E+00  0.00000000000E+00  0.10456326805E+04  0.10456326805E+04  0.50400001928E-02 0. -1.
       -1   -1    0    0    0  501  0.00000000000E+00  0.00000000000E+00 -0.27596113682E+04  0.27596113682E+04  0.50400001928E-02 0.  1.
    10030    2    1    2    0    0  0.00000000000E+00  0.00000000000E+00 -0.17139786877E+04  0.38052440488E+04  0.33973753588E+04 0.  0.
        4    1    3    3  502    0 -0.54211377616E+03  0.14939908864E+04 -0.18529104561E+03  0.16000720294E+04  0.12699999809E+01 0.  1.
       -4    1    3    3    0  502  0.54211377616E+03 -0.14939908864E+04 -0.15286876421E+04  0.22051720193E+04  0.12699999809E+01 0. -1.
</event>
<event>
 5   0  0.1625282E-08  0.3399848E+04  0.7818609E-02  0.8137944E-01
       -1   -1    0    0    0  501  0.00000000000E+00  0.00000000000E+00  0.15871457327E+04  0.15871457328E+04  0.50400001928E-02 0.  1.
        1   -1    0    0  501    0  0.00000000000E+00  0.00000000000E+00 -0.18207162696E+04  0.18207162696E+04  0.50400001928E-02 0. -1.
    10030    2    1    2    0    0  0.00000000000E+00  0.00000000000E+00 -0.23357053681E+03  0.34078620023E+04  0.33998482659E+04 0.  0.
        1    1    3    3  502    0 -0.79706108870E+03 -0.14485121605E+04 -0.51299941345E+03  0.17310870158E+04  0.50400001928E-02 0. -1.
       -1    1    3    3    0  502  0.79706108870E+03  0.14485121605E+04  0.27942887663E+03  0.16767749865E+04  0.50400001928E-02 0.  1.
</event>
<event>
 5   0  0.4764953E-08  0.3399032E+04  0.7818609E-02  0.8138144E-01
       -2   -1    0    0    0  501  0.00000000000E+00  0.00000000000E+00  0.16636782434E+04  0.16636782434E+04  0.25500000920E-02 0.  1.
        2   -1    0    0  501    0  0.00000000000E+00  0.00000000000E+00 -0.17361261819E+04  0.17361261819E+04  0.25500000920E-02 0. -1.
    10030    2    1    2    0    0  0.00000000000E+00  0.00000000000E+00 -0.72447938520E+02  0.33998044252E+04  0.33990324250E+04 0.  0.
        2    1    3    3  502    0  0.73215272657E+03 -0.10625889055E+04 -0.11424645684E+04  0.17234755836E+04  0.25500000920E-02 0. -1.
       -2    1    3    3    0  502 -0.73215272657E+03  0.10625889055E+04  0.10700166299E+04  0.16763288417E+04  0.25500000920E-02 0.  1.
</event>
<event>
 5   0  0.1630571E-08  0.3398175E+04  0.7818609E-02  0.8138354E-01
        1   -1    0    0  501    0  0.00000000000E+00  0.00000000000E+00  0.19758163539E+04  0.19758163539E+04  0.50400001928E-02 0.  1.
       -1   -1    0    0    0  501  0.00000000000E+00  0.00000000000E+00 -0.14611164893E+04  0.14611164893E+04  0.50400001928E-02 0. -1.
    10030    2    1    2    0    0  0.00000000000E+00  0.00000000000E+00  0.51469986458E+03  0.34369328432E+04  0.33981747186E+04 0.  0.
        3    1    3    3  502    0 -0.21909066137E+03 -0.16306269590E+04  0.68639676734E+03  0.17827185784E+04  0.10100000352E+00 0.  1.
       -3    1    3    3    0  502  0.21909066137E+03  0.16306269590E+04 -0.17169690276E+03  0.16542142648E+04  0.10100000352E+00 0. -1.
</event>
<event>
 5   0  0.4775023E-08  0.3399996E+04  0.7818609E-02  0.8137907E-01
        2   -1    0    0  501    0  0.00000000000E+00  0.00000000000E+00  0.21246053173E+04  0.21246053173E+04  0.25500000920E-02 0.  1.
       -2   -1    0    0    0  501  0.00000000000E+00  0.00000000000E+00 -0.13602493694E+04  0.13602493694E+04  0.25500000920E-02 0. -1.
    10030    2    1    2    0    0  0.00000000000E+00  0.00000000000E+00  0.76435594783E+03  0.34848546867E+04  0.33999959077E+04 0.  0.
        4    1    3    3  502    0 -0.14121681063E+04 -0.15338916258E+03  0.13394279906E+04  0.19523872440E+04  0.12699999809E+01 0.  1.
       -4    1    3    3    0  502  0.14121681063E+04  0.15338916258E+03 -0.57507204275E+03  0.15324674427E+04  0.12699999809E+01 0. -1.
</event>
<event>
 5   0  0.4946315E-08  0.3399315E+04  0.7818609E-02  0.8138075E-01
        2   -1    0    0  501    0  0.00000000000E+00  0.00000000000E+00  0.10398400067E+04  0.10398400067E+04  0.25500000920E-02 0. -1.
       -2   -1    0    0    0  501  0.00000000000E+00  0.00000000000E+00 -0.27781532243E+04  0.27781532243E+04  0.25500000920E-02 0.  1.
    10030    2    1    2    0    0  0.00000000000E+00  0.00000000000E+00 -0.17383132176E+04  0.38179932310E+04  0.33993145588E+04 0.  0.
        3    1    3    3  502    0  0.91486456876E+03 -0.91539060004E+03  0.36832406930E+03  0.13455778536E+04  0.10100000352E+00 0. -1.
       -3    1    3    3    0  502 -0.91486456876E+03  0.91539060004E+03 -0.21066372869E+04  0.24724153774E+04  0.10100000352E+00 0.  1.
</event>
<event>
 5   0  0.5001197E-08  0.3399459E+04  0.7818609E-02  0.8138039E-01
        2   -1    0    0  501    0  0.00000000000E+00  0.00000000000E+00  0.19988453515E+04  0.19988453515E+04  0.25500000920E-02 0.  1.
       -2   -1    0    0    0  501  0.00000000000E+00  0.00000000000E+00 -0.14453746072E+04  0.14453746072E+04  0.25500000920E-02 0. -1.
    10030    2    1    2    0    0  0.00000000000E+00  0.00000000000E+00  0.55347074425E+03  0.34442199587E+04  0.33994589656E+04 0.  0.
        5    1    3    3  502    0 -0.66079450943E+03  0.10650302746E+04 -0.88647547786E+03  0.15351871978E+04  0.46999998093E+01 0. -1.
       -5    1    3    3    0  502  0.66079450943E+03 -0.10650302746E+04  0.14399462221E+04  0.19090327609E+04  0.46999998093E+01 0.  1.
</event>
<event>
 5   0  0.1645631E-08  0.3404531E+04  0.7818609E-02  0.8136795E-01
       -1   -1    0    0    0  501  0.00000000000E+00  0.00000000000E+00  0.16172682576E+04  0.16172682576E+04  0.50400001928E-02 0.  1.
        1   -1    0    0  501    0  0.00000000000E+00  0.00000000000E+00 -0.17917298666E+04  0.17917298666E+04  0.50400001928E-02 0. -1.
    10030    2    1    2    0    0  0.00000000000E+00  0.00000000000E+00 -0.17446160895E+03  0.34089981242E+04  0.34045310041E+04 0.  0.
        4    1    3    3  502    0  0.14829835912E+04  0.37015388498E+03  0.66305336609E+03  0.16661019205E+04  0.12699999809E+01 0.  1.
       -4    1    3    3    0  502 -0.14829835912E+04 -0.37015388498E+03 -0.83751497504E+03  0.17428962037E+04  0.12699999809E+01 0. -1.
</event>
<event>
 5   0  0.1630571E-08  0.3396240E+04  0.7818609E-02  0.8138830E-01
        1   -1    0    0  501    0  0.00000000000E+00  0.00000000000E+00  0.11529588956E+04  0.11529588956E+04  0.50400001928E-02 0.  1.
       -1   -1    0    0    0  501  0.00000000000E+00  0.00000000000E+00 -0.25010528883E+04  0.25010528884E+04  0.50400001928E-02 0. -1.
    10030    2    1    2    0    0  0.00000000000E+00  0.00000000000E+00 -0.13480939928E+04  0.36540117839E+04  0.33962397889E+04 0.  0.
        3    1    3    3  502    0  0.12639921819E+04  0.10172400022E+04 -0.12132407510E+04  0.20259335103E+04  0.10100000352E+00 0. -1.
       -3    1    3    3    0  502 -0.12639921819E+04 -0.10172400022E+04 -0.13485324176E+03  0.16280782736E+04  0.10100000352E+00 0.  1.
</event>
<event>
 5   0  0.1579536E-08  0.3401176E+04  0.7818609E-02  0.8137618E-01
       -1   -1    0    0    0  501  0.00000000000E+00  0.00000000000E+00  0.16081400709E+04  0.16081400709E+04  0.50400001928E-02 0.  1.
        1   -1    0    0  501    0  0.00000000000E+00  0.00000000000E+00 -0.17983500701E+04  0.17983500701E+04  0.50400001928E-02 0. -1.
    10030    2    1    2    0    0  0.00000000000E+00  0.00000000000E+00 -0.19020999919E+03  0.34064901410E+04  0.34011755669E+04 0.  0.
        5    1    3    3  502    0  0.16145933263E+04 -0.52948874284E+03 -0.26391814138E+02  0.16994082959E+04  0.46999998093E+01 0. -1.
       -5    1    3    3    0  502 -0.16145933263E+04  0.52948874284E+03 -0.16381818505E+03  0.17070818451E+04  0.46999998093E+01 0.  1.
</event>
<event>
 5   0  0.4764953E-08  0.3400179E+04  0.7818609E-02  0.8137862E-01
       -2   -1    0    0    0  501  0.00000000000E+00  0.00000000000E+00  0.11400861914E+04  0.11400861914E+04  0.25500000920E-02 0.  1.
        2   -1    0    0  501    0  0.00000000000E+00  0.00000000000E+00 -0.25351636830E+04  0.25351636830E+04  0.25500000920E-02 0. -1.
    10030    2    1    2    0    0  0.00000000000E+00  0.00000000000E+00 -0.13950774915E+04  0.36752498744E+04  0.34001794705E+04 0.  0.
        2    1    3    3  502    0 -0.51065136360E+03  0.14823072136E+04 -0.14082291799E+04  0.21073938678E+04  0.25500000920E-02 0.  1.
       -2    1    3    3    0  502  0.51065136360E+03 -0.14823072136E+04  0.13151688415E+02  0.15678560066E+04  0.25500000920E-02 0. -1.
</event>
<event>
 5   0  0.4775023E-08  0.3400595E+04  0.7818609E-02  0.8137760E-01
       -2   -1    0    0    0  501  0.00000000000E+00  0.00000000000E+00  0.98488631120E+03  0.98488631120E+03  0.25500000920E-02 0.  1.
        2   -1    0    0  501    0  0.00000000000E+00  0.00000000000E+00 -0.29353765124E+04  0.29353765124E+04  0.25500000920E-02 0. -1.
    10030    2    1    2    0    0  0.00000000000E+00  0.00000000000E+00 -0.19504902012E+04  0.39202628236E+04  0.34005953275E+04 0.  0.
        4    1    3    3  502    0  0.13017160152E+04 -0.10486036933E+04 -0.61624637494E+03  0.17815149444E+04  0.12699999809E+01 0.  1.
       -4    1    3    3    0  502 -0.13017160152E+04  0.10486036933E+04 -0.13342438263E+04  0.21387478792E+04  0.12699999809E+01 0. -1.
</event>
<event>
 5   0  0.5001197E-08  0.3399090E+04  0.7818609E-02  0.8138130E-01
        2   -1    0    0  501    0  0.00000000000E+00  0.00000000000E+00  0.14739502917E+04  0.14739502917E+04  0.25500000920E-02 0.  1.
       -2   -1    0    0    0  501  0.00000000000E+00  0.00000000000E+00 -0.19596684141E+04  0.19596684141E+04  0.25500000920E-02 0. -1.
    10030    2    1    2    0    0  0.00000000000E+00  0.00000000000E+00 -0.48571812235E+03  0.34336187058E+04  0.33990903669E+04 0.  0.
        5    1    3    3  502    0  0.61618900064E+02 -0.16575182982E+04 -0.61711949620E+03  0.17697520618E+04  0.46999998093E+01 0. -1.
       -5    1    3    3    0  502 -0.61618900064E+02  0.16575182982E+04  0.13140137386E+03  0.16638666439E+04  0.46999998093E+01 0.  1.
</event>
<event>
 5   0  0.4775023E-08  0.3399978E+04  0.7818609E-02  0.8137912E-01
       -2   -1    0    0    0  501  0.00000000000E+00  0.00000000000E+00  0.13572757950E+04  0.13572757950E+04  0.25500000920E-02 0. -1.
        2   -1    0    0  501    0  0.00000000000E+00  0.00000000000E+00 -0.21292373651E+04  0.21292373651E+04  0.25500000920E-02 0.  1.
    10030    2    1    2    0    0  0.00000000000E+00  0.00000000000E+00 -0.77196157010E+03  0.34865131601E+04  0.33999778455E+04 0.  0.
        4    1    3    3  502    0 -0.15376545060E+04  0.25541239360E+03  0.30977431138E+03  0.15892069115E+04  0.12699999809E+01 0. -1.
       -4    1    3    3    0  502  0.15376545060E+04 -0.25541239360E+03 -0.10817358815E+04  0.18973062486E+04  0.12699999809E+01 0.  1.
</event>
<event>
 5   0  0.4764953E-08  0.3401743E+04  0.7818609E-02  0.8137479E-01
        2   -1    0    0  501    0  0.00000000000E+00  0.00000000000E+00  0.21906734266E+04  0.21906734266E+04  0.25500000920E-02 0.  1.
       -2   -1    0    0    0  501  0.00000000000E+00  0.00000000000E+00 -0.13205821214E+04  0.13205821214E+04  0.25500000920E-02 0. -1.
    10030    2    1    2    0    0  0.00000000000E+00  0.00000000000E+00  0.87009130512E+03  0.35112555480E+04  0.34017431773E+04 0.  0.
        2    1    3    3  502    0 -0.75764534656E+01  0.14701168949E+04 -0.44786444683E+03  0.15368421031E+04  0.25500000920E-02 0. -1.
       -2    1    3    3    0  502  0.75764534656E+01 -0.14701168949E+04  0.13179557520E+04  0.19744134449E+04  0.25500000920E-02 0.  1.
</event>
<event>
 5   0  0.5001197E-08  0.3405960E+04  0.7818609E-02  0.8136445E-01
        2   -1    0    0  501    0  0.00000000000E+00  0.00000000000E+00  0.18731447349E+04  0.18731447349E+04  0.25500000920E-02 0.  1.
       -2   -1    0    0    0  501  0.00000000000E+00  0.00000000000E+00 -0.15482735319E+04  0.15482735319E+04  0.25500000920E-02 0. -1.
    10030    2    1    2    0    0  0.00000000000E+00  0.00000000000E+00  0.32487120302E+03  0.34214182668E+04  0.34059597264E+04 0.  0.
        5    1    3    3  502    0 -0.39227802740E+03 -0.42413075582E+03 -0.14468182278E+04  0.15579069366E+04  0.46999998093E+01 0. -1.
       -5    1    3    3    0  502  0.39227802740E+03  0.42413075582E+03  0.17716894308E+04  0.18635113303E+04  0.46999998093E+01 0.  1.
</event>
<event>
 5   0  0.5001197E-08  0.3402203E+04  0.7818609E-02  0.8137366E-01
       -2   -1    0    0    0  501  0.00000000000E+00  0.00000000000E+00  0.13909845441E+04  0.13909845441E+04  0.25500000920E-02 0.  1.
        2   -1    0    0  501    0  0.00000000000E+00  0.00000000000E+00 -0.20803581850E+04  0.20803581850E+04  0.25500000920E-02 0. -1.
    10030    2    1    2    0    0  0.00000000000E+00  0.00000000000E+00 -0.68937364092E+03  0.34713427290E+04  0.34022028637E+04 0.  0.
        5    1    3    3  502    0 -0.16113352985E+04 -0.49075740560E+03 -0.10220256739E+03  0.16875164385E+04  0.46999998093E+01 0.  1.
       -5    1    3    3    0  502  0.16113352985E+04  0.49075740560E+03 -0.58717107353E+03  0.17838262906E+04  0.46999998093E+01 0. -1.
</event>
<event>
 5   0  0.1595851E-08  0.3399266E+04  0.7818609E-02  0.8138086E-01
       -1   -1    0    0    0  501  0.00000000000E+00  0.00000000000E+00  0.17860195601E+04  0.17860195601E+04  0.50400001928E-02 0. -1.
        1   -1    0    0  501    0  0.00000000000E+00  0.00000000000E+00 -0.16174249534E+04  0.16174249535E+04  0.50400001928E-02 0.  1.
    10030    2    1    2    0    0  0.00000000000E+00  0.00000000000E+00  0.16859460663E+03  0.34034445135E+04  0.33992661584E+04 0.  0.
        2    1    3    3  502    0  0.23918143950E+03  0.82773863744E+03 -0.13825610740E+04  0.16290592796E+04  0.25500000920E-02 0.  1.
       -2    1    3    3    0  502 -0.23918143950E+03 -0.82773863744E+03  0.15511556807E+04  0.17743852340E+04  0.25500000920E-02 0. -1.
</event>
<event>
 5   0  0.1595851E-08  0.3399579E+04  0.7818609E-02  0.8138010E-01
       -1   -1    0    0    0  501  0.00000000000E+00  0.00000000000E+00  0.98506464352E+03  0.98506464353E+03  0.50400001928E-02 0. -1.
        1   -1    0    0  501    0  0.00000000000E+00  0.00000000000E+00 -0.29330917935E+04  0.29330917935E+04  0.50400001928E-02 0.  1.
    10030    2    1    2    0    0  0.00000000000E+00  0.00000000000E+00 -0.19480271500E+04  0.39181564370E+04  0.33995793987E+04 0.  0.
        2    1    3    3  502    0 -0.11901597285E+04  0.26817107491E+03 -0.23381520672E+04  0.26372999439E+04  0.25500000920E-02 0.  1.
       -2    1    3    3    0  502  0.11901597285E+04 -0.26817107491E+03  0.39012491725E+03  0.12808564931E+04  0.25500000920E-02 0. -1.
</event>
<event>
 5   0  0.1595851E-08  0.3399768E+04  0.7818609E-02  0.8137963E-01
       -1   -1    0    0    0  501  0.00000000000E+00  0.00000000000E+00  0.16994039646E+04  0.16994039646E+04  0.50400001928E-02 0.  1.
        1   -1    0    0  501    0  0.00000000000E+00  0.00000000000E+00 -0.17003641755E+04  0.17003641755E+04  0.50400001928E-02 0. -1.
    10030    2    1    2    0    0  0.00000000000E+00  0.00000000000E+00 -0.96021092300E+00  0.33997681401E+04  0.33997680045E+04 0.  0.
        2    1    3    3  502    0  0.52133017318E+03 -0.54447365958E+03  0.15231238755E+04  0.16994537521E+04  0.25500000920E-02 0.  1.
       -2    1    3    3    0  502 -0.52133017318E+03  0.54447365958E+03 -0.15240840864E+04  0.17003143880E+04  0.25500000920E-02 0. -1.
</event>
<event>
 5   0  0.1579536E-08  0.3396045E+04  0.7818609E-02  0.8138878E-01
        1   -1    0    0  501    0  0.00000000000E+00  0.00000000000E+00  0.13966729540E+04  0.13966729540E+04  0.50400001928E-02 0.  1.
       -1   -1    0    0    0  501  0.00000000000E+00  0.00000000000E+00 -0.20643923102E+04  0.20643923102E+04  0.50400001928E-02 0. -1.
    10030    2    1    2    0    0  0.00000000000E+00  0.00000000000E+00 -0.66771935619E+03  0.34610652643E+04  0.33960452919E+04 0.  0.
        5    1    3    3  502    0  0.93032775013E+02  0.11294202548E+04  0.95487167604E+03  0.14819066155E+04  0.46999998093E+01 0.  1.
       -5    1    3    3    0  502 -0.93032775013E+02 -0.11294202548E+04 -0.16225910322E+04  0.19791586488E+04  0.46999998093E+01 0. -1.
</event>
<event>
 5   0  0.4946315E-08  0.3395743E+04  0.7818609E-02  0.8138952E-01
       -2   -1    0    0    0  501  0.00000000000E+00  0.00000000000E+00  0.12232275768E+04  0.12232275768E+04  0.25500000920E-02 0. -1.
        2   -1    0    0  501    0  0.00000000000E+00  0.00000000000E+00 -0.23566901953E+04  0.23566901953E+04  0.25500000920E-02 0.  1.
    10030    2    1    2    0    0  0.00000000000E+00  0.00000000000E+00 -0.11334626185E+04  0.35799177720E+04  0.33957434749E+04 0.  0.
        3    1    3    3  502    0  0.22939766659E+03 -0.96432999237E+03 -0.20199778453E+04  0.22500813606E+04  0.10100000352E+00 0.  1.
       -3    1    3    3    0  502 -0.22939766659E+03  0.96432999237E+03  0.88651522680E+03  0.13298364114E+04  0.10100000352E+00 0. -1.
</event>
<event>
 5   0  0.1625282E-08  0.3398495E+04  0.7818609E-02  0.8138276E-01
        1   -1    0    0  501    0  0.00000000000E+00  0.00000000000E+00  0.23151791329E+04  0.23151791329E+04  0.50400001928E-02 0.  1.
       -1   -1    0    0    0  501  0.00000000000E+00  0.00000000000E+00 -0.12471787430E+04  0.12471787430E+04  0.50400001928E-02 0. -1.
    10030    2    1    2    0    0  0.00000000000E+00  0.00000000000E+00  0.10680003898E+04  0.35623578759E+04  0.33984950792E+04 0.  0.
        1    1    3    3  502    0  0.12318990159E+04  0.18439868927E+03  0.17455242651E+04  0.21443957242E+04  0.50400001928E-02 0.  1.
       -1    1    3    3    0  502 -0.12318990159E+04 -0.18439868927E+03 -0.67752387530E+03  0.14179621516E+04  0.50400001928E-02 0. -1.
</event>
<event>
 5   0  0.1595851E-08  0.3402336E+04  0.7818609E-02  0.8137333E-01
        1   -1    0    0  501    0  0.00000000000E+00  0.00000000000E+00  0.17747737832E+04  0.17747737832E+04  0.50400001928E-02 0. -1.
       -1   -1    0    0    0  501  0.00000000000E+00  0.00000000000E+00 -0.16306151895E+04  0.16306151895E+04  0.50400001928E-02 0.  1.
    10030    2    1    2    0    0  0.00000000000E+00  0.00000000000E+00  0.14415859364E+03  0.34053889727E+04  0.34023363084E+04 0.  0.
        2    1    3    3  502    0 -0.10492392805E+04 -0.29331522160E+03  0.13797875098E+04  0.17580530308E+04  0.25500000920E-02 0. -1.
       -2    1    3    3    0  502  0.10492392805E+04  0.29331522160E+03 -0.12356289161E+04  0.16473359419E+04  0.25500000920E-02 0.  1.
</event>
<event>
 5   0  0.1579536E-08  0.3400321E+04  0.7818609E-02  0.8137827E-01
        1   -1    0    0  501    0  0.00000000000E+00  0.00000000000E+00  0.18200251947E+04  0.18200251947E+04  0.50400001928E-02 0.  1.
       -1   -1    0    0    0  501  0.00000000000E+00  0.00000000000E+00 -0.15881901532E+04  0.15881901532E+04  0.50400001928E-02 0. -1.
    10030    2    1    2    0    0  0.00000000000E+00  0.00000000000E+00  0.23183504151E+03  0.34082153479E+04  0.34003212159E+04 0.  0.
        5    1    3    3  502    0  0.42544654725E+03  0.15700244280E+04  0.61157799331E+03  0.17378236967E+04  0.46999998093E+01 0.  1.
       -5    1    3    3    0  502 -0.42544654725E+03 -0.15700244280E+04 -0.37974295180E+03  0.16703916512E+04  0.46999998093E+01 0. -1.
</event>
<event>
 5   0  0.4764953E-08  0.3398598E+04  0.7818609E-02  0.8138250E-01
       -2   -1    0    0    0  501  0.00000000000E+00  0.00000000000E+00  0.22931293958E+04  0.22931293958E+04  0.25500000920E-02 0. -1.
        2   -1    0    0  501    0  0.00000000000E+00  0.00000000000E+00 -0.12592475704E+04  0.12592475704E+04  0.25500000920E-02 0.  1.
    10030    2    1    2    0    0  0.00000000000E+00  0.00000000000E+00  0.10338818254E+04  0.35523769662E+04  0.33985983113E+04 0.  0.
        2    1    3    3  502    0  0.11529624983E+04  0.12416692289E+04  0.65141934282E+03  0.18153270110E+04  0.25500000920E-02 0.  1.
       -2    1    3    3    0  502 -0.11529624983E+04 -0.12416692289E+04  0.38246248255E+03  0.17370499553E+04  0.25500000920E-02 0. -1.
</event>
<event>
 5   0  0.4775023E-08  0.3393168E+04  0.7818609E-02  0.8139585E-01
        2   -1    0    0  501    0  0.00000000000E+00  0.00000000000E+00  0.23002444219E+04  0.23002444219E+04  0.25500000920E-02 0.  1.
       -2   -1    0    0    0  501  0.00000000000E+00  0.00000000000E+00 -0.12513440893E+04  0.12513440893E+04  0.25500000920E-02 0. -1.
    10030    2    1    2    0    0  0.00000000000E+00  0.00000000000E+00  0.10489003326E+04  0.35515885111E+04  0.33931679954E+04 0.  0.
        4    1    3    3  502    0  0.12247870757E+04 -0.10487075588E+04 -0.27924259433E+02  0.16126600082E+04  0.12699999809E+01 0. -1.
       -4    1    3    3    0  502 -0.12247870757E+04  0.10487075588E+04  0.10768245920E+04  0.19389285030E+04  0.12699999809E+01 0.  1.
</event>
<event>
 5   0  0.1630571E-08  0.3400870E+04  0.7818609E-02  0.8137693E-01
        1   -1    0    0  501    0  0.00000000000E+00  0.00000000000E+00  0.17668122888E+04  0.17668122888E+04  0.50400001928E-02 0. -1.
       -1   -1    0    0    0  501  0.00000000000E+00  0.00000000000E+00 -0.16365512161E+04  0.16365512161E+04  0.50400001928E-02 0.  1.
    10030    2    1    2    0    0  0.00000000000E+00  0.00000000000E+00  0.13026107268E+03  0.34033635049E+04  0.34008697711E+04 0.  0.
        3    1    3    3  502    0  0.16931995000E+04 -0.10777280049E+03  0.17896484271E+03  0.17060386714E+04  0.10100000352E+00 0. -1.
       -3    1    3    3    0  502 -0.16931995000E+04  0.10777280049E+03 -0.48703770032E+02  0.16973248335E+04  0.10100000352E+00 0.  1.
</event>
<event>
 5   0  0.4764953E-08  0.3399825E+04  0.7818609E-02  0.8137949E-01
        2   -1    0    0  501    0  0.00000000000E+00  0.00000000000E+00  0.25342377537E+04  0.25342377537E+04  0.25500000920E-02 0.  1.
       -2   -1    0    0    0  501  0.00000000000E+00  0.00000000000E+00 -0.11402646574E+04  0.11402646574E+04  0.25500000920E-02 0. -1.
    10030    2    1    2    0    0  0.00000000000E+00  0.00000000000E+00  0.13939730963E+04  0.36745024111E+04  0.33998245508E+04 0.  0.
        2    1    3    3  502    0  0.16478564540E+04 -0.41225060791E+03  0.76802579435E+03  0.18642009220E+04  0.25500000920E-02 0.  1.
       -2    1    3    3    0  502 -0.16478564540E+04  0.41225060791E+03  0.62594730191E+03  0.18103014891E+04  0.25500000920E-02 0. -1.
</event>
<event>
 5   0  0.1579536E-08  0.3403383E+04  0.7818609E-02  0.8137076E-01
       -1   -1    0    0    0  501  0.00000000000E+00  0.00000000000E+00  0.18703354360E+04  0.18703354360E+04  0.50400001928E-02 0.  1.
        1   -1    0    0  501    0  0.00000000000E+00  0.00000000000E+00 -0.15482538996E+04  0.15482538996E+04  0.50400001928E-02 0. -1.
    10030    2    1    2    0    0  0.00000000000E+00  0.00000000000E+00  0.32208153647E+03  0.34185893356E+04  0.34033831006E+04 0.  0.
        5    1    3    3  502    0  0.79129172968E+03  0.14780582754E+04 -0.13169431649E+03  0.16817147053E+04  0.46999998093E+01 0. -1.
       -5    1    3    3    0  502 -0.79129172968E+03 -0.14780582754E+04  0.45377585296E+03  0.17368746304E+04  0.46999998093E+01 0.  1.
</event>
<event>
 5   0  0.1645631E-08  0.3398531E+04  0.7818609E-02  0.8138267E-01
        1   -1    0    0  501    0  0.00000000000E+00  0.00000000000E+00  0.20363391424E+04  0.20363391424E+04  0.50400001928E-02 0. -1.
       -1   -1    0    0    0  501  0.00000000000E+00  0.00000000000E+00 -0.14179872531E+04  0.14179872531E+04  0.50400001928E-02 0.  1.
    10030    2    1    2    0    0  0.00000000000E+00  0.00000000000E+00  0.61835188933E+03  0.34543263955E+04  0.33985308278E+04 0.  0.
        4    1    3    3  502    0 -0.11531087342E+04  0.72010224296E+03 -0.72701892729E+03  0.15416760771E+04  0.12699999809E+01 0.  1.
       -4    1    3    3    0  502  0.11531087342E+04 -0.72010224296E+03  0.13453708166E+04  0.19126503184E+04  0.12699999809E+01 0. -1.
</event>
<event>
 5   0  0.1595851E-08  0.3399707E+04  0.7818609E-02  0.8137978E-01
        1   -1    0    0  501    0  0.00000000000E+00  0.00000000000E+00  0.17053619119E+04  0.17053619119E+04  0.50400001928E-02 0.  1.
       -1   -1    0    0    0  501  0.00000000000E+00  0.00000000000E+00 -0.16943633330E+04  0.16943633330E+04  0.50400001928E-02 0. -1.
    10030    2    1    2    0    0  0.00000000000E+00  0.00000000000E+00  0.10998578911E+02  0.33997252449E+04  0.33997074538E+04 0.  0.
        2    1    3    3  502    0  0.11081593867E+04  0.89323721363E+03  0.93481182326E+03  0.17028690763E+04  0.25500000920E-02 0.  1.
       -2    1    3    3    0  502 -0.11081593867E+04 -0.89323721363E+03 -0.92381324435E+03  0.16968561685E+04  0.25500000920E-02 0. -1.
</event>
<event>
 5   0  0.1579536E-08  0.3402272E+04  0.7818609E-02  0.8137349E-01
        1   -1    0    0  501    0  0.00000000000E+00  0.00000000000E+00  0.17191464686E+04  0.17191464686E+04  0.50400001928E-02 0.  1.
       -1   -1    0    0    0  501  0.00000000000E+00  0.00000000000E+00 -0.16833142408E+04  0.16833142408E+04  0.50400001928E-02 0. -1.
    10030    2    1    2    0    0  0.00000000000E+00  0.00000000000E+00  0.35832227739E+02  0.34024607094E+04  0.34022720248E+04 0.  0.
        5    1    3    3  502    0  0.30672110411E+03 -0.13220987786E+04 -0.10077228548E+04  0.16904290752E+04  0.46999998093E+01 0. -1.
       -5    1    3    3    0  502 -0.30672110411E+03  0.13220987786E+04  0.10435550826E+04  0.17120316342E+04  0.46999998093E+01 0.  1.
</event>
<event>
 5   0  0.1625282E-08  0.3400598E+04  0.7818609E-02  0.8137759E-01
        1   -1    0    0  501    0  0.00000000000E+00  0.00000000000E+00  0.16625531353E+04  0.16625531353E+04  0.50400001928E-02 0.  1.
       -1   -1    0    0    0  501  0.00000000000E+00  0.00000000000E+00 -0.17389021774E+04  0.17389021774E+04  0.50400001928E-02 0. -1.
    10030    2    1    2    0    0  0.00000000000E+00  0.00000000000E+00 -0.76349042108E+02  0.34014553126E+04  0.34005983396E+04 0.  0.
        1    1    3    3  502    0 -0.30470117578E+03 -0.51822486602E+03 -0.16290524452E+04  0.17364364910E+04  0.50400001928E-02 0. -1.
       -1    1    3    3    0  502  0.30470117578E+03  0.51822486602E+03  0.15527034031E+04  0.16650188216E+04  0.50400001928E-02 0.  1.
</event>
<event>
 5   0  0.4946315E-08  0.3400884E+04  0.7818609E-02  0.8137689E-01
       -2   -1    0    0    0  501  0.00000000000E+00  0.00000000000E+00  0.24037579288E+04  0.24037579288E+04  0.25500000920E-02 0. -1.
        2   -1    0    0  501    0  0.00000000000E+00  0.00000000000E+00 -0.12029094104E+04  0.12029094104E+04  0.25500000920E-02 0.  1.
    10030    2    1    2    0    0  0.00000000000E+00  0.00000000000E+00  0.12008485184E+04  0.36066673393E+04  0.34008840221E+04 0.  0.
        3    1    3    3  502    0  0.12052044362E+04 -0.36387932553E+03 -0.61179670572E+03  0.13997217995E+04  0.10100000352E+00 0.  1.
       -3    1    3    3    0  502 -0.12052044362E+04  0.36387932553E+03  0.18126452241E+04  0.22069455398E+04  0.10100000352E+00 0. -1.
</event>
<event>
 5   0  0.4946315E-08  0.3403329E+04  0.7818609E-02  0.8137090E-01
        2   -1    0    0  501    0  0.00000000000E+00  0.00000000000E+00  0.23988330698E+04  0.23988330698E+04  0.25500000920E-02 0. -1.
       -2   -1    0    0    0  501  0.00000000000E+00  0.00000000000E+00 -0.12071129961E+04  0.12071129961E+04  0.25500000920E-02 0.  1.
    10030    2    1    2    0    0  0.00000000000E+00  0.00000000000E+00  0.11917200737E+04  0.36059460660E+04  0.34033292959E+04 0.  0.
        3    1    3    3  502    0  0.11916578300E+03  0.67273877048E+03  0.22471323441E+04  0.23486978774E+04  0.10100000352E+00 0. -1.
       -3    1    3    3    0  502 -0.11916578300E+03 -0.67273877048E+03 -0.10554122704E+04  0.12572481886E+04  0.10100000352E+00 0.  1.
</event>
<event>
 5   0  0.1579536E-08  0.3402340E+04  0.7818609E-02  0.8137332E-01
       -1   -1    0    0    0  501  0.00000000000E+00  0.00000000000E+00  0.12701086881E+04  0.12701086881E+04  0.50400001928E-02 0.  1.
        1   -1    0    0  501    0  0.00000000000E+00  0.00000000000E+00 -0.22785287605E+04  0.22785287605E+04  0.50400001928E-02 0. -1.
    10030    2    1    2    0    0  0.00000000000E+00  0.00000000000E+00 -0.10084200723E+04  0.35486374486E+04  0.34023398859E+04 0.  0.
        5    1    3    3  502    0 -0.72701146303E+02  0.14483108053E+03  0.12620329848E+04  0.12724035693E+04  0.46999998093E+01 0.  1.
       -5    1    3    3    0  502  0.72701146303E+02 -0.14483108053E+03 -0.22704530571E+04  0.22762338793E+04  0.46999998093E+01 0. -1.
</event>
<event>
 5   0  0.1630571E-08  0.3398874E+04  0.7818609E-02  0.8138183E-01
       -1   -1    0    0    0  501  0.00000000000E+00  0.00000000000E+00  0.14599161936E+04  0.14599161936E+04  0.50400001928E-02 0. -1.
        1   -1    0    0  501    0  0.00000000000E+00  0.00000000000E+00 -0.19782547401E+04  0.19782547401E+04  0.50400001928E-02 0.  1.
    10030    2    1    2    0    0  0.00000000000E+00  0.00000000000E+00 -0.51833854651E+03  0.34381709337E+04  0.33988740077E+04 0.  0.
        3    1    3    3  502    0  0.19705353029E+03  0.88087508469E+02  0.14459940001E+04  0.14620151030E+04  0.10100000352E+00 0. -1.
       -3    1    3    3    0  502 -0.19705353029E+03 -0.88087508469E+02 -0.19643325466E+04  0.19761558306E+04  0.10100000352E+00 0.  1.
</event>
<event>
 5   0  0.1630571E-08  0.3396257E+04  0.7818609E-02  0.8138826E-01
       -1   -1    0    0    0  501  0.00000000000E+00  0.00000000000E+00  0.29957646669E+04  0.29957646669E+04  0.50400001928E-02 0.  1.
        1   -1    0    0  501    0  0.00000000000E+00  0.00000000000E+00 -0.96257224324E+03  0.96257224326E+03  0.50400001928E-02 0. -1.
    10030    2    1    2    0    0  0.00000000000E+00  0.00000000000E+00  0.20331924236E+04  0.39583369101E+04  0.33962567133E+04 0.  0.
        3    1    3    3  502    0  0.71148985622E+03  0.15243295531E+04  0.12870361547E+04  0.21180794309E+04  0.10100000352E+00 0. -1.
       -3    1    3    3    0  502 -0.71148985622E+03 -0.15243295531E+04  0.74615626887E+03  0.18402574792E+04  0.10100000352E+00 0.  1.
</event>
<event>
 5   0  0.4764953E-08  0.3399784E+04  0.7818609E-02  0.8137959E-01
        2   -1    0    0  501    0  0.00000000000E+00  0.00000000000E+00  0.15936146545E+04  0.15936146545E+04  0.25500000920E-02 0.  1.
       -2   -1    0    0    0  501  0.00000000000E+00  0.00000000000E+00 -0.18132574451E+04  0.18132574451E+04  0.25500000920E-02 0. -1.
    10030    2    1    2    0    0  0.00000000000E+00  0.00000000000E+00 -0.21964279059E+03  0.34068720996E+04  0.33997844855E+04 0.  0.
        2    1    3    3  502    0  0.11583658415E+04  0.33084864081E+03 -0.13116386929E+04  0.17809178270E+04  0.25500000920E-02 0. -1.
       -2    1    3    3    0  502 -0.11583658415E+04 -0.33084864081E+03  0.10919959023E+04  0.16259542726E+04  0.25500000920E-02 0.  1.
</event>
<event>
 5   0  0.4764953E-08  0.3402011E+04  0.7818609E-02  0.8137413E-01
        2   -1    0    0  501    0  0.00000000000E+00  0.00000000000E+00  0.22960418218E+04  0.22960418218E+04  0.25500000920E-02 0. -1.
       -2   -1    0    0    0  501  0.00000000000E+00  0.00000000000E+00 -0.12601775461E+04  0.12601775461E+04  0.25500000920E-02 0.  1.
    10030    2    1    2    0    0  0.00000000000E+00  0.00000000000E+00  0.10358642757E+04  0.35562193679E+04  0.34020113749E+04 0.  0.
        2    1    3    3  502    0  0.17003160930E+04 -0.41483868349E+02  0.54405743402E+03  0.17857195241E+04  0.25500000920E-02 0.  1.
       -2    1    3    3    0  502 -0.17003160930E+04  0.41483868349E+02  0.49180684164E+03  0.17704998438E+04  0.25500000920E-02 0. -1.
</event>
<event>
 5   0  0.1645631E-08  0.3394911E+04  0.7818609E-02  0.8139156E-01
        1   -1    0    0  501    0  0.00000000000E+00  0.00000000000E+00  0.23973878283E+04  0.23973878283E+04  0.50400001928E-02 0. -1.
       -1   -1    0    0    0  501  0.00000000000E+00  0.00000000000E+00 -0.12018726688E+04  0.12018726688E+04  0.50400001928E-02 0.  1.
    10030    2    1    2    0    0  0.00000000000E+00  0.00000000000E+00  0.11955151595E+04  0.35992604971E+04  0.33949108427E+04 0.  0.
        4    1    3    3  502    0  0.78583885684E+03  0.70973859710E+03 -0.80877993989E+03  0.13324406888E+04  0.12699999809E+01 0.  1.
       -4    1    3    3    0  502 -0.78583885684E+03 -0.70973859710E+03  0.20042950994E+04  0.22668198083E+04  0.12699999809E+01 0. -1.
</event>
<event>
 5   0  0.4973409E-08  0.3401693E+04  0.7818609E-02  0.8137491E-01
        2   -1    0    0  501    0  0.00000000000E+00  0.00000000000E+00  0.16040548635E+04  0.16040548635E+04  0.25500000920E-02 0. -1.
       -2   -1    0    0    0  501  0.00000000000E+00  0.00000000000E+00 -0.18034784108E+04  0.18034784108E+04  0.25500000920E-02 0.  1.
    10030    2    1    2    0    0  0.00000000000E+00  0.00000000000E+00 -0.19942354734E+03  0.34075332743E+04  0.34016927057E+04 0.  0.
        1    1    3    3  502    0 -0.45096245739E+03  0.18106141312E+03 -0.17324575479E+04  0.17993219635E+04  0.50400001928E-02 0.  1.
       -1    1    3    3    0  502  0.45096245739E+03 -0.18106141312E+03  0.15330340005E+04  0.16082113108E+04  0.50400001928E-02 0. -1.
</event>
<event>
 5   0  0.5001197E-08  0.3400294E+04  0.7818609E-02  0.8137834E-01
       -2   -1    0    0    0  501  0.00000000000E+00  0.00000000000E+00  0.17402309744E+04  0.17402309744E+04  0.25500000920E-02 0.  1.
        2   -1    0    0  501    0  0.00000000000E+00  0.00000000000E+00 -0.16609863418E+04  0.16609863418E+04  0.25500000920E-02 0. -1.
    10030    2    1    2    0    0  0.00000000000E+00  0.00000000000E+00  0.79244632612E+02  0.34012173162E+04  0.34002940343E+04 0.  0.
        5    1    3    3  502    0 -0.16919581654E+04 -0.74626966891E+02 -0.10936836274E+03  0.16971373387E+04  0.46999998093E+01 0.  1.
       -5    1    3    3    0  502  0.16919581654E+04  0.74626966891E+02  0.18861299535E+03  0.17040799775E+04  0.46999998093E+01 0. -1.
</event>
<event>
 5   0  0.5001197E-08  0.3400236E+04  0.7818609E-02  0.8137848E-01
        2   -1    0    0  501    0  0.00000000000E+00  0.00000000000E+00  0.17006563414E+04  0.17006563414E+04  0.25500000920E-02 0. -1.
       -2   -1    0    0    0  501  0.00000000000E+00  0.00000000000E+00 -0.16995800789E+04  0.16995800789E+04  0.25500000920E-02 0.  1.
    10030    2    1    2    0    0  0.00000000000E+00  0.00000000000E+00  0.10762624959E+01  0.34002364203E+04  0.34002362499E+04 0.  0.
        5    1    3    3  502    0 -0.83790838555E+03  0.47752952192E+03 -0.13995528795E+04  0.16996750452E+04  0.46999998093E+01 0.  1.
       -5    1    3    3    0  502  0.83790838555E+03 -0.47752952192E+03  0.14006291420E+04  0.17005613750E+04  0.46999998093E+01 0. -1.
</event>
<event>
 5   0  0.4764953E-08  0.3398100E+04  0.7818609E-02  0.8138373E-01
        2   -1    0    0  501    0  0.00000000000E+00  0.00000000000E+00  0.17884028193E+04  0.17884028193E+04  0.25500000920E-02 0.  1.
       -2   -1    0    0    0  501  0.00000000000E+00  0.00000000000E+00 -0.16141610661E+04  0.16141610661E+04  0.25500000920E-02 0. -1.
    10030    2    1    2    0    0  0.00000000000E+00  0.00000000000E+00  0.17424175324E+03  0.34025638854E+04  0.33980995874E+04 0.  0.
        2    1    3    3  502    0  0.86518232478E+03  0.91753718428E+03  0.12271926756E+04  0.17596638323E+04  0.25500000920E-02 0.  1.
       -2    1    3    3    0  502 -0.86518232478E+03 -0.91753718428E+03 -0.10529509224E+04  0.16429000531E+04  0.25500000920E-02 0. -1.
</event>
<event>
 5   0  0.1579536E-08  0.3396843E+04  0.7818609E-02  0.8138681E-01
       -1   -1    0    0    0  501  0.00000000000E+00  0.00000000000E+00  0.17201931636E+04  0.17201931636E+04  0.50400001928E-02 0. -1.
        1   -1    0    0  501    0  0.00000000000E+00  0.00000000000E+00 -0.16769257487E+04  0.16769257487E+04  0.50400001928E-02 0.  1.
    10030    2    1    2    0    0  0.00000000000E+00  0.00000000000E+00  0.43267414879E+02  0.33971189123E+04  0.33968433633E+04 0.  0.
        5    1    3    3  502    0 -0.94649065860E+03  0.81052724126E+03 -0.11325028630E+04  0.16838597924E+04  0.46999998093E+01 0.  1.
       -5    1    3    3    0  502  0.94649065860E+03 -0.81052724126E+03  0.11757702779E+04  0.17132591199E+04  0.46999998093E+01 0. -1.
</event>
<event>
 5   0  0.4946315E-08  0.3406399E+04  0.7818609E-02  0.8136338E-01
        2   -1    0    0  501    0  0.00000000000E+00  0.00000000000E+00  0.17842811281E+04  0.17842811281E+04  0.25500000920E-02 0. -1.
       -2   -1    0    0    0  501  0.00000000000E+00  0.00000000000E+00 -0.16258023919E+04  0.16258023919E+04  0.25500000920E-02 0.  1.
    10030    2    1    2    0    0  0.00000000000E+00  0.00000000000E+00  0.15847873622E+03  0.34100835200E+04  0.34063989936E+04 0.  0.
        3    1    3    3  502    0  0.13328282800E+04 -0.66048296138E+03 -0.75124794537E+03  0.16664460543E+04  0.10100000352E+00 0.  1.
       -3    1    3    3    0  502 -0.13328282800E+04  0.66048296138E+03  0.90972668159E+03  0.17436374657E+04  0.10100000352E+00 0. -1.
</event>
<event>
 5   0  0.1630571E-08  0.3400616E+04  0.7818609E-02  0.8137755E-01
        1   -1    0    0  501    0  0.00000000000E+00  0.00000000000E+00  0.13015986597E+04  0.13015986597E+04  0.50400001928E-02 0. -1.
       -1   -1    0    0    0  501  0.00000000000E+00  0.00000000000E+00 -0.22211513267E+04  0.22211513267E+04  0.50400001928E-02 0.  1.
    10030    2    1    2    0    0  0.00000000000E+00  0.00000000000E+00 -0.91955266697E+03  0.35227499864E+04  0.34006161735E+04 0.  0.
        3    1    3    3  502    0 -0.95977640006E+03  0.65691986258E+01 -0.19136912292E+04  0.21408942112E+04  0.10100000352E+00 0.  1.
       -3    1    3    3    0  502  0.95977640006E+03 -0.65691986258E+01  0.99413856222E+03  0.13818557752E+04  0.10100000352E+00 0. -1.
</event>
<event>
 5   0  0.4775023E-08  0.3399383E+04  0.7818609E-02  0.8138058E-01
       -2   -1    0    0    0  501  0.00000000000E+00  0.00000000000E+00  0.15658902677E+04  0.15658902678E+04  0.25500000920E-02 0.  1.
        2   -1    0    0  501    0  0.00000000000E+00  0.00000000000E+00 -0.18449257113E+04  0.18449257113E+04  0.25500000920E-02 0. -1.
    10030    2    1    2    0    0  0.00000000000E+00  0.00000000000E+00 -0.27903544353E+03  0.34108159790E+04  0.33993830123E+04 0.  0.
        4    1    3    3  502    0 -0.15558246422E+04 -0.10853334333E+03 -0.81749717987E+03  0.17608728108E+04  0.12699999809E+01 0. -1.
       -4    1    3    3    0  502  0.15558246422E+04  0.10853334333E+03  0.53846173634E+03  0.16499431682E+04  0.12699999809E+01 0.  1.
</event>
<event>
 5   0  0.1595851E-08  0.3400728E+04  0.7818609E-02  0.8137728E-01
       -1   -1    0    0    0  501  0.00000000000E+00  0.00000000000E+00  0.18633582507E+04  0.18633582507E+04  0.50400001928E-02 0. -1.
        1   -1    0    0  501    0  0.00000000000E+00  0.00000000000E+00 -0.15516277234E+04  0.15516277235E+04  0.50400001928E-02 0.  1.
    10030    2    1    2    0    0  0.00000000000E+00  0.00000000000E+00  0.31173052727E+03  0.34149859742E+04  0.34007283458E+04 0.  0.
        2    1    3    3  502    0  0.95601091107E+03  0.59791545734E+03 -0.11221757960E+04  0.15908294293E+04  0.25500000920E-02 0.  1.
       -2    1    3    3    0  502 -0.95601091107E+03 -0.59791545734E+03  0.14339063232E+04  0.18241565448E+04  0.25500000920E-02 0. -1.
</event>
<event>
 5   0  0.1625282E-08  0.3400064E+04  0.7818609E-02  0.8137891E-01
       -1   -1    0    0    0  501  0.00000000000E+00  0.00000000000E+00  0.13218925856E+04  0.13218925856E+04  0.50400001928E-02 0.  1.
        1   -1    0    0  501    0  0.00000000000E+00  0.00000000000E+00 -0.21863413563E+04  0.21863413563E+04  0.50400001928E-02 0. -1.
    10030    2    1    2    0    0  0.00000000000E+00  0.00000000000E+00 -0.86444877067E+03  0.35082339419E+04  0.34000637809E+04 0.  0.
        1    1    3    3  502    0  0.15105608286E+04  0.26362849290E+03 -0.11896170433E+04  0.19407428240E+04  0.50400001928E-02 0. -1.
       -1    1    3    3    0  502 -0.15105608286E+04 -0.26362849290E+03  0.32516827265E+03  0.15674911179E+04  0.50400001928E-02 0.  1.
</event>
<event>
 5   0  0.5001197E-08  0.3400423E+04  0.7818609E-02  0.8137802E-01
       -2   -1    0    0    0  501  0.00000000000E+00  0.00000000000E+00  0.13794239645E+04  0.13794239645E+04  0.25500000920E-02 0. -1.
        2   -1    0    0  501    0  0.00000000000E+00  0.00000000000E+00 -0.20955990915E+04  0.20955990915E+04  0.25500000920E-02 0.  1.
    10030    2    1    2    0    0  0.00000000000E+00  0.00000000000E+00 -0.71617512702E+03  0.34750230561E+04  0.34004232718E+04 0.  0.
        5    1    3    3  502    0 -0.14266907865E+04 -0.74852903045E+03  0.19692491093E+03  0.16231277893E+04  0.46999998093E+01 0.  1.
       -5    1    3    3    0  502  0.14266907865E+04  0.74852903045E+03 -0.91310003795E+03  0.18518952668E+04  0.46999998093E+01 0. -1.
</event>
<event>
 5   0  0.1579536E-08  0.3400276E+04  0.7818609E-02  0.8137838E-01
        1   -1    0    0  501    0  0.00000000000E+00  0.00000000000E+00  0.17434826532E+04  0.17434826532E+04  0.50400001928E-02 0. -1.
       -1   -1    0    0    0  501  0.00000000000E+00  0.00000000000E+00 -0.16578713114E+04  0.16578713114E+04  0.50400001928E-02 0.  1.
    10030    2    1    2    0    0  0.00000000000E+00  0.00000000000E+00  0.85611341797E+02  0.34013539646E+04  0.34002763845E+04 0.  0.
        5    1    3    3  502    0 -0.53603485935E+03 -0.97395205589E+03  0.13294993583E+04  0.17330627834E+04  0.46999998093E+01 0.  1.
       -5    1    3    3    0  502  0.53603485935E+03  0.97395205589E+03 -0.12438880165E+04  0.16682911812E+04  0.46999998093E+01 0. -1.
</event>
<event>
 5   0  0.4946315E-08  0.3399634E+04  0.7818609E-02  0.8137996E-01
        2   -1    0    0  501    0  0.00000000000E+00  0.00000000000E+00  0.15544416362E+04  0.15544416362E+04  0.25500000920E-02 0.  1.
       -2   -1    0    0    0  501  0.00000000000E+00  0.00000000000E+00 -0.18587882585E+04  0.18587882585E+04  0.25500000920E-02 0. -1.
    10030    2    1    2    0    0  0.00000000000E+00  0.00000000000E+00 -0.30434662226E+03  0.34132298947E+04  0.33996340167E+04 0.  0.
        3    1    3    3  502    0  0.13237630068E+04  0.66235987786E+03 -0.99116395013E+03  0.17814250173E+04  0.10100000352E+00 0. -1.
       -3    1    3    3    0  502 -0.13237630068E+04 -0.66235987786E+03  0.68681732787E+03  0.16318048774E+04  0.10100000352E+00 0.  1.
</event>
<event>
 5   0  0.4973409E-08  0.3404784E+04  0.7818609E-02  0.8136733E-01
        2   -1    0    0  501    0  0.00000000000E+00  0.00000000000E+00  0.19354820068E+04  0.19354820068E+04  0.25500000920E-02 0.  1.
       -2   -1    0    0    0  501  0.00000000000E+00  0.00000000000E+00 -0.14973728880E+04  0.14973728880E+04  0.25500000920E-02 0. -1.
    10030    2    1    2    0    0  0.00000000000E+00  0.00000000000E+00  0.43810911880E+03  0.34328548947E+04  0.34047838592E+04 0.  0.
        1    1    3    3  502    0  0.10637568306E+04 -0.48228237171E+02  0.15582499898E+04  0.18873387582E+04  0.50400001928E-02 0.  1.
       -1    1    3    3    0  502 -0.10637568306E+04  0.48228237171E+02 -0.11201408710E+04  0.15455161365E+04  0.50400001928E-02 0. -1.
</event>
<event>
 5   0  0.1595851E-08  0.3400780E+04  0.7818609E-02  0.8137715E-01
       -1   -1    0    0    0  501  0.00000000000E+00  0.00000000000E+00  0.13045099945E+04  0.13045099945E+04  0.50400001928E-02 0.  1.
        1   -1    0    0  501    0  0.00000000000E+00  0.00000000000E+00 -0.22164072938E+04  0.22164072938E+04  0.50400001928E-02 0. -1.
    10030    2    1    2    0    0  0.00000000000E+00  0.00000000000E+00 -0.91189729936E+03  0.35209172883E+04  0.34007795969E+04 0.  0.
        2    1    3    3  502    0 -0.36752570246E+02 -0.93987373840E+03 -0.19225397552E+04  0.21402972938E+04  0.25500000920E-02 0. -1.
       -2    1    3    3    0  502  0.36752570246E+02  0.93987373840E+03  0.10106424559E+04  0.13806199945E+04  0.25500000920E-02 0.  1.
</event>
<event>
 5   0  0.1595851E-08  0.3406938E+04  0.7818609E-02  0.8136206E-01
       -1   -1    0    0    0  501  0.00000000000E+00  0.00000000000E+00  0.26243307520E+04  0.26243307520E+04  0.50400001928E-02 0. -1.
        1   -1    0    0  501    0  0.00000000000E+00  0.00000000000E+00 -0.11057319199E+04  0.11057319199E+04  0.50400001928E-02 0.  1.
    10030    2    1    2    0    0  0.00000000000E+00  0.00000000000E+00  0.15185988321E+04  0.37300626719E+04  0.34069377928E+04 0.  0.
        2    1    3    3  502    0  0.39656665336E+03  0.52554654907E+03 -0.96080412947E+03  0.11647355326E+04  0.25500000920E-02 0.  1.
       -2    1    3    3    0  502 -0.39656665336E+03 -0.52554654907E+03  0.24794029615E+04  0.25653271393E+04  0.25500000920E-02 0. -1.
</event>
<event>
 5   0  0.4946315E-08  0.3400704E+04  0.7818609E-02  0.8137733E-01
        2   -1    0    0  501    0  0.00000000000E+00  0.00000000000E+00  0.20458382680E+04  0.20458382680E+04  0.25500000920E-02 0.  1.
       -2   -1    0    0    0  501  0.00000000000E+00  0.00000000000E+00 -0.14132091410E+04  0.14132091410E+04  0.25500000920E-02 0. -1.
    10030    2    1    2    0    0  0.00000000000E+00  0.00000000000E+00  0.63262912703E+03  0.34590474090E+04  0.34007042455E+04 0.  0.
        3    1    3    3  502    0  0.12496311439E+04  0.73318836541E+03 -0.58892825759E+03  0.15639628121E+04  0.10100000352E+00 0. -1.
       -3    1    3    3    0  502 -0.12496311439E+04 -0.73318836541E+03  0.12215573846E+04  0.18950845968E+04  0.10100000352E+00 0.  1.
</event>
<event>
 5   0  0.4946315E-08  0.3399500E+04  0.7818609E-02  0.8138029E-01
       -2   -1    0    0    0  501  0.00000000000E+00  0.00000000000E+00  0.15056611317E+04  0.15056611317E+04  0.25500000920E-02 0. -1.
        2   -1    0    0  501    0  0.00000000000E+00  0.00000000000E+00 -0.19188584098E+04  0.19188584098E+04  0.25500000920E-02 0.  1.
    10030    2    1    2    0    0  0.00000000000E+00  0.00000000000E+00 -0.41319727816E+03  0.34245195415E+04  0.33995002720E+04 0.  0.
        3    1    3    3  502    0 -0.32649089036E+03  0.13071311113E+03 -0.18818073032E+04  0.19143878801E+04  0.10100000352E+00 0.  1.
       -3    1    3    3    0  502  0.32649089036E+03 -0.13071311113E+03  0.14686100251E+04  0.15101316614E+04  0.10100000352E+00 0. -1.
</event>
<event>
 5   0  0.1645631E-08  0.3397684E+04  0.7818609E-02  0.8138475E-01
       -1   -1    0    0    0  501  0.00000000000E+00  0.00000000000E+00  0.16343772118E+04  0.16343772118E+04  0.50400001928E-02 0. -1.
        1   -1    0    0  501    0  0.00000000000E+00  0.00000000000E+00 -0.17658496555E+04  0.17658496555E+04  0.50400001928E-02 0.  1.
    10030    2    1    2    0    0  0.00000000000E+00  0.00000000000E+00 -0.13147244372E+03  0.34002268673E+04  0.33976841739E+04 0.  0.
        4    1    3    3  502    0  0.92335560842E+02  0.20901245585E+03 -0.17504005307E+04  0.17652523030E+04  0.12699999809E+01 0.  1.
       -4    1    3    3    0  502 -0.92335560842E+02 -0.20901245585E+03  0.16189280869E+04  0.16349745643E+04  0.12699999809E+01 0. -1.
</event>
<event>
 5   0  0.1645631E-08  0.3398950E+04  0.7818609E-02  0.8138164E-01
        1   -1    0    0  501    0  0.00000000000E+00  0.00000000000E+00  0.13725939279E+04  0.13725939279E+04  0.50400001928E-02 0.  1.
       -1   -1    0    0    0  501  0.00000000000E+00  0.00000000000E+00 -0.21042028394E+04  0.21042028394E+04  0.50400001928E-02 0. -1.
    10030    2    1    2    0    0  0.00000000000E+00  0.00000000000E+00 -0.73160891146E+03  0.34767967673E+04  0.33989504501E+04 0.  0.
        4    1    3    3  502    0 -0.74118603127E+03  0.84976012552E+03 -0.16664470668E+04  0.20120875834E+04  0.12699999809E+01 0. -1.
       -4    1    3    3    0  502  0.74118603127E+03 -0.84976012552E+03  0.93483815535E+03  0.14647091839E+04  0.12699999809E+01 0.  1.
</event>
<event>
 5   0  0.1625282E-08  0.3398591E+04  0.7818609E-02  0.8138252E-01
        1   -1    0    0  501    0  0.00000000000E+00  0.00000000000E+00  0.17089962497E+04  0.17089962497E+04  0.50400001928E-02 0.  1.
       -1   -1    0    0    0  501  0.00000000000E+00  0.00000000000E+00 -0.16896498497E+04  0.16896498497E+04  0.50400001928E-02 0. -1.
    10030    2    1    2    0    0  0.00000000000E+00  0.00000000000E+00  0.19346399978E+02  0.33986460994E+04  0.33985910354E+04 0.  0.
        1    1    3    3  502    0 -0.57165453827E+03  0.75593546966E+03 -0.14008027393E+04  0.16912940785E+04  0.50400001928E-02 0. -1.
       -1    1    3    3    0  502  0.57165453827E+03 -0.75593546966E+03  0.14201491393E+04  0.17073520209E+04  0.50400001928E-02 0.  1.
</event>
<event>
 5   0  0.1625282E-08  0.3399846E+04  0.7818609E-02  0.8137944E-01
        1   -1    0    0  501    0  0.00000000000E+00  0.00000000000E+00  0.17174369020E+04  0.17174369020E+04  0.50400001928E-02 0. -1.
       -1   -1    0    0    0  501  0.00000000000E+00  0.00000000000E+00 -0.16825873443E+04  0.16825873444E+04  0.50400001928E-02 0.  1.
    10030    2    1    2    0    0  0.00000000000E+00  0.00000000000E+00  0.34849557631E+02  0.34000242463E+04  0.33998456412E+04 0.  0.
        1    1    3    3  502    0  0.26920466509E+03 -0.15830292474E+04 -0.54053360026E+03  0.16942931632E+04  0.50400001928E-02 0. -1.
       -1    1    3    3    0  502 -0.26920466509E+03  0.15830292474E+04  0.57538315789E+03  0.17057310832E+04  0.50400001928E-02 0.  1.
</event>
<event>
 5   0  0.1595851E-08  0.3404114E+04  0.7818609E-02  0.8136897E-01
        1   -1    0    0  501    0  0.00000000000E+00  0.00000000000E+00  0.31644368495E+04  0.31644368495E+04  0.50400001928E-02 0. -1.
       -1   -1    0    0    0  501  0.00000000000E+00  0.00000000000E+00 -0.91548623023E+03  0.91548623024E+03  0.50400001928E-02 0.  1.
    10030    2    1    2    0    0  0.00000000000E+00  0.00000000000E+00  0.22489506192E+04  0.40799230797E+04  0.34041141944E+04 0.  0.
        2    1    3    3  502    0  0.69107414722E+03  0.15441884752E+04  0.13483685053E+04  0.21633767933E+04  0.25500000920E-02 0. -1.
       -2    1    3    3    0  502 -0.69107414722E+03 -0.15441884752E+04  0.90058211390E+03  0.19165462863E+04  0.25500000920E-02 0.  1.
</event>
<event>
 5   0  0.1579536E-08  0.3400023E+04  0.7818609E-02  0.8137901E-01
        1   -1    0    0  501    0  0.00000000000E+00  0.00000000000E+00  0.22460937586E+04  0.22460937586E+04  0.50400001928E-02 0. -1.
       -1   -1    0    0    0  501  0.00000000000E+00  0.00000000000E+00 -0.12866959697E+04  0.12866959697E+04  0.50400001928E-02 0.  1.
    10030    2    1    2    0    0  0.00000000000E+00  0.00000000000E+00  0.95939778887E+03  0.35327897283E+04  0.34000234039E+04 0.  0.
        5    1    3    3  502    0  0.43890351036E+03 -0.12134778462E+04 -0.67024818293E+03  0.14541043606E+04  0.46999998093E+01 0.  1.
       -5    1    3    3    0  502 -0.43890351036E+03  0.12134778462E+04  0.16296459718E+04  0.20786853678E+04  0.46999998093E+01 0. -1.
</event>
<event>
 5   0  0.1595851E-08  0.3397821E+04  0.7818609E-02  0.8138441E-01
        1   -1    0    0  501    0  0.00000000000E+00  0.00000000000E+00  0.18918157522E+04  0.18918157522E+04  0.50400001928E-02 0.  1.
       -1   -1    0    0    0  501  0.00000000000E+00  0.00000000000E+00 -0.15256755029E+04  0.15256755029E+04  0.50400001928E-02 0. -1.
    10030    2    1    2    0    0  0.00000000000E+00  0.00000000000E+00  0.36614024931E+03  0.34174912551E+04  0.33978210365E+04 0.  0.
        2    1    3    3  502    0 -0.92309437898E+02  0.15763154476E+04 -0.44746057959E+03  0.16411923693E+04  0.25500000920E-02 0. -1.
       -2    1    3    3    0  502  0.92309437898E+02 -0.15763154476E+04  0.81360082890E+03  0.17762988858E+04  0.25500000920E-02 0.  1.
</event>
<event>
 5   0  0.4973409E-08  0.3400063E+04  0.7818609E-02  0.8137891E-01
        2   -1    0    0  501    0  0.00000000000E+00  0.00000000000E+00  0.11966657123E+04  0.11966657124E+04  0.25500000920E-02 0.  1.
       -2   -1    0    0    0  501  0.00000000000E+00  0.00000000000E+00 -0.24151327094E+04  0.24151327094E+04  0.25500000920E-02 0. -1.
    10030    2    1    2    0    0  0.00000000000E+00  0.00000000000E+00 -0.12184669971E+04  0.36117984218E+04  0.34000626489E+04 0.  0.
        1    1    3    3  502    0 -0.16331317303E+03 -0.45853236654E+03 -0.23395287609E+04  0.23896271564E+04  0.50400001928E-02 0. -1.
       -1    1    3    3    0  502  0.16331317303E+03  0.45853236654E+03  0.11210617638E+04  0.12221712654E+04  0.50400001928E-02 0.  1.
</event>
<event>
 5   0  0.4973409E-08  0.3399963E+04  0.7818609E-02  0.8137915E-01
       -2   -1    0    0    0  501  0.00000000000E+00  0.00000000000E+00  0.16970860144E+04  0.16970860145E+04  0.25500000920E-02 0. -1.
        2   -1    0    0  501    0  0.00000000000E+00  0.00000000000E+00 -0.17028823768E+04  0.17028823768E+04  0.25500000920E-02 0.  1.
    10030    2    1    2    0    0  0.00000000000E+00  0.00000000000E+00 -0.57963623201E+01  0.33999683912E+04  0.33999634503E+04 0.  0.
        1    1    3    3  502    0 -0.81594083445E+02 -0.14846464386E+04  0.82118142507E+03  0.16985792814E+04  0.50400001928E-02 0. -1.
       -1    1    3    3    0  502  0.81594083445E+02  0.14846464386E+04 -0.82697778739E+03  0.17013891098E+04  0.50400001928E-02 0.  1.
</event>
<event>
 5   0  0.4764953E-08  0.3399961E+04  0.7818609E-02  0.8137916E-01
        2   -1    0    0  501    0  0.00000000000E+00  0.00000000000E+00  0.16720607314E+04  0.16720607314E+04  0.25500000920E-02 0. -1.
       -2   -1    0    0    0  501  0.00000000000E+00  0.00000000000E+00 -0.17283662776E+04  0.17283662776E+04  0.25500000920E-02 0.  1.
    10030    2    1    2    0    0  0.00000000000E+00  0.00000000000E+00 -0.56305546223E+02  0.34004270090E+04  0.33999608128E+04 0.  0.
        2    1    3    3  502    0 -0.54681802558E+03  0.15965832629E+04  0.17643654711E+03  0.16968258378E+04  0.25500000920E-02 0.  1.
       -2    1    3    3    0  502  0.54681802558E+03 -0.15965832629E+04 -0.23274209334E+03  0.17036011712E+04  0.25500000920E-02 0. -1.
</event>
<event>
 5   0  0.1645631E-08  0.3401319E+04  0.7818609E-02  0.8137583E-01
        1   -1    0    0  501    0  0.00000000000E+00  0.00000000000E+00  0.14861449727E+04  0.14861449727E+04  0.50400001928E-02 0.  1.
       -1   -1    0    0    0  501  0.00000000000E+00  0.00000000000E+00 -0.19461375259E+04  0.19461375259E+04  0.50400001928E-02 0. -1.
    10030    2    1    2    0    0  0.00000000000E+00  0.00000000000E+00 -0.45999255319E+03  0.34322824985E+04  0.34013188620E+04 0.  0.
        4    1    3    3  502    0 -0.16092158323E+04  0.34477716495E+03 -0.66261104574E+03  0.17741200352E+04  0.12699999809E+01 0. -1.
       -4    1    3    3    0  502  0.16092158323E+04 -0.34477716495E+03  0.20261849255E+03  0.16581624633E+04  0.12699999809E+01 0.  1.
</event>
<event>
 5   0  0.1645631E-08  0.3406929E+04  0.7818609E-02  0.8136208E-01
        1   -1    0    0  501    0  0.00000000000E+00  0.00000000000E+00  0.15124990175E+04  0.15124990175E+04  0.50400001928E-02 0.  1.
       -1   -1    0    0    0  501  0.00000000000E+00  0.00000000000E+00 -0.19185411884E+04  0.19185411884E+04  0.50400001928E-02 0. -1.
    10030    2    1    2    0    0  0.00000000000E+00  0.00000000000E+00 -0.40604217096E+03  0.34310402059E+04  0.34069292112E+04 0.  0.
        4    1    3    3  502    0 -0.12372756530E+04  0.10742659533E+04  0.26599110745E+03  0.16600154403E+04  0.12699999809E+01 0.  1.
       -4    1    3    3    0  502  0.12372756530E+04 -0.10742659533E+04 -0.67203327841E+03  0.17710247656E+04  0.12699999809E+01 0. -1.
</event>
<event>
 5   0  0.1625282E-08  0.3402693E+04  0.7818609E-02  0.8137246E-01
        1   -1    0    0  501    0  0.00000000000E+00  0.00000000000E+00  0.15760564525E+04  0.15760564525E+04  0.50400001928E-02 0. -1.
       -1   -1    0    0    0  501  0.00000000000E+00  0.00000000000E+00 -0.18365969338E+04  0.18365969338E+04  0.50400001928E-02 0.  1.
    10030    2    1    2    0    0  0.00000000000E+00  0.00000000000E+00 -0.26054048127E+03  0.34126533864E+04  0.34026933146E+04 0.  0.
        1    1    3    3  502    0  0.11476445326E+04 -0.36458880598E+03  0.10751494716E+04  0.16142984101E+04  0.50400001928E-02 0. -1.
       -1    1    3    3    0  502 -0.11476445326E+04  0.36458880598E+03 -0.13356899528E+04  0.17983549763E+04  0.50400001928E-02 0.  1.
</event>
<event>
 5   0  0.1595851E-08  0.3401959E+04  0.7818609E-02  0.8137426E-01
       -1   -1    0    0    0  501  0.00000000000E+00  0.00000000000E+00  0.11138864721E+04  0.11138864721E+04  0.50400001928E-02 0.  1.
        1   -1    0    0  501    0  0.00000000000E+00  0.00000000000E+00 -0.25975104699E+04  0.25975104699E+04  0.50400001928E-02 0. -1.
    10030    2    1    2    0    0  0.00000000000E+00  0.00000000000E+00 -0.14836239978E+04  0.37113969420E+04  0.34019593023E+04 0.  0.
        2    1    3    3  502    0  0.32311161312E+03  0.12337545813E+04 -0.19697005242E+04  0.23465446163E+04  0.25500000920E-02 0. -1.
       -2    1    3    3    0  502 -0.32311161312E+03 -0.12337545813E+04  0.48607652634E+03  0.13648523257E+04  0.25500000920E-02 0.  1.
</event>
<event>
 5   0  0.1595851E-08  0.3399304E+04  0.7818609E-02  0.8138077E-01
        1   -1    0    0  501    0  0.00000000000E+00  0.00000000000E+00  0.19802437498E+04  0.19802437498E+04  0.50400001928E-02 0. -1.
       -1   -1    0    0    0  501  0.00000000000E+00  0.00000000000E+00 -0.14588188509E+04  0.14588188510E+04  0.50400001928E-02 0.  1.
    10030    2    1    2    0    0  0.00000000000E+00  0.00000000000E+00  0.52142489887E+03  0.34390626008E+04  0.33993039945E+04 0.  0.
        2    1    3    3  502    0 -0.98370123164E+03 -0.92306100303E+03 -0.78535743792E+03  0.15609279400E+04  0.25500000920E-02 0.  1.
       -2    1    3    3    0  502  0.98370123164E+03  0.92306100303E+03  0.13067823368E+04  0.18781346608E+04  0.25500000920E-02 0. -1.
</event>
<event>
 5   0  0.4946315E-08  0.3402349E+04  0.7818609E-02  0.8137330E-01
        2   -1    0    0  501    0  0.00000000000E+00  0.00000000000E+00  0.22619091749E+04  0.22619091749E+04  0.25500000920E-02 0. -1.
       -2   -1    0    0    0  501  0.00000000000E+00  0.00000000000E+00 -0.12794474526E+04  0.12794474526E+04  0.25500000920E-02 0.  1.
    10030    2    1    2    0    0  0.00000000000E+00  0.00000000000E+00  0.98246172237E+03  0.35413566275E+04  0.34023485605E+04 0.  0.
        3    1    3    3  502    0 -0.82072082627E+03 -0.10094804725E+04 -0.64961644300E+03  0.14541784733E+04  0.10100000352E+00 0.  1.
       -3    1    3    3    0  502  0.82072082627E+03  0.10094804725E+04  0.16320781654E+04  0.20871781542E+04  0.10100000352E+00 0. -1.
</event>
<event>
 5   0  0.4973409E-08  0.3402869E+04  0.7818609E-02  0.8137203E-01
       -2   -1    0    0    0  501  0.00000000000E+00  0.00000000000E+00  0.10570521483E+04  0.10570521483E+04  0.25500000920E-02 0.  1.
        2   -1    0    0  501    0  0.00000000000E+00  0.00000000000E+00 -0.27386336475E+04  0.27386336475E+04  0.25500000920E-02 0. -1.
    10030    2    1    2    0    0  0.00000000000E+00  0.00000000000E+00 -0.16815814991E+04  0.37956857958E+04  0.34028685431E+04 0.  0.
        1    1    3    3  502    0  0.99141469026E+03 -0.20350506510E+03  0.68477539129E+03  0.12219798428E+04  0.50400001928E-02 0.  1.
       -1    1    3    3    0  502 -0.99141469026E+03  0.20350506510E+03 -0.23663568904E+04  0.25737059530E+04  0.50400001928E-02 0. -1.
</event>
<event>
 5   0  0.4946315E-08  0.3399697E+04  0.7818609E-02  0.8137981E-01
       -2   -1    0    0    0  501  0.00000000000E+00  0.00000000000E+00  0.15576025142E+04  0.15576025142E+04  0.25500000920E-02 0.  1.
        2   -1    0    0  501    0  0.00000000000E+00  0.00000000000E+00 -0.18550849239E+04  0.18550849239E+04  0.25500000920E-02 0. -1.
    10030    2    1    2    0    0  0.00000000000E+00  0.00000000000E+00 -0.29748240964E+03  0.34126874381E+04  0.33996970110E+04 0.  0.
        3    1    3    3  502    0  0.16589918755E+03  0.11701143249E+04 -0.13752096120E+04  0.18132544115E+04  0.10100000352E+00 0. -1.
       -3    1    3    3    0  502 -0.16589918755E+03 -0.11701143249E+04  0.10777272023E+04  0.15994330266E+04  0.10100000352E+00 0.  1.
</event>
<event>
 5   0  0.1625282E-08  0.3402993E+04  0.7818609E-02  0.8137172E-01
       -1   -1    0    0    0  501  0.00000000000E+00  0.00000000000E+00  0.86929827146E+03  0.86929827148E+03  0.50400001928E-02 0.  1.
        1   -1    0    0  501    0  0.00000000000E+00  0.00000000000E+00 -0.33303770310E+04  0.33303770310E+04  0.50400001928E-02 0. -1.
    10030    2    1    2    0    0  0.00000000000E+00  0.00000000000E+00 -0.24610787595E+04  0.41996753025E+04  0.34029933861E+04 0.  0.
        1    1    3    3  502    0  0.10950054270E+04 -0.22052727869E+03  0.35346733242E+03  0.11715836807E+04  0.50400001928E-02 0.  1.
       -1    1    3    3    0  502 -0.10950054270E+04  0.22052727869E+03 -0.28145460919E+04  0.30280916217E+04  0.50400001928E-02 0. -1.
</event>
<event>
 5   0  0.4764953E-08  0.3401166E+04  0.7818609E-02  0.8137620E-01
       -2   -1    0    0    0  501  0.00000000000E+00  0.00000000000E+00  0.14548221552E+04  0.14548221552E+04  0.25500000920E-02 0.  1.
        2   -1    0    0  501    0  0.00000000000E+00  0.00000000000E+00 -0.19878596268E+04  0.19878596268E+04  0.25500000920E-02 0. -1.
    10030    2    1    2    0    0  0.00000000000E+00  0.00000000000E+00 -0.53303747165E+03  0.34426817820E+04  0.34011658157E+04 0.  0.
        2    1    3    3  502    0  0.24446707881E+03 -0.15578017667E+04  0.37802050856E+03  0.16215455596E+04  0.25500000920E-02 0.  1.
       -2    1    3    3    0  502 -0.24446707881E+03  0.15578017667E+04 -0.91105798021E+03  0.18211362224E+04  0.25500000920E-02 0. -1.
</event>
<event>
 5   0  0.4764953E-08  0.3400213E+04  0.7818609E-02  0.8137854E-01
       -2   -1    0    0    0  501  0.00000000000E+00  0.00000000000E+00  0.16184294393E+04  0.16184294393E+04  0.25500000920E-02 0.  1.
        2   -1    0    0  501    0  0.00000000000E+00  0.00000000000E+00 -0.17859054856E+04  0.17859054856E+04  0.25500000920E-02 0. -1.
    10030    2    1    2    0    0  0.00000000000E+00  0.00000000000E+00 -0.16747604632E+03  0.34043349248E+04  0.34002129425E+04 0.  0.
        2    1    3    3  502    0 -0.10877532943E+04  0.70572313711E+03  0.10171902007E+04  0.16480073665E+04  0.25500000920E-02 0.  1.
       -2    1    3    3    0  502  0.10877532943E+04 -0.70572313711E+03 -0.11846662470E+04  0.17563275584E+04  0.25500000920E-02 0. -1.
</event>
<event>
 5   0  0.1625282E-08  0.3400566E+04  0.7818609E-02  0.8137767E-01
        1   -1    0    0  501    0  0.00000000000E+00  0.00000000000E+00  0.23529531145E+04  0.23529531145E+04  0.50400001928E-02 0. -1.
       -1   -1    0    0    0  501  0.00000000000E+00  0.00000000000E+00 -0.12286525593E+04  0.12286525593E+04  0.50400001928E-02 0.  1.
    10030    2    1    2    0    0  0.00000000000E+00  0.00000000000E+00  0.11243005552E+04  0.35816056738E+04  0.34005657565E+04 0.  0.
        1    1    3    3  502    0 -0.55503185152E+03 -0.79996948084E+02  0.22527540510E+04  0.23214996623E+04  0.50400001928E-02 0. -1.
       -1    1    3    3    0  502  0.55503185152E+03  0.79996948084E+02 -0.11284534958E+04  0.12601060115E+04  0.50400001928E-02 0.  1.
</event>
<event>
 5   0  0.1645631E-08  0.3400308E+04  0.7818609E-02  0.8137831E-01
       -1   -1    0    0    0  501  0.00000000000E+00  0.00000000000E+00  0.17011071163E+04  0.17011071163E+04  0.50400001928E-02 0. -1.
        1   -1    0    0  501    0  0.00000000000E+00  0.00000000000E+00 -0.16992013830E+04  0.16992013830E+04  0.50400001928E-02 0.  1.
    10030    2    1    2    0    0  0.00000000000E+00  0.00000000000E+00  0.19057332882E+01  0.34003084992E+04  0.34003079652E+04 0.  0.
        4    1    3    3  502    0 -0.10046827927E+04 -0.12033889171E+04 -0.65706665284E+03  0.16997854567E+04  0.12699999809E+01 0.  1.
       -4    1    3    3    0  502  0.10046827927E+04  0.12033889171E+04  0.65897238613E+03  0.17005230425E+04  0.12699999809E+01 0. -1.
</event>
<event>
 5   0  0.1579536E-08  0.3399196E+04  0.7818609E-02  0.8138104E-01
       -1   -1    0    0    0  501  0.00000000000E+00  0.00000000000E+00  0.14559984331E+04  0.14559984331E+04  0.50400001928E-02 0.  1.
        1   -1    0    0  501    0  0.00000000000E+00  0.00000000000E+00 -0.19839531498E+04  0.19839531498E+04  0.50400001928E-02 0. -1.
    10030    2    1    2    0    0  0.00000000000E+00  0.00000000000E+00 -0.52795471677E+03  0.34399515829E+04  0.33991955975E+04 0.  0.
        5    1    3    3  502    0 -0.11944465855E+04 -0.94039883854E+03 -0.10330616899E+04  0.18380128308E+04  0.46999998093E+01 0.  1.
       -5    1    3    3    0  502  0.11944465855E+04  0.94039883854E+03  0.50510697317E+03  0.16019387521E+04  0.46999998093E+01 0. -1.
</event>
<event>
 5   0  0.4775023E-08  0.3405221E+04  0.7818609E-02  0.8136626E-01
       -2   -1    0    0    0  501  0.00000000000E+00  0.00000000000E+00  0.26947571408E+04  0.26947571408E+04  0.25500000920E-02 0.  1.
        2   -1    0    0  501    0  0.00000000000E+00  0.00000000000E+00 -0.10757490122E+04  0.10757490122E+04  0.25500000920E-02 0. -1.
    10030    2    1    2    0    0  0.00000000000E+00  0.00000000000E+00  0.16190081286E+04  0.37705061529E+04  0.34052208928E+04 0.  0.
        4    1    3    3  502    0 -0.13076415064E+04 -0.84329447754E+03  0.44116411255E+02  0.15566052023E+04  0.12699999809E+01 0. -1.
       -4    1    3    3    0  502  0.13076415064E+04  0.84329447754E+03  0.15748917173E+04  0.22139009507E+04  0.12699999809E+01 0.  1.
</event>
<event>
 5   0  0.1579536E-08  0.3399773E+04  0.7818609E-02  0.8137962E-01
       -1   -1    0    0    0  501  0.00000000000E+00  0.00000000000E+00  0.11149058149E+04  0.11149058149E+04  0.50400001928E-02 0. -1.
        1   -1    0    0  501    0  0.00000000000E+00  0.00000000000E+00 -0.25918006680E+04  0.25918006680E+04  0.50400001928E-02 0.  1.
    10030    2    1    2    0    0  0.00000000000E+00  0.00000000000E+00 -0.14768948531E+04  0.37067064829E+04  0.33997727194E+04 0.  0.
        5    1    3    3  502    0  0.48368286378E+03  0.91908261669E+03  0.72875181509E+03  0.12687644648E+04  0.46999998093E+01 0. -1.
       -5    1    3    3    0  502 -0.48368286378E+03 -0.91908261669E+03 -0.22056466682E+04  0.24379420182E+04  0.46999998093E+01 0.  1.
</event>
<event>
 5   0  0.4973409E-08  0.3399727E+04  0.7818609E-02  0.8137973E-01
       -2   -1    0    0    0  501  0.00000000000E+00  0.00000000000E+00  0.24281713938E+04  0.24281713938E+04  0.25500000920E-02 0.  1.
        2   -1    0    0  501    0  0.00000000000E+00  0.00000000000E+00 -0.11900050321E+04  0.11900050321E+04  0.25500000920E-02 0. -1.
    10030    2    1    2    0    0  0.00000000000E+00  0.00000000000E+00  0.12381663617E+04  0.36181764259E+04  0.33997271522E+04 0.  0.
        1    1    3    3  502    0  0.93795006094E+03  0.46940003357E+03 -0.80457390965E+03  0.13219023733E+04  0.50400001928E-02 0. -1.
       -1    1    3    3    0  502 -0.93795006094E+03 -0.46940003357E+03  0.20427402714E+04  0.22962740526E+04  0.50400001928E-02 0.  1.
</event>
<event>
 5   0  0.1579536E-08  0.3399626E+04  0.7818609E-02  0.8137998E-01
       -1   -1    0    0    0  501  0.00000000000E+00  0.00000000000E+00  0.14537340208E+04  0.14537340208E+04  0.50400001928E-02 0. -1.
        1   -1    0    0  501    0  0.00000000000E+00  0.00000000000E+00 -0.19875463121E+04  0.19875463121E+04  0.50400001928E-02 0.  1.
    10030    2    1    2    0    0  0.00000000000E+00  0.00000000000E+00 -0.53381229124E+03  0.34412803329E+04  0.33996256805E+04 0.  0.
        5    1    3    3  502    0 -0.12097261995E+04 -0.15525962660E+03 -0.14653888140E+04  0.19065491065E+04  0.46999998093E+01 0.  1.
       -5    1    3    3    0  502  0.12097261995E+04  0.15525962660E+03  0.93157652275E+03  0.15347312264E+04  0.46999998093E+01 0. -1.
</event>
<event>
 5   0  0.1630571E-08  0.3399747E+04  0.7818609E-02  0.8137968E-01
       -1   -1    0    0    0  501  0.00000000000E+00  0.00000000000E+00  0.17636129590E+04  0.17636129590E+04  0.50400001928E-02 0.  1.
        1   -1    0    0  501    0  0.00000000000E+00  0.00000000000E+00 -0.16384381404E+04  0.16384381404E+04  0.50400001928E-02 0. -1.
    10030    2    1    2    0    0  0.00000000000E+00  0.00000000000E+00  0.12517481864E+03  0.34020510994E+04  0.33997474829E+04 0.  0.
        3    1    3    3  502    0 -0.22770442894E+03  0.15453820139E+04 -0.60832631624E+03  0.16763399993E+04  0.10100000352E+00 0. -1.
       -3    1    3    3    0  502  0.22770442894E+03 -0.15453820139E+04  0.73350113488E+03  0.17257111001E+04  0.10100000352E+00 0.  1.
</event>
<event>
 5   0  0.1630571E-08  0.3400650E+04  0.7818609E-02  0.8137747E-01
        1   -1    0    0  501    0  0.00000000000E+00  0.00000000000E+00  0.14983437449E+04  0.14983437449E+04  0.50400001928E-02 0. -1.
       -1   -1    0    0    0  501  0.00000000000E+00  0.00000000000E+00 -0.19295336413E+04  0.19295336414E+04  0.50400001928E-02 0.  1.
    10030    2    1    2    0    0  0.00000000000E+00  0.00000000000E+00 -0.43118989644E+03  0.34278773863E+04  0.34006497392E+04 0.  0.
        3    1    3    3  502    0 -0.69870467622E+03 -0.11099583555E+04  0.87515430785E+03  0.15767342352E+04  0.10100000352E+00 0. -1.
       -3    1    3    3    0  502  0.69870467622E+03  0.11099583555E+04 -0.13063442043E+04  0.18511431511E+04  0.10100000352E+00 0.  1.
</event>
<event>
 5   0  0.1579536E-08  0.3399920E+04  0.7818609E-02  0.8137926E-01
       -1   -1    0    0    0  501  0.00000000000E+00  0.00000000000E+00  0.10890680145E+04  0.10890680145E+04  0.50400001928E-02 0.  1.
        1   -1    0    0  501    0  0.00000000000E+00  0.00000000000E+00 -0.26535198048E+04  0.26535198048E+04  0.50400001928E-02 0. -1.
    10030    2    1    2    0    0  0.00000000000E+00  0.00000000000E+00 -0.15644517903E+04  0.37425878193E+04  0.33999197315E+04 0.  0.
        5    1    3    3  502    0  0.25319695872E+03  0.16779615927E+04 -0.67117372168E+03  0.18248726151E+04  0.46999998093E+01 0. -1.
       -5    1    3    3    0  502 -0.25319695872E+03 -0.16779615927E+04 -0.89327806863E+03  0.19177152042E+04  0.46999998093E+01 0.  1.
</event>
<event>
 5   0  0.4775023E-08  0.3413384E+04  0.7818609E-02  0.8134629E-01
        2   -1    0    0  501    0  0.00000000000E+00  0.00000000000E+00  0.20556419273E+04  0.20556419273E+04  0.25500000920E-02 0. -1.
       -2   -1    0    0    0  501  0.00000000000E+00  0.00000000000E+00 -0.14169774332E+04  0.14169774332E+04  0.25500000920E-02 0.  1.
    10030    2    1    2    0    0  0.00000000000E+00  0.00000000000E+00  0.63866449412E+03  0.34726193606E+04  0.34133843744E+04 0.  0.
        4    1    3    3  502    0  0.18253014396E+03  0.16743254794E+04  0.38657746063E+02  0.16846896150E+04  0.12699999809E+01 0.  1.
       -4    1    3    3    0  502 -0.18253014396E+03 -0.16743254794E+04  0.60000674806E+03  0.17879297456E+04  0.12699999809E+01 0. -1.
</event>
<event>
 5   0  0.4946315E-08  0.3399296E+04  0.7818609E-02  0.8138079E-01
        2   -1    0    0  501    0  0.00000000000E+00  0.00000000000E+00  0.20765558628E+04  0.20765558628E+04  0.25500000920E-02 0. -1.
       -2   -1    0    0    0  501  0.00000000000E+00  0.00000000000E+00 -0.13911515953E+04  0.13911515953E+04  0.25500000920E-02 0.  1.
    10030    2    1    2    0    0  0.00000000000E+00  0.00000000000E+00  0.68540426745E+03  0.34677074581E+04  0.33992963986E+04 0.  0.
        3    1    3    3  502    0 -0.64239864559E+02  0.28316355414E+03 -0.13656634056E+04  0.13961894234E+04  0.10100000352E+00 0.  1.
       -3    1    3    3    0  502  0.64239864559E+02 -0.28316355414E+03  0.20510676730E+04  0.20715180347E+04  0.10100000352E+00 0. -1.
</event>
<event>
 5   0  0.4764953E-08  0.3407056E+04  0.7818609E-02  0.8136177E-01
       -2   -1    0    0    0  501  0.00000000000E+00  0.00000000000E+00  0.11232621775E+04  0.11232621775E+04  0.25500000920E-02 0. -1.
        2   -1    0    0  501    0  0.00000000000E+00  0.00000000000E+00 -0.25835534720E+04  0.25835534720E+04  0.25500000920E-02 0.  1.
    10030    2    1    2    0    0  0.00000000000E+00  0.00000000000E+00 -0.14602912944E+04  0.37068156495E+04  0.34070561479E+04 0.  0.
        2    1    3    3  502    0 -0.83298602008E+03 -0.11827239759E+04  0.24861866814E+03  0.14678259280E+04  0.25500000920E-02 0. -1.
       -2    1    3    3    0  502  0.83298602008E+03  0.11827239759E+04 -0.17089099626E+04  0.22389897215E+04  0.25500000920E-02 0.  1.
</event>
<event>
 5   0  0.4973409E-08  0.3399593E+04  0.7818609E-02  0.8138006E-01
        2   -1    0    0  501    0  0.00000000000E+00  0.00000000000E+00  0.20236156765E+04  0.20236156765E+04  0.25500000920E-02 0.  1.
       -2   -1    0    0    0  501  0.00000000000E+00  0.00000000000E+00 -0.14277952876E+04  0.14277952876E+04  0.25500000920E-02 0. -1.
    10030    2    1    2    0    0  0.00000000000E+00  0.00000000000E+00  0.59582038888E+03  0.34514109641E+04  0.33995934620E+04 0.  0.
        1    1    3    3  502    0 -0.14095257542E+04  0.77317958766E+03  0.85835647743E+03  0.18224558620E+04  0.50400001928E-02 0. -1.
       -1    1    3    3    0  502  0.14095257542E+04 -0.77317958766E+03 -0.26253608855E+03  0.16289551020E+04  0.50400001928E-02 0.  1.
</event>
<event>
 5   0  0.5001197E-08  0.3399317E+04  0.7818609E-02  0.8138074E-01
        2   -1    0    0  501    0  0.00000000000E+00  0.00000000000E+00  0.23982932944E+04  0.23982932944E+04  0.25500000920E-02 0.  1.
       -2   -1    0    0    0  501  0.00000000000E+00  0.00000000000E+00 -0.12045393827E+04  0.12045393827E+04  0.25500000920E-02 0. -1.
    10030    2    1    2    0    0  0.00000000000E+00  0.00000000000E+00  0.11937539117E+04  0.36028326772E+04  0.33993168281E+04 0.  0.
        5    1    3    3  502    0  0.24511509601E+03  0.52268515335E+03 -0.10974351120E+04  0.12400270541E+04  0.46999998093E+01 0. -1.
       -5    1    3    3    0  502 -0.24511509601E+03 -0.52268515335E+03  0.22911890237E+04  0.23628056231E+04  0.46999998093E+01 0.  1.
</event>
<event>
 5   0  0.4946315E-08  0.3395561E+04  0.7818609E-02  0.8138997E-01
        2   -1    0    0  501    0  0.00000000000E+00  0.00000000000E+00  0.17312258829E+04  0.17312258829E+04  0.25500000920E-02 0. -1.
       -2   -1    0    0    0  501  0.00000000000E+00  0.00000000000E+00 -0.16649817078E+04  0.16649817079E+04  0.25500000920E-02 0.  1.
    10030    2    1    2    0    0  0.00000000000E+00  0.00000000000E+00  0.66244175018E+02  0.33962075907E+04  0.33955614718E+04 0.  0.
        3    1    3    3  502    0  0.13395265867E+04  0.97966907241E+03 -0.32524268401E+03  0.16911137696E+04  0.10100000352E+00 0.  1.
       -3    1    3    3    0  502 -0.13395265867E+04 -0.97966907241E+03  0.39148685903E+03  0.17050938211E+04  0.10100000352E+00 0. -1.
</event>
<event>
 5   0  0.1625282E-08  0.3396579E+04  0.7818609E-02  0.8138747E-01
       -1   -1    0    0    0  501  0.00000000000E+00  0.00000000000E+00  0.24288656938E+04  0.24288656938E+04  0.50400001928E-02 0.  1.
        1   -1    0    0  501    0  0.00000000000E+00  0.00000000000E+00 -0.11874624783E+04  0.11874624783E+04  0.50400001928E-02 0. -1.
    10030    2    1    2    0    0  0.00000000000E+00  0.00000000000E+00  0.12414032155E+04  0.36163281722E+04  0.33965787942E+04 0.  0.
        1    1    3    3  502    0  0.48128402384E+03 -0.54736277708E+03 -0.10124713197E+04  0.12475329633E+04  0.50400001928E-02 0. -1.
       -1    1    3    3    0  502 -0.48128402384E+03  0.54736277708E+03  0.22538745352E+04  0.23687952089E+04  0.50400001928E-02 0.  1.
</event>
<event>
 5   0  0.1630571E-08  0.3402088E+04  0.7818609E-02  0.8137394E-01
        1   -1    0    0  501    0  0.00000000000E+00  0.00000000000E+00  0.10220988858E+04  0.10220988858E+04  0.50400001928E-02 0.  1.
       -1   -1    0    0    0  501  0.00000000000E+00  0.00000000000E+00 -0.28309887028E+04  0.28309887028E+04  0.50400001928E-02 0. -1.
    10030    2    1    2    0    0  0.00000000000E+00  0.00000000000E+00 -0.18088898170E+04  0.38530875886E+04  0.34020878288E+04 0.  0.
        3    1    3    3  502    0  0.65748573623E+03  0.11516055957E+04 -0.21110751190E+04  0.24930144624E+04  0.10100000352E+00 0. -1.
       -3    1    3    3    0  502 -0.65748573623E+03 -0.11516055957E+04  0.30218530202E+03  0.13600731261E+04  0.10100000352E+00 0.  1.
</event>
<event>
 5   0  0.1579536E-08  0.3397844E+04  0.7818609E-02  0.8138436E-01
        1   -1    0    0  501    0  0.00000000000E+00  0.00000000000E+00  0.19517698609E+04  0.19517698609E+04  0.50400001928E-02 0.  1.
       -1   -1    0    0    0  501  0.00000000000E+00  0.00000000000E+00 -0.14788304710E+04  0.14788304710E+04  0.50400001928E-02 0. -1.
    10030    2    1    2    0    0  0.00000000000E+00  0.00000000000E+00  0.47293938994E+03  0.34306003319E+04  0.33978444595E+04 0.  0.
        5    1    3    3  502    0  0.60538744719E+03 -0.65781561264E+03  0.16950763410E+04  0.19163823296E+04  0.46999998093E+01 0.  1.
       -5    1    3    3    0  502 -0.60538744719E+03  0.65781561264E+03 -0.12221369510E+04  0.15142180023E+04  0.46999998093E+01 0. -1.
</event>
<event>
 5   0  0.1630571E-08  0.3416516E+04  0.7818609E-02  0.8133865E-01
        1   -1    0    0  501    0  0.00000000000E+00  0.00000000000E+00  0.23259309521E+04  0.23259309521E+04  0.50400001928E-02 0. -1.
       -1   -1    0    0    0  501  0.00000000000E+00  0.00000000000E+00 -0.12546141030E+04  0.12546141030E+04  0.50400001928E-02 0.  1.
    10030    2    1    2    0    0  0.00000000000E+00  0.00000000000E+00  0.10713168491E+04  0.35805450552E+04  0.34165162229E+04 0.  0.
        3    1    3    3  502    0 -0.86393454788E+03 -0.14634687031E+04  0.71724637869E+03  0.18446045446E+04  0.10100000352E+00 0. -1.
       -3    1    3    3    0  502  0.86393454788E+03  0.14634687031E+04  0.35407047042E+03  0.17359405106E+04  0.10100000352E+00 0.  1.
</event>
<event>
 5   0  0.4764953E-08  0.3400287E+04  0.7818609E-02  0.8137836E-01
        2   -1    0    0  501    0  0.00000000000E+00  0.00000000000E+00  0.11251404211E+04  0.11251404211E+04  0.25500000920E-02 0. -1.
       -2   -1    0    0    0  501  0.00000000000E+00  0.00000000000E+00 -0.25690016161E+04  0.25690016161E+04  0.25500000920E-02 0.  1.
    10030    2    1    2    0    0  0.00000000000E+00  0.00000000000E+00 -0.14438611950E+04  0.36941420372E+04  0.34002867879E+04 0.  0.
        2    1    3    3  502    0 -0.89149253086E+03 -0.84726713978E+02 -0.22920058971E+04  0.24607374059E+04  0.25500000920E-02 0.  1.
       -2    1    3    3    0  502  0.89149253086E+03  0.84726713978E+02  0.84814470208E+03  0.12334046312E+04  0.25500000920E-02 0. -1.
</event>
<event>
 5   0  0.4946315E-08  0.3400308E+04  0.7818609E-02  0.8137831E-01
        2   -1    0    0  501    0  0.00000000000E+00  0.00000000000E+00  0.17204423840E+04  0.17204423840E+04  0.25500000920E-02 0. -1.
       -2   -1    0    0    0  501  0.00000000000E+00  0.00000000000E+00 -0.16801045110E+04  0.16801045110E+04  0.25500000920E-02 0.  1.
    10030    2    1    2    0    0  0.00000000000E+00  0.00000000000E+00  0.40337872953E+02  0.34005468950E+04  0.34003076391E+04 0.  0.
        3    1    3    3  502    0  0.10408590231E+04  0.12682629574E+04 -0.42555802075E+03  0.16949861575E+04  0.10100000352E+00 0.  1.
       -3    1    3    3    0  502 -0.10408590231E+04 -0.12682629574E+04  0.46589589370E+03  0.17055607374E+04  0.10100000352E+00 0. -1.
</event>
<event>
 5   0  0.1630571E-08  0.3399747E+04  0.7818609E-02  0.8137968E-01
       -1   -1    0    0    0  501  0.00000000000E+00  0.00000000000E+00  0.23049956952E+04  0.23049956952E+04  0.50400001928E-02 0. -1.
        1   -1    0    0  501    0  0.00000000000E+00  0.00000000000E+00 -0.12536120999E+04  0.12536120999E+04  0.50400001928E-02 0.  1.
    10030    2    1    2    0    0  0.00000000000E+00  0.00000000000E+00  0.10513835953E+04  0.35586077952E+04  0.33997473399E+04 0.  0.
        3    1    3    3  502    0 -0.68908882641E+03 -0.57739213069E+03 -0.98440769584E+03  0.13331480057E+04  0.10100000352E+00 0.  1.
       -3    1    3    3    0  502  0.68908882641E+03  0.57739213069E+03  0.20357912912E+04  0.22254597895E+04  0.10100000352E+00 0. -1.
</event>
<event>
 5   0  0.1595851E-08  0.3402597E+04  0.7818609E-02  0.8137269E-01
       -1   -1    0    0    0  501  0.00000000000E+00  0.00000000000E+00  0.12322907206E+04  0.12322907206E+04  0.50400001928E-02 0. -1.
        1   -1    0    0  501    0  0.00000000000E+00  0.00000000000E+00 -0.23488094738E+04  0.23488094738E+04  0.50400001928E-02 0.  1.
    10030    2    1    2    0    0  0.00000000000E+00  0.00000000000E+00 -0.11165187532E+04  0.35811001944E+04  0.34025967255E+04 0.  0.
        2    1    3    3  502    0  0.13004407734E+04 -0.74300759790E+03  0.29105093570E+03  0.15257513372E+04  0.25500000920E-02 0. -1.
       -2    1    3    3    0  502 -0.13004407734E+04  0.74300759790E+03 -0.14075696889E+04  0.20553488572E+04  0.25500000920E-02 0.  1.
</event>
<event>
 5   0  0.4764953E-08  0.3396457E+04  0.7818609E-02  0.8138777E-01
        2   -1    0    0  501    0  0.00000000000E+00  0.00000000000E+00  0.20853560780E+04  0.20853560780E+04  0.25500000920E-02 0. -1.
       -2   -1    0    0    0  501  0.00000000000E+00  0.00000000000E+00 -0.13829673197E+04  0.13829673197E+04  0.25500000920E-02 0.  1.
    10030    2    1    2    0    0  0.00000000000E+00  0.00000000000E+00  0.70238875837E+03  0.34683233977E+04  0.33964565687E+04 0.  0.
        2    1    3    3  502    0 -0.40857761189E+03 -0.11905194448E+04  0.15153640067E+04  0.19699239290E+04  0.25500000920E-02 0. -1.
       -2    1    3    3    0  502  0.40857761189E+03  0.11905194448E+04 -0.81297524831E+03  0.14983994687E+04  0.25500000920E-02 0.  1.
</event>
<event>
 5   0  0.1645631E-08  0.3399849E+04  0.7818609E-02  0.8137943E-01
        1   -1    0    0  501    0  0.00000000000E+00  0.00000000000E+00  0.14522731596E+04  0.14522731596E+04  0.50400001928E-02 0. -1.
       -1   -1    0    0    0  501  0.00000000000E+00  0.00000000000E+00 -0.19898074422E+04  0.19898074422E+04  0.50400001928E-02 0.  1.
    10030    2    1    2    0    0  0.00000000000E+00  0.00000000000E+00 -0.53753428264E+03  0.34420806018E+04  0.33998493738E+04 0.  0.
        4    1    3    3  502    0  0.81061178282E+03  0.67250681961E+03  0.10821178501E+04  0.15100786533E+04  0.12699999809E+01 0. -1.
       -4    1    3    3    0  502 -0.81061178282E+03 -0.67250681961E+03 -0.16196521328E+04  0.19320019485E+04  0.12699999809E+01 0.  1.
</event>
<event>
 5   0  0.4973409E-08  0.3401659E+04  0.7818609E-02  0.8137499E-01
       -2   -1    0    0    0  501  0.00000000000E+00  0.00000000000E+00  0.11037764187E+04  0.11037764187E+04  0.25500000920E-02 0. -1.
        2   -1    0    0  501    0  0.00000000000E+00  0.00000000000E+00 -0.26208393022E+04  0.26208393022E+04  0.25500000920E-02 0.  1.
    10030    2    1    2    0    0  0.00000000000E+00  0.00000000000E+00 -0.15170628835E+04  0.37246157210E+04  0.34016587831E+04 0.  0.
        1    1    3    3  502    0  0.41512168938E+03  0.62178093429E+03  0.91421560265E+03  0.11809859082E+04  0.50400001928E-02 0. -1.
       -1    1    3    3    0  502 -0.41512168938E+03 -0.62178093429E+03 -0.24312784861E+04  0.25436298128E+04  0.50400001928E-02 0.  1.
</event>
<event>
 5   0  0.1645631E-08  0.3399297E+04  0.7818609E-02  0.8138079E-01
        1   -1    0    0  501    0  0.00000000000E+00  0.00000000000E+00  0.10688477023E+04  0.10688477023E+04  0.50400001928E-02 0. -1.
       -1   -1    0    0    0  501  0.00000000000E+00  0.00000000000E+00 -0.27027278547E+04  0.27027278547E+04  0.50400001928E-02 0.  1.
    10030    2    1    2    0    0  0.00000000000E+00  0.00000000000E+00 -0.16338801524E+04  0.37715755571E+04  0.33992966670E+04 0.  0.
        4    1    3    3  502    0  0.16389537297E+04 -0.44959553235E+03 -0.79219577248E+03  0.18750683256E+04  0.12699999809E+01 0.  1.
       -4    1    3    3    0  502 -0.16389537297E+04  0.44959553235E+03 -0.84168437990E+03  0.18965072315E+04  0.12699999809E+01 0. -1.
</event>
<event>
 5   0  0.1630571E-08  0.3401842E+04  0.7818609E-02  0.8137454E-01
        1   -1    0    0  501    0  0.00000000000E+00  0.00000000000E+00  0.20858593182E+04  0.20858593182E+04  0.50400001928E-02 0.  1.
       -1   -1    0    0    0  501  0.00000000000E+00  0.00000000000E+00 -0.13870213511E+04  0.13870213511E+04  0.50400001928E-02 0. -1.
    10030    2    1    2    0    0  0.00000000000E+00  0.00000000000E+00  0.69883796706E+03  0.34728806694E+04  0.34018415071E+04 0.  0.
        3    1    3    3  502    0 -0.28308427846E+03 -0.15897207714E+04  0.89516886000E+03  0.18462600407E+04  0.10100000352E+00 0. -1.
       -3    1    3    3    0  502  0.28308427846E+03  0.15897207714E+04 -0.19633089293E+03  0.16266206286E+04  0.10100000352E+00 0.  1.
</event>
<event>
 5   0  0.1595851E-08  0.3395233E+04  0.7818609E-02  0.8139077E-01
       -1   -1    0    0    0  501  0.00000000000E+00  0.00000000000E+00  0.13286870326E+04  0.13286870326E+04  0.50400001928E-02 0.  1.
        1   -1    0    0  501    0  0.00000000000E+00  0.00000000000E+00 -0.21689848230E+04  0.21689848230E+04  0.50400001928E-02 0. -1.
    10030    2    1    2    0    0  0.00000000000E+00  0.00000000000E+00 -0.84029779046E+03  0.34976718556E+04  0.33952331338E+04 0.  0.
        2    1    3    3  502    0 -0.10930862849E+03 -0.16840952545E+04 -0.60947859705E+03  0.17943214212E+04  0.25500000920E-02 0.  1.
       -2    1    3    3    0  502  0.10930862849E+03  0.16840952545E+04 -0.23081919340E+03  0.17033504344E+04  0.25500000920E-02 0. -1.
</event>
<event>
 5   0  0.4973409E-08  0.3398125E+04  0.7818609E-02  0.8138367E-01
        2   -1    0    0  501    0  0.00000000000E+00  0.00000000000E+00  0.21819844288E+04  0.21819844288E+04  0.25500000920E-02 0. -1.
       -2   -1    0    0    0  501  0.00000000000E+00  0.00000000000E+00 -0.13230216844E+04  0.13230216844E+04  0.25500000920E-02 0.  1.
    10030    2    1    2    0    0  0.00000000000E+00  0.00000000000E+00  0.85896274443E+03  0.35050061133E+04  0.33981246089E+04 0.  0.
        1    1    3    3  502    0  0.49784930749E+03 -0.14552538183E+04 -0.31516425558E+03  0.15700146867E+04  0.50400001928E-02 0.  1.
       -1    1    3    3    0  502 -0.49784930749E+03  0.14552538183E+04  0.11741270000E+04  0.19349914265E+04  0.50400001928E-02 0. -1.
</event>
<event>
 5   0  0.5001197E-08  0.3400415E+04  0.7818609E-02  0.8137804E-01
        2   -1    0    0  501    0  0.00000000000E+00  0.00000000000E+00  0.11383087870E+04  0.11383087870E+04  0.25500000920E-02 0. -1.
       -2   -1    0    0    0  501  0.00000000000E+00  0.00000000000E+00 -0.25394741929E+04  0.25394741929E+04  0.25500000920E-02 0.  1.
    10030    2    1    2    0    0  0.00000000000E+00  0.00000000000E+00 -0.14011654060E+04  0.36777829799E+04  0.34004151441E+04 0.  0.
        5    1    3    3  502    0  0.16788180770E+04  0.22919748600E+03 -0.54869225653E+03  0.17810241171E+04  0.46999998093E+01 0.  1.
       -5    1    3    3    0  502 -0.16788180770E+04 -0.22919748600E+03 -0.85247314947E+03  0.18967588628E+04  0.46999998093E+01 0. -1.
</event>
<event>
 5   0  0.1579536E-08  0.3399445E+04  0.7818609E-02  0.8138043E-01
       -1   -1    0    0    0  501  0.00000000000E+00  0.00000000000E+00  0.19197218330E+04  0.19197218330E+04  0.50400001928E-02 0.  1.
        1   -1    0    0  501    0  0.00000000000E+00  0.00000000000E+00 -0.15049349267E+04  0.15049349267E+04  0.50400001928E-02 0. -1.
    10030    2    1    2    0    0  0.00000000000E+00  0.00000000000E+00  0.41478690625E+03  0.34246567597E+04  0.33994449171E+04 0.  0.
        5    1    3    3  502    0 -0.11033830206E+03 -0.48155436805E+03  0.18457899952E+04  0.19107673711E+04  0.46999998093E+01 0.  1.
       -5    1    3    3    0  502  0.11033830206E+03  0.48155436805E+03 -0.14310030889E+04  0.15138893886E+04  0.46999998093E+01 0. -1.
</event>
<event>
 5   0  0.4775023E-08  0.3398897E+04  0.7818609E-02  0.8138177E-01
       -2   -1    0    0    0  501  0.00000000000E+00  0.00000000000E+00  0.12675353663E+04  0.12675353663E+04  0.25500000920E-02 0.  1.
        2   -1    0    0  501    0  0.00000000000E+00  0.00000000000E+00 -0.22785358696E+04  0.22785358696E+04  0.25500000920E-02 0. -1.
    10030    2    1    2    0    0  0.00000000000E+00  0.00000000000E+00 -0.10110005033E+04  0.35460712359E+04  0.33988967611E+04 0.  0.
        4    1    3    3  502    0  0.17941686057E+03  0.14096762283E+04  0.46692408210E+03  0.14957931641E+04  0.12699999809E+01 0. -1.
       -4    1    3    3    0  502 -0.17941686057E+03 -0.14096762283E+04 -0.14779245854E+04  0.20502780718E+04  0.12699999809E+01 0.  1.
</event>
<event>
 5   0  0.1625282E-08  0.3402017E+04  0.7818609E-02  0.8137411E-01
       -1   -1    0    0    0  501  0.00000000000E+00  0.00000000000E+00  0.26492645693E+04  0.26492645693E+04  0.50400001928E-02 0.  1.
        1   -1    0    0  501    0  0.00000000000E+00  0.00000000000E+00 -0.10921635950E+04  0.10921635950E+04  0.50400001928E-02 0. -1.
    10030    2    1    2    0    0  0.00000000000E+00  0.00000000000E+00  0.15571009743E+04  0.37414281643E+04  0.34020172346E+04 0.  0.
        1    1    3    3  502    0 -0.10788296500E+04  0.12585641748E+04  0.35894467300E+03  0.16960832745E+04  0.50400001928E-02 0. -1.
       -1    1    3    3    0  502  0.10788296500E+04 -0.12585641748E+04  0.11981563013E+04  0.20453448898E+04  0.50400001928E-02 0.  1.
</event>
<event>
 5   0  0.1579536E-08  0.3400888E+04  0.7818609E-02  0.8137689E-01
       -1   -1    0    0    0  501  0.00000000000E+00  0.00000000000E+00  0.24808338103E+04  0.24808338103E+04  0.50400001928E-02 0.  1.
        1   -1    0    0  501    0  0.00000000000E+00  0.00000000000E+00 -0.11655391673E+04  0.11655391673E+04  0.50400001928E-02 0. -1.
    10030    2    1    2    0    0  0.00000000000E+00  0.00000000000E+00  0.13152946430E+04  0.36463729776E+04  0.34008875156E+04 0.  0.
        5    1    3    3  502    0  0.77500415963E+03 -0.12014779344E+04 -0.32928873578E+03  0.14671856855E+04  0.46999998093E+01 0. -1.
       -5    1    3    3    0  502 -0.77500415963E+03  0.12014779344E+04  0.16445833787E+04  0.21791872921E+04  0.46999998093E+01 0.  1.
</event>
<event>
 5   0  0.1595851E-08  0.3400135E+04  0.7818609E-02  0.8137873E-01
       -1   -1    0    0    0  501  0.00000000000E+00  0.00000000000E+00  0.13837204065E+04  0.13837204065E+04  0.50400001928E-02 0.  1.
        1   -1    0    0  501    0  0.00000000000E+00  0.00000000000E+00 -0.20887385293E+04  0.20887385293E+04  0.50400001928E-02 0. -1.
    10030    2    1    2    0    0  0.00000000000E+00  0.00000000000E+00 -0.70501812285E+03  0.34724589358E+04  0.34001353660E+04 0.  0.
        2    1    3    3  502    0 -0.11332264320E+04  0.12597756278E+03  0.93532824122E+03  0.14747580857E+04  0.25500000920E-02 0.  1.
       -2    1    3    3    0  502  0.11332264320E+04 -0.12597756278E+03 -0.16403463641E+04  0.19977008501E+04  0.25500000920E-02 0. -1.
</event>
<event>
 5   0  0.1595851E-08  0.3399892E+04  0.7818609E-02  0.8137933E-01
       -1   -1    0    0    0  501  0.00000000000E+00  0.00000000000E+00  0.14176524300E+04  0.14176524300E+04  0.50400001928E-02 0. -1.
        1   -1    0    0  501    0  0.00000000000E+00  0.00000000000E+00 -0.20384516906E+04  0.20384516906E+04  0.50400001928E-02 0.  1.
    10030    2    1    2    0    0  0.00000000000E+00  0.00000000000E+00 -0.62079926060E+03  0.34561041205E+04  0.33998917586E+04 0.  0.
        2    1    3    3  502    0 -0.77668122816E+02  0.37219569855E+03  0.13738753407E+04  0.14255158460E+04  0.25500000920E-02 0. -1.
       -2    1    3    3    0  502  0.77668122816E+02 -0.37219569855E+03 -0.19946746014E+04  0.20305882745E+04  0.25500000920E-02 0.  1.
</event>
<event>
 5   0  0.1579536E-08  0.3399778E+04  0.7818609E-02  0.8137961E-01
        1   -1    0    0  501    0  0.00000000000E+00  0.00000000000E+00  0.19165968982E+04  0.19165968982E+04  0.50400001928E-02 0.  1.
       -1   -1    0    0    0  501  0.00000000000E+00  0.00000000000E+00 -0.15076840524E+04  0.15076840524E+04  0.50400001928E-02 0. -1.
    10030    2    1    2    0    0  0.00000000000E+00  0.00000000000E+00  0.40891284588E+03  0.34242809506E+04  0.33997779800E+04 0.  0.
        5    1    3    3  502    0 -0.48803156168E+03  0.13844872416E+04 -0.65882109729E+03  0.16090516013E+04  0.46999998093E+01 0. -1.
       -5    1    3    3    0  502  0.48803156168E+03 -0.13844872416E+04  0.10677339432E+04  0.18152293493E+04  0.46999998093E+01 0.  1.
</event>
<event>
 5   0  0.1579536E-08  0.3400838E+04  0.7818609E-02  0.8137701E-01
        1   -1    0    0  501    0  0.00000000000E+00  0.00000000000E+00  0.24638526508E+04  0.24638526508E+04  0.50400001928E-02 0.  1.
       -1   -1    0    0    0  501  0.00000000000E+00  0.00000000000E+00 -0.11735377110E+04  0.11735377110E+04  0.50400001928E-02 0. -1.
    10030    2    1    2    0    0  0.00000000000E+00  0.00000000000E+00  0.12903149398E+04  0.36373903618E+04  0.34008375439E+04 0.  0.
        5    1    3    3  502    0 -0.14601581389E+04  0.84903282807E+03  0.43534050095E+03  0.17442654544E+04  0.46999998093E+01 0.  1.
       -5    1    3    3    0  502  0.14601581389E+04 -0.84903282807E+03  0.85497443887E+03  0.18931249074E+04  0.46999998093E+01 0. -1.
</event>
<event>
 5   0  0.1595851E-08  0.3403007E+04  0.7818609E-02  0.8137169E-01
        1   -1    0    0  501    0  0.00000000000E+00  0.00000000000E+00  0.15616380628E+04  0.15616380628E+04  0.50400001928E-02 0.  1.
       -1   -1    0    0    0  501  0.00000000000E+00  0.00000000000E+00 -0.18538957997E+04  0.18538957997E+04  0.50400001928E-02 0. -1.
    10030    2    1    2    0    0  0.00000000000E+00  0.00000000000E+00 -0.29225773694E+03  0.34155338625E+04  0.34030070498E+04 0.  0.
        2    1    3    3  502    0  0.74006236533E+03  0.58158619817E+03  0.12765441948E+04  0.15860327524E+04  0.25500000920E-02 0.  1.
       -2    1    3    3    0  502 -0.74006236533E+03 -0.58158619817E+03 -0.15688019318E+04  0.18295011100E+04  0.25500000920E-02 0. -1.
</event>
<event>
 5   0  0.1595851E-08  0.3398886E+04  0.7818609E-02  0.8138180E-01
       -1   -1    0    0    0  501  0.00000000000E+00  0.00000000000E+00  0.17449342017E+04  0.17449342017E+04  0.50400001928E-02 0.  1.
        1   -1    0    0  501    0  0.00000000000E+00  0.00000000000E+00 -0.16551381992E+04  0.16551381992E+04  0.50400001928E-02 0. -1.
    10030    2    1    2    0    0  0.00000000000E+00  0.00000000000E+00  0.89796002585E+02  0.34000724009E+04  0.33988864367E+04 0.  0.
        2    1    3    3  502    0 -0.12457707433E+04  0.76391898456E+03 -0.82292432080E+03  0.16771169898E+04  0.25500000920E-02 0. -1.
       -2    1    3    3    0  502  0.12457707433E+04 -0.76391898456E+03  0.91272032339E+03  0.17229554111E+04  0.25500000920E-02 0.  1.
</event>
<event>
 5   0  0.1595851E-08  0.3392392E+04  0.7818609E-02  0.8139776E-01
       -1   -1    0    0    0  501  0.00000000000E+00  0.00000000000E+00  0.14716559386E+04  0.14716559386E+04  0.50400001928E-02 0. -1.
        1   -1    0    0  501    0  0.00000000000E+00  0.00000000000E+00 -0.19549960697E+04  0.19549960697E+04  0.50400001928E-02 0.  1.
    10030    2    1    2    0    0  0.00000000000E+00  0.00000000000E+00 -0.48334013109E+03  0.34266520083E+04  0.33923924160E+04 0.  0.
        2    1    3    3  502    0  0.34436143085E+03  0.97939419504E+02  0.14330559105E+04  0.14771005950E+04  0.25500000920E-02 0. -1.
       -2    1    3    3    0  502 -0.34436143085E+03 -0.97939419504E+02 -0.19163960416E+04  0.19495514134E+04  0.25500000920E-02 0.  1.
</event>
<event>
 5   0  0.4973409E-08  0.3400247E+04  0.7818609E-02  0.8137846E-01
        2   -1    0    0  501    0  0.00000000000E+00  0.00000000000E+00  0.21508464292E+04  0.21508464292E+04  0.25500000920E-02 0. -1.
       -2   -1    0    0    0  501  0.00000000000E+00  0.00000000000E+00 -0.13438525539E+04  0.13438525539E+04  0.25500000920E-02 0.  1.
    10030    2    1    2    0    0  0.00000000000E+00  0.00000000000E+00  0.80699387529E+03  0.34946989832E+04  0.34002473246E+04 0.  0.
        1    1    3    3  502    0  0.78503190680E+03 -0.13763053505E+04 -0.23000866836E+03  0.16010607421E+04  0.50400001928E-02 0.  1.
       -1    1    3    3    0  502 -0.78503190680E+03  0.13763053505E+04  0.10370025436E+04  0.18936382410E+04  0.50400001928E-02 0. -1.
</event>
<event>
 5   0  0.1579536E-08  0.3394385E+04  0.7818609E-02  0.8139286E-01
       -1   -1    0    0    0  501  0.00000000000E+00  0.00000000000E+00  0.10255370526E+04  0.10255370526E+04  0.50400001928E-02 0.  1.
        1   -1    0    0  501    0  0.00000000000E+00  0.00000000000E+00 -0.28087357997E+04  0.28087357997E+04  0.50400001928E-02 0. -1.
    10030    2    1    2    0    0  0.00000000000E+00  0.00000000000E+00 -0.17831987471E+04  0.38342728523E+04  0.33943851482E+04 0.  0.
        5    1    3    3  502    0  0.27497025597E+03  0.34541695127E+03 -0.27427255125E+04  0.27780365079E+04  0.46999998093E+01 0. -1.
       -5    1    3    3    0  502 -0.27497025597E+03 -0.34541695127E+03  0.95952676539E+03  0.10562363445E+04  0.46999998093E+01 0.  1.
</event>
<event>
 5   0  0.1595851E-08  0.3399556E+04  0.7818609E-02  0.8138015E-01
        1   -1    0    0  501    0  0.00000000000E+00  0.00000000000E+00  0.32638228476E+04  0.32638228476E+04  0.50400001928E-02 0.  1.
       -1   -1    0    0    0  501  0.00000000000E+00  0.00000000000E+00 -0.88523354229E+03  0.88523354230E+03  0.50400001928E-02 0. -1.
    10030    2    1    2    0    0  0.00000000000E+00  0.00000000000E+00  0.23785893053E+04  0.41490563899E+04  0.33995561244E+04 0.  0.
        2    1    3    3  502    0 -0.67768989862E+03 -0.14057252178E+04  0.36702161261E+03  0.16031318881E+04  0.25500000920E-02 0. -1.
       -2    1    3    3    0  502  0.67768989862E+03  0.14057252178E+04  0.20115676927E+04  0.25459245018E+04  0.25500000920E-02 0.  1.
</event>
<event>
 5   0  0.1625282E-08  0.3398872E+04  0.7818609E-02  0.8138183E-01
        1   -1    0    0  501    0  0.00000000000E+00  0.00000000000E+00  0.13688457543E+04  0.13688457544E+04  0.50400001928E-02 0. -1.
       -1   -1    0    0    0  501  0.00000000000E+00  0.00000000000E+00 -0.21098673359E+04  0.21098673359E+04  0.50400001928E-02 0.  1.
    10030    2    1    2    0    0  0.00000000000E+00  0.00000000000E+00 -0.74102158157E+03  0.34787130903E+04  0.33988721335E+04 0.  0.
        1    1    3    3  502    0 -0.45802937233E+03  0.14235283013E+04  0.45583285011E+03  0.15633321201E+04  0.50400001928E-02 0.  1.
       -1    1    3    3    0  502  0.45802937233E+03 -0.14235283013E+04 -0.11968544317E+04  0.19153809702E+04  0.50400001928E-02 0. -1.
</event>
<event>
 5   0  0.5001197E-08  0.3393735E+04  0.7818609E-02  0.8139446E-01
        2   -1    0    0  501    0  0.00000000000E+00  0.00000000000E+00  0.22668646698E+04  0.22668646698E+04  0.25500000920E-02 0. -1.
       -2   -1    0    0    0  501  0.00000000000E+00  0.00000000000E+00 -0.12701949377E+04  0.12701949377E+04  0.25500000920E-02 0.  1.
    10030    2    1    2    0    0  0.00000000000E+00  0.00000000000E+00  0.99666973205E+03  0.35370596075E+04  0.33937354217E+04 0.  0.
        5    1    3    3  502    0  0.60207371701E+03  0.14493741818E+04 -0.17401355088E+03  0.15790760227E+04  0.46999998093E+01 0.  1.
       -5    1    3    3    0  502 -0.60207371701E+03 -0.14493741818E+04  0.11706832829E+04  0.19579835848E+04  0.46999998093E+01 0. -1.
</event>
<event>
 5   0  0.5001197E-08  0.3401026E+04  0.7818609E-02  0.8137655E-01
       -2   -1    0    0    0  501  0.00000000000E+00  0.00000000000E+00  0.11323588001E+04  0.11323588001E+04  0.25500000920E-02 0.  1.
        2   -1    0    0  501    0  0.00000000000E+00  0.00000000000E+00 -0.25537354362E+04  0.25537354362E+04  0.25500000920E-02 0. -1.
    10030    2    1    2    0    0  0.00000000000E+00  0.00000000000E+00 -0.14213766362E+04  0.36860942363E+04  0.34010261947E+04 0.  0.
        5    1    3    3  502    0 -0.67017762926E+03  0.99925976180E+03 -0.20131044433E+04  0.23452653829E+04  0.46999998093E+01 0. -1.
       -5    1    3    3    0  502  0.67017762926E+03 -0.99925976180E+03  0.59172780719E+03  0.13408288534E+04  0.46999998093E+01 0.  1.
</event>
<event>
 5   0  0.4775023E-08  0.3401068E+04  0.7818609E-02  0.8137644E-01
        2   -1    0    0  501    0  0.00000000000E+00  0.00000000000E+00  0.19817212454E+04  0.19817212454E+04  0.25500000920E-02 0. -1.
       -2   -1    0    0    0  501  0.00000000000E+00  0.00000000000E+00 -0.14592441539E+04  0.14592441539E+04  0.25500000920E-02 0.  1.
    10030    2    1    2    0    0  0.00000000000E+00  0.00000000000E+00  0.52247709148E+03  0.34409653993E+04  0.34010675630E+04 0.  0.
        4    1    3    3  502    0  0.70594420358E+03  0.10367977136E+04  0.14229713025E+04  0.18968805070E+04  0.12699999809E+01 0. -1.
       -4    1    3    3    0  502 -0.70594420358E+03 -0.10367977136E+04 -0.90049421100E+03  0.15440848922E+04  0.12699999809E+01 0.  1.
</event>
<event>
 5   0  0.1579536E-08  0.3400088E+04  0.7818609E-02  0.8137885E-01
        1   -1    0    0  501    0  0.00000000000E+00  0.00000000000E+00  0.25715235202E+04  0.25715235202E+04  0.50400001928E-02 0. -1.
       -1   -1    0    0    0  501  0.00000000000E+00  0.00000000000E+00 -0.11239052700E+04  0.11239052700E+04  0.50400001928E-02 0.  1.
    10030    2    1    2    0    0  0.00000000000E+00  0.00000000000E+00  0.14476182502E+04  0.36954287903E+04  0.34000875497E+04 0.  0.
        5    1    3    3  502    0 -0.11734372741E+04  0.17321603231E+03  0.20474491747E+04  0.23662267522E+04  0.46999998093E+01 0. -1.
       -5    1    3    3    0  502  0.11734372741E+04 -0.17321603231E+03 -0.59983092444E+03  0.13292020380E+04  0.46999998093E+01 0.  1.
</event>
<event>
 5   0  0.4764953E-08  0.3398152E+04  0.7818609E-02  0.8138360E-01
        2   -1    0    0  501    0  0.00000000000E+00  0.00000000000E+00  0.29603360611E+04  0.29603360611E+04  0.25500000920E-02 0.  1.
       -2   -1    0    0    0  501  0.00000000000E+00  0.00000000000E+00 -0.97517955472E+03  0.97517955473E+03  0.25500000920E-02 0. -1.
    10030    2    1    2    0    0  0.00000000000E+00  0.00000000000E+00  0.19851565063E+04  0.39355156158E+04  0.33981519695E+04 0.  0.
        2    1    3    3  502    0 -0.98876593095E+03  0.13565189291E+04  0.68823451854E+03  0.18142404536E+04  0.25500000920E-02 0. -1.
       -2    1    3    3    0  502  0.98876593095E+03 -0.13565189291E+04  0.12969219878E+04  0.21212751621E+04  0.25500000920E-02 0.  1.
</event>
<event>
 5   0  0.1595851E-08  0.3400409E+04  0.7818609E-02  0.8137806E-01
        1   -1    0    0  501    0  0.00000000000E+00  0.00000000000E+00  0.21681199563E+04  0.21681199563E+04  0.50400001928E-02 0. -1.
       -1   -1    0    0    0  501  0.00000000000E+00  0.00000000000E+00 -0.13332726629E+04  0.13332726629E+04  0.50400001928E-02 0.  1.
    10030    2    1    2    0    0  0.00000000000E+00  0.00000000000E+00  0.83484729339E+03  0.35013926192E+04  0.34004088388E+04 0.  0.
        2    1    3    3  502    0  0.11734352468E+04  0.11722894551E+04  0.80198807096E+03  0.18423891312E+04  0.25500000920E-02 0. -1.
       -2    1    3    3    0  502 -0.11734352468E+04 -0.11722894551E+04  0.32859222425E+02  0.16590034880E+04  0.25500000920E-02 0.  1.
</event>
<event>
 5   0  0.4764953E-08  0.3400275E+04  0.7818609E-02  0.8137839E-01
       -2   -1    0    0    0  501  0.00000000000E+00  0.00000000000E+00  0.13054717352E+04  0.13054717352E+04  0.25500000920E-02 0.  1.
        2   -1    0    0  501    0  0.00000000000E+00  0.00000000000E+00 -0.22141176210E+04  0.22141176210E+04  0.25500000920E-02 0. -1.
    10030    2    1    2    0    0  0.00000000000E+00  0.00000000000E+00 -0.90864588575E+03  0.35195893562E+04  0.34002752669E+04 0.  0.
        2    1    3    3  502    0  0.95174346734E+03  0.61120418885E+03  0.85949961076E+03  0.14206075352E+04  0.25500000920E-02 0.  1.
       -2    1    3    3    0  502 -0.95174346734E+03 -0.61120418885E+03 -0.17681454965E+04  0.20989818210E+04  0.25500000920E-02 0. -1.
</event>
<event>
 5   0  0.1579536E-08  0.3397800E+04  0.7818609E-02  0.8138447E-01
       -1   -1    0    0    0  501  0.00000000000E+00  0.00000000000E+00  0.15216242164E+04  0.15216242164E+04  0.50400001928E-02 0.  1.
        1   -1    0    0  501    0  0.00000000000E+00  0.00000000000E+00 -0.18968290528E+04  0.18968290528E+04  0.50400001928E-02 0. -1.
    10030    2    1    2    0    0  0.00000000000E+00  0.00000000000E+00 -0.37520483644E+03  0.34184532693E+04  0.33977998889E+04 0.  0.
        5    1    3    3  502    0  0.10701787640E+04  0.13035865791E+04  0.17643443561E+02  0.16866991247E+04  0.46999998093E+01 0. -1.
       -5    1    3    3    0  502 -0.10701787640E+04 -0.13035865791E+04 -0.39284828000E+03  0.17317541446E+04  0.46999998093E+01 0.  1.
</event>
<event>
 5   0  0.4775023E-08  0.3400703E+04  0.7818609E-02  0.8137734E-01
       -2   -1    0    0    0  501  0.00000000000E+00  0.00000000000E+00  0.15697288185E+04  0.15697288185E+04  0.25500000920E-02 0.  1.
        2   -1    0    0  501    0  0.00000000000E+00  0.00000000000E+00 -0.18418438968E+04  0.18418438968E+04  0.25500000920E-02 0. -1.
    10030    2    1    2    0    0  0.00000000000E+00  0.00000000000E+00 -0.27211507825E+03  0.34115727153E+04  0.34007031296E+04 0.  0.
        4    1    3    3  502    0  0.10396872244E+04  0.74702602138E+03  0.98653497518E+03  0.16162457336E+04  0.12699999809E+01 0.  1.
       -4    1    3    3    0  502 -0.10396872244E+04 -0.74702602138E+03 -0.12586500534E+04  0.17953269817E+04  0.12699999809E+01 0. -1.
</event>
<event>
 5   0  0.1625282E-08  0.3403264E+04  0.7818609E-02  0.8137106E-01
       -1   -1    0    0    0  501  0.00000000000E+00  0.00000000000E+00  0.11583796239E+04  0.11583796239E+04  0.50400001928E-02 0.  1.
        1   -1    0    0  501    0  0.00000000000E+00  0.00000000000E+00 -0.24996561162E+04  0.24996561162E+04  0.50400001928E-02 0. -1.
    10030    2    1    2    0    0  0.00000000000E+00  0.00000000000E+00 -0.13412764923E+04  0.36580357400E+04  0.34032635582E+04 0.  0.
        1    1    3    3  502    0 -0.73705151377E+03 -0.48195932748E+03 -0.22356674313E+04  0.24028605017E+04  0.50400001928E-02 0. -1.
       -1    1    3    3    0  502  0.73705151377E+03  0.48195932748E+03  0.89439093894E+03  0.12551752384E+04  0.50400001928E-02 0.  1.
</event>
<event>
 5   0  0.1579536E-08  0.3379381E+04  0.7818609E-02  0.8142986E-01
        1   -1    0    0  501    0  0.00000000000E+00  0.00000000000E+00  0.22944685935E+04  0.22944685935E+04  0.50400001928E-02 0. -1.
       -1   -1    0    0    0  501  0.00000000000E+00  0.00000000000E+00 -0.12443201685E+04  0.12443201685E+04  0.50400001928E-02 0.  1.
    10030    2    1    2    0    0  0.00000000000E+00  0.00000000000E+00  0.10501484250E+04  0.35387887620E+04  0.33793807402E+04 0.  0.
        5    1    3    3  502    0 -0.58159656900E+02 -0.79423774738E+03 -0.10354686149E+04  0.13062976260E+04  0.46999998093E+01 0.  1.
       -5    1    3    3    0  502  0.58159656900E+02  0.79423774738E+03  0.20856170400E+04  0.22324911360E+04  0.46999998093E+01 0. -1.
</event>
<event>
 5   0  0.1625282E-08  0.3396600E+04  0.7818609E-02  0.8138741E-01
        1   -1    0    0  501    0  0.00000000000E+00  0.00000000000E+00  0.35708409990E+04  0.35708409990E+04  0.50400001928E-02 0. -1.
       -1   -1    0    0    0  501  0.00000000000E+00  0.00000000000E+00 -0.80771510370E+03  0.80771510372E+03  0.50400001928E-02 0.  1.
    10030    2    1    2    0    0  0.00000000000E+00  0.00000000000E+00  0.27631258953E+04  0.43785561028E+04  0.33965995983E+04 0.  0.
        1    1    3    3  502    0  0.12535094292E+03  0.25940941219E+03 -0.77598209994E+03  0.82774049162E+03  0.50400001928E-02 0.  1.
       -1    1    3    3    0  502 -0.12535094292E+03 -0.25940941219E+03  0.35391079953E+04  0.35508156111E+04  0.50400001928E-02 0. -1.
</event>
<event>
 5   0  0.4764953E-08  0.3400757E+04  0.7818609E-02  0.8137721E-01
       -2   -1    0    0    0  501  0.00000000000E+00  0.00000000000E+00  0.19732389559E+04  0.19732389559E+04  0.25500000920E-02 0. -1.
        2   -1    0    0  501    0  0.00000000000E+00  0.00000000000E+00 -0.14652494910E+04  0.14652494910E+04  0.25500000920E-02 0.  1.
    10030    2    1    2    0    0  0.00000000000E+00  0.00000000000E+00  0.50798946492E+03  0.34384884469E+04  0.34007571956E+04 0.  0.
        2    1    3    3  502    0  0.11185406849E+04  0.64647121422E+03  0.13718054011E+04  0.18843854046E+04  0.25500000920E-02 0. -1.
       -2    1    3    3    0  502 -0.11185406849E+04 -0.64647121422E+03 -0.86381593615E+03  0.15541030423E+04  0.25500000920E-02 0.  1.
</event>
<event>
 5   0  0.4946315E-08  0.3400439E+04  0.7818609E-02  0.8137799E-01
        2   -1    0    0  501    0  0.00000000000E+00  0.00000000000E+00  0.15712693408E+04  0.15712693408E+04  0.25500000920E-02 0.  1.
       -2   -1    0    0    0  501  0.00000000000E+00  0.00000000000E+00 -0.18397520600E+04  0.18397520600E+04  0.25500000920E-02 0. -1.
    10030    2    1    2    0    0  0.00000000000E+00  0.00000000000E+00 -0.26848271918E+03  0.34110214008E+04  0.34004387990E+04 0.  0.
        3    1    3    3  502    0 -0.96504295380E+03  0.38854824304E+03  0.12147368623E+04  0.15993321402E+04  0.10100000352E+00 0.  1.
       -3    1    3    3    0  502  0.96504295380E+03 -0.38854824304E+03 -0.14832195815E+04  0.18116892606E+04  0.10100000352E+00 0. -1.
</event>
<event>
 5   0  0.1579536E-08  0.3400217E+04  0.7818609E-02  0.8137853E-01
        1   -1    0    0  501    0  0.00000000000E+00  0.00000000000E+00  0.16452445993E+04  0.16452445993E+04  0.50400001928E-02 0.  1.
       -1   -1    0    0    0  501  0.00000000000E+00  0.00000000000E+00 -0.17568019905E+04  0.17568019905E+04  0.50400001928E-02 0. -1.
    10030    2    1    2    0    0  0.00000000000E+00  0.00000000000E+00 -0.11155739115E+03  0.34020465898E+04  0.34002170442E+04 0.  0.
        5    1    3    3  502    0 -0.11531734250E+04  0.55310487603E+03 -0.11764764428E+04  0.17377723851E+04  0.46999998093E+01 0. -1.
       -5    1    3    3    0  502  0.11531734250E+04 -0.55310487603E+03  0.10649190517E+04  0.16642742047E+04  0.46999998093E+01 0.  1.
</event>
<event>
 5   0  0.5001197E-08  0.3394430E+04  0.7818609E-02  0.8139275E-01
       -2   -1    0    0    0  501  0.00000000000E+00  0.00000000000E+00  0.13302523915E+04  0.13302523915E+04  0.25500000920E-02 0.  1.
        2   -1    0    0  501    0  0.00000000000E+00  0.00000000000E+00 -0.21654070506E+04  0.21654070506E+04  0.25500000920E-02 0. -1.
    10030    2    1    2    0    0  0.00000000000E+00  0.00000000000E+00 -0.83515465909E+03  0.34956594421E+04  0.33944295001E+04 0.  0.
        5    1    3    3  502    0  0.13485596013E+04 -0.69486223550E+03  0.36608250926E+03  0.15606040555E+04  0.46999998093E+01 0.  1.
       -5    1    3    3    0  502 -0.13485596013E+04  0.69486223550E+03 -0.12012371684E+04  0.19350553866E+04  0.46999998093E+01 0. -1.
</event>
<event>
 5   0  0.5001197E-08  0.3399744E+04  0.7818609E-02  0.8137969E-01
       -2   -1    0    0    0  501  0.00000000000E+00  0.00000000000E+00  0.13127090209E+04  0.13127090209E+04  0.25500000920E-02 0.  1.
        2   -1    0    0  501    0  0.00000000000E+00  0.00000000000E+00 -0.22012231953E+04  0.22012231953E+04  0.25500000920E-02 0. -1.
    10030    2    1    2    0    0  0.00000000000E+00  0.00000000000E+00 -0.88851417439E+03  0.35139322162E+04  0.33997444289E+04 0.  0.
        5    1    3    3  502    0  0.71344336148E+03 -0.12762765462E+04  0.45184582225E+03  0.15303823018E+04  0.46999998093E+01 0.  1.
       -5    1    3    3    0  502 -0.71344336148E+03  0.12762765462E+04 -0.13403599966E+04  0.19835499144E+04  0.46999998093E+01 0. -1.
</event>
<event>
 5   0  0.5001197E-08  0.3412194E+04  0.7818609E-02  0.8134920E-01
       -2   -1    0    0    0  501  0.00000000000E+00  0.00000000000E+00  0.16971073026E+04  0.16971073026E+04  0.25500000920E-02 0. -1.
        2   -1    0    0  501    0  0.00000000000E+00  0.00000000000E+00 -0.17151345230E+04  0.17151345230E+04  0.25500000920E-02 0.  1.
    10030    2    1    2    0    0  0.00000000000E+00  0.00000000000E+00 -0.18027220384E+02  0.34122418257E+04  0.34121942055E+04 0.  0.
        5    1    3    3  502    0 -0.12303696931E+04  0.84477075275E+03  0.81761635528E+03  0.17017537427E+04  0.46999998093E+01 0. -1.
       -5    1    3    3    0  502  0.12303696931E+04 -0.84477075275E+03 -0.83564357566E+03  0.17104880830E+04  0.46999998093E+01 0.  1.
</event>
<event>
 5   0  0.1625282E-08  0.3400992E+04  0.7818609E-02  0.8137663E-01
       -1   -1    0    0    0  501  0.00000000000E+00  0.00000000000E+00  0.22572906029E+04  0.22572906029E+04  0.50400001928E-02 0.  1.
        1   -1    0    0  501    0  0.00000000000E+00  0.00000000000E+00 -0.12810434504E+04  0.12810434504E+04  0.50400001928E-02 0. -1.
    10030    2    1    2    0    0  0.00000000000E+00  0.00000000000E+00  0.97624715253E+03  0.35383340534E+04  0.34009924096E+04 0.  0.
        1    1    3    3  502    0  0.11627139352E+04 -0.79136758169E+03  0.14825037044E+04  0.20435223459E+04  0.50400001928E-02 0.  1.
       -1    1    3    3    0  502 -0.11627139352E+04  0.79136758169E+03 -0.50625655185E+03  0.14948117075E+04  0.50400001928E-02 0. -1.
</event>
<event>
 5   0  0.4775023E-08  0.3400325E+04  0.7818609E-02  0.8137827E-01
        2   -1    0    0  501    0  0.00000000000E+00  0.00000000000E+00  0.17593952432E+04  0.17593952432E+04  0.25500000920E-02 0. -1.
       -2   -1    0    0    0  501  0.00000000000E+00  0.00000000000E+00 -0.16429235363E+04  0.16429235363E+04  0.25500000920E-02 0.  1.
    10030    2    1    2    0    0  0.00000000000E+00  0.00000000000E+00  0.11647170698E+03  0.34023187795E+04  0.34003246049E+04 0.  0.
        4    1    3    3  502    0 -0.56292731651E+03 -0.11167068026E+04 -0.10942334506E+04  0.16617068646E+04  0.12699999809E+01 0.  1.
       -4    1    3    3    0  502  0.56292731651E+03  0.11167068026E+04  0.12107051576E+04  0.17406119149E+04  0.12699999809E+01 0. -1.
</event>
<event>
 5   0  0.1625282E-08  0.3400123E+04  0.7818609E-02  0.8137876E-01
        1   -1    0    0  501    0  0.00000000000E+00  0.00000000000E+00  0.19448076795E+04  0.19448076795E+04  0.50400001928E-02 0.  1.
       -1   -1    0    0    0  501  0.00000000000E+00  0.00000000000E+00 -0.14861155405E+04  0.14861155405E+04  0.50400001928E-02 0. -1.
    10030    2    1    2    0    0  0.00000000000E+00  0.00000000000E+00  0.45869213902E+03  0.34309232200E+04  0.34001228894E+04 0.  0.
        1    1    3    3  502    0  0.58334400585E+03  0.15381440942E+04 -0.20352881438E+03  0.16575890510E+04  0.50400001928E-02 0. -1.
       -1    1    3    3    0  502 -0.58334400585E+03 -0.15381440942E+04  0.66222095340E+03  0.17733341690E+04  0.50400001928E-02 0.  1.
</event>
<event>
 5   0  0.1630571E-08  0.3399988E+04  0.7818609E-02  0.8137909E-01
       -1   -1    0    0    0  501  0.00000000000E+00  0.00000000000E+00  0.12767014324E+04  0.12767014324E+04  0.50400001928E-02 0.  1.
        1   -1    0    0  501    0  0.00000000000E+00  0.00000000000E+00 -0.22636298471E+04  0.22636298471E+04  0.50400001928E-02 0. -1.
    10030    2    1    2    0    0  0.00000000000E+00  0.00000000000E+00 -0.98692841472E+03  0.35403312795E+04  0.33999879225E+04 0.  0.
        3    1    3    3  502    0 -0.42309770615E+03  0.84557587616E+03 -0.19645684515E+04  0.21802613243E+04  0.10100000352E+00 0. -1.
       -3    1    3    3    0  502  0.42309770615E+03 -0.84557587616E+03  0.97764003681E+03  0.13600699552E+04  0.10100000352E+00 0.  1.
</event>
<event>
 5   0  0.1595851E-08  0.3397303E+04  0.7818609E-02  0.8138569E-01
        1   -1    0    0  501    0  0.00000000000E+00  0.00000000000E+00  0.15042169746E+04  0.15042169746E+04  0.50400001928E-02 0. -1.
       -1   -1    0    0    0  501  0.00000000000E+00  0.00000000000E+00 -0.19182187690E+04  0.19182187690E+04  0.50400001928E-02 0.  1.
    10030    2    1    2    0    0  0.00000000000E+00  0.00000000000E+00 -0.41400179441E+03  0.34224357437E+04  0.33973031854E+04 0.  0.
        2    1    3    3  502    0 -0.34770408318E+03 -0.12108677401E+04  0.94086619650E+03  0.15723638298E+04  0.25500000920E-02 0. -1.
       -2    1    3    3    0  502  0.34770408318E+03  0.12108677401E+04 -0.13548679909E+04  0.18500719138E+04  0.25500000920E-02 0.  1.
</event>
<event>
 5   0  0.4775023E-08  0.3397253E+04  0.7818609E-02  0.8138581E-01
       -2   -1    0    0    0  501  0.00000000000E+00  0.00000000000E+00  0.13926151598E+04  0.13926151598E+04  0.25500000920E-02 0.  1.
        2   -1    0    0  501    0  0.00000000000E+00  0.00000000000E+00 -0.20718804847E+04  0.20718804847E+04  0.25500000920E-02 0. -1.
    10030    2    1    2    0    0  0.00000000000E+00  0.00000000000E+00 -0.67926532493E+03  0.34644956445E+04  0.33972531094E+04 0.  0.
        4    1    3    3  502    0  0.16872848103E+04 -0.85796656423E+02 -0.15996529314E+03  0.16970213921E+04  0.12699999809E+01 0. -1.
       -4    1    3    3    0  502 -0.16872848103E+04  0.85796656423E+02 -0.51930003180E+03  0.17674742525E+04  0.12699999809E+01 0.  1.
</event>
<event>
 5   0  0.1645631E-08  0.3403037E+04  0.7818609E-02  0.8137161E-01
       -1   -1    0    0    0  501  0.00000000000E+00  0.00000000000E+00  0.13587773264E+04  0.13587773264E+04  0.50400001928E-02 0. -1.
        1   -1    0    0  501    0  0.00000000000E+00  0.00000000000E+00 -0.21307138856E+04  0.21307138856E+04  0.50400001928E-02 0.  1.
    10030    2    1    2    0    0  0.00000000000E+00  0.00000000000E+00 -0.77193655922E+03  0.34894912120E+04  0.34030373003E+04 0.  0.
        4    1    3    3  502    0  0.74163626155E+03 -0.45605196999E+03  0.11130728480E+04  0.14131314595E+04  0.12699999809E+01 0. -1.
       -4    1    3    3    0  502 -0.74163626155E+03  0.45605196999E+03 -0.18850094073E+04  0.20763597526E+04  0.12699999809E+01 0.  1.
</event>
<event>
 5   0  0.1630571E-08  0.3403363E+04  0.7818609E-02  0.8137081E-01
        1   -1    0    0  501    0  0.00000000000E+00  0.00000000000E+00  0.22160458246E+04  0.22160458246E+04  0.50400001928E-02 0. -1.
       -1   -1    0    0    0  501  0.00000000000E+00  0.00000000000E+00 -0.13067055577E+04  0.13067055577E+04  0.50400001928E-02 0.  1.
    10030    2    1    2    0    0  0.00000000000E+00  0.00000000000E+00  0.90934026689E+03  0.35227513823E+04  0.34033626871E+04 0.  0.
        3    1    3    3  502    0  0.11544629116E+04 -0.23887467401E+03 -0.81551793656E+03  0.14334975546E+04  0.10100000352E+00 0.  1.
       -3    1    3    3    0  502 -0.11544629116E+04  0.23887467401E+03  0.17248582035E+04  0.20892538276E+04  0.10100000352E+00 0. -1.
</event>
<event>
 5   0  0.4973409E-08  0.3398352E+04  0.7818609E-02  0.8138311E-01
       -2   -1    0    0    0  501  0.00000000000E+00  0.00000000000E+00  0.22697146596E+04  0.22697146596E+04  0.25500000920E-02 0.  1.
        2   -1    0    0  501    0  0.00000000000E+00  0.00000000000E+00 -0.12720539507E+04  0.12720539507E+04  0.25500000920E-02 0. -1.
    10030    2    1    2    0    0  0.00000000000E+00  0.00000000000E+00  0.99766070899E+03  0.35417686103E+04  0.33983522476E+04 0.  0.
        1    1    3    3  502    0 -0.36639845382E+02 -0.64607472749E+03  0.21362631058E+04  0.22321234485E+04  0.50400001928E-02 0.  1.
       -1    1    3    3    0  502  0.36639845382E+02  0.64607472749E+03 -0.11386023969E+04  0.13096451618E+04  0.50400001928E-02 0. -1.
</event>
<event>
 5   0  0.5001197E-08  0.3399426E+04  0.7818609E-02  0.8138047E-01
        2   -1    0    0  501    0  0.00000000000E+00  0.00000000000E+00  0.18684653743E+04  0.18684653743E+04  0.25500000920E-02 0.  1.
       -2   -1    0    0    0  501  0.00000000000E+00  0.00000000000E+00 -0.15462017802E+04  0.15462017802E+04  0.25500000920E-02 0. -1.
    10030    2    1    2    0    0  0.00000000000E+00  0.00000000000E+00  0.32226359403E+03  0.34146671545E+04  0.33994261210E+04 0.  0.
        5    1    3    3  502    0  0.26551661878E+03 -0.91662622208E+03  0.15739582300E+04  0.18406708847E+04  0.46999998093E+01 0.  1.
       -5    1    3    3    0  502 -0.26551661878E+03  0.91662622208E+03 -0.12516946360E+04  0.15739962699E+04  0.46999998093E+01 0. -1.
</event>
<event>
 5   0  0.1645631E-08  0.3400451E+04  0.7818609E-02  0.8137796E-01
       -1   -1    0    0    0  501  0.00000000000E+00  0.00000000000E+00  0.14928801616E+04  0.14928801617E+04  0.50400001928E-02 0. -1.
        1   -1    0    0  501    0  0.00000000000E+00  0.00000000000E+00 -0.19363690373E+04  0.19363690373E+04  0.50400001928E-02 0.  1.
    10030    2    1    2    0    0  0.00000000000E+00  0.00000000000E+00 -0.44348887561E+03  0.34292491989E+04  0.34004511003E+04 0.  0.
        4    1    3    3  502    0  0.10208939238E+04  0.81525441560E+03 -0.13190314323E+04  0.18565316313E+04  0.12699999809E+01 0.  1.
       -4    1    3    3    0  502 -0.10208939238E+04 -0.81525441560E+03  0.87554255673E+03  0.15727175676E+04  0.12699999809E+01 0. -1.
</event>
<event>
 5   0  0.4775023E-08  0.3400869E+04  0.7818609E-02  0.8137693E-01
       -2   -1    0    0    0  501  0.00000000000E+00  0.00000000000E+00  0.23233517944E+04  0.23233517944E+04  0.25500000920E-02 0.  1.
        2   -1    0    0  501    0  0.00000000000E+00  0.00000000000E+00 -0.12445282762E+04  0.12445282762E+04  0.25500000920E-02 0. -1.
    10030    2    1    2    0    0  0.00000000000E+00  0.00000000000E+00  0.10788235182E+04  0.35678800707E+04  0.34008687148E+04 0.  0.
        4    1    3    3  502    0  0.65056922042E+03  0.14647301459E+04  0.11354684965E+04  0.19641703160E+04  0.12699999809E+01 0.  1.
       -4    1    3    3    0  502 -0.65056922042E+03 -0.14647301459E+04 -0.56644978285E+02  0.16037097547E+04  0.12699999809E+01 0. -1.
</event>
<event>
 5   0  0.4764953E-08  0.3400894E+04  0.7818609E-02  0.8137687E-01
        2   -1    0    0  501    0  0.00000000000E+00  0.00000000000E+00  0.27610629868E+04  0.27610629868E+04  0.25500000920E-02 0.  1.
       -2   -1    0    0    0  501  0.00000000000E+00  0.00000000000E+00 -0.10472490760E+04  0.10472490760E+04  0.25500000920E-02 0. -1.
    10030    2    1    2    0    0  0.00000000000E+00  0.00000000000E+00  0.17138139108E+04  0.38083120628E+04  0.34008943892E+04 0.  0.
        2    1    3    3  502    0 -0.97595550800E+03 -0.13653282959E+04  0.11633923074E+04  0.20420803535E+04  0.25500000920E-02 0. -1.
       -2    1    3    3    0  502  0.97595550800E+03  0.13653282959E+04  0.55042160339E+03  0.17662317092E+04  0.25500000920E-02 0.  1.
</event>
<event>
 5   0  0.1625282E-08  0.3397560E+04  0.7818609E-02  0.8138505E-01
       -1   -1    0    0    0  501  0.00000000000E+00  0.00000000000E+00  0.14555008368E+04  0.14555008368E+04  0.50400001928E-02 0. -1.
        1   -1    0    0  501    0  0.00000000000E+00  0.00000000000E+00 -0.19827220332E+04  0.19827220333E+04  0.50400001928E-02 0.  1.
    10030    2    1    2    0    0  0.00000000000E+00  0.00000000000E+00 -0.52722119649E+03  0.34382228700E+04  0.33975600530E+04 0.  0.
        1    1    3    3  502    0 -0.10478866743E+04  0.24865086352E+03 -0.15930918786E+04  0.19229756805E+04  0.50400001928E-02 0.  1.
       -1    1    3    3    0  502  0.10478866743E+04 -0.24865086352E+03  0.10658706822E+04  0.15152471895E+04  0.50400001928E-02 0. -1.
</event>
<event>
 5   0  0.4764953E-08  0.3397651E+04  0.7818609E-02  0.8138483E-01
       -2   -1    0    0    0  501  0.00000000000E+00  0.00000000000E+00  0.14336942333E+04  0.14336942333E+04  0.25500000920E-02 0.  1.
        2   -1    0    0  501    0  0.00000000000E+00  0.00000000000E+00 -0.20129872464E+04  0.20129872464E+04  0.25500000920E-02 0. -1.
    10030    2    1    2    0    0  0.00000000000E+00  0.00000000000E+00 -0.57929301308E+03  0.34466814798E+04  0.33976510751E+04 0.  0.
        2    1    3    3  502    0 -0.14068199630E+04 -0.21537164221E+03  0.65136076598E+03  0.15651831203E+04  0.25500000920E-02 0.  1.
       -2    1    3    3    0  502  0.14068199630E+04  0.21537164221E+03 -0.12306537791E+04  0.18814983594E+04  0.25500000920E-02 0. -1.
</event>
<event>
 5   0  0.1595851E-08  0.3400451E+04  0.7818609E-02  0.8137796E-01
        1   -1    0    0  501    0  0.00000000000E+00  0.00000000000E+00  0.19181088908E+04  0.19181088908E+04  0.50400001928E-02 0.  1.
       -1   -1    0    0    0  501  0.00000000000E+00  0.00000000000E+00 -0.15070919651E+04  0.15070919651E+04  0.50400001928E-02 0. -1.
    10030    2    1    2    0    0  0.00000000000E+00  0.00000000000E+00  0.41101692563E+03  0.34252008559E+04  0.34004508510E+04 0.  0.
        2    1    3    3  502    0 -0.97156121342E+03 -0.58716881066E+03 -0.10694323607E+04  0.15596102006E+04  0.25500000920E-02 0. -1.
       -2    1    3    3    0  502  0.97156121342E+03  0.58716881066E+03  0.14804492864E+04  0.18655906553E+04  0.25500000920E-02 0.  1.
</event>
<event>
 5   0  0.1645631E-08  0.3398714E+04  0.7818609E-02  0.8138222E-01
        1   -1    0    0  501    0  0.00000000000E+00  0.00000000000E+00  0.26119068903E+04  0.26119068903E+04  0.50400001928E-02 0.  1.
       -1   -1    0    0    0  501  0.00000000000E+00  0.00000000000E+00 -0.11056341787E+04  0.11056341787E+04  0.50400001928E-02 0. -1.
    10030    2    1    2    0    0  0.00000000000E+00  0.00000000000E+00  0.15062727115E+04  0.37175410690E+04  0.33987135976E+04 0.  0.
        4    1    3    3  502    0  0.14221026312E+04 -0.25782248942E+03  0.17308342940E+04  0.22549140329E+04  0.12699999809E+01 0.  1.
       -4    1    3    3    0  502 -0.14221026312E+04  0.25782248942E+03 -0.22456158242E+03  0.14626270361E+04  0.12699999809E+01 0. -1.
</event>
<event>
 5   0  0.4973409E-08  0.3402851E+04  0.7818609E-02  0.8137207E-01
       -2   -1    0    0    0  501  0.00000000000E+00  0.00000000000E+00  0.15841965445E+04  0.15841965445E+04  0.25500000920E-02 0.  1.
        2   -1    0    0  501    0  0.00000000000E+00  0.00000000000E+00 -0.18273295879E+04  0.18273295879E+04  0.25500000920E-02 0. -1.
    10030    2    1    2    0    0  0.00000000000E+00  0.00000000000E+00 -0.24313304342E+03  0.34115261324E+04  0.34028512861E+04 0.  0.
        1    1    3    3  502    0 -0.50787643677E+02  0.15650579909E+04 -0.78874278719E+03  0.17533114623E+04  0.50400001928E-02 0. -1.
       -1    1    3    3    0  502  0.50787643677E+02 -0.15650579909E+04  0.54560974377E+03  0.16582146701E+04  0.50400001928E-02 0.  1.
</event>
<event>
 5   0  0.4764953E-08  0.3399821E+04  0.7818609E-02  0.8137950E-01
        2   -1    0    0  501    0  0.00000000000E+00  0.00000000000E+00  0.24051970080E+04  0.24051970080E+04  0.25500000920E-02 0.  1.
       -2   -1    0    0    0  501  0.00000000000E+00  0.00000000000E+00 -0.12014384529E+04  0.12014384529E+04  0.25500000920E-02 0. -1.
    10030    2    1    2    0    0  0.00000000000E+00  0.00000000000E+00  0.12037585550E+04  0.36066354609E+04  0.33998212731E+04 0.  0.
        2    1    3    3  502    0  0.12671579144E+04  0.41107799054E+03 -0.51830082933E+03  0.14294439632E+04  0.25500000920E-02 0.  1.
       -2    1    3    3    0  502 -0.12671579144E+04 -0.41107799054E+03  0.17220593844E+04  0.21771914977E+04  0.25500000920E-02 0. -1.
</event>
<event>
 5   0  0.1625282E-08  0.3374552E+04  0.7818609E-02  0.8144180E-01
        1   -1    0    0  501    0  0.00000000000E+00  0.00000000000E+00  0.17144320251E+04  0.17144320251E+04  0.50400001928E-02 0.  1.
       -1   -1    0    0    0  501  0.00000000000E+00  0.00000000000E+00 -0.16605503041E+04  0.16605503041E+04  0.50400001928E-02 0. -1.
    10030    2    1    2    0    0  0.00000000000E+00  0.00000000000E+00  0.53881720996E+02  0.33749823292E+04  0.33745521900E+04 0.  0.
        1    1    3    3  502    0  0.10190154800E+04  0.10175580233E+04  0.90630474258E+03  0.17015302424E+04  0.50400001928E-02 0.  1.
       -1    1    3    3    0  502 -0.10190154800E+04 -0.10175580233E+04 -0.85242302158E+03  0.16734520869E+04  0.50400001928E-02 0. -1.
</event>
<event>
 5   0  0.1595851E-08  0.3400670E+04  0.7818609E-02  0.8137742E-01
       -1   -1    0    0    0  501  0.00000000000E+00  0.00000000000E+00  0.12567631992E+04  0.12567631992E+04  0.50400001928E-02 0. -1.
        1   -1    0    0  501    0  0.00000000000E+00  0.00000000000E+00 -0.23004641684E+04  0.23004641684E+04  0.50400001928E-02 0.  1.
    10030    2    1    2    0    0  0.00000000000E+00  0.00000000000E+00 -0.10437009692E+04  0.35572273676E+04  0.34006697622E+04 0.  0.
        2    1    3    3  502    0 -0.52743447251E+03 -0.15740339533E+04 -0.90671360142E+03  0.18915336539E+04  0.25500000920E-02 0.  1.
       -2    1    3    3    0  502  0.52743447251E+03  0.15740339533E+04 -0.13698736778E+03  0.16656937137E+04  0.25500000920E-02 0. -1.
</event>
<event>
 5   0  0.4973409E-08  0.3399120E+04  0.7818609E-02  0.8138122E-01
        2   -1    0    0  501    0  0.00000000000E+00  0.00000000000E+00  0.17170259044E+04  0.17170259044E+04  0.25500000920E-02 0. -1.
       -2   -1    0    0    0  501  0.00000000000E+00  0.00000000000E+00 -0.16822718750E+04  0.16822718750E+04  0.25500000920E-02 0.  1.
    10030    2    1    2    0    0  0.00000000000E+00  0.00000000000E+00  0.34754029419E+02  0.33992977795E+04  0.33991201142E+04 0.  0.
        1    1    3    3  502    0 -0.86493631762E+03  0.92797269248E+03  0.11484782339E+04  0.17112131385E+04  0.50400001928E-02 0. -1.
       -1    1    3    3    0  502  0.86493631762E+03 -0.92797269248E+03 -0.11137242045E+04  0.16880846410E+04  0.50400001928E-02 0.  1.
</event>
<event>
 5   0  0.1595851E-08  0.3401828E+04  0.7818609E-02  0.8137458E-01
       -1   -1    0    0    0  501  0.00000000000E+00  0.00000000000E+00  0.12742912749E+04  0.12742912749E+04  0.50400001928E-02 0. -1.
        1   -1    0    0  501    0  0.00000000000E+00  0.00000000000E+00 -0.22703672438E+04  0.22703672438E+04  0.50400001928E-02 0.  1.
    10030    2    1    2    0    0  0.00000000000E+00  0.00000000000E+00 -0.99607596888E+03  0.35446585187E+04  0.34018284316E+04 0.  0.
        2    1    3    3  502    0 -0.91304168537E+02  0.13531405188E+04  0.57160213583E+03  0.14717522606E+04  0.25500000920E-02 0. -1.
       -2    1    3    3    0  502  0.91304168537E+02 -0.13531405188E+04 -0.15676781047E+04  0.20729062581E+04  0.25500000920E-02 0.  1.
</event>
<event>
 5   0  0.1630571E-08  0.3400055E+04  0.7818609E-02  0.8137893E-01
       -1   -1    0    0    0  501  0.00000000000E+00  0.00000000000E+00  0.16675616846E+04  0.16675616846E+04  0.50400001928E-02 0. -1.
        1   -1    0    0  501    0  0.00000000000E+00  0.00000000000E+00 -0.17331248978E+04  0.17331248978E+04  0.50400001928E-02 0.  1.
    10030    2    1    2    0    0  0.00000000000E+00  0.00000000000E+00 -0.65563213148E+02  0.34006865824E+04  0.34000545138E+04 0.  0.
        3    1    3    3  502    0  0.81906835086E+03 -0.26656011174E+03 -0.14987161780E+04  0.17286056372E+04  0.10100000352E+00 0.  1.
       -3    1    3    3    0  502 -0.81906835086E+03  0.26656011174E+03  0.14331529648E+04  0.16720809452E+04  0.10100000352E+00 0. -1.
</event>
<event>
 5   0  0.4775023E-08  0.3397102E+04  0.7818609E-02  0.8138618E-01
        2   -1    0    0  501    0  0.00000000000E+00  0.00000000000E+00  0.17604321247E+04  0.17604321247E+04  0.25500000920E-02 0. -1.
       -2   -1    0    0    0  501  0.00000000000E+00  0.00000000000E+00 -0.16388450991E+04  0.16388450991E+04  0.25500000920E-02 0.  1.
    10030    2    1    2    0    0  0.00000000000E+00  0.00000000000E+00  0.12158702561E+03  0.33992772238E+04  0.33971020354E+04 0.  0.
        4    1    3    3  502    0 -0.46000542344E+03 -0.96357039143E+03 -0.12610372050E+04  0.16523587183E+04  0.12699999809E+01 0.  1.
       -4    1    3    3    0  502  0.46000542344E+03  0.96357039143E+03  0.13826242306E+04  0.17469185054E+04  0.12699999809E+01 0. -1.
</event>
<event>
 5   0  0.4775023E-08  0.3401962E+04  0.7818609E-02  0.8137425E-01
        2   -1    0    0  501    0  0.00000000000E+00  0.00000000000E+00  0.21070770108E+04  0.21070770108E+04  0.25500000920E-02 0. -1.
       -2   -1    0    0    0  501  0.00000000000E+00  0.00000000000E+00 -0.13731519038E+04  0.13731519038E+04  0.25500000920E-02 0.  1.
    10030    2    1    2    0    0  0.00000000000E+00  0.00000000000E+00  0.73392510701E+03  0.34802289145E+04  0.34019622624E+04 0.  0.
        4    1    3    3  502    0 -0.86365393865E+03 -0.10764225846E+04  0.13841989589E+04  0.19546334892E+04  0.12699999809E+01 0. -1.
       -4    1    3    3    0  502  0.86365393865E+03  0.10764225846E+04 -0.65027385191E+03  0.15255954253E+04  0.12699999809E+01 0.  1.
</event>
<event>
 5   0  0.4775023E-08  0.3402649E+04  0.7818609E-02  0.8137257E-01
        2   -1    0    0  501    0  0.00000000000E+00  0.00000000000E+00  0.23040624170E+04  0.23040624170E+04  0.25500000920E-02 0. -1.
       -2   -1    0    0    0  501  0.00000000000E+00  0.00000000000E+00 -0.12562612788E+04  0.12562612788E+04  0.25500000920E-02 0.  1.
    10030    2    1    2    0    0  0.00000000000E+00  0.00000000000E+00  0.10478011383E+04  0.35603236958E+04  0.34026486145E+04 0.  0.
        4    1    3    3  502    0 -0.84759944723E+03  0.10993008592E+04 -0.50535638321E+03  0.14772521413E+04  0.12699999809E+01 0.  1.
       -4    1    3    3    0  502  0.84759944723E+03 -0.10993008592E+04  0.15531575215E+04  0.20830715545E+04  0.12699999809E+01 0. -1.
</event>
<event>
 5   0  0.4946315E-08  0.3399864E+04  0.7818609E-02  0.8137940E-01
       -2   -1    0    0    0  501  0.00000000000E+00  0.00000000000E+00  0.15549372888E+04  0.15549372888E+04  0.25500000920E-02 0.  1.
        2   -1    0    0  501    0  0.00000000000E+00  0.00000000000E+00 -0.18584466572E+04  0.18584466572E+04  0.25500000920E-02 0. -1.
    10030    2    1    2    0    0  0.00000000000E+00  0.00000000000E+00 -0.30350936835E+03  0.34133839460E+04  0.33998635305E+04 0.  0.
        3    1    3    3  502    0  0.16200772293E+04  0.38305542220E+03  0.19368672810E+03  0.16759762063E+04  0.10100000352E+00 0.  1.
       -3    1    3    3    0  502 -0.16200772293E+04 -0.38305542220E+03 -0.49719609645E+03  0.17374077397E+04  0.10100000352E+00 0. -1.
</event>
<event>
 5   0  0.1625282E-08  0.3397708E+04  0.7818609E-02  0.8138469E-01
       -1   -1    0    0    0  501  0.00000000000E+00  0.00000000000E+00  0.19589734588E+04  0.19589734588E+04  0.50400001928E-02 0.  1.
        1   -1    0    0  501    0  0.00000000000E+00  0.00000000000E+00 -0.14732736953E+04  0.14732736953E+04  0.50400001928E-02 0. -1.
    10030    2    1    2    0    0  0.00000000000E+00  0.00000000000E+00  0.48569976353E+03  0.34322471541E+04  0.33977075017E+04 0.  0.
        1    1    3    3  502    0  0.33347145469E+03  0.10147634550E+04 -0.10916228076E+04  0.15272813869E+04  0.50400001928E-02 0. -1.
       -1    1    3    3    0  502 -0.33347145469E+03 -0.10147634550E+04  0.15773225712E+04  0.19049657672E+04  0.50400001928E-02 0.  1.
</event>
<event>
 5   0  0.4764953E-08  0.3401204E+04  0.7818609E-02  0.8137611E-01
        2   -1    0    0  501    0  0.00000000000E+00  0.00000000000E+00  0.19600394722E+04  0.19600394722E+04  0.25500000920E-02 0. -1.
       -2   -1    0    0    0  501  0.00000000000E+00  0.00000000000E+00 -0.14755041430E+04  0.14755041430E+04  0.25500000920E-02 0.  1.
    10030    2    1    2    0    0  0.00000000000E+00  0.00000000000E+00  0.48453532919E+03  0.34355436152E+04  0.34012035291E+04 0.  0.
        2    1    3    3  502    0 -0.51935947412E+03 -0.11997129989E+04 -0.85637223641E+03  0.15628240305E+04  0.25500000920E-02 0.  1.
       -2    1    3    3    0  502  0.51935947412E+03  0.11997129989E+04  0.13409075656E+04  0.18727195846E+04  0.25500000920E-02 0. -1.
</event>
<event>
 5   0  0.4973409E-08  0.3399781E+04  0.7818609E-02  0.8137960E-01
       -2   -1    0    0    0  501  0.00000000000E+00  0.00000000000E+00  0.14282116117E+04  0.14282116117E+04  0.25500000920E-02 0. -1.
        2   -1    0    0  501    0  0.00000000000E+00  0.00000000000E+00 -0.20232488652E+04  0.20232488652E+04  0.25500000920E-02 0.  1.
    10030    2    1    2    0    0  0.00000000000E+00  0.00000000000E+00 -0.59503725355E+03  0.34514604769E+04  0.33997808886E+04 0.  0.
        1    1    3    3  502    0  0.40803069302E+02 -0.84597146663E+03 -0.17937934507E+04  0.19836903883E+04  0.50400001928E-02 0.  1.
       -1    1    3    3    0  502 -0.40803069302E+02  0.84597146663E+03  0.11987561971E+04  0.14677700886E+04  0.50400001928E-02 0. -1.
</event>
<event>
 5   0  0.1595851E-08  0.3399683E+04  0.7818609E-02  0.8137984E-01
        1   -1    0    0  501    0  0.00000000000E+00  0.00000000000E+00  0.11799387279E+04  0.11799387280E+04  0.50400001928E-02 0.  1.
       -1   -1    0    0    0  501  0.00000000000E+00  0.00000000000E+00 -0.24488228597E+04  0.24488228597E+04  0.50400001928E-02 0. -1.
    10030    2    1    2    0    0  0.00000000000E+00  0.00000000000E+00 -0.12688841318E+04  0.36287615877E+04  0.33996828853E+04 0.  0.
        2    1    3    3  502    0 -0.10068118276E+04 -0.68950687696E+03  0.62866918278E+03  0.13727034388E+04  0.25500000920E-02 0.  1.
       -2    1    3    3    0  502  0.10068118276E+04  0.68950687696E+03 -0.18975533146E+04  0.22560581489E+04  0.25500000920E-02 0. -1.
</event>
<event>
 5   0  0.1595851E-08  0.3400467E+04  0.7818609E-02  0.8137792E-01
        1   -1    0    0  501    0  0.00000000000E+00  0.00000000000E+00  0.20475694944E+04  0.20475694944E+04  0.50400001928E-02 0.  1.
       -1   -1    0    0    0  501  0.00000000000E+00  0.00000000000E+00 -0.14118173011E+04  0.14118173011E+04  0.50400001928E-02 0. -1.
    10030    2    1    2    0    0  0.00000000000E+00  0.00000000000E+00  0.63575219331E+03  0.34593867956E+04  0.34004670488E+04 0.  0.
        2    1    3    3  502    0  0.10006566900E+02  0.39162655003E+03  0.20010288826E+04  0.20390164480E+04  0.25500000920E-02 0.  1.
       -2    1    3    3    0  502 -0.10006566900E+02 -0.39162655003E+03 -0.13652766893E+04  0.14203703476E+04  0.25500000920E-02 0. -1.
</event>
<event>
 5   0  0.4775023E-08  0.3399844E+04  0.7818609E-02  0.8137945E-01
       -2   -1    0    0    0  501  0.00000000000E+00  0.00000000000E+00  0.12680388724E+04  0.12680388724E+04  0.25500000920E-02 0. -1.
        2   -1    0    0  501    0  0.00000000000E+00  0.00000000000E+00 -0.22789012421E+04  0.22789012421E+04  0.25500000920E-02 0.  1.
    10030    2    1    2    0    0  0.00000000000E+00  0.00000000000E+00 -0.10108623698E+04  0.35469401145E+04  0.33998443266E+04 0.  0.
        4    1    3    3  502    0 -0.21704639511E+03 -0.15573941267E+04 -0.11792451107E+04  0.19655040696E+04  0.12699999809E+01 0.  1.
       -4    1    3    3    0  502  0.21704639511E+03  0.15573941267E+04  0.16838274097E+03  0.15814360449E+04  0.12699999809E+01 0. -1.
</event>
<event>
 5   0  0.4775023E-08  0.3398748E+04  0.7818609E-02  0.8138214E-01
        2   -1    0    0  501    0  0.00000000000E+00  0.00000000000E+00  0.21495847635E+04  0.21495847635E+04  0.25500000920E-02 0.  1.
       -2   -1    0    0    0  501  0.00000000000E+00  0.00000000000E+00 -0.13434556280E+04  0.13434556280E+04  0.25500000920E-02 0. -1.
    10030    2    1    2    0    0  0.00000000000E+00  0.00000000000E+00  0.80612913542E+03  0.34930403915E+04  0.33987478567E+04 0.  0.
        4    1    3    3  502    0 -0.13789673604E+04  0.28287325119E+03  0.13814750589E+04  0.19723192461E+04  0.12699999809E+01 0.  1.
       -4    1    3    3    0  502  0.13789673604E+04 -0.28287325119E+03 -0.57534592347E+03  0.15207211454E+04  0.12699999809E+01 0. -1.
</event>
<event>
 5   0  0.4775023E-08  0.3398861E+04  0.7818609E-02  0.8138186E-01
        2   -1    0    0  501    0  0.00000000000E+00  0.00000000000E+00  0.27218409331E+04  0.27218409331E+04  0.25500000920E-02 0.  1.
       -2   -1    0    0    0  501  0.00000000000E+00  0.00000000000E+00 -0.10610699635E+04  0.10610699635E+04  0.25500000920E-02 0. -1.
    10030    2    1    2    0    0  0.00000000000E+00  0.00000000000E+00  0.16607709696E+04  0.37829108966E+04  0.33988607853E+04 0.  0.
        4    1    3    3  502    0  0.13839414981E+04 -0.97753444986E+03  0.68444158690E+03  0.18273832575E+04  0.12699999809E+01 0.  1.
       -4    1    3    3    0  502 -0.13839414981E+04  0.97753444986E+03  0.97632938274E+03  0.19555276391E+04  0.12699999809E+01 0. -1.
</event>
<event>
 5   0  0.1630571E-08  0.3397763E+04  0.7818609E-02  0.8138456E-01
        1   -1    0    0  501    0  0.00000000000E+00  0.00000000000E+00  0.15532464709E+04  0.15532464709E+04  0.50400001928E-02 0. -1.
       -1   -1    0    0    0  501  0.00000000000E+00  0.00000000000E+00 -0.18581715807E+04  0.18581715807E+04  0.50400001928E-02 0.  1.
    10030    2    1    2    0    0  0.00000000000E+00  0.00000000000E+00 -0.30492510979E+03  0.34114180516E+04  0.33977630582E+04 0.  0.
        3    1    3    3  502    0  0.27212089630E+03  0.10563113263E+04 -0.14601387852E+04  0.18225939435E+04  0.10100000352E+00 0.  1.
       -3    1    3    3    0  502 -0.27212089630E+03 -0.10563113263E+04  0.11552136754E+04  0.15888241081E+04  0.10100000352E+00 0. -1.
</event>
<event>
 5   0  0.1579536E-08  0.3399066E+04  0.7818609E-02  0.8138136E-01
        1   -1    0    0  501    0  0.00000000000E+00  0.00000000000E+00  0.26503214517E+04  0.26503214517E+04  0.50400001928E-02 0. -1.
       -1   -1    0    0    0  501  0.00000000000E+00  0.00000000000E+00 -0.10898345231E+04  0.10898345231E+04  0.50400001928E-02 0.  1.
    10030    2    1    2    0    0  0.00000000000E+00  0.00000000000E+00  0.15604869286E+04  0.37401559748E+04  0.33990656453E+04 0.  0.
        5    1    3    3  502    0  0.12008368622E+04  0.12008564083E+04  0.85260290773E+03  0.19002681630E+04  0.46999998093E+01 0. -1.
       -5    1    3    3    0  502 -0.12008368622E+04 -0.12008564083E+04  0.70788402085E+03  0.18398878118E+04  0.46999998093E+01 0.  1.
</event>
<event>
 5   0  0.4764953E-08  0.3401129E+04  0.7818609E-02  0.8137629E-01
       -2   -1    0    0    0  501  0.00000000000E+00  0.00000000000E+00  0.19152116480E+04  0.19152116480E+04  0.25500000920E-02 0.  1.
        2   -1    0    0  501    0  0.00000000000E+00  0.00000000000E+00 -0.15099740333E+04  0.15099740333E+04  0.25500000920E-02 0. -1.
    10030    2    1    2    0    0  0.00000000000E+00  0.00000000000E+00  0.40523761467E+03  0.34251856813E+04  0.34011291400E+04 0.  0.
        2    1    3    3  502    0  0.10878758113E+04 -0.12776076735E+04 -0.75312768537E+02  0.16797104397E+04  0.25500000920E-02 0.  1.
       -2    1    3    3    0  502 -0.10878758113E+04  0.12776076735E+04  0.48055038321E+03  0.17454752416E+04  0.25500000920E-02 0. -1.
</event>
<event>
 5   0  0.1595851E-08  0.3401759E+04  0.7818609E-02  0.8137475E-01
       -1   -1    0    0    0  501  0.00000000000E+00  0.00000000000E+00  0.14988045883E+04  0.14988045883E+04  0.50400001928E-02 0.  1.
        1   -1    0    0  501    0  0.00000000000E+00  0.00000000000E+00 -0.19301988979E+04  0.19301988979E+04  0.50400001928E-02 0. -1.
    10030    2    1    2    0    0  0.00000000000E+00  0.00000000000E+00 -0.43139430958E+03  0.34290034862E+04  0.34017589359E+04 0.  0.
        2    1    3    3  502    0 -0.60492495672E+03  0.78699084092E+03  0.11765607106E+04  0.15393452806E+04  0.25500000920E-02 0.  1.
       -2    1    3    3    0  502  0.60492495672E+03 -0.78699084092E+03 -0.16079550202E+04  0.18896582056E+04  0.25500000920E-02 0. -1.
</event>
<event>
 5   0  0.1595851E-08  0.3399963E+04  0.7818609E-02  0.8137915E-01
        1   -1    0    0  501    0  0.00000000000E+00  0.00000000000E+00  0.17146891940E+04  0.17146891940E+04  0.50400001928E-02 0.  1.
       -1   -1    0    0    0  501  0.00000000000E+00  0.00000000000E+00 -0.16853999775E+04  0.16853999775E+04  0.50400001928E-02 0. -1.
    10030    2    1    2    0    0  0.00000000000E+00  0.00000000000E+00  0.29289216484E+02  0.34000891715E+04  0.33999630169E+04 0.  0.
        2    1    3    3  502    0  0.12740041036E+04 -0.11221905731E+04 -0.72185974767E+02  0.16992966054E+04  0.25500000920E-02 0. -1.
       -2    1    3    3    0  502 -0.12740041036E+04  0.11221905731E+04  0.10147519125E+03  0.17007925661E+04  0.25500000920E-02 0.  1.
</event>
<event>
 5   0  0.1625282E-08  0.3399670E+04  0.7818609E-02  0.8137987E-01
       -1   -1    0    0    0  501  0.00000000000E+00  0.00000000000E+00  0.11679538637E+04  0.11679538637E+04  0.50400001928E-02 0.  1.
        1   -1    0    0  501    0  0.00000000000E+00  0.00000000000E+00 -0.24739327800E+04  0.24739327800E+04  0.50400001928E-02 0. -1.
    10030    2    1    2    0    0  0.00000000000E+00  0.00000000000E+00 -0.13059789164E+04  0.36418866437E+04  0.33996701893E+04 0.  0.
        1    1    3    3  502    0 -0.17965564395E+03  0.12027801267E+04 -0.19252427710E+04  0.22771727890E+04  0.50400001928E-02 0. -1.
       -1    1    3    3    0  502  0.17965564395E+03 -0.12027801267E+04  0.61926385466E+03  0.13647138547E+04  0.50400001928E-02 0.  1.
</event>
<event>
 5   0  0.4764953E-08  0.3399535E+04  0.7818609E-02  0.8138021E-01
        2   -1    0    0  501    0  0.00000000000E+00  0.00000000000E+00  0.17063662981E+04  0.17063662981E+04  0.25500000920E-02 0. -1.
       -2   -1    0    0    0  501  0.00000000000E+00  0.00000000000E+00 -0.16931939769E+04  0.16931939769E+04  0.25500000920E-02 0.  1.
    10030    2    1    2    0    0  0.00000000000E+00  0.00000000000E+00  0.13172321149E+02  0.33995602750E+04  0.33995347554E+04 0.  0.
        2    1    3    3  502    0 -0.79521561735E+03 -0.52783543785E+03 -0.13999204022E+04  0.16943303279E+04  0.25500000920E-02 0.  1.
       -2    1    3    3    0  502  0.79521561735E+03  0.52783543785E+03  0.14130927234E+04  0.17052299471E+04  0.25500000920E-02 0. -1.
</event>
<event>
 5   0  0.4775023E-08  0.3400571E+04  0.7818609E-02  0.8137766E-01
       -2   -1    0    0    0  501  0.00000000000E+00  0.00000000000E+00  0.20034330036E+04  0.20034330036E+04  0.25500000920E-02 0. -1.
        2   -1    0    0  501    0  0.00000000000E+00  0.00000000000E+00 -0.14430083259E+04  0.14430083259E+04  0.25500000920E-02 0.  1.
    10030    2    1    2    0    0  0.00000000000E+00  0.00000000000E+00  0.56042467766E+03  0.34464413294E+04  0.34005708371E+04 0.  0.
        4    1    3    3  502    0  0.27574758155E+03 -0.62947663891E+03 -0.12959802713E+04  0.14669165089E+04  0.12699999809E+01 0.  1.
       -4    1    3    3    0  502 -0.27574758155E+03  0.62947663891E+03  0.18564049490E+04  0.19795248205E+04  0.12699999809E+01 0. -1.
</event>
<event>
 5   0  0.1625282E-08  0.3398242E+04  0.7818609E-02  0.8138338E-01
        1   -1    0    0  501    0  0.00000000000E+00  0.00000000000E+00  0.20408871712E+04  0.20408871712E+04  0.50400001928E-02 0.  1.
       -1   -1    0    0    0  501  0.00000000000E+00  0.00000000000E+00 -0.14145868622E+04  0.14145868622E+04  0.50400001928E-02 0. -1.
    10030    2    1    2    0    0  0.00000000000E+00  0.00000000000E+00  0.62630030902E+03  0.34554740334E+04  0.33982420041E+04 0.  0.
        1    1    3    3  502    0 -0.13829827118E+04  0.65658917032E+03 -0.43632606626E+03  0.15918953972E+04  0.50400001928E-02 0. -1.
       -1    1    3    3    0  502  0.13829827118E+04 -0.65658917032E+03  0.10626263753E+04  0.18635786361E+04  0.50400001928E-02 0.  1.
</event>
<event>
 5   0  0.4973409E-08  0.3399635E+04  0.7818609E-02  0.8137996E-01
        2   -1    0    0  501    0  0.00000000000E+00  0.00000000000E+00  0.25496078563E+04  0.25496078563E+04  0.25500000920E-02 0. -1.
       -2   -1    0    0    0  501  0.00000000000E+00  0.00000000000E+00 -0.11332640161E+04  0.11332640161E+04  0.25500000920E-02 0.  1.
    10030    2    1    2    0    0  0.00000000000E+00  0.00000000000E+00  0.14163438401E+04  0.36828718724E+04  0.33996345914E+04 0.  0.
        1    1    3    3  502    0 -0.13722162738E+04  0.99929528986E+03  0.80391053117E+03  0.18782547007E+04  0.50400001928E-02 0.  1.
       -1    1    3    3    0  502  0.13722162738E+04 -0.99929528986E+03  0.61243330897E+03  0.18046171717E+04  0.50400001928E-02 0. -1.
</event>
<event>
 5   0  0.1595851E-08  0.3394045E+04  0.7818609E-02  0.8139369E-01
       -1   -1    0    0    0  501  0.00000000000E+00  0.00000000000E+00  0.12616393266E+04  0.12616393266E+04  0.50400001928E-02 0.  1.
        1   -1    0    0  501    0  0.00000000000E+00  0.00000000000E+00 -0.22826540957E+04  0.22826540957E+04  0.50400001928E-02 0. -1.
    10030    2    1    2    0    0  0.00000000000E+00  0.00000000000E+00 -0.10210147691E+04  0.35442934223E+04  0.33940454777E+04 0.  0.
        2    1    3    3  502    0 -0.35374659631E+03 -0.14307637585E+04 -0.13889749754E+04  0.20252093890E+04  0.25500000920E-02 0. -1.
       -2    1    3    3    0  502  0.35374659631E+03  0.14307637585E+04  0.36796020628E+03  0.15190840333E+04  0.25500000920E-02 0.  1.
</event>
<event>
 5   0  0.1625282E-08  0.3396648E+04  0.7818609E-02  0.8138730E-01
        1   -1    0    0  501    0  0.00000000000E+00  0.00000000000E+00  0.13619667514E+04  0.13619667514E+04  0.50400001928E-02 0. -1.
       -1   -1    0    0    0  501  0.00000000000E+00  0.00000000000E+00 -0.21177489051E+04  0.21177489051E+04  0.50400001928E-02 0.  1.
    10030    2    1    2    0    0  0.00000000000E+00  0.00000000000E+00 -0.75578215369E+03  0.34797156565E+04  0.33966475216E+04 0.  0.
        1    1    3    3  502    0  0.98034023751E+03 -0.11848990566E+04 -0.11161044019E+04  0.19001951982E+04  0.50400001928E-02 0.  1.
       -1    1    3    3    0  502 -0.98034023751E+03  0.11848990566E+04  0.36032224817E+03  0.15795204583E+04  0.50400001928E-02 0. -1.
</event>
<event>
 5   0  0.1630571E-08  0.3399669E+04  0.7818609E-02  0.8137988E-01
       -1   -1    0    0    0  501  0.00000000000E+00  0.00000000000E+00  0.15054311769E+04  0.15054311769E+04  0.50400001928E-02 0.  1.
        1   -1    0    0  501    0  0.00000000000E+00  0.00000000000E+00 -0.19193418690E+04  0.19193418690E+04  0.50400001928E-02 0. -1.
    10030    2    1    2    0    0  0.00000000000E+00  0.00000000000E+00 -0.41391069209E+03  0.34247730458E+04  0.33996688595E+04 0.  0.
        3    1    3    3  502    0 -0.16042160280E+04 -0.34683187556E+03  0.23861798991E+03  0.16585354895E+04  0.10100000352E+00 0.  1.
       -3    1    3    3    0  502  0.16042160280E+04  0.34683187556E+03 -0.65252868200E+03  0.17662375564E+04  0.10100000352E+00 0. -1.
</event>
<event>
 5   0  0.1625282E-08  0.3400996E+04  0.7818609E-02  0.8137662E-01
        1   -1    0    0  501    0  0.00000000000E+00  0.00000000000E+00  0.14389606896E+04  0.14389606896E+04  0.50400001928E-02 0. -1.
       -1   -1    0    0    0  501  0.00000000000E+00  0.00000000000E+00 -0.20095708555E+04  0.20095708555E+04  0.50400001928E-02 0.  1.
    10030    2    1    2    0    0  0.00000000000E+00  0.00000000000E+00 -0.57061016588E+03  0.34485315451E+04  0.34009960095E+04 0.  0.
        1    1    3    3  502    0  0.14725016987E+04  0.82080809871E+03 -0.59239891361E+02  0.16868599682E+04  0.50400001928E-02 0.  1.
       -1    1    3    3    0  502 -0.14725016987E+04 -0.82080809871E+03 -0.51137027452E+03  0.17616715770E+04  0.50400001928E-02 0. -1.
</event>
<event>
 5   0  0.1625282E-08  0.3400867E+04  0.7818609E-02  0.8137693E-01
        1   -1    0    0  501    0  0.00000000000E+00  0.00000000000E+00  0.27181309925E+04  0.27181309925E+04  0.50400001928E-02 0. -1.
       -1   -1    0    0    0  501  0.00000000000E+00  0.00000000000E+00 -0.10637731579E+04  0.10637731579E+04  0.50400001928E-02 0.  1.
    10030    2    1    2    0    0  0.00000000000E+00  0.00000000000E+00  0.16543578346E+04  0.37819041505E+04  0.34008674126E+04 0.  0.
        1    1    3    3  502    0 -0.10323940098E+04 -0.61922527060E+03 -0.50828814338E+03  0.13067647699E+04  0.50400001928E-02 0.  1.
       -1    1    3    3    0  502  0.10323940098E+04  0.61922527060E+03  0.21626459780E+04  0.24751393806E+04  0.50400001928E-02 0. -1.
</event>
<event>
 5   0  0.1595851E-08  0.3400449E+04  0.7818609E-02  0.8137796E-01
        1   -1    0    0  501    0  0.00000000000E+00  0.00000000000E+00  0.15937375288E+04  0.15937375288E+04  0.50400001928E-02 0. -1.
       -1   -1    0    0    0  501  0.00000000000E+00  0.00000000000E+00 -0.18138260369E+04  0.18138260370E+04  0.50400001928E-02 0.  1.
    10030    2    1    2    0    0  0.00000000000E+00  0.00000000000E+00 -0.22008850814E+03  0.34075635658E+04  0.34004485738E+04 0.  0.
        2    1    3    3  502    0 -0.34787201433E+03 -0.14112770141E+04 -0.99395838827E+03  0.17608722346E+04  0.25500000920E-02 0.  1.
       -2    1    3    3    0  502  0.34787201433E+03  0.14112770141E+04  0.77386988013E+03  0.16466913312E+04  0.25500000920E-02 0. -1.
</event>
<event>
 5   0  0.1625282E-08  0.3400746E+04  0.7818609E-02  0.8137723E-01
        1   -1    0    0  501    0  0.00000000000E+00  0.00000000000E+00  0.24188041077E+04  0.24188041077E+04  0.50400001928E-02 0. -1.
       -1   -1    0    0    0  501  0.00000000000E+00  0.00000000000E+00 -0.11953295335E+04  0.11953295335E+04  0.50400001928E-02 0.  1.
    10030    2    1    2    0    0  0.00000000000E+00  0.00000000000E+00  0.12234745742E+04  0.36141336411E+04  0.34007457921E+04 0.  0.
        1    1    3    3  502    0  0.44496367328E+03 -0.11954471134E+04  0.18066460772E+04  0.22115733132E+04  0.50400001928E-02 0. -1.
       -1    1    3    3    0  502 -0.44496367328E+03  0.11954471134E+04 -0.58317150295E+03  0.14025603279E+04  0.50400001928E-02 0.  1.
</event>
<event>
 5   0  0.4764953E-08  0.3399718E+04  0.7818609E-02  0.8137976E-01
        2   -1    0    0  501    0  0.00000000000E+00  0.00000000000E+00  0.18385861455E+04  0.18385861455E+04  0.25500000920E-02 0. -1.
       -2   -1    0    0    0  501  0.00000000000E+00  0.00000000000E+00 -0.15715993037E+04  0.15715993037E+04  0.25500000920E-02 0.  1.
    10030    2    1    2    0    0  0.00000000000E+00  0.00000000000E+00  0.26698684182E+03  0.34101854492E+04  0.33997180507E+04 0.  0.
        2    1    3    3  502    0  0.11807972284E+04 -0.74263229606E+03 -0.84095830745E+03  0.16288019207E+04  0.25500000920E-02 0.  1.
       -2    1    3    3    0  502 -0.11807972284E+04  0.74263229606E+03  0.11079451493E+04  0.17813835285E+04  0.25500000920E-02 0. -1.
</event>
<event>
 5   0  0.1595851E-08  0.3399633E+04  0.7818609E-02  0.8137996E-01
       -1   -1    0    0    0  501  0.00000000000E+00  0.00000000000E+00  0.17226206388E+04  0.17226206388E+04  0.50400001928E-02 0. -1.
        1   -1    0    0  501    0  0.00000000000E+00  0.00000000000E+00 -0.16773138530E+04  0.16773138530E+04  0.50400001928E-02 0.  1.
    10030    2    1    2    0    0  0.00000000000E+00  0.00000000000E+00  0.45306785812E+02  0.33999344918E+04  0.33996326042E+04 0.  0.
        2    1    3    3  502    0 -0.89197585938E+03  0.26339141344E+03 -0.14002798580E+04  0.16810055476E+04  0.25500000920E-02 0.  1.
       -2    1    3    3    0  502  0.89197585938E+03 -0.26339141344E+03  0.14455866438E+04  0.17189289442E+04  0.25500000920E-02 0. -1.
</event>
<event>
 5   0  0.1579536E-08  0.3399143E+04  0.7818609E-02  0.8138117E-01
       -1   -1    0    0    0  501  0.00000000000E+00  0.00000000000E+00  0.13381663323E+04  0.13381663323E+04  0.50400001928E-02 0.  1.
        1   -1    0    0  501    0  0.00000000000E+00  0.00000000000E+00 -0.21585826239E+04  0.21585826239E+04  0.50400001928E-02 0. -1.
    10030    2    1    2    0    0  0.00000000000E+00  0.00000000000E+00 -0.82041629164E+03  0.34967489562E+04  0.33991425935E+04 0.  0.
        5    1    3    3  502    0  0.14839580346E+04 -0.82761708811E+03 -0.37118458217E+03  0.17392186686E+04  0.46999998093E+01 0.  1.
       -5    1    3    3    0  502 -0.14839580346E+04  0.82761708811E+03 -0.44923170946E+03  0.17575302876E+04  0.46999998093E+01 0. -1.
</event>
<event>
 5   0  0.4973409E-08  0.3399993E+04  0.7818609E-02  0.8137908E-01
        2   -1    0    0  501    0  0.00000000000E+00  0.00000000000E+00  0.24215332331E+04  0.24215332331E+04  0.25500000920E-02 0.  1.
       -2   -1    0    0    0  501  0.00000000000E+00  0.00000000000E+00 -0.11934539214E+04  0.11934539214E+04  0.25500000920E-02 0. -1.
    10030    2    1    2    0    0  0.00000000000E+00  0.00000000000E+00  0.12280793117E+04  0.36149871545E+04  0.33999931370E+04 0.  0.
        1    1    3    3  502    0 -0.12987833643E+04 -0.95157598609E+03  0.33964812834E+02  0.16104312134E+04  0.50400001928E-02 0. -1.
       -1    1    3    3    0  502  0.12987833643E+04  0.95157598609E+03  0.11941144989E+04  0.20045559411E+04  0.50400001928E-02 0.  1.
</event>
<event>
 5   0  0.4973409E-08  0.3399355E+04  0.7818609E-02  0.8138065E-01
       -2   -1    0    0    0  501  0.00000000000E+00  0.00000000000E+00  0.16137503787E+04  0.16137503787E+04  0.25500000920E-02 0. -1.
        2   -1    0    0  501    0  0.00000000000E+00  0.00000000000E+00 -0.17901802321E+04  0.17901802321E+04  0.25500000920E-02 0.  1.
    10030    2    1    2    0    0  0.00000000000E+00  0.00000000000E+00 -0.17642985341E+03  0.34039306107E+04  0.33993552491E+04 0.  0.
        1    1    3    3  502    0 -0.72231182669E+03  0.91573641214E+02 -0.16261153797E+04  0.17816765517E+04  0.50400001928E-02 0.  1.
       -1    1    3    3    0  502  0.72231182669E+03 -0.91573641214E+02  0.14496855263E+04  0.16222540590E+04  0.50400001928E-02 0. -1.
</event>
<event>
 5   0  0.4764953E-08  0.3404198E+04  0.7818609E-02  0.8136877E-01
        2   -1    0    0  501    0  0.00000000000E+00  0.00000000000E+00  0.18378846916E+04  0.18378846916E+04  0.25500000920E-02 0.  1.
       -2   -1    0    0    0  501  0.00000000000E+00  0.00000000000E+00 -0.15763453531E+04  0.15763453531E+04  0.25500000920E-02 0. -1.
    10030    2    1    2    0    0  0.00000000000E+00  0.00000000000E+00  0.26153933851E+03  0.34142300446E+04  0.34041979925E+04 0.  0.
        2    1    3    3  502    0  0.13044237647E+04 -0.14226043313E+03  0.12181147979E+04  0.17904086264E+04  0.25500000920E-02 0.  1.
       -2    1    3    3    0  502 -0.13044237647E+04  0.14226043313E+03 -0.95657545935E+03  0.16238214182E+04  0.25500000920E-02 0. -1.
</event>
<event>
 5   0  0.5001197E-08  0.3400039E+04  0.7818609E-02  0.8137897E-01
        2   -1    0    0  501    0  0.00000000000E+00  0.00000000000E+00  0.19062796543E+04  0.19062796543E+04  0.25500000920E-02 0. -1.
       -2   -1    0    0    0  501  0.00000000000E+00  0.00000000000E+00 -0.15160767736E+04  0.15160767736E+04  0.25500000920E-02 0.  1.
    10030    2    1    2    0    0  0.00000000000E+00  0.00000000000E+00  0.39020288073E+03  0.34223564279E+04  0.34000390044E+04 0.  0.
        5    1    3    3  502    0  0.11952108512E+04  0.18767969861E+03 -0.10070121207E+04  0.15741182132E+04  0.46999998093E+01 0.  1.
       -5    1    3    3    0  502 -0.11952108512E+04 -0.18767969861E+03  0.13972150014E+04  0.18482382147E+04  0.46999998093E+01 0. -1.
</event>
<event>
 5   0  0.1645631E-08  0.3399990E+04  0.7818609E-02  0.8137909E-01
        1   -1    0    0  501    0  0.00000000000E+00  0.00000000000E+00  0.12685410317E+04  0.12685410317E+04  0.50400001928E-02 0.  1.
       -1   -1    0    0    0  501  0.00000000000E+00  0.00000000000E+00 -0.22781944137E+04  0.22781944137E+04  0.50400001928E-02 0. -1.
    10030    2    1    2    0    0  0.00000000000E+00  0.00000000000E+00 -0.10096533820E+04  0.35467354454E+04  0.33999900541E+04 0.  0.
        4    1    3    3  502    0 -0.11555498924E+03 -0.15180302136E+04  0.28426947023E+03  0.15487347834E+04  0.12699999809E+01 0.  1.
       -4    1    3    3    0  502  0.11555498924E+03  0.15180302136E+04 -0.12939228522E+04  0.19980006620E+04  0.12699999809E+01 0. -1.
</event>
<event>
 5   0  0.4973409E-08  0.3398754E+04  0.7818609E-02  0.8138212E-01
        2   -1    0    0  501    0  0.00000000000E+00  0.00000000000E+00  0.27391057189E+04  0.27391057189E+04  0.25500000920E-02 0. -1.
       -2   -1    0    0    0  501  0.00000000000E+00  0.00000000000E+00 -0.10543157289E+04  0.10543157289E+04  0.25500000920E-02 0.  1.
    10030    2    1    2    0    0  0.00000000000E+00  0.00000000000E+00  0.16847899901E+04  0.37934214478E+04  0.33987540320E+04 0.  0.
        1    1    3    3  502    0 -0.64537076336E+03  0.15599645629E+04  0.10596501677E+04  0.19932012787E+04  0.50400001928E-02 0. -1.
       -1    1    3    3    0  502  0.64537076336E+03 -0.15599645629E+04  0.62513982236E+03  0.18002201691E+04  0.50400001928E-02 0.  1.
</event>
<event>
 5   0  0.1625282E-08  0.3415061E+04  0.7818609E-02  0.8134220E-01
        1   -1    0    0  501    0  0.00000000000E+00  0.00000000000E+00  0.15609919185E+04  0.15609919185E+04  0.50400001928E-02 0.  1.
       -1   -1    0    0    0  501  0.00000000000E+00  0.00000000000E+00 -0.18678254748E+04  0.18678254748E+04  0.50400001928E-02 0. -1.
    10030    2    1    2    0    0  0.00000000000E+00  0.00000000000E+00 -0.30683355626E+03  0.34288173933E+04  0.34150610368E+04 0.  0.
        1    1    3    3  502    0  0.11778050638E+03  0.30476225060E+03  0.15293140806E+04  0.15638266637E+04  0.50400001928E-02 0.  1.
       -1    1    3    3    0  502 -0.11778050638E+03 -0.30476225060E+03 -0.18361476368E+04  0.18649907296E+04  0.50400001928E-02 0. -1.
</event>
<event>
 5   0  0.1595851E-08  0.3398940E+04  0.7818609E-02  0.8138167E-01
       -1   -1    0    0    0  501  0.00000000000E+00  0.00000000000E+00  0.97476009145E+03  0.97476009146E+03  0.50400001928E-02 0.  1.
        1   -1    0    0  501    0  0.00000000000E+00  0.00000000000E+00 -0.29629832684E+04  0.29629832684E+04  0.50400001928E-02 0. -1.
    10030    2    1    2    0    0  0.00000000000E+00  0.00000000000E+00 -0.19882231769E+04  0.39377433598E+04  0.33989397415E+04 0.  0.
        2    1    3    3  502    0 -0.10108706449E+04 -0.83097559109E+03 -0.22503555440E+04  0.26031672955E+04  0.25500000920E-02 0. -1.
       -2    1    3    3    0  502  0.10108706449E+04  0.83097559109E+03  0.26213236707E+03  0.13345760644E+04  0.25500000920E-02 0.  1.
</event>
<event>
 5   0  0.1625282E-08  0.3400029E+04  0.7818609E-02  0.8137899E-01
       -1   -1    0    0    0  501  0.00000000000E+00  0.00000000000E+00  0.24959523020E+04  0.24959523020E+04  0.50400001928E-02 0.  1.
        1   -1    0    0  501    0  0.00000000000E+00  0.00000000000E+00 -0.11578945754E+04  0.11578945754E+04  0.50400001928E-02 0. -1.
    10030    2    1    2    0    0  0.00000000000E+00  0.00000000000E+00  0.13380577265E+04  0.36538468774E+04  0.34000291946E+04 0.  0.
        1    1    3    3  502    0 -0.61228989538E+03  0.22310003670E+03 -0.10183374517E+04  0.12090011199E+04  0.50400001928E-02 0. -1.
       -1    1    3    3    0  502  0.61228989538E+03 -0.22310003670E+03  0.23563951782E+04  0.24448457575E+04  0.50400001928E-02 0.  1.
</event>
<event>
 5   0  0.1579536E-08  0.3399245E+04  0.7818609E-02  0.8138092E-01
       -1   -1    0    0    0  501  0.00000000000E+00  0.00000000000E+00  0.17758052710E+04  0.17758052710E+04  0.50400001928E-02 0. -1.
        1   -1    0    0  501    0  0.00000000000E+00  0.00000000000E+00 -0.16267078917E+04  0.16267078917E+04  0.50400001928E-02 0.  1.
    10030    2    1    2    0    0  0.00000000000E+00  0.00000000000E+00  0.14909737932E+03  0.34025131628E+04  0.33992448859E+04 0.  0.
        5    1    3    3  502    0 -0.26834201452E+03 -0.12924362620E+04  0.11462299626E+04  0.17482174193E+04  0.46999998093E+01 0. -1.
       -5    1    3    3    0  502  0.26834201452E+03  0.12924362620E+04 -0.99713258326E+03  0.16542957434E+04  0.46999998093E+01 0.  1.
</event>
<event>
 5   0  0.1595851E-08  0.3398617E+04  0.7818609E-02  0.8138246E-01
       -1   -1    0    0    0  501  0.00000000000E+00  0.00000000000E+00  0.15591910703E+04  0.15591910703E+04  0.50400001928E-02 0.  1.
        1   -1    0    0  501    0  0.00000000000E+00  0.00000000000E+00 -0.18520172887E+04  0.18520172887E+04  0.50400001928E-02 0. -1.
    10030    2    1    2    0    0  0.00000000000E+00  0.00000000000E+00 -0.29282621838E+03  0.34112083590E+04  0.33986166707E+04 0.  0.
        2    1    3    3  502    0 -0.60053927203E+03  0.13406703807E+04 -0.10037465535E+04  0.17791997163E+04  0.25500000920E-02 0. -1.
       -2    1    3    3    0  502  0.60053927203E+03 -0.13406703807E+04  0.71092033512E+03  0.16320086427E+04  0.25500000920E-02 0.  1.
</event>
<event>
 5   0  0.4973409E-08  0.3395321E+04  0.7818609E-02  0.8139056E-01
       -2   -1    0    0    0  501  0.00000000000E+00  0.00000000000E+00  0.12819119833E+04  0.12819119833E+04  0.25500000920E-02 0.  1.
        2   -1    0    0  501    0  0.00000000000E+00  0.00000000000E+00 -0.22482435833E+04  0.22482435833E+04  0.25500000920E-02 0. -1.
    10030    2    1    2    0    0  0.00000000000E+00  0.00000000000E+00 -0.96633160001E+03  0.35301555666E+04  0.33953205391E+04 0.  0.
        1    1    3    3  502    0  0.19688654415E+03  0.14307204617E+04  0.44464249230E+03  0.15111030066E+04  0.50400001928E-02 0.  1.
       -1    1    3    3    0  502 -0.19688654415E+03 -0.14307204617E+04 -0.14109740923E+04  0.20190525600E+04  0.50400001928E-02 0. -1.
</event>
<event>
 5   0  0.4946315E-08  0.3400834E+04  0.7818609E-02  0.8137702E-01
       -2   -1    0    0    0  501  0.00000000000E+00  0.00000000000E+00  0.11586539464E+04  0.11586539464E+04  0.25500000920E-02 0.  1.
        2   -1    0    0  501    0  0.00000000000E+00  0.00000000000E+00 -0.24954972990E+04  0.24954972990E+04  0.25500000920E-02 0. -1.
    10030    2    1    2    0    0  0.00000000000E+00  0.00000000000E+00 -0.13368433526E+04  0.36541512455E+04  0.34008338941E+04 0.  0.
        3    1    3    3  502    0  0.13781534512E+04  0.38680643145E+02 -0.17378544101E+04  0.22183194288E+04  0.10100000352E+00 0. -1.
       -3    1    3    3    0  502 -0.13781534512E+04 -0.38680643145E+02  0.40101105750E+03  0.14358318167E+04  0.10100000352E+00 0.  1.
</event>
<event>
 5   0  0.1625282E-08  0.3400736E+04  0.7818609E-02  0.8137726E-01
        1   -1    0    0  501    0  0.00000000000E+00  0.00000000000E+00  0.19643768461E+04  0.19643768461E+04  0.50400001928E-02 0. -1.
       -1   -1    0    0    0  501  0.00000000000E+00  0.00000000000E+00 -0.14718412159E+04  0.14718412159E+04  0.50400001928E-02 0.  1.
    10030    2    1    2    0    0  0.00000000000E+00  0.00000000000E+00  0.49253563022E+03  0.34362180620E+04  0.34007356885E+04 0.  0.
        1    1    3    3  502    0  0.91553679920E+03 -0.12766819439E+04 -0.41100079723E+03  0.16238984180E+04  0.50400001928E-02 0.  1.
       -1    1    3    3    0  502 -0.91553679920E+03  0.12766819439E+04  0.90353642745E+03  0.18123196441E+04  0.50400001928E-02 0. -1.
</event>
<event>
 5   0  0.1595851E-08  0.3399159E+04  0.7818609E-02  0.8138113E-01
        1   -1    0    0  501    0  0.00000000000E+00  0.00000000000E+00  0.11363486786E+04  0.11363486786E+04  0.50400001928E-02 0.  1.
       -1   -1    0    0    0  501  0.00000000000E+00  0.00000000000E+00 -0.25419752788E+04  0.25419752788E+04  0.50400001928E-02 0. -1.
    10030    2    1    2    0    0  0.00000000000E+00  0.00000000000E+00 -0.14056266003E+04  0.36783239574E+04  0.33991588660E+04 0.  0.
        2    1    3    3  502    0 -0.15112216482E+04  0.28902294676E+03 -0.14840803573E+04  0.21377136479E+04  0.25500000920E-02 0. -1.
       -2    1    3    3    0  502  0.15112216482E+04 -0.28902294676E+03  0.78453757002E+02  0.15406103095E+04  0.25500000920E-02 0.  1.
</event>
<event>
 5   0  0.1625282E-08  0.3400666E+04  0.7818609E-02  0.8137743E-01
        1   -1    0    0  501    0  0.00000000000E+00  0.00000000000E+00  0.20980718554E+04  0.20980718554E+04  0.50400001928E-02 0. -1.
       -1   -1    0    0    0  501  0.00000000000E+00  0.00000000000E+00 -0.13779948394E+04  0.13779948394E+04  0.50400001928E-02 0.  1.
    10030    2    1    2    0    0  0.00000000000E+00  0.00000000000E+00  0.72007701606E+03  0.34760666948E+04  0.34006659286E+04 0.  0.
        1    1    3    3  502    0  0.12288174265E+04  0.35678139168E+03 -0.78454213284E+03  0.15009302407E+04  0.50400001928E-02 0.  1.
       -1    1    3    3    0  502 -0.12288174265E+04 -0.35678139168E+03  0.15046191489E+04  0.19751364541E+04  0.50400001928E-02 0. -1.
</event>
<event>
 5   0  0.1595851E-08  0.3392570E+04  0.7818609E-02  0.8139732E-01
       -1   -1    0    0    0  501  0.00000000000E+00  0.00000000000E+00  0.18505532988E+04  0.18505532988E+04  0.50400001928E-02 0. -1.
        1   -1    0    0  501    0  0.00000000000E+00  0.00000000000E+00 -0.15548766159E+04  0.15548766159E+04  0.50400001928E-02 0.  1.
    10030    2    1    2    0    0  0.00000000000E+00  0.00000000000E+00  0.29567668283E+03  0.34054299147E+04  0.33925695576E+04 0.  0.
        2    1    3    3  502    0 -0.13332105382E+04  0.54685120647E+03  0.10461528070E+04  0.17807111716E+04  0.25500000920E-02 0. -1.
       -2    1    3    3    0  502  0.13332105382E+04 -0.54685120647E+03 -0.75047612417E+03  0.16247187431E+04  0.25500000920E-02 0.  1.
</event>
<event>
 5   0  0.1630571E-08  0.3403118E+04  0.7818609E-02  0.8137142E-01
        1   -1    0    0  501    0  0.00000000000E+00  0.00000000000E+00  0.13878105540E+04  0.13878105540E+04  0.50400001928E-02 0. -1.
       -1   -1    0    0    0  501  0.00000000000E+00  0.00000000000E+00 -0.20862374667E+04  0.20862374667E+04  0.50400001928E-02 0.  1.
    10030    2    1    2    0    0  0.00000000000E+00  0.00000000000E+00 -0.69842691271E+03  0.34740480207E+04  0.34031176144E+04 0.  0.
        3    1    3    3  502    0 -0.27354036411E+03  0.15764089159E+04  0.24200608489E+03  0.16181645022E+04  0.10100000352E+00 0. -1.
       -3    1    3    3    0  502  0.27354036411E+03 -0.15764089159E+04 -0.94043299760E+03  0.18558835185E+04  0.10100000352E+00 0.  1.
</event>
<event>
 5   0  0.4973409E-08  0.3398951E+04  0.7818609E-02  0.8138164E-01
        2   -1    0    0  501    0  0.00000000000E+00  0.00000000000E+00  0.17945903092E+04  0.17945903092E+04  0.25500000920E-02 0. -1.
       -2   -1    0    0    0  501  0.00000000000E+00  0.00000000000E+00 -0.16094014271E+04  0.16094014271E+04  0.25500000920E-02 0.  1.
    10030    2    1    2    0    0  0.00000000000E+00  0.00000000000E+00  0.18518888204E+03  0.34039917363E+04  0.33989505467E+04 0.  0.
        1    1    3    3  502    0 -0.11139082401E+04  0.11272201197E+04  0.70734477734E+03  0.17354404051E+04  0.50400001928E-02 0. -1.
       -1    1    3    3    0  502  0.11139082401E+04 -0.11272201197E+04 -0.52215589529E+03  0.16685513312E+04  0.50400001928E-02 0.  1.
</event>
<event>
 5   0  0.1579536E-08  0.3406468E+04  0.7818609E-02  0.8136321E-01
        1   -1    0    0  501    0  0.00000000000E+00  0.00000000000E+00  0.13442145612E+04  0.13442145612E+04  0.50400001928E-02 0.  1.
       -1   -1    0    0    0  501  0.00000000000E+00  0.00000000000E+00 -0.21581418276E+04  0.21581418276E+04  0.50400001928E-02 0. -1.
    10030    2    1    2    0    0  0.00000000000E+00  0.00000000000E+00 -0.81392726637E+03  0.35023563888E+04  0.34064677717E+04 0.  0.
        5    1    3    3  502    0 -0.11303550208E+04 -0.72998391108E+03 -0.14805818918E+04  0.20006808370E+04  0.46999998093E+01 0. -1.
       -5    1    3    3    0  502  0.11303550208E+04  0.72998391108E+03  0.66665462539E+03  0.15016755518E+04  0.46999998093E+01 0.  1.
</event>
<event>
 5   0  0.4764953E-08  0.3399549E+04  0.7818609E-02  0.8138017E-01
        2   -1    0    0  501    0  0.00000000000E+00  0.00000000000E+00  0.15711617462E+04  0.15711617462E+04  0.25500000920E-02 0. -1.
       -2   -1    0    0    0  501  0.00000000000E+00  0.00000000000E+00 -0.18389149414E+04  0.18389149414E+04  0.25500000920E-02 0.  1.
    10030    2    1    2    0    0  0.00000000000E+00  0.00000000000E+00 -0.26775319517E+03  0.34100766876E+04  0.33995486820E+04 0.  0.
        2    1    3    3  502    0 -0.23939712450E+03 -0.98832254682E+03 -0.15001300401E+04  0.18123141496E+04  0.25500000920E-02 0.  1.
       -2    1    3    3    0  502  0.23939712450E+03  0.98832254682E+03  0.12323768449E+04  0.15977625379E+04  0.25500000920E-02 0. -1.
</event>
<event>
 5   0  0.1595851E-08  0.3399886E+04  0.7818609E-02  0.8137934E-01
        1   -1    0    0  501    0  0.00000000000E+00  0.00000000000E+00  0.26497715149E+04  0.26497715149E+04  0.50400001928E-02 0. -1.
       -1   -1    0    0    0  501  0.00000000000E+00  0.00000000000E+00 -0.10905871074E+04  0.10905871074E+04  0.50400001928E-02 0.  1.
    10030    2    1    2    0    0  0.00000000000E+00  0.00000000000E+00  0.15591844075E+04  0.37403586223E+04  0.33998862638E+04 0.  0.
        2    1    3    3  502    0 -0.11521448077E+04  0.55050591944E+02  0.21533780755E+04  0.24428477974E+04  0.25500000920E-02 0. -1.
       -2    1    3    3    0  502  0.11521448077E+04 -0.55050591944E+02 -0.59419366803E+03  0.12975108249E+04  0.25500000920E-02 0.  1.
</event>
<event>
 5   0  0.4946315E-08  0.3401662E+04  0.7818609E-02  0.8137498E-01
        2   -1    0    0  501    0  0.00000000000E+00  0.00000000000E+00  0.20157250915E+04  0.20157250915E+04  0.25500000920E-02 0. -1.
       -2   -1    0    0    0  501  0.00000000000E+00  0.00000000000E+00 -0.14351296449E+04  0.14351296449E+04  0.25500000920E-02 0.  1.
    10030    2    1    2    0    0  0.00000000000E+00  0.00000000000E+00  0.58059544664E+03  0.34508547364E+04  0.34016624375E+04 0.  0.
        3    1    3    3  502    0 -0.27417296063E+03 -0.45720641458E+03  0.19287761688E+04  0.20010962090E+04  0.10100000352E+00 0. -1.
       -3    1    3    3    0  502  0.27417296063E+03  0.45720641458E+03 -0.13481807222E+04  0.14497585274E+04  0.10100000352E+00 0.  1.
</event>
<event>
 5   0  0.1625282E-08  0.3400679E+04  0.7818609E-02  0.8137740E-01
       -1   -1    0    0    0  501  0.00000000000E+00  0.00000000000E+00  0.19358174989E+04  0.19358174989E+04  0.50400001928E-02 0.  1.
        1   -1    0    0  501    0  0.00000000000E+00  0.00000000000E+00 -0.14935057745E+04  0.14935057745E+04  0.50400001928E-02 0. -1.
    10030    2    1    2    0    0  0.00000000000E+00  0.00000000000E+00  0.44231172445E+03  0.34293232734E+04  0.34006791163E+04 0.  0.
        1    1    3    3  502    0 -0.13114399613E+04 -0.15731619587E+03 -0.85862533236E+03  0.15753922112E+04  0.50400001928E-02 0. -1.
       -1    1    3    3    0  502  0.13114399613E+04  0.15731619587E+03  0.13009370568E+04  0.18539310622E+04  0.50400001928E-02 0.  1.
</event>
<event>
 5   0  0.4946315E-08  0.3399395E+04  0.7818609E-02  0.8138055E-01
       -2   -1    0    0    0  501  0.00000000000E+00  0.00000000000E+00  0.86494581275E+03  0.86494581275E+03  0.25500000920E-02 0. -1.
        2   -1    0    0  501    0  0.00000000000E+00  0.00000000000E+00 -0.33400600514E+04  0.33400600514E+04  0.25500000920E-02 0.  1.
    10030    2    1    2    0    0  0.00000000000E+00  0.00000000000E+00 -0.24751142387E+04  0.42050058642E+04  0.33993946260E+04 0.  0.
        3    1    3    3  502    0 -0.49713147799E+03 -0.71310455974E+03 -0.30442832469E+04  0.31659624630E+04  0.10100000352E+00 0.  1.
       -3    1    3    3    0  502  0.49713147799E+03  0.71310455974E+03  0.56916900819E+03  0.10390434012E+04  0.10100000352E+00 0. -1.
</event>
<event>
 5   0  0.1630571E-08  0.3402789E+04  0.7818609E-02  0.8137222E-01
       -1   -1    0    0    0  501  0.00000000000E+00  0.00000000000E+00  0.11016063089E+04  0.11016063089E+04  0.50400001928E-02 0. -1.
        1   -1    0    0  501    0  0.00000000000E+00  0.00000000000E+00 -0.26277482291E+04  0.26277482291E+04  0.50400001928E-02 0.  1.
    10030    2    1    2    0    0  0.00000000000E+00  0.00000000000E+00 -0.15261419202E+04  0.37293545380E+04  0.34027894601E+04 0.  0.
        3    1    3    3  502    0 -0.95232819725E+02 -0.84288251922E+03  0.85333545438E+03  0.12032047370E+04  0.10100000352E+00 0. -1.
       -3    1    3    3    0  502  0.95232819725E+02  0.84288251922E+03 -0.23794773746E+04  0.25261498011E+04  0.10100000352E+00 0.  1.
</event>
<event>
 5   0  0.1579536E-08  0.3404595E+04  0.7818609E-02  0.8136779E-01
       -1   -1    0    0    0  501  0.00000000000E+00  0.00000000000E+00  0.15660890910E+04  0.15660890910E+04  0.50400001928E-02 0. -1.
        1   -1    0    0  501    0  0.00000000000E+00  0.00000000000E+00 -0.18503526876E+04  0.18503526876E+04  0.50400001928E-02 0.  1.
    10030    2    1    2    0    0  0.00000000000E+00  0.00000000000E+00 -0.28426359663E+03  0.34164417786E+04  0.34045952232E+04 0.  0.
        5    1    3    3  502    0  0.98606161571E+03  0.17434597027E+03 -0.15235412782E+04  0.18231604822E+04  0.46999998093E+01 0.  1.
       -5    1    3    3    0  502 -0.98606161571E+03 -0.17434597027E+03  0.12392776816E+04  0.15932812964E+04  0.46999998093E+01 0. -1.
</event>
<event>
 5   0  0.1630571E-08  0.3402413E+04  0.7818609E-02  0.8137314E-01
        1   -1    0    0  501    0  0.00000000000E+00  0.00000000000E+00  0.23553800473E+04  0.23553800473E+04  0.50400001928E-02 0. -1.
       -1   -1    0    0    0  501  0.00000000000E+00  0.00000000000E+00 -0.12287206909E+04  0.12287206909E+04  0.50400001928E-02 0.  1.
    10030    2    1    2    0    0  0.00000000000E+00  0.00000000000E+00  0.11266593563E+04  0.35841007382E+04  0.34024133782E+04 0.  0.
        3    1    3    3  502    0  0.57275557205E+03  0.98822939473E+03 -0.76473016818E+03  0.13745757608E+04  0.10100000352E+00 0.  1.
       -3    1    3    3    0  502 -0.57275557205E+03 -0.98822939473E+03  0.18913895245E+04  0.22095249774E+04  0.10100000352E+00 0. -1.
</event>
<event>
 5   0  0.5001197E-08  0.3400894E+04  0.7818609E-02  0.8137687E-01
       -2   -1    0    0    0  501  0.00000000000E+00  0.00000000000E+00  0.12243983397E+04  0.12243983397E+04  0.25500000920E-02 0.  1.
        2   -1    0    0  501    0  0.00000000000E+00  0.00000000000E+00 -0.23615849336E+04  0.23615849336E+04  0.25500000920E-02 0. -1.
    10030    2    1    2    0    0  0.00000000000E+00  0.00000000000E+00 -0.11371865938E+04  0.35859832733E+04  0.34008943952E+04 0.  0.
        5    1    3    3  502    0 -0.95197390881E+03  0.14087474233E+04 -0.54119946141E+03  0.17843045067E+04  0.46999998093E+01 0. -1.
       -5    1    3    3    0  502  0.95197390881E+03 -0.14087474233E+04 -0.59598713242E+03  0.18016787665E+04  0.46999998093E+01 0.  1.
</event>
<event>
 5   0  0.4973409E-08  0.3399695E+04  0.7818609E-02  0.8137981E-01
        2   -1    0    0  501    0  0.00000000000E+00  0.00000000000E+00  0.15488323543E+04  0.15488323543E+04  0.25500000920E-02 0. -1.
       -2   -1    0    0    0  501  0.00000000000E+00  0.00000000000E+00 -0.18655868575E+04  0.18655868575E+04  0.25500000920E-02 0.  1.
    10030    2    1    2    0    0  0.00000000000E+00  0.00000000000E+00 -0.31675450325E+03  0.34144192118E+04  0.33996948596E+04 0.  0.
        1    1    3    3  502    0 -0.47491405376E+03  0.10179025827E+04 -0.14397605531E+04  0.18260830968E+04  0.50400001928E-02 0.  1.
       -1    1    3    3    0  502  0.47491405376E+03 -0.10179025827E+04  0.11230060498E+04  0.15883361150E+04  0.50400001928E-02 0. -1.
</event>
<event>
 5   0  0.4973409E-08  0.3394565E+04  0.7818609E-02  0.8139242E-01
       -2   -1    0    0    0  501  0.00000000000E+00  0.00000000000E+00  0.15676440480E+04  0.15676440480E+04  0.25500000920E-02 0. -1.
        2   -1    0    0  501    0  0.00000000000E+00  0.00000000000E+00 -0.18376413571E+04  0.18376413571E+04  0.25500000920E-02 0.  1.
    10030    2    1    2    0    0  0.00000000000E+00  0.00000000000E+00 -0.26999730904E+03  0.34052854051E+04  0.33945647944E+04 0.  0.
        1    1    3    3  502    0 -0.69859953917E+03 -0.43921049632E+03  0.13528646159E+04  0.15846734191E+04  0.50400001928E-02 0. -1.
       -1    1    3    3    0  502  0.69859953917E+03  0.43921049632E+03 -0.16228619249E+04  0.18206119860E+04  0.50400001928E-02 0.  1.
</event>
<event>
 5   0  0.1595851E-08  0.3399554E+04  0.7818609E-02  0.8138016E-01
        1   -1    0    0  501    0  0.00000000000E+00  0.00000000000E+00  0.11027606453E+04  0.11027606454E+04  0.50400001928E-02 0.  1.
       -1   -1    0    0    0  501  0.00000000000E+00  0.00000000000E+00 -0.26200082525E+04  0.26200082525E+04  0.50400001928E-02 0. -1.
    10030    2    1    2    0    0  0.00000000000E+00  0.00000000000E+00 -0.15172476072E+04  0.37227688979E+04  0.33995540833E+04 0.  0.
        2    1    3    3  502    0 -0.56185353080E+03  0.89536194915E+03 -0.22163046572E+04  0.24554752582E+04  0.25500000920E-02 0. -1.
       -2    1    3    3    0  502  0.56185353080E+03 -0.89536194915E+03  0.69905705001E+03  0.12672936397E+04  0.25500000920E-02 0.  1.
</event>
<event>
 5   0  0.1573625E-08  0.3399743E+04  0.7818609E-02  0.8137969E-01
        4   -1    0    0  501    0  0.00000000000E+00  0.00000000000E+00  0.13368796178E+04  0.13368802210E+04  0.12699999809E+01 0. -1.
       -4   -1    0    0    0  501  0.00000000000E+00  0.00000000000E+00 -0.21614222216E+04  0.21614225947E+04  0.12699999809E+01 0.  1.
    10030    2    1    2    0    0  0.00000000000E+00  0.00000000000E+00 -0.82454260384E+03  0.34983028157E+04  0.33997429439E+04 0.  0.
        3    1    3    3  502    0 -0.15936454803E+04 -0.20963655711E+02  0.19598094053E+03  0.16057876357E+04  0.10100000352E+00 0. -1.
       -3    1    3    3    0  502  0.15936454803E+04  0.20963655711E+02 -0.10205235444E+04  0.18925151800E+04  0.10100000352E+00 0.  1.
</event>
<event>
 5   0  0.4764953E-08  0.3399765E+04  0.7818609E-02  0.8137964E-01
       -2   -1    0    0    0  501  0.00000000000E+00  0.00000000000E+00  0.16323956000E+04  0.16323956000E+04  0.25500000920E-02 0.  1.
        2   -1    0    0  501    0  0.00000000000E+00  0.00000000000E+00 -0.17701599441E+04  0.17701599441E+04  0.25500000920E-02 0. -1.
    10030    2    1    2    0    0  0.00000000000E+00  0.00000000000E+00 -0.13776434404E+03  0.34025555441E+04  0.33997654649E+04 0.  0.
        2    1    3    3  502    0  0.13293778967E+04 -0.41711275928E+03  0.90576129876E+03  0.16618159274E+04  0.25500000920E-02 0.  1.
       -2    1    3    3    0  502 -0.13293778967E+04  0.41711275928E+03 -0.10435256428E+04  0.17407396167E+04  0.25500000920E-02 0. -1.
</event>
<event>
 5   0  0.1579536E-08  0.3399268E+04  0.7818609E-02  0.8138086E-01
       -1   -1    0    0    0  501  0.00000000000E+00  0.00000000000E+00  0.82360268067E+03  0.82360268068E+03  0.50400001928E-02 0. -1.
        1   -1    0    0  501    0  0.00000000000E+00  0.00000000000E+00 -0.35074624821E+04  0.35074624821E+04  0.50400001928E-02 0.  1.
    10030    2    1    2    0    0  0.00000000000E+00  0.00000000000E+00 -0.26838598015E+04  0.43310651628E+04  0.33992678639E+04 0.  0.
        5    1    3    3  502    0  0.18715382614E+03 -0.13197805024E+04 -0.26854356082E+04  0.29980716511E+04  0.46999998093E+01 0.  1.
       -5    1    3    3    0  502 -0.18715382614E+03  0.13197805024E+04  0.15758067813E+01  0.13329935117E+04  0.46999998093E+01 0. -1.
</event>
<event>
 5   0  0.1645631E-08  0.3412626E+04  0.7818609E-02  0.8134814E-01
       -1   -1    0    0    0  501  0.00000000000E+00  0.00000000000E+00  0.16645537142E+04  0.16645537142E+04  0.50400001928E-02 0.  1.
        1   -1    0    0  501    0  0.00000000000E+00  0.00000000000E+00 -0.17491200800E+04  0.17491200800E+04  0.50400001928E-02 0. -1.
    10030    2    1    2    0    0  0.00000000000E+00  0.00000000000E+00 -0.84566365740E+02  0.34136737942E+04  0.34126261593E+04 0.  0.
        4    1    3    3  502    0 -0.23371532126E+03  0.37953186983E+01 -0.17330285133E+04  0.17487214463E+04  0.12699999809E+01 0. -1.
       -4    1    3    3    0  502  0.23371532126E+03 -0.37953186983E+01  0.16484621476E+04  0.16649523479E+04  0.12699999809E+01 0.  1.
</event>
<event>
 5   0  0.1630571E-08  0.3403237E+04  0.7818609E-02  0.8137112E-01
        1   -1    0    0  501    0  0.00000000000E+00  0.00000000000E+00  0.13281944495E+04  0.13281944496E+04  0.50400001928E-02 0. -1.
       -1   -1    0    0    0  501  0.00000000000E+00  0.00000000000E+00 -0.21800318370E+04  0.21800318370E+04  0.50400001928E-02 0.  1.
    10030    2    1    2    0    0  0.00000000000E+00  0.00000000000E+00 -0.85183738747E+03  0.35082262866E+04  0.34032373915E+04 0.  0.
        3    1    3    3  502    0  0.76218338335E+03 -0.12846931268E+04  0.41417400803E+03  0.15501290460E+04  0.10100000352E+00 0.  1.
       -3    1    3    3    0  502 -0.76218338335E+03  0.12846931268E+04 -0.12660113955E+04  0.19580972406E+04  0.10100000352E+00 0. -1.
</event>
<event>
 5   0  0.1579536E-08  0.3394386E+04  0.7818609E-02  0.8139286E-01
       -1   -1    0    0    0  501  0.00000000000E+00  0.00000000000E+00  0.14420964186E+04  0.14420964186E+04  0.50400001928E-02 0.  1.
        1   -1    0    0  501    0  0.00000000000E+00  0.00000000000E+00 -0.19974142410E+04  0.19974142410E+04  0.50400001928E-02 0. -1.
    10030    2    1    2    0    0  0.00000000000E+00  0.00000000000E+00 -0.55531782243E+03  0.34395106596E+04  0.33943859082E+04 0.  0.
        5    1    3    3  502    0 -0.90532398468E+02 -0.18216232913E+03 -0.19850103645E+04  0.19954116033E+04  0.46999998093E+01 0. -1.
       -5    1    3    3    0  502  0.90532398468E+02  0.18216232913E+03  0.14296925421E+04  0.14440990563E+04  0.46999998093E+01 0.  1.
</event>
<event>
 5   0  0.4764953E-08  0.3398487E+04  0.7818609E-02  0.8138278E-01
        2   -1    0    0  501    0  0.00000000000E+00  0.00000000000E+00  0.24266192316E+04  0.24266192316E+04  0.25500000920E-02 0. -1.
       -2   -1    0    0    0  501  0.00000000000E+00  0.00000000000E+00 -0.11898976107E+04  0.11898976107E+04  0.25500000920E-02 0.  1.
    10030    2    1    2    0    0  0.00000000000E+00  0.00000000000E+00  0.12367216209E+04  0.36165168423E+04  0.33984869727E+04 0.  0.
        2    1    3    3  502    0 -0.10317238598E+04  0.37003400746E+02  0.20546172650E+04  0.22994076368E+04  0.25500000920E-02 0. -1.
       -2    1    3    3    0  502  0.10317238598E+04 -0.37003400746E+02 -0.81789564415E+03  0.13171092055E+04  0.25500000920E-02 0.  1.
</event>
<event>
 5   0  0.4764953E-08  0.3399514E+04  0.7818609E-02  0.8138026E-01
        2   -1    0    0  501    0  0.00000000000E+00  0.00000000000E+00  0.22893183242E+04  0.22893183242E+04  0.25500000920E-02 0.  1.
       -2   -1    0    0    0  501  0.00000000000E+00  0.00000000000E+00 -0.12620235352E+04  0.12620235352E+04  0.25500000920E-02 0. -1.
    10030    2    1    2    0    0  0.00000000000E+00  0.00000000000E+00  0.10272947890E+04  0.35513418593E+04  0.33995138503E+04 0.  0.
        2    1    3    3  502    0  0.89184033342E+03 -0.80597905496E+02 -0.99562606741E+03  0.13390841903E+04  0.25500000920E-02 0. -1.
       -2    1    3    3    0  502 -0.89184033342E+03  0.80597905496E+02  0.20229208564E+04  0.22122576690E+04  0.25500000920E-02 0.  1.
</event>
<event>
 5   0  0.1645631E-08  0.3398934E+04  0.7818609E-02  0.8138168E-01
        1   -1    0    0  501    0  0.00000000000E+00  0.00000000000E+00  0.15455981869E+04  0.15455981870E+04  0.50400001928E-02 0. -1.
       -1   -1    0    0    0  501  0.00000000000E+00  0.00000000000E+00 -0.18686538414E+04  0.18686538414E+04  0.50400001928E-02 0.  1.
    10030    2    1    2    0    0  0.00000000000E+00  0.00000000000E+00 -0.32305565447E+03  0.34142520284E+04  0.33989339443E+04 0.  0.
        4    1    3    3  502    0 -0.40087824093E+03  0.19829259099E+03 -0.18084787432E+04  0.18629600890E+04  0.12699999809E+01 0.  1.
       -4    1    3    3    0  502  0.40087824093E+03 -0.19829259099E+03  0.14854230887E+04  0.15512919394E+04  0.12699999809E+01 0. -1.
</event>
<event>
 5   0  0.1625282E-08  0.3400176E+04  0.7818609E-02  0.8137863E-01
       -1   -1    0    0    0  501  0.00000000000E+00  0.00000000000E+00  0.17440642911E+04  0.17440642911E+04  0.50400001928E-02 0.  1.
        1   -1    0    0  501    0  0.00000000000E+00  0.00000000000E+00 -0.16572208974E+04  0.16572208975E+04  0.50400001928E-02 0. -1.
    10030    2    1    2    0    0  0.00000000000E+00  0.00000000000E+00  0.86843393641E+02  0.34012851885E+04  0.34001763423E+04 0.  0.
        1    1    3    3  502    0 -0.15997260405E+03 -0.65753053547E+03 -0.15166901151E+04  0.16608090029E+04  0.50400001928E-02 0. -1.
       -1    1    3    3    0  502  0.15997260405E+03  0.65753053547E+03  0.16035335087E+04  0.17404761856E+04  0.50400001928E-02 0.  1.
</event>
<event>
 5   0  0.1625282E-08  0.3400989E+04  0.7818609E-02  0.8137664E-01
       -1   -1    0    0    0  501  0.00000000000E+00  0.00000000000E+00  0.15348173598E+04  0.15348173598E+04  0.50400001928E-02 0. -1.
        1   -1    0    0  501    0  0.00000000000E+00  0.00000000000E+00 -0.18840558862E+04  0.18840558862E+04  0.50400001928E-02 0.  1.
    10030    2    1    2    0    0  0.00000000000E+00  0.00000000000E+00 -0.34923852637E+03  0.34188732460E+04  0.34009890803E+04 0.  0.
        1    1    3    3  502    0  0.98230008499E+02  0.55626394051E+03 -0.17869871728E+04  0.18741402994E+04  0.50400001928E-02 0.  1.
       -1    1    3    3    0  502 -0.98230008499E+02 -0.55626394051E+03  0.14377486464E+04  0.15447329466E+04  0.50400001928E-02 0. -1.
</event>
<event>
 5   0  0.1579536E-08  0.3399627E+04  0.7818609E-02  0.8137998E-01
        1   -1    0    0  501    0  0.00000000000E+00  0.00000000000E+00  0.19316892083E+04  0.19316892083E+04  0.50400001928E-02 0. -1.
       -1   -1    0    0    0  501  0.00000000000E+00  0.00000000000E+00 -0.14957712966E+04  0.14957712966E+04  0.50400001928E-02 0.  1.
    10030    2    1    2    0    0  0.00000000000E+00  0.00000000000E+00  0.43591791176E+03  0.34274605049E+04  0.33996266099E+04 0.  0.
        5    1    3    3  502    0 -0.64327943159E+03 -0.97985233970E+03 -0.10231455166E+04  0.15558817027E+04  0.46999998093E+01 0.  1.
       -5    1    3    3    0  502  0.64327943159E+03  0.97985233970E+03  0.14590634284E+04  0.18715788022E+04  0.46999998093E+01 0. -1.
</event>
<event>
 5   0  0.4775023E-08  0.3394167E+04  0.7818609E-02  0.8139340E-01
       -2   -1    0    0    0  501  0.00000000000E+00  0.00000000000E+00  0.13564203258E+04  0.13564203258E+04  0.25500000920E-02 0. -1.
        2   -1    0    0  501    0  0.00000000000E+00  0.00000000000E+00 -0.21233031890E+04  0.21233031890E+04  0.25500000920E-02 0.  1.
    10030    2    1    2    0    0  0.00000000000E+00  0.00000000000E+00 -0.76688286319E+03  0.34797235148E+04  0.33941665271E+04 0.  0.
        4    1    3    3  502    0 -0.50049773335E+03  0.12231613796E+04 -0.14749226608E+04  0.19804091016E+04  0.12699999809E+01 0.  1.
       -4    1    3    3    0  502  0.50049773335E+03 -0.12231613796E+04  0.70803979764E+03  0.14993144132E+04  0.12699999809E+01 0. -1.
</event>
<event>
 5   0  0.4946315E-08  0.3400855E+04  0.7818609E-02  0.8137697E-01
        2   -1    0    0  501    0  0.00000000000E+00  0.00000000000E+00  0.19662130244E+04  0.19662130244E+04  0.25500000920E-02 0. -1.
       -2   -1    0    0    0  501  0.00000000000E+00  0.00000000000E+00 -0.14705696181E+04  0.14705696181E+04  0.25500000920E-02 0.  1.
    10030    2    1    2    0    0  0.00000000000E+00  0.00000000000E+00  0.49564340629E+03  0.34367826426E+04  0.34008546788E+04 0.  0.
        3    1    3    3  502    0  0.73741888710E+03 -0.17400694736E+02 -0.13004749905E+04  0.14951002008E+04  0.10100000352E+00 0.  1.
       -3    1    3    3    0  502 -0.73741888710E+03  0.17400694736E+02  0.17961183968E+04  0.19416824418E+04  0.10100000352E+00 0. -1.
</event>
<event>
 5   0  0.4973409E-08  0.3400757E+04  0.7818609E-02  0.8137720E-01
        2   -1    0    0  501    0  0.00000000000E+00  0.00000000000E+00  0.18657200978E+04  0.18657200978E+04  0.25500000920E-02 0. -1.
       -2   -1    0    0    0  501  0.00000000000E+00  0.00000000000E+00 -0.15496900321E+04  0.15496900321E+04  0.25500000920E-02 0.  1.
    10030    2    1    2    0    0  0.00000000000E+00  0.00000000000E+00  0.31603006564E+03  0.34154101299E+04  0.34007574676E+04 0.  0.
        1    1    3    3  502    0  0.85564012505E+03 -0.11436993448E+03 -0.13132499460E+04  0.15715679833E+04  0.50400001928E-02 0.  1.
       -1    1    3    3    0  502 -0.85564012505E+03  0.11436993448E+03  0.16292800116E+04  0.18438421466E+04  0.50400001928E-02 0. -1.
</event>
<event>
 5   0  0.4946315E-08  0.3399753E+04  0.7818609E-02  0.8137967E-01
       -2   -1    0    0    0  501  0.00000000000E+00  0.00000000000E+00  0.13248296458E+04  0.13248296458E+04  0.25500000920E-02 0.  1.
        2   -1    0    0  501    0  0.00000000000E+00  0.00000000000E+00 -0.21810956317E+04  0.21810956317E+04  0.25500000920E-02 0. -1.
    10030    2    1    2    0    0  0.00000000000E+00  0.00000000000E+00 -0.85626598593E+03  0.35059252775E+04  0.33997530223E+04 0.  0.
        3    1    3    3  502    0 -0.32061121005E+03 -0.70731398308E+03  0.11312057339E+04  0.13721191790E+04  0.10100000352E+00 0.  1.
       -3    1    3    3    0  502  0.32061121005E+03  0.70731398308E+03 -0.19874717198E+04  0.21338060985E+04  0.10100000352E+00 0. -1.
</event>
<event>
 5   0  0.5001197E-08  0.3396029E+04  0.7818609E-02  0.8138882E-01
       -2   -1    0    0    0  501  0.00000000000E+00  0.00000000000E+00  0.23733925285E+04  0.23733925285E+04  0.25500000920E-02 0.  1.
        2   -1    0    0  501    0  0.00000000000E+00  0.00000000000E+00 -0.12148238735E+04  0.12148238735E+04  0.25500000920E-02 0. -1.
    10030    2    1    2    0    0  0.00000000000E+00  0.00000000000E+00  0.11585686550E+04  0.35882164020E+04  0.33960293903E+04 0.  0.
        5    1    3    3  502    0 -0.49357728286E+03 -0.10594960675E+04  0.18806867885E+04  0.22143069655E+04  0.46999998093E+01 0.  1.
       -5    1    3    3    0  502  0.49357728286E+03  0.10594960675E+04 -0.72211813347E+03  0.13739094365E+04  0.46999998093E+01 0. -1.
</event>
<event>
 5   0  0.1573625E-08  0.3396327E+04  0.7818609E-02  0.8138808E-01
        4   -1    0    0  501    0  0.00000000000E+00  0.00000000000E+00  0.23988203322E+04  0.23988206684E+04  0.12699999809E+01 0. -1.
       -4   -1    0    0    0  501  0.00000000000E+00  0.00000000000E+00 -0.12021562779E+04  0.12021569487E+04  0.12699999809E+01 0.  1.
    10030    2    1    2    0    0  0.00000000000E+00  0.00000000000E+00  0.11966640544E+04  0.36009776171E+04  0.33963266834E+04 0.  0.
        4    1    3    3  502    0 -0.54257983645E+03 -0.26534132691E+03 -0.10844251329E+04  0.12412809434E+04  0.12699999809E+01 0.  1.
       -4    1    3    3    0  502  0.54257983645E+03  0.26534132691E+03  0.22810891873E+04  0.23596966737E+04  0.12699999809E+01 0. -1.
</event>
<event>
 5   0  0.1630571E-08  0.3400393E+04  0.7818609E-02  0.8137810E-01
        1   -1    0    0  501    0  0.00000000000E+00  0.00000000000E+00  0.15315357950E+04  0.15315357950E+04  0.50400001928E-02 0. -1.
       -1   -1    0    0    0  501  0.00000000000E+00  0.00000000000E+00 -0.18874305369E+04  0.18874305369E+04  0.50400001928E-02 0.  1.
    10030    2    1    2    0    0  0.00000000000E+00  0.00000000000E+00 -0.35589474192E+03  0.34189663319E+04  0.34003925820E+04 0.  0.
        3    1    3    3  502    0 -0.77013707145E+02 -0.14466684651E+04 -0.10726882443E+04  0.18026205476E+04  0.10100000352E+00 0. -1.
       -3    1    3    3    0  502  0.77013707145E+02  0.14466684651E+04  0.71679350243E+03  0.16163457843E+04  0.10100000352E+00 0.  1.
</event>
<event>
 5   0  0.4775023E-08  0.3397914E+04  0.7818609E-02  0.8138418E-01
       -2   -1    0    0    0  501  0.00000000000E+00  0.00000000000E+00  0.20483988101E+04  0.20483988101E+04  0.25500000920E-02 0.  1.
        2   -1    0    0  501    0  0.00000000000E+00  0.00000000000E+00 -0.14091273507E+04  0.14091273507E+04  0.25500000920E-02 0. -1.
    10030    2    1    2    0    0  0.00000000000E+00  0.00000000000E+00  0.63927145942E+03  0.34575261608E+04  0.33979139415E+04 0.  0.
        4    1    3    3  502    0  0.58753970495E+03  0.12192790767E+04 -0.72532217524E+03  0.15355579581E+04  0.12699999809E+01 0. -1.
       -4    1    3    3    0  502 -0.58753970495E+03 -0.12192790767E+04  0.13645936347E+04  0.19219682028E+04  0.12699999809E+01 0.  1.
</event>
<event>
 5   0  0.1630571E-08  0.3399822E+04  0.7818609E-02  0.8137950E-01
        1   -1    0    0  501    0  0.00000000000E+00  0.00000000000E+00  0.20263616657E+04  0.20263616657E+04  0.50400001928E-02 0. -1.
       -1   -1    0    0    0  501  0.00000000000E+00  0.00000000000E+00 -0.14260523091E+04  0.14260523091E+04  0.50400001928E-02 0.  1.
    10030    2    1    2    0    0  0.00000000000E+00  0.00000000000E+00  0.60030935658E+03  0.34524139748E+04  0.33998221909E+04 0.  0.
        3    1    3    3  502    0 -0.31300915796E+03 -0.16005499588E+04  0.78711712770E+03  0.18108805280E+04  0.10100000352E+00 0. -1.
       -3    1    3    3    0  502  0.31300915796E+03  0.16005499588E+04 -0.18680777112E+03  0.16415334469E+04  0.10100000352E+00 0.  1.
</event>
<event>
 5   0  0.1595851E-08  0.3377905E+04  0.7818609E-02  0.8143351E-01
       -1   -1    0    0    0  501  0.00000000000E+00  0.00000000000E+00  0.13119404697E+04  0.13119404697E+04  0.50400001928E-02 0. -1.
        1   -1    0    0  501    0  0.00000000000E+00  0.00000000000E+00 -0.21743059283E+04  0.21743059283E+04  0.50400001928E-02 0.  1.
    10030    2    1    2    0    0  0.00000000000E+00  0.00000000000E+00 -0.86236545860E+03  0.34862463980E+04  0.33779046410E+04 0.  0.
        2    1    3    3  502    0  0.16444722727E+04  0.24122820276E+03 -0.74094212952E+03  0.18197459551E+04  0.25500000920E-02 0.  1.
       -2    1    3    3    0  502 -0.16444722727E+04 -0.24122820276E+03 -0.12142332908E+03  0.16665004430E+04  0.25500000920E-02 0. -1.
</event>
<event>
 5   0  0.1645631E-08  0.3401300E+04  0.7818609E-02  0.8137587E-01
        1   -1    0    0  501    0  0.00000000000E+00  0.00000000000E+00  0.26677300367E+04  0.26677300367E+04  0.50400001928E-02 0.  1.
       -1   -1    0    0    0  501  0.00000000000E+00  0.00000000000E+00 -0.10841463491E+04  0.10841463491E+04  0.50400001928E-02 0. -1.
    10030    2    1    2    0    0  0.00000000000E+00  0.00000000000E+00  0.15835836876E+04  0.37518763858E+04  0.34012996220E+04 0.  0.
        4    1    3    3  502    0  0.14578896139E+04  0.46389474896E+03  0.16110165554E+04  0.22217147475E+04  0.12699999809E+01 0.  1.
       -4    1    3    3    0  502 -0.14578896139E+04 -0.46389474896E+03 -0.27432867814E+02  0.15301616383E+04  0.12699999809E+01 0. -1.
</event>
<event>
 5   0  0.4775023E-08  0.3400850E+04  0.7818609E-02  0.8137698E-01
        2   -1    0    0  501    0  0.00000000000E+00  0.00000000000E+00  0.21060685931E+04  0.21060685931E+04  0.25500000920E-02 0.  1.
       -2   -1    0    0    0  501  0.00000000000E+00  0.00000000000E+00 -0.13729114561E+04  0.13729114561E+04  0.25500000920E-02 0. -1.
    10030    2    1    2    0    0  0.00000000000E+00  0.00000000000E+00  0.73315713698E+03  0.34789800492E+04  0.34008503048E+04 0.  0.
        4    1    3    3  502    0 -0.72294458229E+03  0.97697759942E+03 -0.84999037687E+03  0.14831113756E+04  0.12699999809E+01 0. -1.
       -4    1    3    3    0  502  0.72294458229E+03 -0.97697759942E+03  0.15831475139E+04  0.19958686736E+04  0.12699999809E+01 0.  1.
</event>
<event>
 5   0  0.1579536E-08  0.3403227E+04  0.7818609E-02  0.8137115E-01
       -1   -1    0    0    0  501  0.00000000000E+00  0.00000000000E+00  0.11815886550E+04  0.11815886550E+04  0.50400001928E-02 0.  1.
        1   -1    0    0  501    0  0.00000000000E+00  0.00000000000E+00 -0.24505046262E+04  0.24505046262E+04  0.50400001928E-02 0. -1.
    10030    2    1    2    0    0  0.00000000000E+00  0.00000000000E+00 -0.12689159713E+04  0.36320932812E+04  0.34032269776E+04 0.  0.
        5    1    3    3  502    0  0.10732800554E+04  0.10779284226E+04 -0.14483761611E+04  0.21003988563E+04  0.46999998093E+01 0. -1.
       -5    1    3    3    0  502 -0.10732800554E+04 -0.10779284226E+04  0.17946018987E+03  0.15316944249E+04  0.46999998093E+01 0.  1.
</event>
<event>
 5   0  0.1579536E-08  0.3401625E+04  0.7818609E-02  0.8137508E-01
       -1   -1    0    0    0  501  0.00000000000E+00  0.00000000000E+00  0.15202513925E+04  0.15202513925E+04  0.50400001928E-02 0. -1.
        1   -1    0    0  501    0  0.00000000000E+00  0.00000000000E+00 -0.19028190129E+04  0.19028190129E+04  0.50400001928E-02 0.  1.
    10030    2    1    2    0    0  0.00000000000E+00  0.00000000000E+00 -0.38256762048E+03  0.34230704054E+04  0.34016250552E+04 0.  0.
        5    1    3    3  502    0 -0.17473139487E+03 -0.62873133326E+03  0.13892572401E+04  0.15348915007E+04  0.46999998093E+01 0. -1.
       -5    1    3    3    0  502  0.17473139487E+03  0.62873133326E+03 -0.17718248605E+04  0.18881789047E+04  0.46999998093E+01 0.  1.
</event>
<event>
 5   0  0.1579536E-08  0.3396732E+04  0.7818609E-02  0.8138709E-01
        1   -1    0    0  501    0  0.00000000000E+00  0.00000000000E+00  0.23681822512E+04  0.23681822512E+04  0.50400001928E-02 0.  1.
       -1   -1    0    0    0  501  0.00000000000E+00  0.00000000000E+00 -0.12180005722E+04  0.12180005722E+04  0.50400001928E-02 0. -1.
    10030    2    1    2    0    0  0.00000000000E+00  0.00000000000E+00  0.11501816790E+04  0.35861828234E+04  0.33967321573E+04 0.  0.
        5    1    3    3  502    0 -0.59716239453E+03  0.27419806748E+03  0.22285285054E+04  0.23233916792E+04  0.46999998093E+01 0.  1.
       -5    1    3    3    0  502  0.59716239453E+03 -0.27419806748E+03 -0.10783468265E+04  0.12627911442E+04  0.46999998093E+01 0. -1.
</event>
<event>
 5   0  0.5001197E-08  0.3400382E+04  0.7818609E-02  0.8137812E-01
        2   -1    0    0  501    0  0.00000000000E+00  0.00000000000E+00  0.20496274847E+04  0.20496274847E+04  0.25500000920E-02 0.  1.
       -2   -1    0    0    0  501  0.00000000000E+00  0.00000000000E+00 -0.14103294548E+04  0.14103294548E+04  0.25500000920E-02 0. -1.
    10030    2    1    2    0    0  0.00000000000E+00  0.00000000000E+00  0.63929802992E+03  0.34599569395E+04  0.34003823392E+04 0.  0.
        5    1    3    3  502    0  0.15896903786E+04 -0.29143989389E+03 -0.21740031195E+03  0.16307475884E+04  0.46999998093E+01 0. -1.
       -5    1    3    3    0  502 -0.15896903786E+04  0.29143989389E+03  0.85669834187E+03  0.18292093512E+04  0.46999998093E+01 0.  1.
</event>
<event>
 5   0  0.4973409E-08  0.3395218E+04  0.7818609E-02  0.8139081E-01
        2   -1    0    0  501    0  0.00000000000E+00  0.00000000000E+00  0.25408204318E+04  0.25408204318E+04  0.25500000920E-02 0. -1.
       -2   -1    0    0    0  501  0.00000000000E+00  0.00000000000E+00 -0.11342304871E+04  0.11342304872E+04  0.25500000920E-02 0.  1.
    10030    2    1    2    0    0  0.00000000000E+00  0.00000000000E+00  0.14065899446E+04  0.36750509189E+04  0.33952178110E+04 0.  0.
        1    1    3    3  502    0 -0.70535787765E+03 -0.11153427008E+04 -0.45259400288E+03  0.13951202124E+04  0.50400001928E-02 0.  1.
       -1    1    3    3    0  502  0.70535787765E+03  0.11153427008E+04  0.18591839475E+04  0.22799307065E+04  0.50400001928E-02 0. -1.
</event>
<event>
 5   0  0.1595851E-08  0.3402313E+04  0.7818609E-02  0.8137339E-01
        1   -1    0    0  501    0  0.00000000000E+00  0.00000000000E+00  0.16102263998E+04  0.16102263998E+04  0.50400001928E-02 0. -1.
       -1   -1    0    0    0  501  0.00000000000E+00  0.00000000000E+00 -0.17972218201E+04  0.17972218201E+04  0.50400001928E-02 0.  1.
    10030    2    1    2    0    0  0.00000000000E+00  0.00000000000E+00 -0.18699542028E+03  0.34074482199E+04  0.34023133430E+04 0.  0.
        2    1    3    3  502    0 -0.60031316841E+03 -0.86476012479E+03  0.12448379457E+04  0.16302783458E+04  0.25500000920E-02 0. -1.
       -2    1    3    3    0  502  0.60031316841E+03  0.86476012479E+03 -0.14318333660E+04  0.17771698741E+04  0.25500000920E-02 0.  1.
</event>
<event>
 5   0  0.5001197E-08  0.3401264E+04  0.7818609E-02  0.8137596E-01
       -2   -1    0    0    0  501  0.00000000000E+00  0.00000000000E+00  0.13872000509E+04  0.13872000509E+04  0.25500000920E-02 0.  1.
        2   -1    0    0  501    0  0.00000000000E+00  0.00000000000E+00 -0.20848827822E+04  0.20848827822E+04  0.25500000920E-02 0. -1.
    10030    2    1    2    0    0  0.00000000000E+00  0.00000000000E+00 -0.69768273122E+03  0.34720828331E+04  0.34012641777E+04 0.  0.
        5    1    3    3  502    0 -0.10173272150E+04 -0.11171120973E+04 -0.11456270693E+04  0.18961480882E+04  0.46999998093E+01 0. -1.
       -5    1    3    3    0  502  0.10173272150E+04  0.11171120973E+04  0.44794433813E+03  0.15759347449E+04  0.46999998093E+01 0.  1.
</event>
<event>
 5   0  0.4973409E-08  0.3399654E+04  0.7818609E-02  0.8137991E-01
       -2   -1    0    0    0  501  0.00000000000E+00  0.00000000000E+00  0.95076344042E+03  0.95076344042E+03  0.25500000920E-02 0. -1.
        2   -1    0    0  501    0  0.00000000000E+00  0.00000000000E+00 -0.30390441330E+04  0.30390441330E+04  0.25500000920E-02 0.  1.
    10030    2    1    2    0    0  0.00000000000E+00  0.00000000000E+00 -0.20882806926E+04  0.39898075734E+04  0.33996541327E+04 0.  0.
        1    1    3    3  502    0 -0.25187811686E+03 -0.16729726258E+04 -0.85082843061E+03  0.18937235835E+04  0.50400001928E-02 0. -1.
       -1    1    3    3    0  502  0.25187811686E+03  0.16729726258E+04 -0.12374522620E+04  0.20960839900E+04  0.50400001928E-02 0.  1.
</event>
<event>
 5   0  0.4973409E-08  0.3399914E+04  0.7818609E-02  0.8137927E-01
       -2   -1    0    0    0  501  0.00000000000E+00  0.00000000000E+00  0.30250844026E+04  0.30250844026E+04  0.25500000920E-02 0.  1.
        2   -1    0    0  501    0  0.00000000000E+00  0.00000000000E+00 -0.95529709888E+03  0.95529709888E+03  0.25500000920E-02 0. -1.
    10030    2    1    2    0    0  0.00000000000E+00  0.00000000000E+00  0.20697873038E+04  0.39803815015E+04  0.33999143246E+04 0.  0.
        1    1    3    3  502    0 -0.18985787516E+03  0.11765822228E+04 -0.38428149343E+03  0.12522236246E+04  0.50400001928E-02 0. -1.
       -1    1    3    3    0  502  0.18985787516E+03 -0.11765822228E+04  0.24540687972E+04  0.27281578769E+04  0.50400001928E-02 0.  1.
</event>
<event>
 5   0  0.4946315E-08  0.3398804E+04  0.7818609E-02  0.8138200E-01
       -2   -1    0    0    0  501  0.00000000000E+00  0.00000000000E+00  0.14851431569E+04  0.14851431569E+04  0.25500000920E-02 0.  1.
        2   -1    0    0  501    0  0.00000000000E+00  0.00000000000E+00 -0.19445718188E+04  0.19445718188E+04  0.25500000920E-02 0. -1.
    10030    2    1    2    0    0  0.00000000000E+00  0.00000000000E+00 -0.45942866190E+03  0.34297149758E+04  0.33988042191E+04 0.  0.
        3    1    3    3  502    0  0.12081358279E+04 -0.50847155889E+03  0.86171000292E+03  0.15686553618E+04  0.10100000352E+00 0.  1.
       -3    1    3    3    0  502 -0.12081358279E+04  0.50847155889E+03 -0.13211386648E+04  0.18610596140E+04  0.10100000352E+00 0. -1.
</event>
<event>
 5   0  0.1645631E-08  0.3400312E+04  0.7818609E-02  0.8137830E-01
        1   -1    0    0  501    0  0.00000000000E+00  0.00000000000E+00  0.16169620591E+04  0.16169620591E+04  0.50400001928E-02 0. -1.
       -1   -1    0    0    0  501  0.00000000000E+00  0.00000000000E+00 -0.17876303541E+04  0.17876303541E+04  0.50400001928E-02 0.  1.
    10030    2    1    2    0    0  0.00000000000E+00  0.00000000000E+00 -0.17066829495E+03  0.34045924132E+04  0.34003120200E+04 0.  0.
        4    1    3    3  502    0  0.14523841730E+04  0.53834169889E+03  0.61647420696E+03  0.16671153624E+04  0.12699999809E+01 0. -1.
       -4    1    3    3    0  502 -0.14523841730E+04 -0.53834169889E+03 -0.78714250190E+03  0.17374770508E+04  0.12699999809E+01 0.  1.
</event>
<event>
 5   0  0.1645631E-08  0.3398532E+04  0.7818609E-02  0.8138267E-01
        1   -1    0    0  501    0  0.00000000000E+00  0.00000000000E+00  0.18369164920E+04  0.18369164920E+04  0.50400001928E-02 0.  1.
       -1   -1    0    0    0  501  0.00000000000E+00  0.00000000000E+00 -0.15719301219E+04  0.15719301219E+04  0.50400001928E-02 0. -1.
    10030    2    1    2    0    0  0.00000000000E+00  0.00000000000E+00  0.26498637018E+03  0.34088466139E+04  0.33985316625E+04 0.  0.
        4    1    3    3  502    0 -0.15987204887E+04  0.57584295683E+03  0.13182747678E+03  0.17043715582E+04  0.12699999809E+01 0.  1.
       -4    1    3    3    0  502  0.15987204887E+04 -0.57584295683E+03  0.13315889339E+03  0.17044750557E+04  0.12699999809E+01 0. -1.
</event>
<event>
 5   0  0.1625282E-08  0.3397517E+04  0.7818609E-02  0.8138516E-01
        1   -1    0    0  501    0  0.00000000000E+00  0.00000000000E+00  0.18063961749E+04  0.18063961749E+04  0.50400001928E-02 0.  1.
       -1   -1    0    0    0  501  0.00000000000E+00  0.00000000000E+00 -0.15975346140E+04  0.15975346140E+04  0.50400001928E-02 0. -1.
    10030    2    1    2    0    0  0.00000000000E+00  0.00000000000E+00  0.20886156089E+03  0.34039307890E+04  0.33975169851E+04 0.  0.
        1    1    3    3  502    0  0.11519018753E+04 -0.12126551826E+04 -0.19340114658E+03  0.16836907452E+04  0.50400001928E-02 0. -1.
       -1    1    3    3    0  502 -0.11519018753E+04  0.12126551826E+04  0.40226270747E+03  0.17202400437E+04  0.50400001928E-02 0.  1.
</event>
<event>
 5   0  0.5001197E-08  0.3394070E+04  0.7818609E-02  0.8139363E-01
       -2   -1    0    0    0  501  0.00000000000E+00  0.00000000000E+00  0.19040898696E+04  0.19040898696E+04  0.25500000920E-02 0. -1.
        2   -1    0    0  501    0  0.00000000000E+00  0.00000000000E+00 -0.15124954926E+04  0.15124954926E+04  0.25500000920E-02 0.  1.
    10030    2    1    2    0    0  0.00000000000E+00  0.00000000000E+00  0.39159437700E+03  0.34165853622E+04  0.33940697372E+04 0.  0.
        5    1    3    3  502    0 -0.14966101404E+04  0.65114917808E+03  0.66371204215E+03  0.17619230770E+04  0.46999998093E+01 0.  1.
       -5    1    3    3    0  502  0.14966101404E+04 -0.65114917808E+03 -0.27211766515E+03  0.16546622852E+04  0.46999998093E+01 0. -1.
</event>
<event>
 5   0  0.1625282E-08  0.3395165E+04  0.7818609E-02  0.8139094E-01
        1   -1    0    0  501    0  0.00000000000E+00  0.00000000000E+00  0.20276312949E+04  0.20276312949E+04  0.50400001928E-02 0. -1.
       -1   -1    0    0    0  501  0.00000000000E+00  0.00000000000E+00 -0.14212575857E+04  0.14212575858E+04  0.50400001928E-02 0.  1.
    10030    2    1    2    0    0  0.00000000000E+00  0.00000000000E+00  0.60637370915E+03  0.34488888807E+04  0.33951650087E+04 0.  0.
        1    1    3    3  502    0  0.12116428299E+04 -0.11855232038E+04  0.21096066814E+03  0.17082294979E+04  0.50400001928E-02 0. -1.
       -1    1    3    3    0  502 -0.12116428299E+04  0.11855232038E+04  0.39541304101E+03  0.17406593828E+04  0.50400001928E-02 0.  1.
</event>
<event>
 5   0  0.5001197E-08  0.3399640E+04  0.7818609E-02  0.8137995E-01
        2   -1    0    0  501    0  0.00000000000E+00  0.00000000000E+00  0.21817142092E+04  0.21817142092E+04  0.25500000920E-02 0.  1.
       -2   -1    0    0    0  501  0.00000000000E+00  0.00000000000E+00 -0.13243662316E+04  0.13243662316E+04  0.25500000920E-02 0. -1.
    10030    2    1    2    0    0  0.00000000000E+00  0.00000000000E+00  0.85734797759E+03  0.35060804408E+04  0.33996403490E+04 0.  0.
        5    1    3    3  502    0 -0.18704212126E+03  0.95770551224E+03  0.18640778358E+04  0.21040420317E+04  0.46999998093E+01 0.  1.
       -5    1    3    3    0  502  0.18704212126E+03 -0.95770551224E+03 -0.10067298582E+04  0.14020384091E+04  0.46999998093E+01 0. -1.
</event>
<event>
 5   0  0.4973409E-08  0.3395654E+04  0.7818609E-02  0.8138974E-01
       -2   -1    0    0    0  501  0.00000000000E+00  0.00000000000E+00  0.13631964424E+04  0.13631964424E+04  0.25500000920E-02 0.  1.
        2   -1    0    0  501    0  0.00000000000E+00  0.00000000000E+00 -0.21146007086E+04  0.21146007086E+04  0.25500000920E-02 0. -1.
    10030    2    1    2    0    0  0.00000000000E+00  0.00000000000E+00 -0.75140426619E+03  0.34777971510E+04  0.33956537886E+04 0.  0.
        1    1    3    3  502    0  0.67873911671E+03 -0.12936221292E+04 -0.12617728392E+04  0.19303408247E+04  0.50400001928E-02 0. -1.
       -1    1    3    3    0  502 -0.67873911671E+03  0.12936221292E+04  0.51036857300E+03  0.15474563263E+04  0.50400001928E-02 0.  1.
</event>
<event>
 5   0  0.4775023E-08  0.3401232E+04  0.7818609E-02  0.8137604E-01
        2   -1    0    0  501    0  0.00000000000E+00  0.00000000000E+00  0.22154094051E+04  0.22154094051E+04  0.25500000920E-02 0. -1.
       -2   -1    0    0    0  501  0.00000000000E+00  0.00000000000E+00 -0.13054450786E+04  0.13054450786E+04  0.25500000920E-02 0.  1.
    10030    2    1    2    0    0  0.00000000000E+00  0.00000000000E+00  0.90996432652E+03  0.35208544836E+04  0.34012323089E+04 0.  0.
        4    1    3    3  502    0 -0.52763320203E+03  0.72516357939E+03 -0.10407706686E+04  0.13738501411E+04  0.12699999809E+01 0.  1.
       -4    1    3    3    0  502  0.52763320203E+03 -0.72516357939E+03  0.19507349951E+04  0.21470043425E+04  0.12699999809E+01 0. -1.
</event>
<event>
 5   0  0.5001197E-08  0.3398199E+04  0.7818609E-02  0.8138349E-01
       -2   -1    0    0    0  501  0.00000000000E+00  0.00000000000E+00  0.23712872028E+04  0.23712872028E+04  0.25500000920E-02 0.  1.
        2   -1    0    0  501    0  0.00000000000E+00  0.00000000000E+00 -0.12174564168E+04  0.12174564168E+04  0.25500000920E-02 0. -1.
    10030    2    1    2    0    0  0.00000000000E+00  0.00000000000E+00  0.11538307860E+04  0.35887436196E+04  0.33981988294E+04 0.  0.
        5    1    3    3  502    0  0.10619447081E+04 -0.13786633977E+03  0.19700436889E+04  0.22422818549E+04  0.46999998093E+01 0.  1.
       -5    1    3    3    0  502 -0.10619447081E+04  0.13786633977E+03 -0.81621290292E+03  0.13464617647E+04  0.46999998093E+01 0. -1.
</event>
<event>
 5   0  0.1645631E-08  0.3392264E+04  0.7818609E-02  0.8139808E-01
        1   -1    0    0  501    0  0.00000000000E+00  0.00000000000E+00  0.19935494995E+04  0.19935494995E+04  0.50400001928E-02 0. -1.
       -1   -1    0    0    0  501  0.00000000000E+00  0.00000000000E+00 -0.14430859313E+04  0.14430859313E+04  0.50400001928E-02 0.  1.
    10030    2    1    2    0    0  0.00000000000E+00  0.00000000000E+00  0.55046356825E+03  0.34366354308E+04  0.33922636903E+04 0.  0.
        4    1    3    3  502    0 -0.16594189050E+04  0.24109048001E+03  0.16815078713E+02  0.16769257829E+04  0.12699999809E+01 0.  1.
       -4    1    3    3    0  502  0.16594189050E+04 -0.24109048001E+03  0.53364848953E+03  0.17597096479E+04  0.12699999809E+01 0. -1.
</event>
<event>
 5   0  0.4973409E-08  0.3399996E+04  0.7818609E-02  0.8137907E-01
        2   -1    0    0  501    0  0.00000000000E+00  0.00000000000E+00  0.12884588721E+04  0.12884588721E+04  0.25500000920E-02 0.  1.
       -2   -1    0    0    0  501  0.00000000000E+00  0.00000000000E+00 -0.22429840357E+04  0.22429840357E+04  0.25500000920E-02 0. -1.
    10030    2    1    2    0    0  0.00000000000E+00  0.00000000000E+00 -0.95452516356E+03  0.35314429078E+04  0.33999956945E+04 0.  0.
        1    1    3    3  502    0 -0.68660946455E+03 -0.15547430245E+04 -0.43932298686E+03  0.17554666376E+04  0.50400001928E-02 0.  1.
       -1    1    3    3    0  502  0.68660946455E+03  0.15547430245E+04 -0.51520217670E+03  0.17759762701E+04  0.50400001928E-02 0. -1.
</event>
<event>
 5   0  0.1645631E-08  0.3400592E+04  0.7818609E-02  0.8137761E-01
       -1   -1    0    0    0  501  0.00000000000E+00  0.00000000000E+00  0.14867927584E+04  0.14867927585E+04  0.50400001928E-02 0. -1.
        1   -1    0    0  501    0  0.00000000000E+00  0.00000000000E+00 -0.19444583697E+04  0.19444583697E+04  0.50400001928E-02 0.  1.
    10030    2    1    2    0    0  0.00000000000E+00  0.00000000000E+00 -0.45766561125E+03  0.34312511282E+04  0.34005920797E+04 0.  0.
        4    1    3    3  502    0  0.11749779452E+04  0.59904763120E+03  0.85395622759E+03  0.15712014790E+04  0.12699999809E+01 0. -1.
       -4    1    3    3    0  502 -0.11749779452E+04 -0.59904763120E+03 -0.13116218388E+04  0.18600496491E+04  0.12699999809E+01 0.  1.
</event>
<event>
 5   0  0.1595851E-08  0.3401155E+04  0.7818609E-02  0.8137623E-01
        1   -1    0    0  501    0  0.00000000000E+00  0.00000000000E+00  0.19228995290E+04  0.19228995290E+04  0.50400001928E-02 0. -1.
       -1   -1    0    0    0  501  0.00000000000E+00  0.00000000000E+00 -0.15039603339E+04  0.15039603339E+04  0.50400001928E-02 0.  1.
    10030    2    1    2    0    0  0.00000000000E+00  0.00000000000E+00  0.41893919516E+03  0.34268598629E+04  0.34011554612E+04 0.  0.
        2    1    3    3  502    0 -0.58843530397E+03 -0.13016574709E+04 -0.72021524608E+03  0.15997744464E+04  0.25500000920E-02 0.  1.
       -2    1    3    3    0  502  0.58843530397E+03  0.13016574709E+04  0.11391544412E+04  0.18270854166E+04  0.25500000920E-02 0. -1.
</event>
<event>
 5   0  0.1595851E-08  0.3400535E+04  0.7818609E-02  0.8137775E-01
        1   -1    0    0  501    0  0.00000000000E+00  0.00000000000E+00  0.13673866961E+04  0.13673866961E+04  0.50400001928E-02 0.  1.
       -1   -1    0    0    0  501  0.00000000000E+00  0.00000000000E+00 -0.21141862665E+04  0.21141862665E+04  0.50400001928E-02 0. -1.
    10030    2    1    2    0    0  0.00000000000E+00  0.00000000000E+00 -0.74679957036E+03  0.34815729626E+04  0.34005353543E+04 0.  0.
        2    1    3    3  502    0  0.84596558092E+03 -0.46002490373E+03 -0.18080894850E+04  0.20485283161E+04  0.25500000920E-02 0. -1.
       -2    1    3    3    0  502 -0.84596558092E+03  0.46002490373E+03  0.10612899146E+04  0.14330446465E+04  0.25500000920E-02 0.  1.
</event>
<event>
 5   0  0.1625282E-08  0.3400756E+04  0.7818609E-02  0.8137721E-01
       -1   -1    0    0    0  501  0.00000000000E+00  0.00000000000E+00  0.12333077563E+04  0.12333077563E+04  0.50400001928E-02 0.  1.
        1   -1    0    0  501    0  0.00000000000E+00  0.00000000000E+00 -0.23443346749E+04  0.23443346749E+04  0.50400001928E-02 0. -1.
    10030    2    1    2    0    0  0.00000000000E+00  0.00000000000E+00 -0.11110269186E+04  0.35776424312E+04  0.34007564675E+04 0.  0.
        1    1    3    3  502    0  0.50625241800E+03 -0.15964245811E+04 -0.24624435862E+03  0.16927785555E+04  0.50400001928E-02 0.  1.
       -1    1    3    3    0  502 -0.50625241800E+03  0.15964245811E+04 -0.86478256002E+03  0.18848638757E+04  0.50400001928E-02 0. -1.
</event>
<event>
 5   0  0.1645631E-08  0.3399926E+04  0.7818609E-02  0.8137924E-01
       -1   -1    0    0    0  501  0.00000000000E+00  0.00000000000E+00  0.15554726046E+04  0.15554726046E+04  0.50400001928E-02 0.  1.
        1   -1    0    0  501    0  0.00000000000E+00  0.00000000000E+00 -0.18578755379E+04  0.18578755379E+04  0.50400001928E-02 0. -1.
    10030    2    1    2    0    0  0.00000000000E+00  0.00000000000E+00 -0.30240293325E+03  0.34133481425E+04  0.33999261768E+04 0.  0.
        4    1    3    3  502    0 -0.34051197828E+02 -0.16931515817E+04 -0.29994548258E+03  0.17198519321E+04  0.12699999809E+01 0.  1.
       -4    1    3    3    0  502  0.34051197828E+02  0.16931515817E+04 -0.24574506623E+01  0.16934962104E+04  0.12699999809E+01 0. -1.
</event>
<event>
 5   0  0.4775023E-08  0.3399621E+04  0.7818609E-02  0.8137999E-01
       -2   -1    0    0    0  501  0.00000000000E+00  0.00000000000E+00  0.99438944184E+03  0.99438944184E+03  0.25500000920E-02 0.  1.
        2   -1    0    0  501    0  0.00000000000E+00  0.00000000000E+00 -0.29056581710E+04  0.29056581710E+04  0.25500000920E-02 0. -1.
    10030    2    1    2    0    0  0.00000000000E+00  0.00000000000E+00 -0.19112687292E+04  0.39000476129E+04  0.33996210418E+04 0.  0.
        4    1    3    3  502    0  0.16597824509E+04 -0.25216961376E+03 -0.65019684886E+03  0.18003402050E+04  0.12699999809E+01 0. -1.
       -4    1    3    3    0  502 -0.16597824509E+04  0.25216961376E+03 -0.12610718803E+04  0.20997074079E+04  0.12699999809E+01 0.  1.
</event>
<event>
 5   0  0.4764953E-08  0.3400972E+04  0.7818609E-02  0.8137668E-01
        2   -1    0    0  501    0  0.00000000000E+00  0.00000000000E+00  0.15928925901E+04  0.15928925901E+04  0.25500000920E-02 0.  1.
       -2   -1    0    0    0  501  0.00000000000E+00  0.00000000000E+00 -0.18153472740E+04  0.18153472740E+04  0.25500000920E-02 0. -1.
    10030    2    1    2    0    0  0.00000000000E+00  0.00000000000E+00 -0.22245468387E+03  0.34082398641E+04  0.34009723440E+04 0.  0.
        2    1    3    3  502    0 -0.39146282411E+03  0.12327948515E+04 -0.12175006591E+04  0.17763260240E+04  0.25500000920E-02 0. -1.
       -2    1    3    3    0  502  0.39146282411E+03 -0.12327948515E+04  0.99504597527E+03  0.16319138401E+04  0.25500000920E-02 0.  1.
</event>
<event>
 5   0  0.1579536E-08  0.3399998E+04  0.7818609E-02  0.8137907E-01
        1   -1    0    0  501    0  0.00000000000E+00  0.00000000000E+00  0.10856422793E+04  0.10856422793E+04  0.50400001928E-02 0.  1.
       -1   -1    0    0    0  501  0.00000000000E+00  0.00000000000E+00 -0.26620150684E+04  0.26620150684E+04  0.50400001928E-02 0. -1.
    10030    2    1    2    0    0  0.00000000000E+00  0.00000000000E+00 -0.15763727891E+04  0.37476573477E+04  0.33999977096E+04 0.  0.
        5    1    3    3  502    0  0.15534031602E+03  0.16562759250E+04 -0.40225073560E+03  0.17114930026E+04  0.46999998093E+01 0.  1.
       -5    1    3    3    0  502 -0.15534031602E+03 -0.16562759250E+04 -0.11741220535E+04  0.20361643451E+04  0.46999998093E+01 0. -1.
</event>
<event>
 5   0  0.4764953E-08  0.3399599E+04  0.7818609E-02  0.8138005E-01
        2   -1    0    0  501    0  0.00000000000E+00  0.00000000000E+00  0.16976859915E+04  0.16976859915E+04  0.25500000920E-02 0. -1.
       -2   -1    0    0    0  501  0.00000000000E+00  0.00000000000E+00 -0.17019153227E+04  0.17019153227E+04  0.25500000920E-02 0.  1.
    10030    2    1    2    0    0  0.00000000000E+00  0.00000000000E+00 -0.42293311599E+01  0.33996013141E+04  0.33995986834E+04 0.  0.
        2    1    3    3  502    0  0.16161011139E+04 -0.32083510423E+03  0.41573709955E+03  0.16992808216E+04  0.25500000920E-02 0.  1.
       -2    1    3    3    0  502 -0.16161011139E+04  0.32083510423E+03 -0.41996643071E+03  0.17003204926E+04  0.25500000920E-02 0. -1.
</event>
<event>
 5   0  0.1579536E-08  0.3399525E+04  0.7818609E-02  0.8138023E-01
       -1   -1    0    0    0  501  0.00000000000E+00  0.00000000000E+00  0.12022877423E+04  0.12022877423E+04  0.50400001928E-02 0.  1.
        1   -1    0    0  501    0  0.00000000000E+00  0.00000000000E+00 -0.24030784335E+04  0.24030784335E+04  0.50400001928E-02 0. -1.
    10030    2    1    2    0    0  0.00000000000E+00  0.00000000000E+00 -0.12007906912E+04  0.36053661758E+04  0.33995245223E+04 0.  0.
        5    1    3    3  502    0  0.63687976651E+03 -0.10097897553E+04  0.68277322338E+03  0.13753154371E+04  0.46999998093E+01 0.  1.
       -5    1    3    3    0  502 -0.63687976651E+03  0.10097897553E+04 -0.18835639146E+04  0.22300507387E+04  0.46999998093E+01 0. -1.
</event>
<event>
 5   0  0.4973409E-08  0.3400130E+04  0.7818609E-02  0.8137874E-01
        2   -1    0    0  501    0  0.00000000000E+00  0.00000000000E+00  0.19668142561E+04  0.19668142561E+04  0.25500000920E-02 0. -1.
       -2   -1    0    0    0  501  0.00000000000E+00  0.00000000000E+00 -0.14694935944E+04  0.14694935944E+04  0.25500000920E-02 0.  1.
    10030    2    1    2    0    0  0.00000000000E+00  0.00000000000E+00  0.49732066165E+03  0.34363078505E+04  0.34001299685E+04 0.  0.
        1    1    3    3  502    0  0.89635144950E+03 -0.10559021109E+04 -0.74765134247E+03  0.15739624261E+04  0.50400001928E-02 0.  1.
       -1    1    3    3    0  502 -0.89635144950E+03  0.10559021109E+04  0.12449720041E+04  0.18623454244E+04  0.50400001928E-02 0. -1.
</event>
<event>
 5   0  0.4775023E-08  0.3399018E+04  0.7818609E-02  0.8138147E-01
        2   -1    0    0  501    0  0.00000000000E+00  0.00000000000E+00  0.17045347416E+04  0.17045347416E+04  0.25500000920E-02 0. -1.
       -2   -1    0    0    0  501  0.00000000000E+00  0.00000000000E+00 -0.16944984261E+04  0.16944984261E+04  0.25500000920E-02 0.  1.
    10030    2    1    2    0    0  0.00000000000E+00  0.00000000000E+00  0.10036315537E+02  0.33990331677E+04  0.33990183506E+04 0.  0.
        4    1    3    3  502    0 -0.10772938106E+04 -0.66676695838E+03 -0.11277664115E+04  0.16961718141E+04  0.12699999809E+01 0.  1.
       -4    1    3    3    0  502  0.10772938106E+04  0.66676695838E+03  0.11378027270E+04  0.17028613536E+04  0.12699999809E+01 0. -1.
</event>
<event>
 5   0  0.1579536E-08  0.3398620E+04  0.7818609E-02  0.8138245E-01
        1   -1    0    0  501    0  0.00000000000E+00  0.00000000000E+00  0.20733906014E+04  0.20733906014E+04  0.50400001928E-02 0.  1.
       -1   -1    0    0    0  501  0.00000000000E+00  0.00000000000E+00 -0.13927205954E+04  0.13927205954E+04  0.50400001928E-02 0. -1.
    10030    2    1    2    0    0  0.00000000000E+00  0.00000000000E+00  0.68067000603E+03  0.34661111968E+04  0.33986195980E+04 0.  0.
        5    1    3    3  502    0  0.14783384662E+04  0.56722291185E+03 -0.28868315895E+03  0.16095299030E+04  0.46999998093E+01 0. -1.
       -5    1    3    3    0  502 -0.14783384662E+04 -0.56722291185E+03  0.96935316497E+03  0.18565812939E+04  0.46999998093E+01 0.  1.
</event>
<event>
 5   0  0.4775023E-08  0.3401441E+04  0.7818609E-02  0.8137553E-01
       -2   -1    0    0    0  501  0.00000000000E+00  0.00000000000E+00  0.11697348588E+04  0.11697348588E+04  0.25500000920E-02 0.  1.
        2   -1    0    0  501    0  0.00000000000E+00  0.00000000000E+00 -0.24727400430E+04  0.24727400430E+04  0.25500000920E-02 0. -1.
    10030    2    1    2    0    0  0.00000000000E+00  0.00000000000E+00 -0.13030051842E+04  0.36424749017E+04  0.34014410034E+04 0.  0.
        4    1    3    3  502    0 -0.59515909810E+03  0.78796852319E+03 -0.21343046377E+04  0.23516731587E+04  0.12699999809E+01 0. -1.
       -4    1    3    3    0  502  0.59515909810E+03 -0.78796852319E+03  0.83129945353E+03  0.12908017431E+04  0.12699999809E+01 0.  1.
</event>
<event>
 5   0  0.5001197E-08  0.3407329E+04  0.7818609E-02  0.8136110E-01
       -2   -1    0    0    0  501  0.00000000000E+00  0.00000000000E+00  0.13403339118E+04  0.13403339118E+04  0.25500000920E-02 0.  1.
        2   -1    0    0  501    0  0.00000000000E+00  0.00000000000E+00 -0.21654851953E+04  0.21654851953E+04  0.25500000920E-02 0. -1.
    10030    2    1    2    0    0  0.00000000000E+00  0.00000000000E+00 -0.82515128357E+03  0.35058191071E+04  0.34073293018E+04 0.  0.
        5    1    3    3  502    0 -0.28069833105E+02 -0.16554686058E+04  0.38204212698E+00  0.16557132772E+04  0.46999998093E+01 0.  1.
       -5    1    3    3    0  502  0.28069833105E+02  0.16554686058E+04 -0.82553332570E+03  0.18501058300E+04  0.46999998093E+01 0. -1.
</event>
<event>
 5   0  0.4973409E-08  0.3399917E+04  0.7818609E-02  0.8137927E-01
        2   -1    0    0  501    0  0.00000000000E+00  0.00000000000E+00  0.17767859278E+04  0.17767859279E+04  0.25500000920E-02 0. -1.
       -2   -1    0    0    0  501  0.00000000000E+00  0.00000000000E+00 -0.16264528038E+04  0.16264528038E+04  0.25500000920E-02 0.  1.
    10030    2    1    2    0    0  0.00000000000E+00  0.00000000000E+00  0.15033312409E+03  0.34032387316E+04  0.33999167367E+04 0.  0.
        1    1    3    3  502    0 -0.15412009607E+04 -0.41481554266E+03  0.66096150814E+03  0.17274960061E+04  0.50400001928E-02 0. -1.
       -1    1    3    3    0  502  0.15412009607E+04  0.41481554266E+03 -0.51062838406E+03  0.16757427256E+04  0.50400001928E-02 0.  1.
</event>
<event>
 5   0  0.1645631E-08  0.3404813E+04  0.7818609E-02  0.8136726E-01
       -1   -1    0    0    0  501  0.00000000000E+00  0.00000000000E+00  0.11664566972E+04  0.11664566972E+04  0.50400001928E-02 0. -1.
        1   -1    0    0  501    0  0.00000000000E+00  0.00000000000E+00 -0.24846088385E+04  0.24846088386E+04  0.50400001928E-02 0.  1.
    10030    2    1    2    0    0  0.00000000000E+00  0.00000000000E+00 -0.13181521414E+04  0.36510655358E+04  0.34048134279E+04 0.  0.
        4    1    3    3  502    0  0.84449065408E+02  0.83251866036E+02  0.11620219004E+04  0.11680578015E+04  0.12699999809E+01 0. -1.
       -4    1    3    3    0  502 -0.84449065408E+02 -0.83251866036E+02 -0.24801740418E+04  0.24830077342E+04  0.12699999809E+01 0.  1.
</event>
<event>
 5   0  0.4973409E-08  0.3398059E+04  0.7818609E-02  0.8138383E-01
       -2   -1    0    0    0  501  0.00000000000E+00  0.00000000000E+00  0.11877066469E+04  0.11877066469E+04  0.25500000920E-02 0. -1.
        2   -1    0    0  501    0  0.00000000000E+00  0.00000000000E+00 -0.24304839454E+04  0.24304839454E+04  0.25500000920E-02 0.  1.
    10030    2    1    2    0    0  0.00000000000E+00  0.00000000000E+00 -0.12427772985E+04  0.36181905923E+04  0.33980594092E+04 0.  0.
        1    1    3    3  502    0  0.58058590206E+03  0.12289151579E+04  0.46416085028E+03  0.14362303959E+04  0.50400001928E-02 0. -1.
       -1    1    3    3    0  502 -0.58058590206E+03 -0.12289151579E+04 -0.17069381488E+04  0.21819601965E+04  0.50400001928E-02 0.  1.
</event>
<event>
 5   0  0.1595851E-08  0.3405515E+04  0.7818609E-02  0.8136554E-01
        1   -1    0    0  501    0  0.00000000000E+00  0.00000000000E+00  0.95528381650E+03  0.95528381651E+03  0.50400001928E-02 0. -1.
       -1   -1    0    0    0  501  0.00000000000E+00  0.00000000000E+00 -0.30351005246E+04  0.30351005246E+04  0.50400001928E-02 0.  1.
    10030    2    1    2    0    0  0.00000000000E+00  0.00000000000E+00 -0.20798167081E+04  0.39903843411E+04  0.34055145941E+04 0.  0.
        2    1    3    3  502    0 -0.43873121119E+03 -0.15740076235E+04 -0.16011193463E+04  0.22876993324E+04  0.25500000920E-02 0. -1.
       -2    1    3    3    0  502  0.43873121119E+03  0.15740076235E+04 -0.47869736181E+03  0.17026850087E+04  0.25500000920E-02 0.  1.
</event>
<event>
 5   0  0.4946315E-08  0.3400686E+04  0.7818609E-02  0.8137738E-01
        2   -1    0    0  501    0  0.00000000000E+00  0.00000000000E+00  0.17815217317E+04  0.17815217317E+04  0.25500000920E-02 0. -1.
       -2   -1    0    0    0  501  0.00000000000E+00  0.00000000000E+00 -0.16228628687E+04  0.16228628687E+04  0.25500000920E-02 0.  1.
    10030    2    1    2    0    0  0.00000000000E+00  0.00000000000E+00  0.15865886301E+03  0.34043846004E+04  0.34006855004E+04 0.  0.
        3    1    3    3  502    0 -0.16328341534E+04 -0.16209730534E+03  0.52561986300E+03  0.17229913405E+04  0.10100000352E+00 0.  1.
       -3    1    3    3    0  502  0.16328341534E+04  0.16209730534E+03 -0.36696099999E+03  0.16813932599E+04  0.10100000352E+00 0. -1.
</event>
<event>
 5   0  0.1645631E-08  0.3397508E+04  0.7818609E-02  0.8138518E-01
        1   -1    0    0  501    0  0.00000000000E+00  0.00000000000E+00  0.20559957815E+04  0.20559957815E+04  0.50400001928E-02 0.  1.
       -1   -1    0    0    0  501  0.00000000000E+00  0.00000000000E+00 -0.14035851483E+04  0.14035851483E+04  0.50400001928E-02 0. -1.
    10030    2    1    2    0    0  0.00000000000E+00  0.00000000000E+00  0.65241063327E+03  0.34595809298E+04  0.33975079949E+04 0.  0.
        4    1    3    3  502    0  0.27728839615E+02  0.27179613930E+02 -0.14031327556E+04  0.14036704609E+04  0.12699999809E+01 0. -1.
       -4    1    3    3    0  502 -0.27728839615E+02 -0.27179613930E+02  0.20555433889E+04  0.20559104690E+04  0.12699999809E+01 0.  1.
</event>
<event>
 5   0  0.1625282E-08  0.3401589E+04  0.7818609E-02  0.8137516E-01
       -1   -1    0    0    0  501  0.00000000000E+00  0.00000000000E+00  0.13186968514E+04  0.13186968514E+04  0.50400001928E-02 0. -1.
        1   -1    0    0  501    0  0.00000000000E+00  0.00000000000E+00 -0.21936068701E+04  0.21936068701E+04  0.50400001928E-02 0.  1.
    10030    2    1    2    0    0  0.00000000000E+00  0.00000000000E+00 -0.87491001868E+03  0.35123037215E+04  0.34015893184E+04 0.  0.
        1    1    3    3  502    0  0.63324111001E+03  0.14697941918E+04  0.15696728258E+03  0.16080820867E+04  0.50400001928E-02 0. -1.
       -1    1    3    3    0  502 -0.63324111001E+03 -0.14697941918E+04 -0.10318773013E+04  0.19042216348E+04  0.50400001928E-02 0.  1.
</event>
<event>
 5   0  0.4973409E-08  0.3391821E+04  0.7818609E-02  0.8139917E-01
        2   -1    0    0  501    0  0.00000000000E+00  0.00000000000E+00  0.18890333701E+04  0.18890333701E+04  0.25500000920E-02 0. -1.
       -2   -1    0    0    0  501  0.00000000000E+00  0.00000000000E+00 -0.15225315656E+04  0.15225315656E+04  0.25500000920E-02 0.  1.
    10030    2    1    2    0    0  0.00000000000E+00  0.00000000000E+00  0.36650180457E+03  0.34115649357E+04  0.33918213010E+04 0.  0.
        1    1    3    3  502    0 -0.13424543553E+04 -0.93145485886E+03  0.64012073711E+03  0.17548636438E+04  0.50400001928E-02 0. -1.
       -1    1    3    3    0  502  0.13424543553E+04  0.93145485886E+03 -0.27361893255E+03  0.16567012919E+04  0.50400001928E-02 0.  1.
</event>
<event>
 5   0  0.4775023E-08  0.3399333E+04  0.7818609E-02  0.8138070E-01
       -2   -1    0    0    0  501  0.00000000000E+00  0.00000000000E+00  0.18921571899E+04  0.18921571899E+04  0.25500000920E-02 0.  1.
        2   -1    0    0  501    0  0.00000000000E+00  0.00000000000E+00 -0.15267583740E+04  0.15267583740E+04  0.25500000920E-02 0. -1.
    10030    2    1    2    0    0  0.00000000000E+00  0.00000000000E+00  0.36539881592E+03  0.34189155639E+04  0.33993333668E+04 0.  0.
        4    1    3    3  502    0  0.20805580157E+03  0.43771604941E+03  0.18211888944E+04  0.18845724074E+04  0.12699999809E+01 0.  1.
       -4    1    3    3    0  502 -0.20805580157E+03 -0.43771604941E+03 -0.14557900785E+04  0.15343431566E+04  0.12699999809E+01 0. -1.
</event>
<event>
 5   0  0.1579536E-08  0.3400954E+04  0.7818609E-02  0.8137672E-01
        1   -1    0    0  501    0  0.00000000000E+00  0.00000000000E+00  0.29027253109E+04  0.29027253109E+04  0.50400001928E-02 0. -1.
       -1   -1    0    0    0  501  0.00000000000E+00  0.00000000000E+00 -0.99617462880E+03  0.99617462881E+03  0.50400001928E-02 0.  1.
    10030    2    1    2    0    0  0.00000000000E+00  0.00000000000E+00  0.19065506821E+04  0.38988999397E+04  0.34009535775E+04 0.  0.
        5    1    3    3  502    0  0.68597297553E+03  0.12718240414E+04  0.19809020449E+04  0.24519564264E+04  0.46999998093E+01 0. -1.
       -5    1    3    3    0  502 -0.68597297553E+03 -0.12718240414E+04 -0.74351362801E+02  0.14469435133E+04  0.46999998093E+01 0.  1.
</event>
<event>
 5   0  0.4973409E-08  0.3399959E+04  0.7818609E-02  0.8137916E-01
       -2   -1    0    0    0  501  0.00000000000E+00  0.00000000000E+00  0.12226149626E+04  0.12226149626E+04  0.25500000920E-02 0. -1.
        2   -1    0    0  501    0  0.00000000000E+00  0.00000000000E+00 -0.23637289261E+04  0.23637289261E+04  0.25500000920E-02 0.  1.
    10030    2    1    2    0    0  0.00000000000E+00  0.00000000000E+00 -0.11411139635E+04  0.35863438887E+04  0.33999590307E+04 0.  0.
        1    1    3    3  502    0 -0.11276560378E+03 -0.12079143083E+04  0.68558997001E+03  0.13934872316E+04  0.50400001928E-02 0. -1.
       -1    1    3    3    0  502  0.11276560378E+03  0.12079143083E+04 -0.18267039335E+04  0.21928566571E+04  0.50400001928E-02 0.  1.
</event>
<event>
 5   0  0.4946315E-08  0.3398032E+04  0.7818609E-02  0.8138389E-01
        2   -1    0    0  501    0  0.00000000000E+00  0.00000000000E+00  0.25999427872E+04  0.25999427872E+04  0.25500000920E-02 0. -1.
       -2   -1    0    0    0  501  0.00000000000E+00  0.00000000000E+00 -0.11102764972E+04  0.11102764972E+04  0.25500000920E-02 0.  1.
    10030    2    1    2    0    0  0.00000000000E+00  0.00000000000E+00  0.14896662900E+04  0.37102192844E+04  0.33980320014E+04 0.  0.
        3    1    3    3  502    0 -0.13116097881E+04 -0.21410295697E+03  0.19006182270E+04  0.23191614793E+04  0.10100000352E+00 0. -1.
       -3    1    3    3    0  502  0.13116097881E+04  0.21410295697E+03 -0.41095193692E+03  0.13910578051E+04  0.10100000352E+00 0.  1.
</event>
<event>
 5   0  0.1625282E-08  0.3405767E+04  0.7818609E-02  0.8136492E-01
        1   -1    0    0  501    0  0.00000000000E+00  0.00000000000E+00  0.20000294386E+04  0.20000294386E+04  0.50400001928E-02 0. -1.
       -1   -1    0    0    0  501  0.00000000000E+00  0.00000000000E+00 -0.14498844513E+04  0.14498844513E+04  0.50400001928E-02 0.  1.
    10030    2    1    2    0    0  0.00000000000E+00  0.00000000000E+00  0.55014498727E+03  0.34499138899E+04  0.34057666304E+04 0.  0.
        1    1    3    3  502    0 -0.10335456470E+04  0.48183537519E+03  0.15561515784E+04  0.19292458807E+04  0.50400001928E-02 0. -1.
       -1    1    3    3    0  502  0.10335456470E+04 -0.48183537519E+03 -0.10060065911E+04  0.15206680093E+04  0.50400001928E-02 0.  1.
</event>
<event>
 5   0  0.1625282E-08  0.3401147E+04  0.7818609E-02  0.8137625E-01
       -1   -1    0    0    0  501  0.00000000000E+00  0.00000000000E+00  0.12266838664E+04  0.12266838664E+04  0.50400001928E-02 0. -1.
        1   -1    0    0  501    0  0.00000000000E+00  0.00000000000E+00 -0.23575349796E+04  0.23575349796E+04  0.50400001928E-02 0.  1.
    10030    2    1    2    0    0  0.00000000000E+00  0.00000000000E+00 -0.11308511132E+04  0.35842188460E+04  0.34011469383E+04 0.  0.
        1    1    3    3  502    0 -0.13505191074E+04  0.10100642605E+04 -0.33498076877E+03  0.17194021593E+04  0.50400001928E-02 0. -1.
       -1    1    3    3    0  502  0.13505191074E+04 -0.10100642605E+04 -0.79587034442E+03  0.18648166867E+04  0.50400001928E-02 0.  1.
</event>
<event>
 5   0  0.1630571E-08  0.3399434E+04  0.7818609E-02  0.8138045E-01
        1   -1    0    0  501    0  0.00000000000E+00  0.00000000000E+00  0.17005863980E+04  0.17005863980E+04  0.50400001928E-02 0.  1.
       -1   -1    0    0    0  501  0.00000000000E+00  0.00000000000E+00 -0.16988479553E+04  0.16988479553E+04  0.50400001928E-02 0. -1.
    10030    2    1    2    0    0  0.00000000000E+00  0.00000000000E+00  0.17384427006E+01  0.33994343533E+04  0.33994339088E+04 0.  0.
        3    1    3    3  502    0 -0.12687405033E+04  0.95440482989E+03  0.60786738206E+03  0.17000275905E+04  0.10100000352E+00 0. -1.
       -3    1    3    3    0  502  0.12687405033E+04 -0.95440482989E+03 -0.60612893936E+03  0.16994067628E+04  0.10100000352E+00 0.  1.
</event>
<event>
 5   0  0.1579536E-08  0.3399765E+04  0.7818609E-02  0.8137964E-01
        1   -1    0    0  501    0  0.00000000000E+00  0.00000000000E+00  0.16695730539E+04  0.16695730539E+04  0.50400001928E-02 0.  1.
       -1   -1    0    0    0  501  0.00000000000E+00  0.00000000000E+00 -0.17307422752E+04  0.17307422752E+04  0.50400001928E-02 0. -1.
    10030    2    1    2    0    0  0.00000000000E+00  0.00000000000E+00 -0.61169221253E+02  0.34003153291E+04  0.33997650895E+04 0.  0.
        5    1    3    3  502    0  0.15668317873E+04 -0.22824899802E+03  0.58799679063E+03  0.16890298311E+04  0.46999998093E+01 0.  1.
       -5    1    3    3    0  502 -0.15668317873E+04  0.22824899802E+03 -0.64916601188E+03  0.17112854980E+04  0.46999998093E+01 0. -1.
</event>
<event>
 5   0  0.1579536E-08  0.3399182E+04  0.7818609E-02  0.8138107E-01
        1   -1    0    0  501    0  0.00000000000E+00  0.00000000000E+00  0.23504953465E+04  0.23504953465E+04  0.50400001928E-02 0.  1.
       -1   -1    0    0    0  501  0.00000000000E+00  0.00000000000E+00 -0.12289365617E+04  0.12289365617E+04  0.50400001928E-02 0. -1.
    10030    2    1    2    0    0  0.00000000000E+00  0.00000000000E+00  0.11215587848E+04  0.35794319082E+04  0.33991820601E+04 0.  0.
        5    1    3    3  502    0  0.71203708477E+03 -0.37348417217E+03  0.21375452293E+04  0.22837707710E+04  0.46999998093E+01 0.  1.
       -5    1    3    3    0  502 -0.71203708477E+03  0.37348417217E+03 -0.10159864445E+04  0.12956611372E+04  0.46999998093E+01 0. -1.
</event>
<event>
 5   0  0.4775023E-08  0.3397361E+04  0.7818609E-02  0.8138554E-01
       -2   -1    0    0    0  501  0.00000000000E+00  0.00000000000E+00  0.12978509266E+04  0.12978509266E+04  0.25500000920E-02 0. -1.
        2   -1    0    0  501    0  0.00000000000E+00  0.00000000000E+00 -0.22233021280E+04  0.22233021280E+04  0.25500000920E-02 0.  1.
    10030    2    1    2    0    0  0.00000000000E+00  0.00000000000E+00 -0.92545120140E+03  0.35211530546E+04  0.33973605796E+04 0.  0.
        4    1    3    3  502    0  0.12670959842E+04  0.11106758521E+04 -0.68593310079E+03  0.18192413016E+04  0.12699999809E+01 0.  1.
       -4    1    3    3    0  502 -0.12670959842E+04 -0.11106758521E+04 -0.23951810062E+03  0.17019117530E+04  0.12699999809E+01 0. -1.
</event>
<event>
 5   0  0.4973409E-08  0.3401272E+04  0.7818609E-02  0.8137594E-01
       -2   -1    0    0    0  501  0.00000000000E+00  0.00000000000E+00  0.18303373168E+04  0.18303373168E+04  0.25500000920E-02 0.  1.
        2   -1    0    0  501    0  0.00000000000E+00  0.00000000000E+00 -0.15801259412E+04  0.15801259412E+04  0.25500000920E-02 0. -1.
    10030    2    1    2    0    0  0.00000000000E+00  0.00000000000E+00  0.25021137563E+03  0.34104632579E+04  0.34012723945E+04 0.  0.
        1    1    3    3  502    0  0.68389418805E+03 -0.11491950519E+04 -0.92835354935E+03  0.16279437461E+04  0.50400001928E-02 0. -1.
       -1    1    3    3    0  502 -0.68389418805E+03  0.11491950519E+04  0.11785649250E+04  0.17825195119E+04  0.50400001928E-02 0.  1.
</event>
<event>
 5   0  0.1595851E-08  0.3398750E+04  0.7818609E-02  0.8138213E-01
        1   -1    0    0  501    0  0.00000000000E+00  0.00000000000E+00  0.21996374678E+04  0.21996374678E+04  0.50400001928E-02 0. -1.
       -1   -1    0    0    0  501  0.00000000000E+00  0.00000000000E+00 -0.13128871907E+04  0.13128871907E+04  0.50400001928E-02 0.  1.
    10030    2    1    2    0    0  0.00000000000E+00  0.00000000000E+00  0.88675027713E+03  0.35125246585E+04  0.33987502737E+04 0.  0.
        2    1    3    3  502    0  0.85465111581E+03  0.15347261499E+03  0.19530606762E+04  0.21373882142E+04  0.25500000920E-02 0. -1.
       -2    1    3    3    0  502 -0.85465111581E+03 -0.15347261499E+03 -0.10663103991E+04  0.13751364443E+04  0.25500000920E-02 0.  1.
</event>
<event>
 5   0  0.5001197E-08  0.3399906E+04  0.7818609E-02  0.8137929E-01
       -2   -1    0    0    0  501  0.00000000000E+00  0.00000000000E+00  0.12907924187E+04  0.12907924187E+04  0.25500000920E-02 0. -1.
        2   -1    0    0  501    0  0.00000000000E+00  0.00000000000E+00 -0.22388108202E+04  0.22388108202E+04  0.25500000920E-02 0.  1.
    10030    2    1    2    0    0  0.00000000000E+00  0.00000000000E+00 -0.94801840150E+03  0.35296032388E+04  0.33999059007E+04 0.  0.
        5    1    3    3  502    0 -0.42874964324E+03  0.21757169889E+03 -0.21667478980E+04  0.22194553936E+04  0.46999998093E+01 0.  1.
       -5    1    3    3    0  502  0.42874964324E+03 -0.21757169889E+03  0.12187294965E+04  0.13101478452E+04  0.46999998093E+01 0. -1.
</event>
<event>
 5   0  0.1595851E-08  0.3400416E+04  0.7818609E-02  0.8137804E-01
       -1   -1    0    0    0  501  0.00000000000E+00  0.00000000000E+00  0.17806256942E+04  0.17806256942E+04  0.50400001928E-02 0. -1.
        1   -1    0    0  501    0  0.00000000000E+00  0.00000000000E+00 -0.16234221466E+04  0.16234221466E+04  0.50400001928E-02 0.  1.
    10030    2    1    2    0    0  0.00000000000E+00  0.00000000000E+00  0.15720354757E+03  0.34040478408E+04  0.34004159668E+04 0.  0.
        2    1    3    3  502    0 -0.11138437800E+04  0.67835921525E+03 -0.10133831687E+04  0.16515945743E+04  0.25500000920E-02 0.  1.
       -2    1    3    3    0  502  0.11138437800E+04 -0.67835921525E+03  0.11705867163E+04  0.17524532666E+04  0.25500000920E-02 0. -1.
</event>
<event>
 5   0  0.4764953E-08  0.3400202E+04  0.7818609E-02  0.8137857E-01
       -2   -1    0    0    0  501  0.00000000000E+00  0.00000000000E+00  0.17577315054E+04  0.17577315054E+04  0.25500000920E-02 0.  1.
        2   -1    0    0  501    0  0.00000000000E+00  0.00000000000E+00 -0.16443602824E+04  0.16443602824E+04  0.25500000920E-02 0. -1.
    10030    2    1    2    0    0  0.00000000000E+00  0.00000000000E+00  0.11337122296E+03  0.34020917878E+04  0.34002022732E+04 0.  0.
        2    1    3    3  502    0 -0.82114777871E+03  0.36953333729E+03  0.14995359656E+04  0.17491274036E+04  0.25500000920E-02 0.  1.
       -2    1    3    3    0  502  0.82114777871E+03 -0.36953333729E+03 -0.13861647426E+04  0.16529643842E+04  0.25500000920E-02 0. -1.
</event>
<event>
 5   0  0.4946315E-08  0.3400514E+04  0.7818609E-02  0.8137780E-01
       -2   -1    0    0    0  501  0.00000000000E+00  0.00000000000E+00  0.14968066531E+04  0.14968066531E+04  0.25500000920E-02 0. -1.
        2   -1    0    0  501    0  0.00000000000E+00  0.00000000000E+00 -0.19313614217E+04  0.19313614217E+04  0.25500000920E-02 0.  1.
    10030    2    1    2    0    0  0.00000000000E+00  0.00000000000E+00 -0.43455476862E+03  0.34281680747E+04  0.34005144466E+04 0.  0.
        3    1    3    3  502    0  0.12783813985E+04 -0.11175298073E+04 -0.12856894130E+03  0.17028393504E+04  0.10100000352E+00 0.  1.
       -3    1    3    3    0  502 -0.12783813985E+04  0.11175298073E+04 -0.30598582732E+03  0.17253287244E+04  0.10100000352E+00 0. -1.
</event>
<event>
 5   0  0.4973409E-08  0.3400414E+04  0.7818609E-02  0.8137805E-01
        2   -1    0    0  501    0  0.00000000000E+00  0.00000000000E+00  0.20556809634E+04  0.20556809634E+04  0.25500000920E-02 0. -1.
       -2   -1    0    0    0  501  0.00000000000E+00  0.00000000000E+00 -0.14062023849E+04  0.14062023849E+04  0.25500000920E-02 0.  1.
    10030    2    1    2    0    0  0.00000000000E+00  0.00000000000E+00  0.64947857851E+03  0.34618833484E+04  0.34004137827E+04 0.  0.
        1    1    3    3  502    0  0.65890547557E+03  0.45902452738E+03  0.18504437280E+04  0.20171767233E+04  0.50400001928E-02 0. -1.
       -1    1    3    3    0  502 -0.65890547557E+03 -0.45902452738E+03 -0.12009651495E+04  0.14447066251E+04  0.50400001928E-02 0.  1.
</event>
<event>
 5   0  0.4775023E-08  0.3401003E+04  0.7818609E-02  0.8137660E-01
        2   -1    0    0  501    0  0.00000000000E+00  0.00000000000E+00  0.25131162283E+04  0.25131162283E+04  0.25500000920E-02 0.  1.
       -2   -1    0    0    0  501  0.00000000000E+00  0.00000000000E+00 -0.11506450224E+04  0.11506450224E+04  0.25500000920E-02 0. -1.
    10030    2    1    2    0    0  0.00000000000E+00  0.00000000000E+00  0.13624712059E+04  0.36637612507E+04  0.34010026044E+04 0.  0.
        4    1    3    3  502    0  0.40221352349E+03 -0.11991787368E+04 -0.54319524872E+03  0.13765420635E+04  0.12699999809E+01 0. -1.
       -4    1    3    3    0  502 -0.40221352349E+03  0.11991787368E+04  0.19056664546E+04  0.22872191873E+04  0.12699999809E+01 0.  1.
</event>
<event>
 5   0  0.1579536E-08  0.3399878E+04  0.7818609E-02  0.8137936E-01
        1   -1    0    0  501    0  0.00000000000E+00  0.00000000000E+00  0.14310170620E+04  0.14310170620E+04  0.50400001928E-02 0.  1.
       -1   -1    0    0    0  501  0.00000000000E+00  0.00000000000E+00 -0.20193979064E+04  0.20193979064E+04  0.50400001928E-02 0. -1.
    10030    2    1    2    0    0  0.00000000000E+00  0.00000000000E+00 -0.58838084446E+03  0.34504149684E+04  0.33998781502E+04 0.  0.
        5    1    3    3  502    0  0.46865420413E+03 -0.15965909003E+04 -0.64725747304E+03  0.17854141235E+04  0.46999998093E+01 0. -1.
       -5    1    3    3    0  502 -0.46865420413E+03  0.15965909003E+04  0.58876628580E+02  0.16650008449E+04  0.46999998093E+01 0.  1.
</event>
<event>
 5   0  0.1645631E-08  0.3400222E+04  0.7818609E-02  0.8137852E-01
        1   -1    0    0  501    0  0.00000000000E+00  0.00000000000E+00  0.13983269183E+04  0.13983269183E+04  0.50400001928E-02 0.  1.
       -1   -1    0    0    0  501  0.00000000000E+00  0.00000000000E+00 -0.20670251506E+04  0.20670251506E+04  0.50400001928E-02 0. -1.
    10030    2    1    2    0    0  0.00000000000E+00  0.00000000000E+00 -0.66869823233E+03  0.34653520689E+04  0.34002217039E+04 0.  0.
        4    1    3    3  502    0  0.83223282104E+03  0.56825833996E+03 -0.17298270144E+04  0.20019570729E+04  0.12699999809E+01 0. -1.
       -4    1    3    3    0  502 -0.83223282104E+03 -0.56825833996E+03  0.10611287820E+04  0.14633949960E+04  0.12699999809E+01 0.  1.
</event>
<event>
 5   0  0.1579536E-08  0.3402967E+04  0.7818609E-02  0.8137179E-01
       -1   -1    0    0    0  501  0.00000000000E+00  0.00000000000E+00  0.11588063538E+04  0.11588063538E+04  0.50400001928E-02 0.  1.
        1   -1    0    0  501    0  0.00000000000E+00  0.00000000000E+00 -0.24983001417E+04  0.24983001417E+04  0.50400001928E-02 0. -1.
    10030    2    1    2    0    0  0.00000000000E+00  0.00000000000E+00 -0.13394937879E+04  0.36571064955E+04  0.34029669866E+04 0.  0.
        5    1    3    3  502    0 -0.15520613997E+04  0.57720789412E+03 -0.10900566227E+04  0.19825007118E+04  0.46999998093E+01 0. -1.
       -5    1    3    3    0  502  0.15520613997E+04 -0.57720789412E+03 -0.24943716516E+03  0.16746057837E+04  0.46999998093E+01 0.  1.
</event>
<event>
 5   0  0.4946315E-08  0.3400662E+04  0.7818609E-02  0.8137744E-01
        2   -1    0    0  501    0  0.00000000000E+00  0.00000000000E+00  0.20014721380E+04  0.20014721380E+04  0.25500000920E-02 0. -1.
       -2   -1    0    0    0  501  0.00000000000E+00  0.00000000000E+00 -0.14444994236E+04  0.14444994236E+04  0.25500000920E-02 0.  1.
    10030    2    1    2    0    0  0.00000000000E+00  0.00000000000E+00  0.55697271438E+03  0.34459715616E+04  0.34006619059E+04 0.  0.
        3    1    3    3  502    0  0.41287374612E+03  0.64581506850E+03 -0.12594919600E+04  0.14744021977E+04  0.10100000352E+00 0.  1.
       -3    1    3    3    0  502 -0.41287374612E+03 -0.64581506850E+03  0.18164646744E+04  0.19715693639E+04  0.10100000352E+00 0. -1.
</event>
<event>
 5   0  0.4764953E-08  0.3391507E+04  0.7818609E-02  0.8139994E-01
        2   -1    0    0  501    0  0.00000000000E+00  0.00000000000E+00  0.22549233904E+04  0.22549233904E+04  0.25500000920E-02 0. -1.
       -2   -1    0    0    0  501  0.00000000000E+00  0.00000000000E+00 -0.12752454181E+04  0.12752454181E+04  0.25500000920E-02 0.  1.
    10030    2    1    2    0    0  0.00000000000E+00  0.00000000000E+00  0.97967797226E+03  0.35301688085E+04  0.33915074652E+04 0.  0.
        2    1    3    3  502    0 -0.27261675354E+03 -0.14913221293E+04 -0.30097265819E+03  0.15456215994E+04  0.25500000920E-02 0.  1.
       -2    1    3    3    0  502  0.27261675354E+03  0.14913221293E+04  0.12806506305E+04  0.19845472090E+04  0.25500000920E-02 0. -1.
</event>
<event>
 5   0  0.5001197E-08  0.3400428E+04  0.7818609E-02  0.8137801E-01
        2   -1    0    0  501    0  0.00000000000E+00  0.00000000000E+00  0.11592348613E+04  0.11592348613E+04  0.25500000920E-02 0.  1.
       -2   -1    0    0    0  501  0.00000000000E+00  0.00000000000E+00 -0.24936519794E+04  0.24936519794E+04  0.25500000920E-02 0. -1.
    10030    2    1    2    0    0  0.00000000000E+00  0.00000000000E+00 -0.13344171180E+04  0.36528868407E+04  0.34004283886E+04 0.  0.
        5    1    3    3  502    0 -0.13455877166E+04  0.16836693996E+03  0.43448131921E+03  0.14239908133E+04  0.46999998093E+01 0.  1.
       -5    1    3    3    0  502  0.13455877166E+04 -0.16836693996E+03 -0.17688984372E+04  0.22288960274E+04  0.46999998093E+01 0. -1.
</event>
<event>
 5   0  0.1645631E-08  0.3399568E+04  0.7818609E-02  0.8138012E-01
       -1   -1    0    0    0  501  0.00000000000E+00  0.00000000000E+00  0.12668249437E+04  0.12668249437E+04  0.50400001928E-02 0.  1.
        1   -1    0    0  501    0  0.00000000000E+00  0.00000000000E+00 -0.22807138697E+04  0.22807138697E+04  0.50400001928E-02 0. -1.
    10030    2    1    2    0    0  0.00000000000E+00  0.00000000000E+00 -0.10138889260E+04  0.35475388134E+04  0.33995677488E+04 0.  0.
        4    1    3    3  502    0  0.14815269115E+04  0.30675753272E+03  0.30153024943E+03  0.15427068022E+04  0.12699999809E+01 0.  1.
       -4    1    3    3    0  502 -0.14815269115E+04 -0.30675753272E+03 -0.13154191754E+04  0.20048320113E+04  0.12699999809E+01 0. -1.
</event>
<event>
 5   0  0.1625282E-08  0.3398643E+04  0.7818609E-02  0.8138239E-01
        1   -1    0    0  501    0  0.00000000000E+00  0.00000000000E+00  0.16877413225E+04  0.16877413225E+04  0.50400001928E-02 0. -1.
       -1   -1    0    0    0  501  0.00000000000E+00  0.00000000000E+00 -0.17109811017E+04  0.17109811017E+04  0.50400001928E-02 0.  1.
    10030    2    1    2    0    0  0.00000000000E+00  0.00000000000E+00 -0.23239779181E+02  0.33987224242E+04  0.33986429688E+04 0.  0.
        1    1    3    3  502    0 -0.54657729625E+03  0.11668238178E+04 -0.11195577662E+04  0.17069370681E+04  0.50400001928E-02 0.  1.
       -1    1    3    3    0  502  0.54657729625E+03 -0.11668238178E+04  0.10963179870E+04  0.16917853561E+04  0.50400001928E-02 0. -1.
</event>
<event>
 5   0  0.4764953E-08  0.3400658E+04  0.7818609E-02  0.8137745E-01
       -2   -1    0    0    0  501  0.00000000000E+00  0.00000000000E+00  0.13920276339E+04  0.13920276339E+04  0.25500000920E-02 0. -1.
        2   -1    0    0  501    0  0.00000000000E+00  0.00000000000E+00 -0.20769112834E+04  0.20769112834E+04  0.25500000920E-02 0.  1.
    10030    2    1    2    0    0  0.00000000000E+00  0.00000000000E+00 -0.68488364948E+03  0.34689389174E+04  0.34006575245E+04 0.  0.
        2    1    3    3  502    0 -0.11251735078E+04  0.11247012083E+04 -0.95461636790E+03  0.18553330268E+04  0.25500000920E-02 0.  1.
       -2    1    3    3    0  502  0.11251735078E+04 -0.11247012083E+04  0.26973271842E+03  0.16136058905E+04  0.25500000920E-02 0. -1.
</event>
<event>
 5   0  0.1645631E-08  0.3399709E+04  0.7818609E-02  0.8137978E-01
        1   -1    0    0  501    0  0.00000000000E+00  0.00000000000E+00  0.16203163128E+04  0.16203163128E+04  0.50400001928E-02 0. -1.
       -1   -1    0    0    0  501  0.00000000000E+00  0.00000000000E+00 -0.17832969475E+04  0.17832969475E+04  0.50400001928E-02 0.  1.
    10030    2    1    2    0    0  0.00000000000E+00  0.00000000000E+00 -0.16298063468E+03  0.34036132603E+04  0.33997088902E+04 0.  0.
        4    1    3    3  502    0  0.64373745750E+03  0.67767684092E+03  0.13399499956E+04  0.16337415397E+04  0.12699999809E+01 0. -1.
       -4    1    3    3    0  502 -0.64373745750E+03 -0.67767684092E+03 -0.15029306303E+04  0.17698717206E+04  0.12699999809E+01 0.  1.
</event>
<event>
 5   0  0.4775023E-08  0.3399283E+04  0.7818609E-02  0.8138082E-01
        2   -1    0    0  501    0  0.00000000000E+00  0.00000000000E+00  0.29258398282E+04  0.29258398282E+04  0.25500000920E-02 0. -1.
       -2   -1    0    0    0  501  0.00000000000E+00  0.00000000000E+00 -0.98733405726E+03  0.98733405726E+03  0.25500000920E-02 0.  1.
    10030    2    1    2    0    0  0.00000000000E+00  0.00000000000E+00  0.19385057710E+04  0.39131738855E+04  0.33992830471E+04 0.  0.
        4    1    3    3  502    0  0.99464920419E+03 -0.32620999535E+03  0.25107288962E+04  0.27202024196E+04  0.12699999809E+01 0. -1.
       -4    1    3    3    0  502 -0.99464920419E+03  0.32620999535E+03 -0.57222312524E+03  0.11929714659E+04  0.12699999809E+01 0.  1.
</event>
<event>
 5   0  0.1579536E-08  0.3400162E+04  0.7818609E-02  0.8137867E-01
       -1   -1    0    0    0  501  0.00000000000E+00  0.00000000000E+00  0.10624756296E+04  0.10624756296E+04  0.50400001928E-02 0.  1.
        1   -1    0    0  501    0  0.00000000000E+00  0.00000000000E+00 -0.27203213338E+04  0.27203213338E+04  0.50400001928E-02 0. -1.
    10030    2    1    2    0    0  0.00000000000E+00  0.00000000000E+00 -0.16578457042E+04  0.37827969634E+04  0.34001618325E+04 0.  0.
        5    1    3    3  502    0 -0.68144302629E+03  0.14803518429E+04 -0.29023690115E+03  0.16553143888E+04  0.46999998093E+01 0.  1.
       -5    1    3    3    0  502  0.68144302629E+03 -0.14803518429E+04 -0.13676088031E+04  0.21274825746E+04  0.46999998093E+01 0. -1.
</event>
<event>
 5   0  0.4946315E-08  0.3385079E+04  0.7818609E-02  0.8141578E-01
       -2   -1    0    0    0  501  0.00000000000E+00  0.00000000000E+00  0.17017538461E+04  0.17017538461E+04  0.25500000920E-02 0.  1.
        2   -1    0    0  501    0  0.00000000000E+00  0.00000000000E+00 -0.16833749112E+04  0.16833749112E+04  0.25500000920E-02 0. -1.
    10030    2    1    2    0    0  0.00000000000E+00  0.00000000000E+00  0.18378934926E+02  0.33851287573E+04  0.33850788644E+04 0.  0.
        3    1    3    3  502    0  0.21602299232E+03 -0.85890445795E+03  0.14515376370E+04  0.17003953432E+04  0.10100000352E+00 0.  1.
       -3    1    3    3    0  502 -0.21602299232E+03  0.85890445795E+03 -0.14331587021E+04  0.16847334142E+04  0.10100000352E+00 0. -1.
</event>
<event>
 5   0  0.4973409E-08  0.3400006E+04  0.7818609E-02  0.8137905E-01
       -2   -1    0    0    0  501  0.00000000000E+00  0.00000000000E+00  0.22150430242E+04  0.22150430242E+04  0.25500000920E-02 0.  1.
        2   -1    0    0  501    0  0.00000000000E+00  0.00000000000E+00 -0.13047197700E+04  0.13047197700E+04  0.25500000920E-02 0. -1.
    10030    2    1    2    0    0  0.00000000000E+00  0.00000000000E+00  0.91032325416E+03  0.35197627942E+04  0.34000061324E+04 0.  0.
        1    1    3    3  502    0 -0.99851714844E+03  0.49200885329E+03  0.17852920898E+04  0.21038956850E+04  0.50400001928E-02 0.  1.
       -1    1    3    3    0  502  0.99851714844E+03 -0.49200885329E+03 -0.87496883563E+03  0.14158671092E+04  0.50400001928E-02 0. -1.
</event>
<event>
 5   0  0.1630571E-08  0.3401140E+04  0.7818609E-02  0.8137627E-01
        1   -1    0    0  501    0  0.00000000000E+00  0.00000000000E+00  0.17715769777E+04  0.17715769777E+04  0.50400001928E-02 0.  1.
       -1   -1    0    0    0  501  0.00000000000E+00  0.00000000000E+00 -0.16324086801E+04  0.16324086801E+04  0.50400001928E-02 0. -1.
    10030    2    1    2    0    0  0.00000000000E+00  0.00000000000E+00  0.13916829764E+03  0.34039856578E+04  0.34011395948E+04 0.  0.
        3    1    3    3  502    0  0.25590567011E+02  0.10132188086E+04  0.14362561654E+04  0.17578677464E+04  0.10100000352E+00 0.  1.
       -3    1    3    3    0  502 -0.25590567011E+02 -0.10132188086E+04 -0.12970878677E+04  0.16461179113E+04  0.10100000352E+00 0. -1.
</event>
<event>
 5   0  0.1645631E-08  0.3399622E+04  0.7818609E-02  0.8137999E-01
        1   -1    0    0  501    0  0.00000000000E+00  0.00000000000E+00  0.27657590076E+04  0.27657590076E+04  0.50400001928E-02 0. -1.
       -1   -1    0    0    0  501  0.00000000000E+00  0.00000000000E+00 -0.10446889525E+04  0.10446889525E+04  0.50400001928E-02 0.  1.
    10030    2    1    2    0    0  0.00000000000E+00  0.00000000000E+00  0.17210700551E+04  0.38104479602E+04  0.33996222618E+04 0.  0.
        4    1    3    3  502    0  0.46028899312E+03  0.77157339852E+03  0.24778809597E+04  0.26357327501E+04  0.12699999809E+01 0. -1.
       -4    1    3    3    0  502 -0.46028899312E+03 -0.77157339852E+03 -0.75681090464E+03  0.11747152101E+04  0.12699999809E+01 0.  1.
</event>
<event>
 5   0  0.1645631E-08  0.3401169E+04  0.7818609E-02  0.8137619E-01
        1   -1    0    0  501    0  0.00000000000E+00  0.00000000000E+00  0.19309962348E+04  0.19309962348E+04  0.50400001928E-02 0. -1.
       -1   -1    0    0    0  501  0.00000000000E+00  0.00000000000E+00 -0.14976665614E+04  0.14976665614E+04  0.50400001928E-02 0.  1.
    10030    2    1    2    0    0  0.00000000000E+00  0.00000000000E+00  0.43332967336E+03  0.34286627962E+04  0.34011694995E+04 0.  0.
        4    1    3    3  502    0 -0.16262534884E+04 -0.41917521435E+03  0.48636929616E+03  0.17484178488E+04  0.12699999809E+01 0. -1.
       -4    1    3    3    0  502  0.16262534884E+04  0.41917521435E+03 -0.53039622796E+02  0.16802449474E+04  0.12699999809E+01 0.  1.
</event>
<event>
 5   0  0.1645631E-08  0.3399491E+04  0.7818609E-02  0.8138031E-01
       -1   -1    0    0    0  501  0.00000000000E+00  0.00000000000E+00  0.13782270612E+04  0.13782270612E+04  0.50400001928E-02 0. -1.
        1   -1    0    0  501    0  0.00000000000E+00  0.00000000000E+00 -0.20962688264E+04  0.20962688264E+04  0.50400001928E-02 0.  1.
    10030    2    1    2    0    0  0.00000000000E+00  0.00000000000E+00 -0.71804176522E+03  0.34744958875E+04  0.33994907995E+04 0.  0.
        4    1    3    3  502    0 -0.16111401932E+03 -0.16444761514E+04  0.48362538295E+02  0.16530577993E+04  0.12699999809E+01 0. -1.
       -4    1    3    3    0  502  0.16111401932E+03  0.16444761514E+04 -0.76640430351E+03  0.18214380882E+04  0.12699999809E+01 0.  1.
</event>
<event>
 5   0  0.1630571E-08  0.3400056E+04  0.7818609E-02  0.8137893E-01
       -1   -1    0    0    0  501  0.00000000000E+00  0.00000000000E+00  0.16193074119E+04  0.16193074119E+04  0.50400001928E-02 0.  1.
        1   -1    0    0  501    0  0.00000000000E+00  0.00000000000E+00 -0.17847719081E+04  0.17847719081E+04  0.50400001928E-02 0. -1.
    10030    2    1    2    0    0  0.00000000000E+00  0.00000000000E+00 -0.16546449615E+03  0.34040793200E+04  0.34000555168E+04 0.  0.
        3    1    3    3  502    0  0.74439243840E+03  0.14542815862E+04 -0.55343685114E+03  0.17249195323E+04  0.10100000352E+00 0. -1.
       -3    1    3    3    0  502 -0.74439243840E+03 -0.14542815862E+04  0.38797235498E+03  0.16791597878E+04  0.10100000352E+00 0.  1.
</event>
<event>
 5   0  0.5001197E-08  0.3399777E+04  0.7818609E-02  0.8137961E-01
       -2   -1    0    0    0  501  0.00000000000E+00  0.00000000000E+00  0.11826443089E+04  0.11826443089E+04  0.25500000920E-02 0. -1.
        2   -1    0    0  501    0  0.00000000000E+00  0.00000000000E+00 -0.24433559706E+04  0.24433559706E+04  0.25500000920E-02 0.  1.
    10030    2    1    2    0    0  0.00000000000E+00  0.00000000000E+00 -0.12607116617E+04  0.36260002795E+04  0.33997770711E+04 0.  0.
        5    1    3    3  502    0  0.12699638683E+04 -0.88112866605E+03  0.12410611758E+03  0.15506838399E+04  0.46999998093E+01 0. -1.
       -5    1    3    3    0  502 -0.12699638683E+04  0.88112866605E+03 -0.13848177793E+04  0.20753164397E+04  0.46999998093E+01 0.  1.
</event>
<event>
 5   0  0.4764953E-08  0.3411679E+04  0.7818609E-02  0.8135046E-01
       -2   -1    0    0    0  501  0.00000000000E+00  0.00000000000E+00  0.12788332281E+04  0.12788332281E+04  0.25500000920E-02 0. -1.
        2   -1    0    0  501    0  0.00000000000E+00  0.00000000000E+00 -0.22754238651E+04  0.22754238652E+04  0.25500000920E-02 0.  1.
    10030    2    1    2    0    0  0.00000000000E+00  0.00000000000E+00 -0.99659063703E+03  0.35542570933E+04  0.34116785586E+04 0.  0.
        2    1    3    3  502    0  0.14985312923E+04  0.44965419190E+03 -0.12064856535E+04  0.19757005234E+04  0.25500000920E-02 0.  1.
       -2    1    3    3    0  502 -0.14985312923E+04 -0.44965419190E+03  0.20989501648E+03  0.15785565698E+04  0.25500000920E-02 0. -1.
</event>
<event>
 5   0  0.1595851E-08  0.3399576E+04  0.7818609E-02  0.8138010E-01
       -1   -1    0    0    0  501  0.00000000000E+00  0.00000000000E+00  0.14958132842E+04  0.14958132842E+04  0.50400001928E-02 0. -1.
        1   -1    0    0  501    0  0.00000000000E+00  0.00000000000E+00 -0.19315779048E+04  0.19315779048E+04  0.50400001928E-02 0.  1.
    10030    2    1    2    0    0  0.00000000000E+00  0.00000000000E+00 -0.43576462057E+03  0.34273911890E+04  0.33995763791E+04 0.  0.
        2    1    3    3  502    0 -0.38205141816E+03 -0.14337346456E+03  0.14456973654E+04  0.15021851114E+04  0.25500000920E-02 0. -1.
       -2    1    3    3    0  502  0.38205141816E+03  0.14337346456E+03 -0.18814619860E+04  0.19252060776E+04  0.25500000920E-02 0.  1.
</event>
<event>
 5   0  0.1625282E-08  0.3401165E+04  0.7818609E-02  0.8137620E-01
       -1   -1    0    0    0  501  0.00000000000E+00  0.00000000000E+00  0.17397437880E+04  0.17397437880E+04  0.50400001928E-02 0.  1.
        1   -1    0    0  501    0  0.00000000000E+00  0.00000000000E+00 -0.16623029132E+04  0.16623029132E+04  0.50400001928E-02 0. -1.
    10030    2    1    2    0    0  0.00000000000E+00  0.00000000000E+00  0.77440874835E+02  0.34020467012E+04  0.34011651927E+04 0.  0.
        1    1    3    3  502    0 -0.37454300254E+03  0.60518839793E+03 -0.15061686788E+04  0.16658570007E+04  0.50400001928E-02 0. -1.
       -1    1    3    3    0  502  0.37454300254E+03 -0.60518839793E+03  0.15836095537E+04  0.17361897005E+04  0.50400001928E-02 0.  1.
</event>
<event>
 5   0  0.1630571E-08  0.3400588E+04  0.7818609E-02  0.8137762E-01
       -1   -1    0    0    0  501  0.00000000000E+00  0.00000000000E+00  0.15590503186E+04  0.15590503186E+04  0.50400001928E-02 0. -1.
        1   -1    0    0  501    0  0.00000000000E+00  0.00000000000E+00 -0.18543340813E+04  0.18543340813E+04  0.50400001928E-02 0.  1.
    10030    2    1    2    0    0  0.00000000000E+00  0.00000000000E+00 -0.29528376271E+03  0.34133843998E+04  0.34005882668E+04 0.  0.
        3    1    3    3  502    0 -0.10573284142E+04  0.31178328366E+03  0.11517748427E+04  0.15942827509E+04  0.10100000352E+00 0. -1.
       -3    1    3    3    0  502  0.10573284142E+04 -0.31178328366E+03 -0.14470586054E+04  0.18191016489E+04  0.10100000352E+00 0.  1.
</event>
<event>
 5   0  0.1625282E-08  0.3400312E+04  0.7818609E-02  0.8137830E-01
       -1   -1    0    0    0  501  0.00000000000E+00  0.00000000000E+00  0.14127342980E+04  0.14127342980E+04  0.50400001928E-02 0. -1.
        1   -1    0    0  501    0  0.00000000000E+00  0.00000000000E+00 -0.20460537912E+04  0.20460537912E+04  0.50400001928E-02 0.  1.
    10030    2    1    2    0    0  0.00000000000E+00  0.00000000000E+00 -0.63331949319E+03  0.34587880893E+04  0.34003119660E+04 0.  0.
        1    1    3    3  502    0  0.15728913236E+04  0.52897288410E+03 -0.69279027868E+03  0.17982652191E+04  0.50400001928E-02 0.  1.
       -1    1    3    3    0  502 -0.15728913236E+04 -0.52897288410E+03  0.59470785491E+02  0.16605228702E+04  0.50400001928E-02 0. -1.
</event>
<event>
 5   0  0.1645631E-08  0.3400132E+04  0.7818609E-02  0.8137874E-01
       -1   -1    0    0    0  501  0.00000000000E+00  0.00000000000E+00  0.23429278966E+04  0.23429278966E+04  0.50400001928E-02 0.  1.
        1   -1    0    0  501    0  0.00000000000E+00  0.00000000000E+00 -0.12335948789E+04  0.12335948789E+04  0.50400001928E-02 0. -1.
    10030    2    1    2    0    0  0.00000000000E+00  0.00000000000E+00  0.11093330176E+04  0.35765227755E+04  0.34001316768E+04 0.  0.
        4    1    3    3  502    0  0.41719340953E+03  0.12664933168E+04  0.16639694870E+04  0.21323348070E+04  0.12699999809E+01 0. -1.
       -4    1    3    3    0  502 -0.41719340953E+03 -0.12664933168E+04 -0.55463646935E+03  0.14441879686E+04  0.12699999809E+01 0.  1.
</event>
<event>
 5   0  0.1645631E-08  0.3400595E+04  0.7818609E-02  0.8137760E-01
        1   -1    0    0  501    0  0.00000000000E+00  0.00000000000E+00  0.17868505846E+04  0.17868505846E+04  0.50400001928E-02 0.  1.
       -1   -1    0    0    0  501  0.00000000000E+00  0.00000000000E+00 -0.16179368089E+04  0.16179368089E+04  0.50400001928E-02 0. -1.
    10030    2    1    2    0    0  0.00000000000E+00  0.00000000000E+00  0.16891377574E+03  0.34047873935E+04  0.34005948497E+04 0.  0.
        4    1    3    3  502    0 -0.14894131926E+04  0.98027210872E+02 -0.73082506433E+03  0.16619470148E+04  0.12699999809E+01 0. -1.
       -4    1    3    3    0  502  0.14894131926E+04 -0.98027210872E+02  0.89973884008E+03  0.17428403787E+04  0.12699999809E+01 0.  1.
</event>
<event>
 5   0  0.1630571E-08  0.3400954E+04  0.7818609E-02  0.8137672E-01
        1   -1    0    0  501    0  0.00000000000E+00  0.00000000000E+00  0.28559844604E+04  0.28559844604E+04  0.50400001928E-02 0. -1.
       -1   -1    0    0    0  501  0.00000000000E+00  0.00000000000E+00 -0.10124784838E+04  0.10124784838E+04  0.50400001928E-02 0.  1.
    10030    2    1    2    0    0  0.00000000000E+00  0.00000000000E+00  0.18435059765E+04  0.38684629442E+04  0.34009544639E+04 0.  0.
        3    1    3    3  502    0 -0.80182948492E+03 -0.11804773758E+04 -0.13011853255E+03  0.14329648287E+04  0.10100000352E+00 0.  1.
       -3    1    3    3    0  502  0.80182948492E+03  0.11804773758E+04  0.19736245091E+04  0.24354981155E+04  0.10100000352E+00 0. -1.
</event>
<event>
 5   0  0.4764953E-08  0.3398348E+04  0.7818609E-02  0.8138312E-01
       -2   -1    0    0    0  501  0.00000000000E+00  0.00000000000E+00  0.16588809304E+04  0.16588809304E+04  0.25500000920E-02 0.  1.
        2   -1    0    0  501    0  0.00000000000E+00  0.00000000000E+00 -0.17404458252E+04  0.17404458252E+04  0.25500000920E-02 0. -1.
    10030    2    1    2    0    0  0.00000000000E+00  0.00000000000E+00 -0.81564894831E+02  0.33993267556E+04  0.33983480633E+04 0.  0.
        2    1    3    3  502    0  0.94952658549E+03 -0.17014587999E+03 -0.14399855006E+04  0.17332364521E+04  0.25500000920E-02 0. -1.
       -2    1    3    3    0  502 -0.94952658549E+03  0.17014587999E+03  0.13584206058E+04  0.16660903035E+04  0.25500000920E-02 0.  1.
</event>
<event>
 5   0  0.1579536E-08  0.3400628E+04  0.7818609E-02  0.8137752E-01
       -1   -1    0    0    0  501  0.00000000000E+00  0.00000000000E+00  0.18130186947E+04  0.18130186947E+04  0.50400001928E-02 0.  1.
        1   -1    0    0  501    0  0.00000000000E+00  0.00000000000E+00 -0.15946153725E+04  0.15946153725E+04  0.50400001928E-02 0. -1.
    10030    2    1    2    0    0  0.00000000000E+00  0.00000000000E+00  0.21840332220E+03  0.34076340672E+04  0.34006278721E+04 0.  0.
        5    1    3    3  502    0 -0.49679885187E+03  0.99982550968E+03  0.13942576078E+04  0.17861793068E+04  0.46999998093E+01 0.  1.
       -5    1    3    3    0  502  0.49679885187E+03 -0.99982550968E+03 -0.11758542856E+04  0.16214547604E+04  0.46999998093E+01 0. -1.
</event>
<event>
 5   0  0.4973409E-08  0.3400231E+04  0.7818609E-02  0.8137850E-01
       -2   -1    0    0    0  501  0.00000000000E+00  0.00000000000E+00  0.17186836574E+04  0.17186836574E+04  0.25500000920E-02 0. -1.
        2   -1    0    0  501    0  0.00000000000E+00  0.00000000000E+00 -0.16817482306E+04  0.16817482306E+04  0.25500000920E-02 0.  1.
    10030    2    1    2    0    0  0.00000000000E+00  0.00000000000E+00  0.36935426818E+02  0.34004318881E+04  0.34002312862E+04 0.  0.
        1    1    3    3  502    0  0.43143162676E+03  0.14151598174E+04 -0.81918700474E+03  0.16911173543E+04  0.50400001928E-02 0.  1.
       -1    1    3    3    0  502 -0.43143162676E+03 -0.14151598174E+04  0.85612243155E+03  0.17093145337E+04  0.50400001928E-02 0. -1.
</event>
<event>
 5   0  0.1630571E-08  0.3399801E+04  0.7818609E-02  0.8137955E-01
        1   -1    0    0  501    0  0.00000000000E+00  0.00000000000E+00  0.16835174715E+04  0.16835174715E+04  0.50400001928E-02 0. -1.
       -1   -1    0    0    0  501  0.00000000000E+00  0.00000000000E+00 -0.17164433007E+04  0.17164433007E+04  0.50400001928E-02 0.  1.
    10030    2    1    2    0    0  0.00000000000E+00  0.00000000000E+00 -0.32925829197E+02  0.33999607723E+04  0.33998013387E+04 0.  0.
        3    1    3    3  502    0 -0.78101203642E+03 -0.14396482734E+04 -0.47156152738E+03  0.17043876426E+04  0.10100000352E+00 0.  1.
       -3    1    3    3    0  502  0.78101203642E+03  0.14396482734E+04  0.43863569818E+03  0.16955731296E+04  0.10100000352E+00 0. -1.
</event>
<event>
 5   0  0.4973409E-08  0.3400838E+04  0.7818609E-02  0.8137701E-01
       -2   -1    0    0    0  501  0.00000000000E+00  0.00000000000E+00  0.13253690989E+04  0.13253690989E+04  0.25500000920E-02 0. -1.
        2   -1    0    0  501    0  0.00000000000E+00  0.00000000000E+00 -0.21816000899E+04  0.21816000899E+04  0.25500000920E-02 0.  1.
    10030    2    1    2    0    0  0.00000000000E+00  0.00000000000E+00 -0.85623099094E+03  0.35069691888E+04  0.34008383351E+04 0.  0.
        1    1    3    3  502    0 -0.15329141287E+04  0.17073179917E+03 -0.11663117321E+04  0.19337161451E+04  0.50400001928E-02 0.  1.
       -1    1    3    3    0  502  0.15329141287E+04 -0.17073179917E+03  0.31008074118E+03  0.15732530437E+04  0.50400001928E-02 0. -1.
</event>
<event>
 5   0  0.1625282E-08  0.3400161E+04  0.7818609E-02  0.8137867E-01
       -1   -1    0    0    0  501  0.00000000000E+00  0.00000000000E+00  0.11986840147E+04  0.11986840147E+04  0.50400001928E-02 0.  1.
        1   -1    0    0  501    0  0.00000000000E+00  0.00000000000E+00 -0.24112059460E+04  0.24112059460E+04  0.50400001928E-02 0. -1.
    10030    2    1    2    0    0  0.00000000000E+00  0.00000000000E+00 -0.12125219313E+04  0.36098899607E+04  0.34001611866E+04 0.  0.
        1    1    3    3  502    0 -0.11223050742E+04  0.55884517369E+02 -0.19607201816E+04  0.22598927827E+04  0.50400001928E-02 0. -1.
       -1    1    3    3    0  502  0.11223050742E+04 -0.55884517369E+02  0.74819825025E+03  0.13499971780E+04  0.50400001928E-02 0.  1.
</event>
<event>
 5   0  0.5001197E-08  0.3402324E+04  0.7818609E-02  0.8137336E-01
        2   -1    0    0  501    0  0.00000000000E+00  0.00000000000E+00  0.25523202220E+04  0.25523202220E+04  0.25500000920E-02 0.  1.
       -2   -1    0    0    0  501  0.00000000000E+00  0.00000000000E+00 -0.11338512557E+04  0.11338512557E+04  0.25500000920E-02 0. -1.
    10030    2    1    2    0    0  0.00000000000E+00  0.00000000000E+00  0.14184689664E+04  0.36861714777E+04  0.34023236111E+04 0.  0.
        5    1    3    3  502    0  0.48781863044E+03 -0.10308591967E+03  0.24713740782E+04  0.25211714831E+04  0.46999998093E+01 0.  1.
       -5    1    3    3    0  502 -0.48781863044E+03  0.10308591967E+03 -0.10529051118E+04  0.11649999946E+04  0.46999998093E+01 0. -1.
</event>
<event>
 5   0  0.1595851E-08  0.3399876E+04  0.7818609E-02  0.8137937E-01
        1   -1    0    0  501    0  0.00000000000E+00  0.00000000000E+00  0.22168372962E+04  0.22168372962E+04  0.50400001928E-02 0. -1.
       -1   -1    0    0    0  501  0.00000000000E+00  0.00000000000E+00 -0.13035640573E+04  0.13035640573E+04  0.50400001928E-02 0.  1.
    10030    2    1    2    0    0  0.00000000000E+00  0.00000000000E+00  0.91327323885E+03  0.35204013535E+04  0.33998761273E+04 0.  0.
        2    1    3    3  502    0  0.13546542229E+04 -0.10226096623E+04  0.55470873140E+03  0.17856428427E+04  0.25500000920E-02 0. -1.
       -2    1    3    3    0  502 -0.13546542229E+04  0.10226096623E+04  0.35856450745E+03  0.17347585108E+04  0.25500000920E-02 0.  1.
</event>
<event>
 5   0  0.4946315E-08  0.3399726E+04  0.7818609E-02  0.8137974E-01
       -2   -1    0    0    0  501  0.00000000000E+00  0.00000000000E+00  0.28378832757E+04  0.28378832757E+04  0.25500000920E-02 0.  1.
        2   -1    0    0  501    0  0.00000000000E+00  0.00000000000E+00 -0.10182004966E+04  0.10182004966E+04  0.25500000920E-02 0. -1.
    10030    2    1    2    0    0  0.00000000000E+00  0.00000000000E+00  0.18196827791E+04  0.38560837723E+04  0.33997259657E+04 0.  0.
        3    1    3    3  502    0  0.42325650485E+03 -0.10124425424E+04 -0.56263169891E+03  0.12331830397E+04  0.10100000352E+00 0. -1.
       -3    1    3    3    0  502 -0.42325650485E+03  0.10124425424E+04  0.23823144780E+04  0.26229007326E+04  0.10100000352E+00 0.  1.
</event>
<event>
 5   0  0.4764953E-08  0.3383544E+04  0.7818609E-02  0.8141957E-01
        2   -1    0    0  501    0  0.00000000000E+00  0.00000000000E+00  0.13478230994E+04  0.13478230994E+04  0.25500000920E-02 0. -1.
       -2   -1    0    0    0  501  0.00000000000E+00  0.00000000000E+00 -0.21234925402E+04  0.21234925402E+04  0.25500000920E-02 0.  1.
    10030    2    1    2    0    0  0.00000000000E+00  0.00000000000E+00 -0.77566944076E+03  0.34713156396E+04  0.33835438801E+04 0.  0.
        2    1    3    3  502    0 -0.40224374516E+03  0.15051364836E+04  0.28870802452E+03  0.15844835715E+04  0.25500000920E-02 0. -1.
       -2    1    3    3    0  502  0.40224374516E+03 -0.15051364836E+04 -0.10643774653E+04  0.18868320681E+04  0.25500000920E-02 0.  1.
</event>
<event>
 5   0  0.1595851E-08  0.3396429E+04  0.7818609E-02  0.8138783E-01
       -1   -1    0    0    0  501  0.00000000000E+00  0.00000000000E+00  0.10575785643E+04  0.10575785643E+04  0.50400001928E-02 0. -1.
        1   -1    0    0  501    0  0.00000000000E+00  0.00000000000E+00 -0.27269198334E+04  0.27269198334E+04  0.50400001928E-02 0.  1.
    10030    2    1    2    0    0  0.00000000000E+00  0.00000000000E+00 -0.16693412691E+04  0.37844983977E+04  0.33964286904E+04 0.  0.
        2    1    3    3  502    0  0.12244878687E+04  0.11309706433E+04 -0.47280798185E+03  0.17326316759E+04  0.25500000920E-02 0. -1.
       -2    1    3    3    0  502 -0.12244878687E+04 -0.11309706433E+04 -0.11965332873E+04  0.20518667218E+04  0.25500000920E-02 0.  1.
</event>
<event>
 5   0  0.5001197E-08  0.3407592E+04  0.7818609E-02  0.8136045E-01
        2   -1    0    0  501    0  0.00000000000E+00  0.00000000000E+00  0.20688275034E+04  0.20688275034E+04  0.25500000920E-02 0. -1.
       -2   -1    0    0    0  501  0.00000000000E+00  0.00000000000E+00 -0.14031722085E+04  0.14031722085E+04  0.25500000920E-02 0.  1.
    10030    2    1    2    0    0  0.00000000000E+00  0.00000000000E+00  0.66565529482E+03  0.34719997119E+04  0.34075922626E+04 0.  0.
        5    1    3    3  502    0  0.55542922541E+03  0.58040842853E+03 -0.11980772291E+04  0.14424932253E+04  0.46999998093E+01 0.  1.
       -5    1    3    3    0  502 -0.55542922541E+03 -0.58040842853E+03  0.18637325239E+04  0.20295064866E+04  0.46999998093E+01 0. -1.
</event>
<event>
 5   0  0.5001197E-08  0.3399785E+04  0.7818609E-02  0.8137959E-01
        2   -1    0    0  501    0  0.00000000000E+00  0.00000000000E+00  0.95425810344E+03  0.95425810345E+03  0.25500000920E-02 0. -1.
       -2   -1    0    0    0  501  0.00000000000E+00  0.00000000000E+00 -0.30281471256E+04  0.30281471256E+04  0.25500000920E-02 0.  1.
    10030    2    1    2    0    0  0.00000000000E+00  0.00000000000E+00 -0.20738890222E+04  0.39824052291E+04  0.33997846597E+04 0.  0.
        5    1    3    3  502    0  0.15157509178E+04  0.20771357607E+03 -0.19048387197E+04  0.24431697470E+04  0.46999998093E+01 0.  1.
       -5    1    3    3    0  502 -0.15157509178E+04 -0.20771357607E+03 -0.16905030249E+03  0.15392354821E+04  0.46999998093E+01 0. -1.
</event>
<event>
 5   0  0.4946315E-08  0.3401267E+04  0.7818609E-02  0.8137595E-01
       -2   -1    0    0    0  501  0.00000000000E+00  0.00000000000E+00  0.10317377823E+04  0.10317377823E+04  0.25500000920E-02 0.  1.
        2   -1    0    0  501    0  0.00000000000E+00  0.00000000000E+00 -0.28031874669E+04  0.28031874669E+04  0.25500000920E-02 0. -1.
    10030    2    1    2    0    0  0.00000000000E+00  0.00000000000E+00 -0.17714496846E+04  0.38349252492E+04  0.34012670701E+04 0.  0.
        3    1    3    3  502    0  0.42753666065E+03  0.36473607866E+03  0.92401974104E+03  0.10814954902E+04  0.10100000352E+00 0.  1.
       -3    1    3    3    0  502 -0.42753666065E+03 -0.36473607866E+03 -0.26954694256E+04  0.27534297590E+04  0.10100000352E+00 0. -1.
</event>
<event>
 5   0  0.4973409E-08  0.3399802E+04  0.7818609E-02  0.8137955E-01
        2   -1    0    0  501    0  0.00000000000E+00  0.00000000000E+00  0.22495322955E+04  0.22495322955E+04  0.25500000920E-02 0. -1.
       -2   -1    0    0    0  501  0.00000000000E+00  0.00000000000E+00 -0.12845619870E+04  0.12845619870E+04  0.25500000920E-02 0.  1.
    10030    2    1    2    0    0  0.00000000000E+00  0.00000000000E+00  0.96497030841E+03  0.35340942825E+04  0.33998021562E+04 0.  0.
        1    1    3    3  502    0 -0.95610296793E+03 -0.43802347884E+03  0.18707786227E+04  0.21461151200E+04  0.50400001928E-02 0. -1.
       -1    1    3    3    0  502  0.95610296793E+03  0.43802347884E+03 -0.90580831426E+03  0.13879791625E+04  0.50400001928E-02 0.  1.
</event>
<event>
 5   0  0.1579536E-08  0.3396283E+04  0.7818609E-02  0.8138819E-01
        1   -1    0    0  501    0  0.00000000000E+00  0.00000000000E+00  0.20495540300E+04  0.20495540300E+04  0.50400001928E-02 0.  1.
       -1   -1    0    0    0  501  0.00000000000E+00  0.00000000000E+00 -0.14069818718E+04  0.14069818718E+04  0.50400001928E-02 0. -1.
    10030    2    1    2    0    0  0.00000000000E+00  0.00000000000E+00  0.64257215819E+03  0.34565359019E+04  0.33962834779E+04 0.  0.
        5    1    3    3  502    0 -0.44493442515E+03  0.32699912095E+03 -0.13130572452E+04  0.14244425179E+04  0.46999998093E+01 0. -1.
       -5    1    3    3    0  502  0.44493442515E+03 -0.32699912095E+03  0.19556294034E+04  0.20320933839E+04  0.46999998093E+01 0.  1.
</event>
<event>
 5   0  0.1625282E-08  0.3399628E+04  0.7818609E-02  0.8137998E-01
       -1   -1    0    0    0  501  0.00000000000E+00  0.00000000000E+00  0.21207374048E+04  0.21207374048E+04  0.50400001928E-02 0. -1.
        1   -1    0    0  501    0  0.00000000000E+00  0.00000000000E+00 -0.13624356307E+04  0.13624356307E+04  0.50400001928E-02 0.  1.
    10030    2    1    2    0    0  0.00000000000E+00  0.00000000000E+00  0.75830177406E+03  0.34831730355E+04  0.33996283348E+04 0.  0.
        1    1    3    3  502    0  0.13011400196E+04 -0.10832959384E+04  0.53410493352E+03  0.17753206811E+04  0.50400001928E-02 0. -1.
       -1    1    3    3    0  502 -0.13011400196E+04  0.10832959384E+04  0.22419684054E+03  0.17078523543E+04  0.50400001928E-02 0.  1.
</event>
<event>
 5   0  0.4764953E-08  0.3398202E+04  0.7818609E-02  0.8138348E-01
       -2   -1    0    0    0  501  0.00000000000E+00  0.00000000000E+00  0.14821391907E+04  0.14821391907E+04  0.25500000920E-02 0.  1.
        2   -1    0    0  501    0  0.00000000000E+00  0.00000000000E+00 -0.19478229092E+04  0.19478229092E+04  0.25500000920E-02 0. -1.
    10030    2    1    2    0    0  0.00000000000E+00  0.00000000000E+00 -0.46568371845E+03  0.34299620999E+04  0.33982022719E+04 0.  0.
        2    1    3    3  502    0  0.94551756711E+03  0.13956776799E+04 -0.18667722511E+02  0.16859027670E+04  0.25500000920E-02 0. -1.
       -2    1    3    3    0  502 -0.94551756711E+03 -0.13956776799E+04 -0.44701599594E+03  0.17440593329E+04  0.25500000920E-02 0.  1.
</event>
<event>
 5   0  0.1595851E-08  0.3401518E+04  0.7818609E-02  0.8137534E-01
       -1   -1    0    0    0  501  0.00000000000E+00  0.00000000000E+00  0.20031440221E+04  0.20031440222E+04  0.50400001928E-02 0.  1.
        1   -1    0    0  501    0  0.00000000000E+00  0.00000000000E+00 -0.14440207580E+04  0.14440207580E+04  0.50400001928E-02 0. -1.
    10030    2    1    2    0    0  0.00000000000E+00  0.00000000000E+00  0.55912326418E+03  0.34471647801E+04  0.34015182194E+04 0.  0.
        2    1    3    3  502    0 -0.12522967654E+04 -0.10385811537E+04 -0.22275467798E+03  0.16421076847E+04  0.25500000920E-02 0. -1.
       -2    1    3    3    0  502  0.12522967654E+04  0.10385811537E+04  0.78187794216E+03  0.18050570955E+04  0.25500000920E-02 0.  1.
</event>
<event>
 5   0  0.4973409E-08  0.3400419E+04  0.7818609E-02  0.8137804E-01
        2   -1    0    0  501    0  0.00000000000E+00  0.00000000000E+00  0.21252280279E+04  0.21252280279E+04  0.25500000920E-02 0.  1.
       -2   -1    0    0    0  501  0.00000000000E+00  0.00000000000E+00 -0.13601889346E+04  0.13601889346E+04  0.25500000920E-02 0. -1.
    10030    2    1    2    0    0  0.00000000000E+00  0.00000000000E+00  0.76503909336E+03  0.34854169625E+04  0.34004185902E+04 0.  0.
        1    1    3    3  502    0 -0.79981508275E+03  0.13996763546E+04 -0.17127606530E+03  0.16211519222E+04  0.50400001928E-02 0. -1.
       -1    1    3    3    0  502  0.79981508275E+03 -0.13996763546E+04  0.93631515866E+03  0.18642650403E+04  0.50400001928E-02 0.  1.
</event>
<event>
 5   0  0.5001197E-08  0.3395081E+04  0.7818609E-02  0.8139115E-01
        2   -1    0    0  501    0  0.00000000000E+00  0.00000000000E+00  0.18341259808E+04  0.18341259808E+04  0.25500000920E-02 0.  1.
       -2   -1    0    0    0  501  0.00000000000E+00  0.00000000000E+00 -0.15711264254E+04  0.15711264255E+04  0.25500000920E-02 0. -1.
    10030    2    1    2    0    0  0.00000000000E+00  0.00000000000E+00  0.26299955536E+03  0.34052524063E+04  0.33950810276E+04 0.  0.
        5    1    3    3  502    0 -0.13040452587E+04 -0.46767903715E+03 -0.85244074348E+03  0.16266330347E+04  0.46999998093E+01 0. -1.
       -5    1    3    3    0  502  0.13040452587E+04  0.46767903715E+03  0.11154402988E+04  0.17786193715E+04  0.46999998093E+01 0.  1.
</event>
<event>
 5   0  0.1579536E-08  0.3400501E+04  0.7818609E-02  0.8137783E-01
       -1   -1    0    0    0  501  0.00000000000E+00  0.00000000000E+00  0.12829052963E+04  0.12829052963E+04  0.50400001928E-02 0.  1.
        1   -1    0    0  501    0  0.00000000000E+00  0.00000000000E+00 -0.22533628052E+04  0.22533628052E+04  0.50400001928E-02 0. -1.
    10030    2    1    2    0    0  0.00000000000E+00  0.00000000000E+00 -0.97045750891E+03  0.35362681014E+04  0.34005005968E+04 0.  0.
        5    1    3    3  502    0 -0.56113797435E+03 -0.17562575788E+03 -0.21442635720E+04  0.22234227195E+04  0.46999998093E+01 0. -1.
       -5    1    3    3    0  502  0.56113797435E+03  0.17562575788E+03  0.11738060631E+04  0.13128453820E+04  0.46999998093E+01 0.  1.
</event>
<event>
 5   0  0.1579536E-08  0.3404543E+04  0.7818609E-02  0.8136792E-01
        1   -1    0    0  501    0  0.00000000000E+00  0.00000000000E+00  0.17639384903E+04  0.17639384903E+04  0.50400001928E-02 0. -1.
       -1   -1    0    0    0  501  0.00000000000E+00  0.00000000000E+00 -0.16427603463E+04  0.16427603463E+04  0.50400001928E-02 0.  1.
    10030    2    1    2    0    0  0.00000000000E+00  0.00000000000E+00  0.12117814403E+03  0.34066988366E+04  0.34045429680E+04 0.  0.
        5    1    3    3  502    0  0.29166176890E+02 -0.20482720755E+03  0.17513043183E+04  0.17634890859E+04  0.46999998093E+01 0. -1.
       -5    1    3    3    0  502 -0.29166176890E+02  0.20482720755E+03 -0.16301261743E+04  0.16432097507E+04  0.46999998093E+01 0.  1.
</event>
<event>
 5   0  0.4973409E-08  0.3399394E+04  0.7818609E-02  0.8138055E-01
       -2   -1    0    0    0  501  0.00000000000E+00  0.00000000000E+00  0.17226968409E+04  0.17226968409E+04  0.25500000920E-02 0.  1.
        2   -1    0    0  501    0  0.00000000000E+00  0.00000000000E+00 -0.16770041078E+04  0.16770041078E+04  0.25500000920E-02 0. -1.
    10030    2    1    2    0    0  0.00000000000E+00  0.00000000000E+00  0.45692733076E+02  0.33997009488E+04  0.33993938747E+04 0.  0.
        1    1    3    3  502    0 -0.98476596505E+03 -0.11728782854E+04  0.76017967460E+03  0.17097603972E+04  0.50400001928E-02 0.  1.
       -1    1    3    3    0  502  0.98476596505E+03  0.11728782854E+04 -0.71448694153E+03  0.16899405516E+04  0.50400001928E-02 0. -1.
</event>
<event>
 5   0  0.4775023E-08  0.3400368E+04  0.7818609E-02  0.8137816E-01
       -2   -1    0    0    0  501  0.00000000000E+00  0.00000000000E+00  0.10302472744E+04  0.10302472744E+04  0.25500000920E-02 0.  1.
        2   -1    0    0  501    0  0.00000000000E+00  0.00000000000E+00 -0.28057591869E+04  0.28057591869E+04  0.25500000920E-02 0. -1.
    10030    2    1    2    0    0  0.00000000000E+00  0.00000000000E+00 -0.17755119125E+04  0.38360064613E+04  0.34003680712E+04 0.  0.
        4    1    3    3  502    0 -0.13285660428E+04 -0.75544763660E+03 -0.47453883418E+02  0.15290658408E+04  0.12699999809E+01 0.  1.
       -4    1    3    3    0  502  0.13285660428E+04  0.75544763660E+03 -0.17280580290E+04  0.23069406205E+04  0.12699999809E+01 0. -1.
</event>
<event>
 5   0  0.1595851E-08  0.3400252E+04  0.7818609E-02  0.8137844E-01
        1   -1    0    0  501    0  0.00000000000E+00  0.00000000000E+00  0.20691856651E+04  0.20691856651E+04  0.50400001928E-02 0. -1.
       -1   -1    0    0    0  501  0.00000000000E+00  0.00000000000E+00 -0.13968920713E+04  0.13968920713E+04  0.50400001928E-02 0.  1.
    10030    2    1    2    0    0  0.00000000000E+00  0.00000000000E+00  0.67229359381E+03  0.34660777364E+04  0.34002523727E+04 0.  0.
        2    1    3    3  502    0  0.11727166521E+04  0.94224011927E+03  0.11435333196E+04  0.18896426227E+04  0.25500000920E-02 0. -1.
       -2    1    3    3    0  502 -0.11727166521E+04 -0.94224011927E+03 -0.47123972578E+03  0.15764351137E+04  0.25500000920E-02 0.  1.
</event>
<event>
 5   0  0.1645631E-08  0.3401243E+04  0.7818609E-02  0.8137601E-01
       -1   -1    0    0    0  501  0.00000000000E+00  0.00000000000E+00  0.12036941051E+04  0.12036941052E+04  0.50400001928E-02 0.  1.
        1   -1    0    0  501    0  0.00000000000E+00  0.00000000000E+00 -0.24026981489E+04  0.24026981489E+04  0.50400001928E-02 0. -1.
    10030    2    1    2    0    0  0.00000000000E+00  0.00000000000E+00 -0.11990040437E+04  0.36063922540E+04  0.34012430659E+04 0.  0.
        4    1    3    3  502    0  0.36335433086E+03  0.15538083705E+04 -0.12229868786E+04  0.20104838572E+04  0.12699999809E+01 0. -1.
       -4    1    3    3    0  502 -0.36335433086E+03 -0.15538083705E+04  0.23982834869E+02  0.15959083969E+04  0.12699999809E+01 0.  1.
</event>
<event>
 5   0  0.4946315E-08  0.3399466E+04  0.7818609E-02  0.8138037E-01
       -2   -1    0    0    0  501  0.00000000000E+00  0.00000000000E+00  0.11335757260E+04  0.11335757260E+04  0.25500000920E-02 0. -1.
        2   -1    0    0  501    0  0.00000000000E+00  0.00000000000E+00 -0.25486544423E+04  0.25486544423E+04  0.25500000920E-02 0.  1.
    10030    2    1    2    0    0  0.00000000000E+00  0.00000000000E+00 -0.14150787164E+04  0.36822301683E+04  0.33994663168E+04 0.  0.
        3    1    3    3  502    0  0.26341299996E+03 -0.72251626800E+03 -0.23494315717E+04  0.24720932196E+04  0.10100000352E+00 0.  1.
       -3    1    3    3    0  502 -0.26341299996E+03  0.72251626800E+03  0.93435285535E+03  0.12101369487E+04  0.10100000352E+00 0. -1.
</event>
<event>
 5   0  0.1625282E-08  0.3405573E+04  0.7818609E-02  0.8136540E-01
       -1   -1    0    0    0  501  0.00000000000E+00  0.00000000000E+00  0.13846726367E+04  0.13846726367E+04  0.50400001928E-02 0.  1.
        1   -1    0    0  501    0  0.00000000000E+00  0.00000000000E+00 -0.20939834985E+04  0.20939834985E+04  0.50400001928E-02 0. -1.
    10030    2    1    2    0    0  0.00000000000E+00  0.00000000000E+00 -0.70931086176E+03  0.34786561352E+04  0.34055728752E+04 0.  0.
        1    1    3    3  502    0 -0.22171471597E+03 -0.41345469876E+03 -0.20266637494E+04  0.20802567525E+04  0.50400001928E-02 0. -1.
       -1    1    3    3    0  502  0.22171471597E+03  0.41345469876E+03  0.13173528876E+04  0.13983993828E+04  0.50400001928E-02 0.  1.
</event>
<event>
 5   0  0.4946315E-08  0.3402577E+04  0.7818609E-02  0.8137274E-01
       -2   -1    0    0    0  501  0.00000000000E+00  0.00000000000E+00  0.16731199679E+04  0.16731199679E+04  0.25500000920E-02 0.  1.
        2   -1    0    0  501    0  0.00000000000E+00  0.00000000000E+00 -0.17299311330E+04  0.17299311330E+04  0.25500000920E-02 0. -1.
    10030    2    1    2    0    0  0.00000000000E+00  0.00000000000E+00 -0.56811165077E+02  0.34030511009E+04  0.34025768598E+04 0.  0.
        3    1    3    3  502    0 -0.10486341135E+04  0.68198962988E+03  0.11248548479E+04  0.16822728073E+04  0.10100000352E+00 0.  1.
       -3    1    3    3    0  502  0.10486341135E+04 -0.68198962988E+03 -0.11816660129E+04  0.17207782936E+04  0.10100000352E+00 0. -1.
</event>
<event>
 5   0  0.1595851E-08  0.3396820E+04  0.7818609E-02  0.8138687E-01
        1   -1    0    0  501    0  0.00000000000E+00  0.00000000000E+00  0.19983023097E+04  0.19983023097E+04  0.50400001928E-02 0.  1.
       -1   -1    0    0    0  501  0.00000000000E+00  0.00000000000E+00 -0.14435235920E+04  0.14435235920E+04  0.50400001928E-02 0. -1.
    10030    2    1    2    0    0  0.00000000000E+00  0.00000000000E+00  0.55477871767E+03  0.34418259017E+04  0.33968199999E+04 0.  0.
        2    1    3    3  502    0 -0.93862352238E+03  0.12954733862E+04  0.85532458562E+03  0.18140687853E+04  0.25500000920E-02 0.  1.
       -2    1    3    3    0  502  0.93862352238E+03 -0.12954733862E+04 -0.30054586795E+03  0.16277571163E+04  0.25500000920E-02 0. -1.
</event>
<event>
 5   0  0.4973409E-08  0.3413195E+04  0.7818609E-02  0.8134675E-01
        2   -1    0    0  501    0  0.00000000000E+00  0.00000000000E+00  0.23246983542E+04  0.23246983542E+04  0.25500000920E-02 0.  1.
       -2   -1    0    0    0  501  0.00000000000E+00  0.00000000000E+00 -0.12528401856E+04  0.12528401856E+04  0.25500000920E-02 0. -1.
    10030    2    1    2    0    0  0.00000000000E+00  0.00000000000E+00  0.10718581686E+04  0.35775385399E+04  0.34131952875E+04 0.  0.
        1    1    3    3  502    0 -0.38761989128E+03  0.15844602411E+04  0.10062936443E+02  0.16312157118E+04  0.50400001928E-02 0.  1.
       -1    1    3    3    0  502  0.38761989128E+03 -0.15844602411E+04  0.10617952321E+04  0.19463228280E+04  0.50400001928E-02 0. -1.
</event>
<event>
 5   0  0.4764953E-08  0.3392923E+04  0.7818609E-02  0.8139646E-01
       -2   -1    0    0    0  501  0.00000000000E+00  0.00000000000E+00  0.13582294190E+04  0.13582294190E+04  0.25500000920E-02 0.  1.
        2   -1    0    0  501    0  0.00000000000E+00  0.00000000000E+00 -0.21189211537E+04  0.21189211537E+04  0.25500000920E-02 0. -1.
    10030    2    1    2    0    0  0.00000000000E+00  0.00000000000E+00 -0.76069173478E+03  0.34771505727E+04  0.33929226619E+04 0.  0.
        2    1    3    3  502    0 -0.15106687793E+04  0.77159812000E+03 -0.40319803058E+03  0.17435746245E+04  0.25500000920E-02 0.  1.
       -2    1    3    3    0  502  0.15106687793E+04 -0.77159812000E+03 -0.35749370420E+03  0.17335759482E+04  0.25500000920E-02 0. -1.
</event>
<event>
 5   0  0.1573625E-08  0.3400715E+04  0.7818609E-02  0.8137731E-01
       -3   -1    0    0    0  501  0.00000000000E+00  0.00000000000E+00  0.19111204147E+04  0.19111204174E+04  0.10100000352E+00 0.  1.
        3   -1    0    0  501    0  0.00000000000E+00  0.00000000000E+00 -0.15128381190E+04  0.15128381224E+04  0.10100000352E+00 0. -1.
    10030    2    1    2    0    0  0.00000000000E+00  0.00000000000E+00  0.39828229569E+03  0.34239585398E+04  0.34007151152E+04 0.  0.
        3    1    3    3  502    0  0.26532754471E+03  0.84819442037E+03  0.16586639593E+04  0.18817541340E+04  0.10100000352E+00 0.  1.
       -3    1    3    3    0  502 -0.26532754471E+03 -0.84819442037E+03 -0.12603816637E+04  0.15422044057E+04  0.10100000352E+00 0. -1.
</event>
<event>
 5   0  0.1645631E-08  0.3400607E+04  0.7818609E-02  0.8137757E-01
       -1   -1    0    0    0  501  0.00000000000E+00  0.00000000000E+00  0.11194678913E+04  0.11194678913E+04  0.50400001928E-02 0.  1.
        1   -1    0    0  501    0  0.00000000000E+00  0.00000000000E+00 -0.25825058609E+04  0.25825058609E+04  0.50400001928E-02 0. -1.
    10030    2    1    2    0    0  0.00000000000E+00  0.00000000000E+00 -0.14630379696E+04  0.37019737521E+04  0.34006072342E+04 0.  0.
        4    1    3    3  502    0 -0.14298002084E+04 -0.68366698611E+02 -0.17304607303E+04  0.22457734956E+04  0.12699999809E+01 0. -1.
       -4    1    3    3    0  502  0.14298002084E+04  0.68366698611E+02  0.26742276067E+03  0.14562002566E+04  0.12699999809E+01 0.  1.
</event>
<event>
 5   0  0.4775023E-08  0.3399679E+04  0.7818609E-02  0.8137985E-01
       -2   -1    0    0    0  501  0.00000000000E+00  0.00000000000E+00  0.15265850249E+04  0.15265850249E+04  0.25500000920E-02 0. -1.
        2   -1    0    0  501    0  0.00000000000E+00  0.00000000000E+00 -0.18927566432E+04  0.18927566432E+04  0.25500000920E-02 0.  1.
    10030    2    1    2    0    0  0.00000000000E+00  0.00000000000E+00 -0.36617161835E+03  0.34193416681E+04  0.33996787774E+04 0.  0.
        4    1    3    3  502    0 -0.21962927739E+03 -0.74447652376E+03 -0.17041055485E+04  0.18725543109E+04  0.12699999809E+01 0.  1.
       -4    1    3    3    0  502  0.21962927739E+03  0.74447652376E+03  0.13379339302E+04  0.15467873572E+04  0.12699999809E+01 0. -1.
</event>
<event>
 5   0  0.5001197E-08  0.3399138E+04  0.7818609E-02  0.8138118E-01
       -2   -1    0    0    0  501  0.00000000000E+00  0.00000000000E+00  0.30077547334E+04  0.30077547334E+04  0.25500000920E-02 0.  1.
        2   -1    0    0  501    0  0.00000000000E+00  0.00000000000E+00 -0.96036267891E+03  0.96036267891E+03  0.25500000920E-02 0. -1.
    10030    2    1    2    0    0  0.00000000000E+00  0.00000000000E+00  0.20473920545E+04  0.39681174123E+04  0.33991383575E+04 0.  0.
        5    1    3    3  502    0 -0.31116273028E+02 -0.47970352295E+03  0.29267300669E+04  0.29659492017E+04  0.46999998093E+01 0.  1.
       -5    1    3    3    0  502  0.31116273028E+02  0.47970352295E+03 -0.87933801240E+03  0.10021682106E+04  0.46999998093E+01 0. -1.
</event>
<event>
 5   0  0.1625282E-08  0.3398975E+04  0.7818609E-02  0.8138158E-01
        1   -1    0    0  501    0  0.00000000000E+00  0.00000000000E+00  0.17965028341E+04  0.17965028341E+04  0.50400001928E-02 0. -1.
       -1   -1    0    0    0  501  0.00000000000E+00  0.00000000000E+00 -0.16077115533E+04  0.16077115533E+04  0.50400001928E-02 0.  1.
    10030    2    1    2    0    0  0.00000000000E+00  0.00000000000E+00  0.18879128083E+03  0.34042143875E+04  0.33989753527E+04 0.  0.
        1    1    3    3  502    0 -0.15063926525E+03 -0.12650338783E+04  0.12209651623E+04  0.17645846052E+04  0.50400001928E-02 0. -1.
       -1    1    3    3    0  502  0.15063926525E+03  0.12650338783E+04 -0.10321738815E+04  0.16396297823E+04  0.50400001928E-02 0.  1.
</event>
<event>
 5   0  0.4775023E-08  0.3401042E+04  0.7818609E-02  0.8137651E-01
        2   -1    0    0  501    0  0.00000000000E+00  0.00000000000E+00  0.11397655741E+04  0.11397655741E+04  0.25500000920E-02 0. -1.
       -2   -1    0    0    0  501  0.00000000000E+00  0.00000000000E+00 -0.25371633562E+04  0.25371633562E+04  0.25500000920E-02 0.  1.
    10030    2    1    2    0    0  0.00000000000E+00  0.00000000000E+00 -0.13973977820E+04  0.36769289303E+04  0.34010418694E+04 0.  0.
        4    1    3    3  502    0 -0.15355739920E+04 -0.44114345749E+03 -0.13283283608E+04  0.20777518817E+04  0.12699999809E+01 0.  1.
       -4    1    3    3    0  502  0.15355739920E+04  0.44114345749E+03 -0.69069421227E+02  0.15991770486E+04  0.12699999809E+01 0. -1.
</event>
<event>
 5   0  0.1630571E-08  0.3396031E+04  0.7818609E-02  0.8138881E-01
        1   -1    0    0  501    0  0.00000000000E+00  0.00000000000E+00  0.28574485643E+04  0.28574485643E+04  0.50400001928E-02 0. -1.
       -1   -1    0    0    0  501  0.00000000000E+00  0.00000000000E+00 -0.10090318033E+04  0.10090318033E+04  0.50400001928E-02 0.  1.
    10030    2    1    2    0    0  0.00000000000E+00  0.00000000000E+00  0.18484167610E+04  0.38664803676E+04  0.33960309054E+04 0.  0.
        3    1    3    3  502    0 -0.53354284248E+03 -0.72851772978E+03 -0.71299915808E+03  0.11505537176E+04  0.10100000352E+00 0.  1.
       -3    1    3    3    0  502  0.53354284248E+03  0.72851772978E+03  0.25614159191E+04  0.27159266500E+04  0.10100000352E+00 0. -1.
</event>
<event>
 5   0  0.1595851E-08  0.3403379E+04  0.7818609E-02  0.8137077E-01
       -1   -1    0    0    0  501  0.00000000000E+00  0.00000000000E+00  0.25662004374E+04  0.25662004374E+04  0.50400001928E-02 0.  1.
        1   -1    0    0  501    0  0.00000000000E+00  0.00000000000E+00 -0.11284181840E+04  0.11284181840E+04  0.50400001928E-02 0. -1.
    10030    2    1    2    0    0  0.00000000000E+00  0.00000000000E+00  0.14377822534E+04  0.36946186215E+04  0.34033790488E+04 0.  0.
        2    1    3    3  502    0 -0.13880937611E+04 -0.91730781957E+03  0.11065022061E+04  0.19981504092E+04  0.25500000920E-02 0.  1.
       -2    1    3    3    0  502  0.13880937611E+04  0.91730781957E+03  0.33128004729E+03  0.16964682123E+04  0.25500000920E-02 0. -1.
</event>
<event>
 5   0  0.1595851E-08  0.3398166E+04  0.7818609E-02  0.8138357E-01
       -1   -1    0    0    0  501  0.00000000000E+00  0.00000000000E+00  0.21568441047E+04  0.21568441047E+04  0.50400001928E-02 0.  1.
        1   -1    0    0  501    0  0.00000000000E+00  0.00000000000E+00 -0.13384752529E+04  0.13384752530E+04  0.50400001928E-02 0. -1.
    10030    2    1    2    0    0  0.00000000000E+00  0.00000000000E+00  0.81836885178E+03  0.34953193577E+04  0.33981656573E+04 0.  0.
        2    1    3    3  502    0 -0.47991955474E+03 -0.16298952672E+04  0.40810683269E+03  0.17474073789E+04  0.25500000920E-02 0.  1.
       -2    1    3    3    0  502  0.47991955474E+03  0.16298952672E+04  0.41026201909E+03  0.17479119787E+04  0.25500000920E-02 0. -1.
</event>
<event>
 5   0  0.1625282E-08  0.3403255E+04  0.7818609E-02  0.8137108E-01
        1   -1    0    0  501    0  0.00000000000E+00  0.00000000000E+00  0.22704294340E+04  0.22704294340E+04  0.50400001928E-02 0. -1.
       -1   -1    0    0    0  501  0.00000000000E+00  0.00000000000E+00 -0.12753255930E+04  0.12753255930E+04  0.50400001928E-02 0.  1.
    10030    2    1    2    0    0  0.00000000000E+00  0.00000000000E+00  0.99510384099E+03  0.35457550271E+04  0.34032553618E+04 0.  0.
        1    1    3    3  502    0 -0.50621653203E+03 -0.14670096145E+04 -0.22964486792E+03  0.15687922590E+04  0.50400001928E-02 0.  1.
       -1    1    3    3    0  502  0.50621653203E+03  0.14670096145E+04  0.12247487089E+04  0.19769627681E+04  0.50400001928E-02 0. -1.
</event>
<event>
 5   0  0.1579536E-08  0.3401043E+04  0.7818609E-02  0.8137650E-01
       -1   -1    0    0    0  501  0.00000000000E+00  0.00000000000E+00  0.16028099750E+04  0.16028099750E+04  0.50400001928E-02 0.  1.
        1   -1    0    0  501    0  0.00000000000E+00  0.00000000000E+00 -0.18041892761E+04  0.18041892761E+04  0.50400001928E-02 0. -1.
    10030    2    1    2    0    0  0.00000000000E+00  0.00000000000E+00 -0.20137930110E+03  0.34069992511E+04  0.34010425275E+04 0.  0.
        5    1    3    3  502    0  0.86905505656E+03  0.84327702958E+03 -0.12966724845E+04  0.17741912135E+04  0.46999998093E+01 0. -1.
       -5    1    3    3    0  502 -0.86905505656E+03 -0.84327702958E+03  0.10952931834E+04  0.16328080376E+04  0.46999998093E+01 0.  1.
</event>
<event>
 5   0  0.1595851E-08  0.3398656E+04  0.7818609E-02  0.8138236E-01
        1   -1    0    0  501    0  0.00000000000E+00  0.00000000000E+00  0.26292764177E+04  0.26292764177E+04  0.50400001928E-02 0.  1.
       -1   -1    0    0    0  501  0.00000000000E+00  0.00000000000E+00 -0.10982930549E+04  0.10982930549E+04  0.50400001928E-02 0. -1.
    10030    2    1    2    0    0  0.00000000000E+00  0.00000000000E+00  0.15309833628E+04  0.37275694726E+04  0.33986562221E+04 0.  0.
        2    1    3    3  502    0 -0.80152791847E+02 -0.12665038467E+04 -0.47404131109E+03  0.13546850662E+04  0.25500000920E-02 0. -1.
       -2    1    3    3    0  502  0.80152791847E+02  0.12665038467E+04  0.20050246739E+04  0.23728844065E+04  0.25500000920E-02 0.  1.
</event>
<event>
 5   0  0.4775023E-08  0.3408080E+04  0.7818609E-02  0.8135926E-01
       -2   -1    0    0    0  501  0.00000000000E+00  0.00000000000E+00  0.15666322509E+04  0.15666322509E+04  0.25500000920E-02 0.  1.
        2   -1    0    0  501    0  0.00000000000E+00  0.00000000000E+00 -0.18534996602E+04  0.18534996602E+04  0.25500000920E-02 0. -1.
    10030    2    1    2    0    0  0.00000000000E+00  0.00000000000E+00 -0.28686740927E+03  0.34201319111E+04  0.34080800136E+04 0.  0.
        4    1    3    3  502    0 -0.12030623962E+04 -0.11288323242E+04  0.28484141813E+03  0.16741438981E+04  0.12699999809E+01 0.  1.
       -4    1    3    3    0  502  0.12030623962E+04  0.11288323242E+04 -0.57170882740E+03  0.17459880130E+04  0.12699999809E+01 0. -1.
</event>
<event>
 5   0  0.4775023E-08  0.3401402E+04  0.7818609E-02  0.8137562E-01
       -2   -1    0    0    0  501  0.00000000000E+00  0.00000000000E+00  0.13500671469E+04  0.13500671469E+04  0.25500000920E-02 0. -1.
        2   -1    0    0  501    0  0.00000000000E+00  0.00000000000E+00 -0.21424001536E+04  0.21424001536E+04  0.25500000920E-02 0.  1.
    10030    2    1    2    0    0  0.00000000000E+00  0.00000000000E+00 -0.79233300667E+03  0.34924673005E+04  0.34014021008E+04 0.  0.
        4    1    3    3  502    0  0.11222039023E+04  0.11686438058E+04  0.13469839760E+03  0.16257967937E+04  0.12699999809E+01 0. -1.
       -4    1    3    3    0  502 -0.11222039023E+04 -0.11686438058E+04 -0.92703140427E+03  0.18666705067E+04  0.12699999809E+01 0.  1.
</event>
<event>
 5   0  0.4775023E-08  0.3417914E+04  0.7818609E-02  0.8133524E-01
        2   -1    0    0  501    0  0.00000000000E+00  0.00000000000E+00  0.17949368655E+04  0.17949368655E+04  0.25500000920E-02 0.  1.
       -2   -1    0    0    0  501  0.00000000000E+00  0.00000000000E+00 -0.16270957650E+04  0.16270957650E+04  0.25500000920E-02 0. -1.
    10030    2    1    2    0    0  0.00000000000E+00  0.00000000000E+00  0.16784110050E+03  0.34220326305E+04  0.34179140845E+04 0.  0.
        4    1    3    3  502    0  0.14709559895E+03 -0.74952547708E+03 -0.14466815435E+04  0.16359445764E+04  0.12699999809E+01 0. -1.
       -4    1    3    3    0  502 -0.14709559895E+03  0.74952547708E+03  0.16145226440E+04  0.17860880540E+04  0.12699999809E+01 0.  1.
</event>
<event>
 5   0  0.1645631E-08  0.3399764E+04  0.7818609E-02  0.8137964E-01
       -1   -1    0    0    0  501  0.00000000000E+00  0.00000000000E+00  0.12090019043E+04  0.12090019043E+04  0.50400001928E-02 0. -1.
        1   -1    0    0  501    0  0.00000000000E+00  0.00000000000E+00 -0.23900690722E+04  0.23900690722E+04  0.50400001928E-02 0.  1.
    10030    2    1    2    0    0  0.00000000000E+00  0.00000000000E+00 -0.11810671679E+04  0.35990709765E+04  0.33997635563E+04 0.  0.
        4    1    3    3  502    0 -0.82811036654E+03  0.14364120971E+04 -0.98741160878E+03  0.19297745438E+04  0.12699999809E+01 0. -1.
       -4    1    3    3    0  502  0.82811036654E+03 -0.14364120971E+04 -0.19365555917E+03  0.16692964327E+04  0.12699999809E+01 0.  1.
</event>
<event>
 5   0  0.1645631E-08  0.3409980E+04  0.7818609E-02  0.8135461E-01
        1   -1    0    0  501    0  0.00000000000E+00  0.00000000000E+00  0.14613473416E+04  0.14613473416E+04  0.50400001928E-02 0. -1.
       -1   -1    0    0    0  501  0.00000000000E+00  0.00000000000E+00 -0.19892537059E+04  0.19892537059E+04  0.50400001928E-02 0.  1.
    10030    2    1    2    0    0  0.00000000000E+00  0.00000000000E+00 -0.52790636435E+03  0.34506010475E+04  0.34099798327E+04 0.  0.
        4    1    3    3  502    0 -0.22224500953E+03 -0.14449799701E+04 -0.11516888379E+04  0.18611149213E+04  0.12699999809E+01 0.  1.
       -4    1    3    3    0  502  0.22224500953E+03  0.14449799701E+04  0.62378247351E+03  0.15894861262E+04  0.12699999809E+01 0. -1.
</event>
<event>
 5   0  0.5001197E-08  0.3390892E+04  0.7818609E-02  0.8140145E-01
       -2   -1    0    0    0  501  0.00000000000E+00  0.00000000000E+00  0.12897867061E+04  0.12897867061E+04  0.25500000920E-02 0. -1.
        2   -1    0    0  501    0  0.00000000000E+00  0.00000000000E+00 -0.22286914669E+04  0.22286914669E+04  0.25500000920E-02 0.  1.
    10030    2    1    2    0    0  0.00000000000E+00  0.00000000000E+00 -0.93890476079E+03  0.35184781729E+04  0.33908916974E+04 0.  0.
        5    1    3    3  502    0  0.70447269665E+02  0.73090721479E+03 -0.20551294032E+04  0.21823764864E+04  0.46999998093E+01 0.  1.
       -5    1    3    3    0  502 -0.70447269665E+02 -0.73090721479E+03  0.11162246424E+04  0.13361016865E+04  0.46999998093E+01 0. -1.
</event>
<event>
 5   0  0.1579536E-08  0.3399920E+04  0.7818609E-02  0.8137926E-01
       -1   -1    0    0    0  501  0.00000000000E+00  0.00000000000E+00  0.13560467625E+04  0.13560467625E+04  0.50400001928E-02 0. -1.
        1   -1    0    0  501    0  0.00000000000E+00  0.00000000000E+00 -0.21310951072E+04  0.21310951072E+04  0.50400001928E-02 0.  1.
    10030    2    1    2    0    0  0.00000000000E+00  0.00000000000E+00 -0.77504834463E+03  0.34871418697E+04  0.33999203642E+04 0.  0.
        5    1    3    3  502    0 -0.10325198084E+04 -0.98440462864E+03 -0.13357372059E+04  0.19543197284E+04  0.46999998093E+01 0. -1.
       -5    1    3    3    0  502  0.10325198084E+04  0.98440462864E+03  0.56068886128E+03  0.15328221413E+04  0.46999998093E+01 0.  1.
</event>
<event>
 5   0  0.1579536E-08  0.3401455E+04  0.7818609E-02  0.8137549E-01
        1   -1    0    0  501    0  0.00000000000E+00  0.00000000000E+00  0.24017969124E+04  0.24017969124E+04  0.50400001928E-02 0. -1.
       -1   -1    0    0    0  501  0.00000000000E+00  0.00000000000E+00 -0.12042961111E+04  0.12042961111E+04  0.50400001928E-02 0.  1.
    10030    2    1    2    0    0  0.00000000000E+00  0.00000000000E+00  0.11975008013E+04  0.36060930235E+04  0.34014553834E+04 0.  0.
        5    1    3    3  502    0  0.53637158221E+03  0.83443519473E+03  0.20633385002E+04  0.22894026350E+04  0.46999998093E+01 0. -1.
       -5    1    3    3    0  502 -0.53637158221E+03 -0.83443519473E+03 -0.86583769892E+03  0.13166903885E+04  0.46999998093E+01 0.  1.
</event>
<event>
 5   0  0.4764953E-08  0.3400182E+04  0.7818609E-02  0.8137862E-01
       -2   -1    0    0    0  501  0.00000000000E+00  0.00000000000E+00  0.12230989878E+04  0.12230989878E+04  0.25500000920E-02 0. -1.
        2   -1    0    0  501    0  0.00000000000E+00  0.00000000000E+00 -0.23631032939E+04  0.23631032939E+04  0.25500000920E-02 0.  1.
    10030    2    1    2    0    0  0.00000000000E+00  0.00000000000E+00 -0.11400043062E+04  0.35862022817E+04  0.34001819050E+04 0.  0.
        2    1    3    3  502    0 -0.12047042091E+04 -0.11979519245E+04 -0.50406637664E+03  0.17721410658E+04  0.25500000920E-02 0. -1.
       -2    1    3    3    0  502  0.12047042091E+04  0.11979519245E+04 -0.63593792955E+03  0.18140612159E+04  0.25500000920E-02 0.  1.
</event>
<event>
 5   0  0.1630571E-08  0.3401213E+04  0.7818609E-02  0.8137609E-01
        1   -1    0    0  501    0  0.00000000000E+00  0.00000000000E+00  0.16058339968E+04  0.16058339969E+04  0.50400001928E-02 0. -1.
       -1   -1    0    0    0  501  0.00000000000E+00  0.00000000000E+00 -0.18009723777E+04  0.18009723777E+04  0.50400001928E-02 0.  1.
    10030    2    1    2    0    0  0.00000000000E+00  0.00000000000E+00 -0.19513838085E+03  0.34068063746E+04  0.34012131198E+04 0.  0.
        3    1    3    3  502    0 -0.70954112938E+03 -0.50358408536E+03  0.13660034626E+04  0.16195712443E+04  0.10100000352E+00 0. -1.
       -3    1    3    3    0  502  0.70954112938E+03  0.50358408536E+03 -0.15611418434E+04  0.17872351303E+04  0.10100000352E+00 0.  1.
</event>
<event>
 5   0  0.4946315E-08  0.3400023E+04  0.7818609E-02  0.8137901E-01
        2   -1    0    0  501    0  0.00000000000E+00  0.00000000000E+00  0.20573046281E+04  0.20573046281E+04  0.25500000920E-02 0. -1.
       -2   -1    0    0    0  501  0.00000000000E+00  0.00000000000E+00 -0.14047695949E+04  0.14047695949E+04  0.25500000920E-02 0.  1.
    10030    2    1    2    0    0  0.00000000000E+00  0.00000000000E+00  0.65253503322E+03  0.34620742230E+04  0.34000229346E+04 0.  0.
        3    1    3    3  502    0  0.65968920267E+02 -0.14432676079E+03 -0.13972114682E+04  0.14061941578E+04  0.10100000352E+00 0.  1.
       -3    1    3    3    0  502 -0.65968920267E+02  0.14432676079E+03  0.20497465014E+04  0.20558800652E+04  0.10100000352E+00 0. -1.
</event>
<event>
 5   0  0.4775023E-08  0.3400518E+04  0.7818609E-02  0.8137779E-01
       -2   -1    0    0    0  501  0.00000000000E+00  0.00000000000E+00  0.15879683380E+04  0.15879683380E+04  0.25500000920E-02 0.  1.
        2   -1    0    0  501    0  0.00000000000E+00  0.00000000000E+00 -0.18204900793E+04  0.18204900793E+04  0.25500000920E-02 0. -1.
    10030    2    1    2    0    0  0.00000000000E+00  0.00000000000E+00 -0.23252174127E+03  0.34084584173E+04  0.34005179638E+04 0.  0.
        4    1    3    3  502    0  0.10198309105E+04 -0.12766195951E+04 -0.58753566620E+03  0.17363791200E+04  0.12699999809E+01 0.  1.
       -4    1    3    3    0  502 -0.10198309105E+04  0.12766195951E+04  0.35501392493E+03  0.16720792973E+04  0.12699999809E+01 0. -1.
</event>
<event>
 5   0  0.4775023E-08  0.3400716E+04  0.7818609E-02  0.8137730E-01
       -2   -1    0    0    0  501  0.00000000000E+00  0.00000000000E+00  0.19060604675E+04  0.19060604675E+04  0.25500000920E-02 0.  1.
        2   -1    0    0  501    0  0.00000000000E+00  0.00000000000E+00 -0.15168554313E+04  0.15168554313E+04  0.25500000920E-02 0. -1.
    10030    2    1    2    0    0  0.00000000000E+00  0.00000000000E+00  0.38920503620E+03  0.34229158987E+04  0.34007164965E+04 0.  0.
        4    1    3    3  502    0  0.34644892865E+03 -0.29478603967E+03  0.18436782070E+04  0.18989672491E+04  0.12699999809E+01 0.  1.
       -4    1    3    3    0  502 -0.34644892865E+03  0.29478603967E+03 -0.14544731708E+04  0.15239486496E+04  0.12699999809E+01 0. -1.
</event>
<event>
 5   0  0.1595851E-08  0.3401117E+04  0.7818609E-02  0.8137632E-01
        1   -1    0    0  501    0  0.00000000000E+00  0.00000000000E+00  0.14066136812E+04  0.14066136812E+04  0.50400001928E-02 0. -1.
       -1   -1    0    0    0  501  0.00000000000E+00  0.00000000000E+00 -0.20559297887E+04  0.20559297887E+04  0.50400001928E-02 0.  1.
    10030    2    1    2    0    0  0.00000000000E+00  0.00000000000E+00 -0.64931610752E+03  0.34625434699E+04  0.34011168567E+04 0.  0.
        2    1    3    3  502    0 -0.15463848493E+04  0.24585130997E+03  0.35076212801E+03  0.16046130497E+04  0.25500000920E-02 0. -1.
       -2    1    3    3    0  502  0.15463848493E+04 -0.24585130997E+03 -0.10000782355E+04  0.18579304201E+04  0.25500000920E-02 0.  1.
</event>
<event>
 5   0  0.4973409E-08  0.3399522E+04  0.7818609E-02  0.8138024E-01
       -2   -1    0    0    0  501  0.00000000000E+00  0.00000000000E+00  0.10822715065E+04  0.10822715065E+04  0.25500000920E-02 0. -1.
        2   -1    0    0  501    0  0.00000000000E+00  0.00000000000E+00 -0.26695593037E+04  0.26695593037E+04  0.25500000920E-02 0.  1.
    10030    2    1    2    0    0  0.00000000000E+00  0.00000000000E+00 -0.15872877972E+04  0.37518308102E+04  0.33995223013E+04 0.  0.
        1    1    3    3  502    0  0.10668300681E+03 -0.12351858027E+04 -0.20769593080E+04  0.24188479072E+04  0.50400001928E-02 0.  1.
       -1    1    3    3    0  502 -0.10668300681E+03  0.12351858027E+04  0.48967151072E+03  0.13329829030E+04  0.50400001928E-02 0. -1.
</event>
<event>
 5   0  0.1625282E-08  0.3393419E+04  0.7818609E-02  0.8139523E-01
        1   -1    0    0  501    0  0.00000000000E+00  0.00000000000E+00  0.16958955347E+04  0.16958955347E+04  0.50400001928E-02 0.  1.
       -1   -1    0    0    0  501  0.00000000000E+00  0.00000000000E+00 -0.16975239778E+04  0.16975239778E+04  0.50400001928E-02 0. -1.
    10030    2    1    2    0    0  0.00000000000E+00  0.00000000000E+00 -0.16284431444E+01  0.33934195125E+04  0.33934191217E+04 0.  0.
        1    1    3    3  502    0  0.56108607886E+03  0.15785711210E+04  0.26773554750E+03  0.16965808839E+04  0.50400001928E-02 0. -1.
       -1    1    3    3    0  502 -0.56108607886E+03 -0.15785711210E+04 -0.26936399064E+03  0.16968386286E+04  0.50400001928E-02 0.  1.
</event>
<event>
 5   0  0.1579536E-08  0.3399817E+04  0.7818609E-02  0.8137951E-01
        1   -1    0    0  501    0  0.00000000000E+00  0.00000000000E+00  0.20505828747E+04  0.20505828747E+04  0.50400001928E-02 0.  1.
       -1   -1    0    0    0  501  0.00000000000E+00  0.00000000000E+00 -0.14092038078E+04  0.14092038078E+04  0.50400001928E-02 0. -1.
    10030    2    1    2    0    0  0.00000000000E+00  0.00000000000E+00  0.64137906686E+03  0.34597866825E+04  0.33998171688E+04 0.  0.
        5    1    3    3  502    0 -0.70733722007E+03  0.14378634280E+04  0.89805054287E+03  0.18369251613E+04  0.46999998093E+01 0.  1.
       -5    1    3    3    0  502  0.70733722007E+03 -0.14378634280E+04 -0.25667147601E+03  0.16228615213E+04  0.46999998093E+01 0. -1.
</event>
<event>
 5   0  0.4973409E-08  0.3400359E+04  0.7818609E-02  0.8137818E-01
        2   -1    0    0  501    0  0.00000000000E+00  0.00000000000E+00  0.15411089796E+04  0.15411089796E+04  0.25500000920E-02 0.  1.
       -2   -1    0    0    0  501  0.00000000000E+00  0.00000000000E+00 -0.18756694643E+04  0.18756694643E+04  0.25500000920E-02 0. -1.
    10030    2    1    2    0    0  0.00000000000E+00  0.00000000000E+00 -0.33456048471E+03  0.34167784439E+04  0.34003594246E+04 0.  0.
        1    1    3    3  502    0  0.65534736059E+03 -0.31532503057E+03 -0.17114834544E+04  0.18595928729E+04  0.50400001928E-02 0. -1.
       -1    1    3    3    0  502 -0.65534736059E+03  0.31532503057E+03  0.13769229697E+04  0.15571855710E+04  0.50400001928E-02 0.  1.
</event>
<event>
 5   0  0.1579536E-08  0.3399347E+04  0.7818609E-02  0.8138067E-01
       -1   -1    0    0    0  501  0.00000000000E+00  0.00000000000E+00  0.18767102619E+04  0.18767102619E+04  0.50400001928E-02 0.  1.
        1   -1    0    0  501    0  0.00000000000E+00  0.00000000000E+00 -0.15393372888E+04  0.15393372888E+04  0.50400001928E-02 0. -1.
    10030    2    1    2    0    0  0.00000000000E+00  0.00000000000E+00  0.33737297313E+03  0.34160475508E+04  0.33993470470E+04 0.  0.
        5    1    3    3  502    0 -0.12728970232E+04 -0.26731253549E+03  0.12682031405E+04  0.18166133653E+04  0.46999998093E+01 0.  1.
       -5    1    3    3    0  502  0.12728970232E+04  0.26731253549E+03 -0.93083016738E+03  0.15994341855E+04  0.46999998093E+01 0. -1.
</event>
<event>
 5   0  0.1630571E-08  0.3397004E+04  0.7818609E-02  0.8138642E-01
       -1   -1    0    0    0  501  0.00000000000E+00  0.00000000000E+00  0.16172240781E+04  0.16172240781E+04  0.50400001928E-02 0.  1.
        1   -1    0    0  501    0  0.00000000000E+00  0.00000000000E+00 -0.17838644691E+04  0.17838644691E+04  0.50400001928E-02 0. -1.
    10030    2    1    2    0    0  0.00000000000E+00  0.00000000000E+00 -0.16664039102E+03  0.34010885472E+04  0.33970037218E+04 0.  0.
        3    1    3    3  502    0  0.10713873276E+04  0.65727976024E+03  0.10604286755E+04  0.16445049331E+04  0.10100000352E+00 0.  1.
       -3    1    3    3    0  502 -0.10713873276E+04 -0.65727976024E+03 -0.12270690665E+04  0.17565836141E+04  0.10100000352E+00 0. -1.
</event>
<event>
 5   0  0.1645631E-08  0.3400843E+04  0.7818609E-02  0.8137699E-01
        1   -1    0    0  501    0  0.00000000000E+00  0.00000000000E+00  0.13872140739E+04  0.13872140739E+04  0.50400001928E-02 0. -1.
       -1   -1    0    0    0  501  0.00000000000E+00  0.00000000000E+00 -0.20843452115E+04  0.20843452115E+04  0.50400001928E-02 0.  1.
    10030    2    1    2    0    0  0.00000000000E+00  0.00000000000E+00 -0.69713113766E+03  0.34715592854E+04  0.34008428439E+04 0.  0.
        4    1    3    3  502    0  0.13603535458E+04 -0.40033958845E+03 -0.13064802556E+04  0.19281405101E+04  0.12699999809E+01 0.  1.
       -4    1    3    3    0  502 -0.13603535458E+04  0.40033958845E+03  0.60934911793E+03  0.15434187753E+04  0.12699999809E+01 0. -1.
</event>
<event>
 5   0  0.5001197E-08  0.3399552E+04  0.7818609E-02  0.8138016E-01
        2   -1    0    0  501    0  0.00000000000E+00  0.00000000000E+00  0.23453216415E+04  0.23453216415E+04  0.25500000920E-02 0. -1.
       -2   -1    0    0    0  501  0.00000000000E+00  0.00000000000E+00 -0.12319153782E+04  0.12319153782E+04  0.25500000920E-02 0.  1.
    10030    2    1    2    0    0  0.00000000000E+00  0.00000000000E+00  0.11134062633E+04  0.35772370197E+04  0.33995516158E+04 0.  0.
        5    1    3    3  502    0 -0.10614492846E+04  0.62703953029E+03 -0.67465760164E+03  0.14053604967E+04  0.46999998093E+01 0.  1.
       -5    1    3    3    0  502  0.10614492846E+04 -0.62703953029E+03  0.17880638649E+04  0.21718765230E+04  0.46999998093E+01 0. -1.
</event>
<event>
 5   0  0.4973409E-08  0.3424143E+04  0.7818609E-02  0.8132006E-01
       -2   -1    0    0    0  501  0.00000000000E+00  0.00000000000E+00  0.15972912647E+04  0.15972912647E+04  0.25500000920E-02 0. -1.
        2   -1    0    0  501    0  0.00000000000E+00  0.00000000000E+00 -0.18350997799E+04  0.18350997799E+04  0.25500000920E-02 0.  1.
    10030    2    1    2    0    0  0.00000000000E+00  0.00000000000E+00 -0.23780851518E+03  0.34323910445E+04  0.34241430158E+04 0.  0.
        1    1    3    3  502    0 -0.17093220955E+04  0.20571241314E+02 -0.23893850536E+02  0.17096128563E+04  0.50400001928E-02 0.  1.
       -1    1    3    3    0  502  0.17093220955E+04 -0.20571241314E+02 -0.21391466465E+03  0.17227781883E+04  0.50400001928E-02 0. -1.
</event>
<event>
 5   0  0.1595851E-08  0.3399898E+04  0.7818609E-02  0.8137931E-01
       -1   -1    0    0    0  501  0.00000000000E+00  0.00000000000E+00  0.15552773918E+04  0.15552773918E+04  0.50400001928E-02 0.  1.
        1   -1    0    0  501    0  0.00000000000E+00  0.00000000000E+00 -0.18580780587E+04  0.18580780587E+04  0.50400001928E-02 0. -1.
    10030    2    1    2    0    0  0.00000000000E+00  0.00000000000E+00 -0.30280066695E+03  0.34133554505E+04  0.33998981143E+04 0.  0.
        2    1    3    3  502    0 -0.48841421232E+03 -0.15661685741E+04  0.29577749737E+03  0.16670083303E+04  0.25500000920E-02 0.  1.
       -2    1    3    3    0  502  0.48841421232E+03  0.15661685741E+04 -0.59857816432E+03  0.17463471202E+04  0.25500000920E-02 0. -1.
</event>
<event>
 5   0  0.1579536E-08  0.3399911E+04  0.7818609E-02  0.8137928E-01
        1   -1    0    0  501    0  0.00000000000E+00  0.00000000000E+00  0.19698536952E+04  0.19698536953E+04  0.50400001928E-02 0. -1.
       -1   -1    0    0    0  501  0.00000000000E+00  0.00000000000E+00 -0.14670373637E+04  0.14670373637E+04  0.50400001928E-02 0.  1.
    10030    2    1    2    0    0  0.00000000000E+00  0.00000000000E+00  0.50281633152E+03  0.34368910590E+04  0.33999111589E+04 0.  0.
        5    1    3    3  502    0 -0.33909159173E+02 -0.16916189315E+04  0.84989358270E+02  0.16940984982E+04  0.46999998093E+01 0.  1.
       -5    1    3    3    0  502  0.33909159173E+02  0.16916189315E+04  0.41782697325E+03  0.17427925608E+04  0.46999998093E+01 0. -1.
</event>
<event>
 5   0  0.4946315E-08  0.3400704E+04  0.7818609E-02  0.8137734E-01
       -2   -1    0    0    0  501  0.00000000000E+00  0.00000000000E+00  0.12469231943E+04  0.12469231943E+04  0.25500000920E-02 0. -1.
        2   -1    0    0  501    0  0.00000000000E+00  0.00000000000E+00 -0.23186641926E+04  0.23186641926E+04  0.25500000920E-02 0.  1.
    10030    2    1    2    0    0  0.00000000000E+00  0.00000000000E+00 -0.10717409983E+04  0.35655873868E+04  0.34007035516E+04 0.  0.
        3    1    3    3  502    0  0.12282787723E+04 -0.11631528970E+04 -0.35547391235E+03  0.17285702522E+04  0.10100000352E+00 0. -1.
       -3    1    3    3    0  502 -0.12282787723E+04  0.11631528970E+04 -0.71626708594E+03  0.18370171346E+04  0.10100000352E+00 0.  1.
</event>
<event>
 5   0  0.4973409E-08  0.3401051E+04  0.7818609E-02  0.8137648E-01
       -2   -1    0    0    0  501  0.00000000000E+00  0.00000000000E+00  0.15651896699E+04  0.15651896699E+04  0.25500000920E-02 0.  1.
        2   -1    0    0  501    0  0.00000000000E+00  0.00000000000E+00 -0.18475632012E+04  0.18475632012E+04  0.25500000920E-02 0. -1.
    10030    2    1    2    0    0  0.00000000000E+00  0.00000000000E+00 -0.28237353126E+03  0.34127528711E+04  0.34010509182E+04 0.  0.
        1    1    3    3  502    0  0.22934474647E+03 -0.15392743225E+04  0.54660751326E+03  0.16494678615E+04  0.50400001928E-02 0.  1.
       -1    1    3    3    0  502 -0.22934474647E+03  0.15392743225E+04 -0.82898104452E+03  0.17632850095E+04  0.50400001928E-02 0. -1.
</event>
<event>
 5   0  0.1573625E-08  0.3399335E+04  0.7818609E-02  0.8138069E-01
        3   -1    0    0  501    0  0.00000000000E+00  0.00000000000E+00  0.19844917797E+04  0.19844917822E+04  0.10100000352E+00 0.  1.
       -3   -1    0    0    0  501  0.00000000000E+00  0.00000000000E+00 -0.14557228462E+04  0.14557228497E+04  0.10100000352E+00 0. -1.
    10030    2    1    2    0    0  0.00000000000E+00  0.00000000000E+00  0.52876893343E+03  0.34402146320E+04  0.33993352481E+04 0.  0.
        4    1    3    3  502    0  0.13598912641E+04  0.70678936838E+03 -0.47930842698E+03  0.16058000008E+04  0.12699999809E+01 0.  1.
       -4    1    3    3    0  502 -0.13598912641E+04 -0.70678936838E+03  0.10080773604E+04  0.18344146311E+04  0.12699999809E+01 0. -1.
</event>
<event>
 5   0  0.1595851E-08  0.3399585E+04  0.7818609E-02  0.8138008E-01
       -1   -1    0    0    0  501  0.00000000000E+00  0.00000000000E+00  0.12012708719E+04  0.12012708719E+04  0.50400001928E-02 0. -1.
        1   -1    0    0  501    0  0.00000000000E+00  0.00000000000E+00 -0.24051984867E+04  0.24051984867E+04  0.50400001928E-02 0.  1.
    10030    2    1    2    0    0  0.00000000000E+00  0.00000000000E+00 -0.12039276149E+04  0.36064693586E+04  0.33995852001E+04 0.  0.
        2    1    3    3  502    0  0.16467012790E+04  0.32750172258E+03 -0.32046218769E+03  0.17092625587E+04  0.25500000920E-02 0. -1.
       -2    1    3    3    0  502 -0.16467012790E+04 -0.32750172258E+03 -0.88346542718E+03  0.18972067999E+04  0.25500000920E-02 0.  1.
</event>
<event>
 5   0  0.1579536E-08  0.3398277E+04  0.7818609E-02  0.8138329E-01
        1   -1    0    0  501    0  0.00000000000E+00  0.00000000000E+00  0.12296521448E+04  0.12296521448E+04  0.50400001928E-02 0.  1.
       -1   -1    0    0    0  501  0.00000000000E+00  0.00000000000E+00 -0.23478760911E+04  0.23478760911E+04  0.50400001928E-02 0. -1.
    10030    2    1    2    0    0  0.00000000000E+00  0.00000000000E+00 -0.11182239464E+04  0.35775282359E+04  0.33982765462E+04 0.  0.
        5    1    3    3  502    0 -0.79872961417E+02 -0.13643266271E+04 -0.16219608499E+04  0.21209775869E+04  0.46999998093E+01 0. -1.
       -5    1    3    3    0  502  0.79872961417E+02  0.13643266271E+04  0.50373690357E+03  0.14565506491E+04  0.46999998093E+01 0.  1.
</event>
<event>
 5   0  0.1595851E-08  0.3400405E+04  0.7818609E-02  0.8137807E-01
       -1   -1    0    0    0  501  0.00000000000E+00  0.00000000000E+00  0.12775832279E+04  0.12775832279E+04  0.50400001928E-02 0.  1.
        1   -1    0    0  501    0  0.00000000000E+00  0.00000000000E+00 -0.22626219194E+04  0.22626219194E+04  0.50400001928E-02 0. -1.
    10030    2    1    2    0    0  0.00000000000E+00  0.00000000000E+00 -0.98503869154E+03  0.35402051473E+04  0.34004045731E+04 0.  0.
        2    1    3    3  502    0  0.13725950696E+04  0.40308920516E+03 -0.14490917715E+04  0.20362625309E+04  0.25500000920E-02 0. -1.
       -2    1    3    3    0  502 -0.13725950696E+04 -0.40308920516E+03  0.46405307996E+03  0.15039426164E+04  0.25500000920E-02 0.  1.
</event>
<event>
 5   0  0.1579536E-08  0.3398236E+04  0.7818609E-02  0.8138340E-01
       -1   -1    0    0    0  501  0.00000000000E+00  0.00000000000E+00  0.11018902523E+04  0.11018902523E+04  0.50400001928E-02 0.  1.
        1   -1    0    0  501    0  0.00000000000E+00  0.00000000000E+00 -0.26200442679E+04  0.26200442680E+04  0.50400001928E-02 0. -1.
    10030    2    1    2    0    0  0.00000000000E+00  0.00000000000E+00 -0.15181540157E+04  0.37219345203E+04  0.33982355654E+04 0.  0.
        5    1    3    3  502    0  0.52147134025E+03 -0.98627559044E+03 -0.21626740767E+04  0.24334858026E+04  0.46999998093E+01 0. -1.
       -5    1    3    3    0  502 -0.52147134025E+03  0.98627559044E+03  0.64452006108E+03  0.12884487177E+04  0.46999998093E+01 0.  1.
</event>
<event>
 5   0  0.1595851E-08  0.3398834E+04  0.7818609E-02  0.8138193E-01
        1   -1    0    0  501    0  0.00000000000E+00  0.00000000000E+00  0.19647468816E+04  0.19647468816E+04  0.50400001928E-02 0. -1.
       -1   -1    0    0    0  501  0.00000000000E+00  0.00000000000E+00 -0.14699184822E+04  0.14699184822E+04  0.50400001928E-02 0.  1.
    10030    2    1    2    0    0  0.00000000000E+00  0.00000000000E+00  0.49482839945E+03  0.34346653638E+04  0.33988337730E+04 0.  0.
        2    1    3    3  502    0 -0.62517347498E+02  0.93001011692E+03 -0.11885484857E+04  0.15104551430E+04  0.25500000920E-02 0.  1.
       -2    1    3    3    0  502  0.62517347498E+02 -0.93001011692E+03  0.16833768851E+04  0.19242102208E+04  0.25500000920E-02 0. -1.
</event>
<event>
 5   0  0.4946315E-08  0.3400569E+04  0.7818609E-02  0.8137767E-01
        2   -1    0    0  501    0  0.00000000000E+00  0.00000000000E+00  0.18059637506E+04  0.18059637506E+04  0.25500000920E-02 0. -1.
       -2   -1    0    0    0  501  0.00000000000E+00  0.00000000000E+00 -0.16007890064E+04  0.16007890064E+04  0.25500000920E-02 0.  1.
    10030    2    1    2    0    0  0.00000000000E+00  0.00000000000E+00  0.20517474414E+03  0.34067527570E+04  0.34005687277E+04 0.  0.
        3    1    3    3  502    0  0.12562674930E+04 -0.82627561177E+03 -0.69259879232E+03  0.16554855776E+04  0.10100000352E+00 0.  1.
       -3    1    3    3    0  502 -0.12562674930E+04  0.82627561177E+03  0.89777353646E+03  0.17512671793E+04  0.10100000352E+00 0. -1.
</event>
<event>
 5   0  0.4764953E-08  0.3401567E+04  0.7818609E-02  0.8137522E-01
        2   -1    0    0  501    0  0.00000000000E+00  0.00000000000E+00  0.21275290277E+04  0.21275290277E+04  0.25500000920E-02 0.  1.
       -2   -1    0    0    0  501  0.00000000000E+00  0.00000000000E+00 -0.13596355635E+04  0.13596355635E+04  0.25500000920E-02 0. -1.
    10030    2    1    2    0    0  0.00000000000E+00  0.00000000000E+00  0.76789346424E+03  0.34871645912E+04  0.34015667734E+04 0.  0.
        2    1    3    3  502    0 -0.70220260095E+03 -0.15828748443E+03 -0.11957780317E+04  0.13957179234E+04  0.25500000920E-02 0. -1.
       -2    1    3    3    0  502  0.70220260095E+03  0.15828748443E+03  0.19636714959E+04  0.20914466678E+04  0.25500000920E-02 0.  1.
</event>
<event>
 5   0  0.4973409E-08  0.3399705E+04  0.7818609E-02  0.8137979E-01
       -2   -1    0    0    0  501  0.00000000000E+00  0.00000000000E+00  0.12721723182E+04  0.12721723182E+04  0.25500000920E-02 0.  1.
        2   -1    0    0  501    0  0.00000000000E+00  0.00000000000E+00 -0.22713109471E+04  0.22713109471E+04  0.25500000920E-02 0. -1.
    10030    2    1    2    0    0  0.00000000000E+00  0.00000000000E+00 -0.99913862890E+03  0.35434832653E+04  0.33997052301E+04 0.  0.
        1    1    3    3  502    0 -0.16681439771E+04 -0.20981834819E+03 -0.23843249418E+03  0.16981101619E+04  0.50400001928E-02 0.  1.
       -1    1    3    3    0  502  0.16681439771E+04  0.20981834819E+03 -0.76070613472E+03  0.18453731035E+04  0.50400001928E-02 0. -1.
</event>
<event>
 5   0  0.1595851E-08  0.3403324E+04  0.7818609E-02  0.8137091E-01
       -1   -1    0    0    0  501  0.00000000000E+00  0.00000000000E+00  0.22327580489E+04  0.22327580489E+04  0.50400001928E-02 0. -1.
        1   -1    0    0  501    0  0.00000000000E+00  0.00000000000E+00 -0.12968953564E+04  0.12968953564E+04  0.50400001928E-02 0.  1.
    10030    2    1    2    0    0  0.00000000000E+00  0.00000000000E+00  0.93586269243E+03  0.35296534053E+04  0.34033239902E+04 0.  0.
        2    1    3    3  502    0  0.49922347336E+03  0.10248034368E+04  0.17782394431E+04  0.21122456480E+04  0.25500000920E-02 0. -1.
       -2    1    3    3    0  502 -0.49922347336E+03 -0.10248034368E+04 -0.84237675066E+03  0.14174077573E+04  0.25500000920E-02 0.  1.
</event>
<event>
 5   0  0.4775023E-08  0.3397445E+04  0.7818609E-02  0.8138534E-01
        2   -1    0    0  501    0  0.00000000000E+00  0.00000000000E+00  0.19377339423E+04  0.19377339423E+04  0.25500000920E-02 0.  1.
       -2   -1    0    0    0  501  0.00000000000E+00  0.00000000000E+00 -0.14891925383E+04  0.14891925383E+04  0.25500000920E-02 0. -1.
    10030    2    1    2    0    0  0.00000000000E+00  0.00000000000E+00  0.44854140402E+03  0.34269264806E+04  0.33974454686E+04 0.  0.
        4    1    3    3  502    0 -0.24738145498E+02  0.16984926134E+04  0.21118968794E+03  0.17117511007E+04  0.12699999809E+01 0. -1.
       -4    1    3    3    0  502  0.24738145498E+02 -0.16984926134E+04  0.23735171607E+03  0.17151753799E+04  0.12699999809E+01 0.  1.
</event>
<event>
 5   0  0.1625282E-08  0.3399305E+04  0.7818609E-02  0.8138077E-01
        1   -1    0    0  501    0  0.00000000000E+00  0.00000000000E+00  0.15536297500E+04  0.15536297500E+04  0.50400001928E-02 0. -1.
       -1   -1    0    0    0  501  0.00000000000E+00  0.00000000000E+00 -0.18594000103E+04  0.18594000103E+04  0.50400001928E-02 0.  1.
    10030    2    1    2    0    0  0.00000000000E+00  0.00000000000E+00 -0.30577026029E+03  0.34130297603E+04  0.33993053250E+04 0.  0.
        1    1    3    3  502    0 -0.86386038812E+03  0.14243086761E+04  0.18598188546E+03  0.16761560896E+04  0.50400001928E-02 0. -1.
       -1    1    3    3    0  502  0.86386038812E+03 -0.14243086761E+04 -0.49175214575E+03  0.17368736707E+04  0.50400001928E-02 0.  1.
</event>
<event>
 5   0  0.1645631E-08  0.3400349E+04  0.7818609E-02  0.8137821E-01
       -1   -1    0    0    0  501  0.00000000000E+00  0.00000000000E+00  0.12595090744E+04  0.12595090744E+04  0.50400001928E-02 0.  1.
        1   -1    0    0  501    0  0.00000000000E+00  0.00000000000E+00 -0.22950152309E+04  0.22950152309E+04  0.50400001928E-02 0. -1.
    10030    2    1    2    0    0  0.00000000000E+00  0.00000000000E+00 -0.10355061566E+04  0.35545243053E+04  0.34003485170E+04 0.  0.
        4    1    3    3  502    0  0.10514952837E+04  0.11545849419E+04 -0.12204542248E+04  0.19819734729E+04  0.12699999809E+01 0. -1.
       -4    1    3    3    0  502 -0.10514952837E+04 -0.11545849419E+04  0.18494806824E+03  0.15725508324E+04  0.12699999809E+01 0.  1.
</event>
<event>
 5   0  0.4946315E-08  0.3399007E+04  0.7818609E-02  0.8138150E-01
       -2   -1    0    0    0  501  0.00000000000E+00  0.00000000000E+00  0.18278431100E+04  0.18278431100E+04  0.25500000920E-02 0. -1.
        2   -1    0    0  501    0  0.00000000000E+00  0.00000000000E+00 -0.15801753893E+04  0.15801753893E+04  0.25500000920E-02 0.  1.
    10030    2    1    2    0    0  0.00000000000E+00  0.00000000000E+00  0.24766772074E+03  0.34080184993E+04  0.33990073244E+04 0.  0.
        3    1    3    3  502    0  0.16423606310E+04  0.43687385769E+03  0.11353639535E+03  0.17032609117E+04  0.10100000352E+00 0. -1.
       -3    1    3    3    0  502 -0.16423606310E+04 -0.43687385769E+03  0.13413132539E+03  0.17047575876E+04  0.10100000352E+00 0.  1.
</event>
<event>
 5   0  0.1579536E-08  0.3397797E+04  0.7818609E-02  0.8138447E-01
        1   -1    0    0  501    0  0.00000000000E+00  0.00000000000E+00  0.22123481360E+04  0.22123481360E+04  0.50400001928E-02 0.  1.
       -1   -1    0    0    0  501  0.00000000000E+00  0.00000000000E+00 -0.13046123588E+04  0.13046123588E+04  0.50400001928E-02 0. -1.
    10030    2    1    2    0    0  0.00000000000E+00  0.00000000000E+00  0.90773577720E+03  0.35169604947E+04  0.33977973571E+04 0.  0.
        5    1    3    3  502    0  0.91762773549E+03 -0.34159967668E+03 -0.98316801240E+03  0.13875779007E+04  0.46999998093E+01 0. -1.
       -5    1    3    3    0  502 -0.91762773549E+03  0.34159967668E+03  0.18909037896E+04  0.21293825940E+04  0.46999998093E+01 0.  1.
</event>
<event>
 5   0  0.4946315E-08  0.3400120E+04  0.7818609E-02  0.8137877E-01
       -2   -1    0    0    0  501  0.00000000000E+00  0.00000000000E+00  0.15312106361E+04  0.15312106361E+04  0.25500000920E-02 0.  1.
        2   -1    0    0  501    0  0.00000000000E+00  0.00000000000E+00 -0.18875283876E+04  0.18875283876E+04  0.25500000920E-02 0. -1.
    10030    2    1    2    0    0  0.00000000000E+00  0.00000000000E+00 -0.35631775144E+03  0.34187390237E+04  0.34001197291E+04 0.  0.
        3    1    3    3  502    0  0.14809534208E+04  0.32387575075E+03 -0.95184314558E+03  0.17900066817E+04  0.10100000352E+00 0.  1.
       -3    1    3    3    0  502 -0.14809534208E+04 -0.32387575075E+03  0.59552539414E+03  0.16287323420E+04  0.10100000352E+00 0. -1.
</event>
<event>
 5   0  0.1645631E-08  0.3399050E+04  0.7818609E-02  0.8138139E-01
       -1   -1    0    0    0  501  0.00000000000E+00  0.00000000000E+00  0.15101887383E+04  0.15101887383E+04  0.50400001928E-02 0.  1.
        1   -1    0    0  501    0  0.00000000000E+00  0.00000000000E+00 -0.19125993666E+04  0.19125993667E+04  0.50400001928E-02 0. -1.
    10030    2    1    2    0    0  0.00000000000E+00  0.00000000000E+00 -0.40241062834E+03  0.34227881050E+04  0.33990504700E+04 0.  0.
        4    1    3    3  502    0  0.12738984826E+04 -0.33830282389E+03  0.87918920850E+03  0.15843741420E+04  0.12699999809E+01 0.  1.
       -4    1    3    3    0  502 -0.12738984826E+04  0.33830282389E+03 -0.12815998368E+04  0.18384139630E+04  0.12699999809E+01 0. -1.
</event>
<event>
 5   0  0.1579536E-08  0.3395430E+04  0.7818609E-02  0.8139029E-01
        1   -1    0    0  501    0  0.00000000000E+00  0.00000000000E+00  0.16437855331E+04  0.16437855331E+04  0.50400001928E-02 0. -1.
       -1   -1    0    0    0  501  0.00000000000E+00  0.00000000000E+00 -0.17534138013E+04  0.17534138013E+04  0.50400001928E-02 0.  1.
    10030    2    1    2    0    0  0.00000000000E+00  0.00000000000E+00 -0.10962826820E+03  0.33971993344E+04  0.33954300111E+04 0.  0.
        5    1    3    3  502    0 -0.67179711813E+03 -0.12093089002E+03  0.15004341912E+04  0.16484115082E+04  0.46999998093E+01 0. -1.
       -5    1    3    3    0  502  0.67179711813E+03  0.12093089002E+03 -0.16100624594E+04  0.17487878263E+04  0.46999998093E+01 0.  1.
</event>
<event>
 5   0  0.5001197E-08  0.3402033E+04  0.7818609E-02  0.8137407E-01
        2   -1    0    0  501    0  0.00000000000E+00  0.00000000000E+00  0.18557170325E+04  0.18557170325E+04  0.25500000920E-02 0. -1.
       -2   -1    0    0    0  501  0.00000000000E+00  0.00000000000E+00 -0.15592127743E+04  0.15592127743E+04  0.25500000920E-02 0.  1.
    10030    2    1    2    0    0  0.00000000000E+00  0.00000000000E+00  0.29650425826E+03  0.34149298068E+04  0.34020333347E+04 0.  0.
        5    1    3    3  502    0  0.33205563729E+03 -0.69903865836E+03  0.16687615118E+04  0.18394844564E+04  0.46999998093E+01 0. -1.
       -5    1    3    3    0  502 -0.33205563729E+03  0.69903865836E+03 -0.13722572535E+04  0.15754453504E+04  0.46999998093E+01 0.  1.
</event>
<event>
 5   0  0.1625282E-08  0.3400087E+04  0.7818609E-02  0.8137885E-01
        1   -1    0    0  501    0  0.00000000000E+00  0.00000000000E+00  0.15091712177E+04  0.15091712177E+04  0.50400001928E-02 0. -1.
       -1   -1    0    0    0  501  0.00000000000E+00  0.00000000000E+00 -0.19150568649E+04  0.19150568649E+04  0.50400001928E-02 0.  1.
    10030    2    1    2    0    0  0.00000000000E+00  0.00000000000E+00 -0.40588564717E+03  0.34242280826E+04  0.34000874700E+04 0.  0.
        1    1    3    3  502    0 -0.85758245505E+02 -0.10718608069E+04 -0.15290716014E+04  0.18693046911E+04  0.50400001928E-02 0.  1.
       -1    1    3    3    0  502  0.85758245505E+02  0.10718608069E+04  0.11231859542E+04  0.15549233916E+04  0.50400001928E-02 0. -1.
</event>
<event>
 5   0  0.5001197E-08  0.3397020E+04  0.7818609E-02  0.8138638E-01
       -2   -1    0    0    0  501  0.00000000000E+00  0.00000000000E+00  0.13847783658E+04  0.13847783658E+04  0.25500000920E-02 0.  1.
        2   -1    0    0  501    0  0.00000000000E+00  0.00000000000E+00 -0.20833193653E+04  0.20833193653E+04  0.25500000920E-02 0. -1.
    10030    2    1    2    0    0  0.00000000000E+00  0.00000000000E+00 -0.69854099944E+03  0.34680977311E+04  0.33970196268E+04 0.  0.
        5    1    3    3  502    0  0.93603589876E+03 -0.12617134807E+04  0.30986155885E+03  0.16012871032E+04  0.46999998093E+01 0.  1.
       -5    1    3    3    0  502 -0.93603589876E+03  0.12617134807E+04 -0.10084025583E+04  0.18668106280E+04  0.46999998093E+01 0. -1.
</event>
<event>
 5   0  0.1595851E-08  0.3399159E+04  0.7818609E-02  0.8138113E-01
       -1   -1    0    0    0  501  0.00000000000E+00  0.00000000000E+00  0.17587617014E+04  0.17587617014E+04  0.50400001928E-02 0. -1.
        1   -1    0    0  501    0  0.00000000000E+00  0.00000000000E+00 -0.16423886480E+04  0.16423886480E+04  0.50400001928E-02 0.  1.
    10030    2    1    2    0    0  0.00000000000E+00  0.00000000000E+00  0.11637305341E+03  0.34011503494E+04  0.33991588683E+04 0.  0.
        2    1    3    3  502    0  0.56143529259E+02 -0.15191610098E+04  0.81861071522E+03  0.17265936907E+04  0.25500000920E-02 0. -1.
       -2    1    3    3    0  502 -0.56143529259E+02  0.15191610098E+04 -0.70223766181E+03  0.16745566587E+04  0.25500000920E-02 0.  1.
</event>
<event>
 5   0  0.1630571E-08  0.3400472E+04  0.7818609E-02  0.8137790E-01
        1   -1    0    0  501    0  0.00000000000E+00  0.00000000000E+00  0.27569956720E+04  0.27569956720E+04  0.50400001928E-02 0.  1.
       -1   -1    0    0    0  501  0.00000000000E+00  0.00000000000E+00 -0.10485338126E+04  0.10485338126E+04  0.50400001928E-02 0. -1.
    10030    2    1    2    0    0  0.00000000000E+00  0.00000000000E+00  0.17084618594E+04  0.38055294846E+04  0.34004724279E+04 0.  0.
        3    1    3    3  502    0 -0.44246684270E+03 -0.14865450181E+04  0.74686660440E+02  0.15527946114E+04  0.10100000352E+00 0. -1.
       -3    1    3    3    0  502  0.44246684270E+03  0.14865450181E+04  0.16337751989E+04  0.22527348731E+04  0.10100000352E+00 0.  1.
</event>
<event>
 5   0  0.1579536E-08  0.3399571E+04  0.7818609E-02  0.8138012E-01
       -1   -1    0    0    0  501  0.00000000000E+00  0.00000000000E+00  0.15274442409E+04  0.15274442409E+04  0.50400001928E-02 0.  1.
        1   -1    0    0  501    0  0.00000000000E+00  0.00000000000E+00 -0.18915725036E+04  0.18915725036E+04  0.50400001928E-02 0. -1.
    10030    2    1    2    0    0  0.00000000000E+00  0.00000000000E+00 -0.36412826271E+03  0.34190167445E+04  0.33995714593E+04 0.  0.
        5    1    3    3  502    0 -0.77994457869E+03  0.56969659145E+03 -0.15887717753E+04  0.18593239622E+04  0.46999998093E+01 0. -1.
       -5    1    3    3    0  502  0.77994457869E+03 -0.56969659145E+03  0.12246435126E+04  0.15596927823E+04  0.46999998093E+01 0.  1.
</event>
<event>
 5   0  0.4764953E-08  0.3401929E+04  0.7818609E-02  0.8137433E-01
       -2   -1    0    0    0  501  0.00000000000E+00  0.00000000000E+00  0.86176162379E+03  0.86176162380E+03  0.25500000920E-02 0. -1.
        2   -1    0    0  501    0  0.00000000000E+00  0.00000000000E+00 -0.33574010510E+04  0.33574010510E+04  0.25500000920E-02 0.  1.
    10030    2    1    2    0    0  0.00000000000E+00  0.00000000000E+00 -0.24956394273E+04  0.42191626748E+04  0.34019285010E+04 0.  0.
        2    1    3    3  502    0 -0.14700760317E+04 -0.48004493134E+03 -0.21262931603E+04  0.26291993608E+04  0.25500000920E-02 0.  1.
       -2    1    3    3    0  502  0.14700760317E+04  0.48004493134E+03 -0.36934626700E+03  0.15899633141E+04  0.25500000920E-02 0. -1.
</event>
<event>
 5   0  0.4973409E-08  0.3403094E+04  0.7818609E-02  0.8137147E-01
       -2   -1    0    0    0  501  0.00000000000E+00  0.00000000000E+00  0.10310035336E+04  0.10310035336E+04  0.25500000920E-02 0.  1.
        2   -1    0    0  501    0  0.00000000000E+00  0.00000000000E+00 -0.28081980474E+04  0.28081980474E+04  0.25500000920E-02 0. -1.
    10030    2    1    2    0    0  0.00000000000E+00  0.00000000000E+00 -0.17771945138E+04  0.38392015810E+04  0.34030939510E+04 0.  0.
        1    1    3    3  502    0  0.88395931857E+03 -0.49803503512E+03  0.65240784257E+03  0.12062582502E+04  0.50400001928E-02 0.  1.
       -1    1    3    3    0  502 -0.88395931857E+03  0.49803503512E+03 -0.24296023564E+04  0.26329433308E+04  0.50400001928E-02 0. -1.
</event>
<event>
 5   0  0.1625282E-08  0.3399740E+04  0.7818609E-02  0.8137970E-01
        1   -1    0    0  501    0  0.00000000000E+00  0.00000000000E+00  0.17565750376E+04  0.17565750376E+04  0.50400001928E-02 0.  1.
       -1   -1    0    0    0  501  0.00000000000E+00  0.00000000000E+00 -0.16449959447E+04  0.16449959447E+04  0.50400001928E-02 0. -1.
    10030    2    1    2    0    0  0.00000000000E+00  0.00000000000E+00  0.11157909285E+03  0.34015709823E+04  0.33997404686E+04 0.  0.
        1    1    3    3  502    0  0.11537249727E+03  0.73799272510E+03  0.15835742907E+04  0.17509002284E+04  0.50400001928E-02 0.  1.
       -1    1    3    3    0  502 -0.11537249727E+03 -0.73799272510E+03 -0.14719951979E+04  0.16506707540E+04  0.50400001928E-02 0. -1.
</event>
<event>
 5   0  0.1630571E-08  0.3403050E+04  0.7818609E-02  0.8137158E-01
        1   -1    0    0  501    0  0.00000000000E+00  0.00000000000E+00  0.15878465890E+04  0.15878465890E+04  0.50400001928E-02 0. -1.
       -1   -1    0    0    0  501  0.00000000000E+00  0.00000000000E+00 -0.18233414509E+04  0.18233414509E+04  0.50400001928E-02 0.  1.
    10030    2    1    2    0    0  0.00000000000E+00  0.00000000000E+00 -0.23549486198E+03  0.34111880399E+04  0.34030495168E+04 0.  0.
        3    1    3    3  502    0 -0.98245399163E+03  0.11407414243E+04  0.67704201855E+03  0.16507249158E+04  0.10100000352E+00 0. -1.
       -3    1    3    3    0  502  0.98245399163E+03 -0.11407414243E+04 -0.91253688053E+03  0.17604631241E+04  0.10100000352E+00 0.  1.
</event>
<event>
 5   0  0.1630571E-08  0.3392386E+04  0.7818609E-02  0.8139778E-01
       -1   -1    0    0    0  501  0.00000000000E+00  0.00000000000E+00  0.16191855865E+04  0.16191855865E+04  0.50400001928E-02 0. -1.
        1   -1    0    0  501    0  0.00000000000E+00  0.00000000000E+00 -0.17768625076E+04  0.17768625077E+04  0.50400001928E-02 0.  1.
    10030    2    1    2    0    0  0.00000000000E+00  0.00000000000E+00 -0.15767692116E+03  0.33960480941E+04  0.33923856865E+04 0.  0.
        3    1    3    3  502    0 -0.82219974106E+02 -0.15481894783E+03 -0.17677701459E+04  0.17764403536E+04  0.10100000352E+00 0.  1.
       -3    1    3    3    0  502  0.82219974106E+02  0.15481894783E+03  0.16100932248E+04  0.16196077406E+04  0.10100000352E+00 0. -1.
</event>
<event>
 5   0  0.1595851E-08  0.3387368E+04  0.7818609E-02  0.8141014E-01
        1   -1    0    0  501    0  0.00000000000E+00  0.00000000000E+00  0.19313455532E+04  0.19313455532E+04  0.50400001928E-02 0. -1.
       -1   -1    0    0    0  501  0.00000000000E+00  0.00000000000E+00 -0.14852681765E+04  0.14852681765E+04  0.50400001928E-02 0.  1.
    10030    2    1    2    0    0  0.00000000000E+00  0.00000000000E+00  0.44607737669E+03  0.34166137296E+04  0.33873683519E+04 0.  0.
        2    1    3    3  502    0  0.14447276885E+04 -0.76694646353E+03  0.66628827300E+03  0.17661780869E+04  0.25500000920E-02 0. -1.
       -2    1    3    3    0  502 -0.14447276885E+04  0.76694646353E+03 -0.22021089631E+03  0.16504356427E+04  0.25500000920E-02 0.  1.
</event>
<event>
 5   0  0.4973409E-08  0.3401144E+04  0.7818609E-02  0.8137626E-01
       -2   -1    0    0    0  501  0.00000000000E+00  0.00000000000E+00  0.91043989745E+03  0.91043989746E+03  0.25500000920E-02 0. -1.
        2   -1    0    0  501    0  0.00000000000E+00  0.00000000000E+00 -0.31764253786E+04  0.31764253786E+04  0.25500000920E-02 0.  1.
    10030    2    1    2    0    0  0.00000000000E+00  0.00000000000E+00 -0.22659854812E+04  0.40868652761E+04  0.34011435700E+04 0.  0.
        1    1    3    3  502    0 -0.70219018893E+03 -0.11628780031E+04  0.96294147930E+02  0.13618475959E+04  0.50400001928E-02 0. -1.
       -1    1    3    3    0  502  0.70219018893E+03  0.11628780031E+04 -0.23622796291E+04  0.27250176802E+04  0.50400001928E-02 0.  1.
</event>
<event>
 5   0  0.4946315E-08  0.3397695E+04  0.7818609E-02  0.8138472E-01
       -2   -1    0    0    0  501  0.00000000000E+00  0.00000000000E+00  0.10661842565E+04  0.10661842565E+04  0.25500000920E-02 0. -1.
        2   -1    0    0  501    0  0.00000000000E+00  0.00000000000E+00 -0.27069271714E+04  0.27069271714E+04  0.25500000920E-02 0.  1.
    10030    2    1    2    0    0  0.00000000000E+00  0.00000000000E+00 -0.16407429149E+04  0.37731114279E+04  0.33976951798E+04 0.  0.
        3    1    3    3  502    0  0.26798116345E+03 -0.74316642724E+03  0.84979175622E+03  0.11602828455E+04  0.10100000352E+00 0. -1.
       -3    1    3    3    0  502 -0.26798116345E+03  0.74316642724E+03 -0.24905346712E+04  0.26128285824E+04  0.10100000352E+00 0.  1.
</event>
<event>
 5   0  0.1630571E-08  0.3400170E+04  0.7818609E-02  0.8137865E-01
        1   -1    0    0  501    0  0.00000000000E+00  0.00000000000E+00  0.15463661080E+04  0.15463661080E+04  0.50400001928E-02 0. -1.
       -1   -1    0    0    0  501  0.00000000000E+00  0.00000000000E+00 -0.18690846170E+04  0.18690846170E+04  0.50400001928E-02 0.  1.
    10030    2    1    2    0    0  0.00000000000E+00  0.00000000000E+00 -0.32271850894E+03  0.34154507250E+04  0.34001700573E+04 0.  0.
        3    1    3    3  502    0 -0.14479374355E+04  0.27382779357E+03 -0.10129810593E+04  0.17881932542E+04  0.10100000352E+00 0.  1.
       -3    1    3    3    0  502  0.14479374355E+04 -0.27382779357E+03  0.69026255031E+03  0.16272574708E+04  0.10100000352E+00 0. -1.
</event>
<event>
 5   0  0.4775023E-08  0.3400640E+04  0.7818609E-02  0.8137749E-01
        2   -1    0    0  501    0  0.00000000000E+00  0.00000000000E+00  0.25829157809E+04  0.25829157809E+04  0.25500000920E-02 0. -1.
       -2   -1    0    0    0  501  0.00000000000E+00  0.00000000000E+00 -0.11193117819E+04  0.11193117819E+04  0.25500000920E-02 0.  1.
    10030    2    1    2    0    0  0.00000000000E+00  0.00000000000E+00  0.14636039989E+04  0.37022275628E+04  0.34006399782E+04 0.  0.
        4    1    3    3  502    0  0.66999277598E+01 -0.31057343566E+03  0.25517591803E+04  0.25705986220E+04  0.12699999809E+01 0. -1.
       -4    1    3    3    0  502 -0.66999277598E+01  0.31057343566E+03 -0.10881551814E+04  0.11316289408E+04  0.12699999809E+01 0.  1.
</event>
<event>
 5   0  0.1630571E-08  0.3399134E+04  0.7818609E-02  0.8138119E-01
        1   -1    0    0  501    0  0.00000000000E+00  0.00000000000E+00  0.19085739103E+04  0.19085739103E+04  0.50400001928E-02 0. -1.
       -1   -1    0    0    0  501  0.00000000000E+00  0.00000000000E+00 -0.15134482356E+04  0.15134482356E+04  0.50400001928E-02 0.  1.
    10030    2    1    2    0    0  0.00000000000E+00  0.00000000000E+00  0.39512567471E+03  0.34220221459E+04  0.33991338997E+04 0.  0.
        3    1    3    3  502    0  0.15210812815E+04 -0.63280689752E+03 -0.22285537693E+03  0.16624672519E+04  0.10100000352E+00 0.  1.
       -3    1    3    3    0  502 -0.15210812815E+04  0.63280689752E+03  0.61798105165E+03  0.17595548940E+04  0.10100000352E+00 0. -1.
</event>
<event>
 5   0  0.1630571E-08  0.3400914E+04  0.7818609E-02  0.8137682E-01
        1   -1    0    0  501    0  0.00000000000E+00  0.00000000000E+00  0.14009324742E+04  0.14009324742E+04  0.50400001928E-02 0. -1.
       -1   -1    0    0    0  501  0.00000000000E+00  0.00000000000E+00 -0.20640206257E+04  0.20640206257E+04  0.50400001928E-02 0.  1.
    10030    2    1    2    0    0  0.00000000000E+00  0.00000000000E+00 -0.66308815144E+03  0.34649530999E+04  0.34009137137E+04 0.  0.
        3    1    3    3  502    0  0.74289152082E+02 -0.72137660927E+03 -0.18985730668E+04  0.20323589227E+04  0.10100000352E+00 0.  1.
       -3    1    3    3    0  502 -0.74289152082E+02  0.72137660927E+03  0.12354849153E+04  0.14325941773E+04  0.10100000352E+00 0. -1.
</event>
<event>
 5   0  0.4946315E-08  0.3401242E+04  0.7818609E-02  0.8137602E-01
       -2   -1    0    0    0  501  0.00000000000E+00  0.00000000000E+00  0.13546589836E+04  0.13546589836E+04  0.25500000920E-02 0. -1.
        2   -1    0    0  501    0  0.00000000000E+00  0.00000000000E+00 -0.21349367744E+04  0.21349367744E+04  0.25500000920E-02 0.  1.
    10030    2    1    2    0    0  0.00000000000E+00  0.00000000000E+00 -0.78027779085E+03  0.34895957580E+04  0.34012417032E+04 0.  0.
        3    1    3    3  502    0 -0.10682049884E+04  0.12359925623E+04  0.94760627853E+02  0.16363737648E+04  0.10100000352E+00 0. -1.
       -3    1    3    3    0  502  0.10682049884E+04 -0.12359925623E+04 -0.87503841871E+03  0.18532219931E+04  0.10100000352E+00 0.  1.
</event>
<event>
 5   0  0.1645631E-08  0.3400994E+04  0.7818609E-02  0.8137662E-01
       -1   -1    0    0    0  501  0.00000000000E+00  0.00000000000E+00  0.11079226293E+04  0.11079226293E+04  0.50400001928E-02 0.  1.
        1   -1    0    0  501    0  0.00000000000E+00  0.00000000000E+00 -0.26100115604E+04  0.26100115604E+04  0.50400001928E-02 0. -1.
    10030    2    1    2    0    0  0.00000000000E+00  0.00000000000E+00 -0.15020889311E+04  0.37179341897E+04  0.34009944843E+04 0.  0.
        4    1    3    3  502    0 -0.52176939899E+03  0.13486203882E+04 -0.17292323460E+04  0.22541664482E+04  0.12699999809E+01 0. -1.
       -4    1    3    3    0  502  0.52176939899E+03 -0.13486203882E+04  0.22714341482E+03  0.14637677415E+04  0.12699999809E+01 0.  1.
</event>
<event>
 5   0  0.1630571E-08  0.3400232E+04  0.7818609E-02  0.8137849E-01
       -1   -1    0    0    0  501  0.00000000000E+00  0.00000000000E+00  0.15986997796E+04  0.15986997796E+04  0.50400001928E-02 0.  1.
        1   -1    0    0  501    0  0.00000000000E+00  0.00000000000E+00 -0.18079655601E+04  0.18079655601E+04  0.50400001928E-02 0. -1.
    10030    2    1    2    0    0  0.00000000000E+00  0.00000000000E+00 -0.20926578048E+03  0.34066653397E+04  0.34002318406E+04 0.  0.
        3    1    3    3  502    0  0.27223509512E+03  0.74914261983E+02 -0.17843102720E+04  0.18065124551E+04  0.10100000352E+00 0. -1.
       -3    1    3    3    0  502 -0.27223509512E+03 -0.74914261983E+02  0.15750444915E+04  0.16001528846E+04  0.10100000352E+00 0.  1.
</event>
<event>
 5   0  0.4764953E-08  0.3399984E+04  0.7818609E-02  0.8137910E-01
       -2   -1    0    0    0  501  0.00000000000E+00  0.00000000000E+00  0.14441196578E+04  0.14441196578E+04  0.25500000920E-02 0.  1.
        2   -1    0    0  501    0  0.00000000000E+00  0.00000000000E+00 -0.20011998968E+04  0.20011998968E+04  0.25500000920E-02 0. -1.
    10030    2    1    2    0    0  0.00000000000E+00  0.00000000000E+00 -0.55708023899E+03  0.34453195546E+04  0.33999835942E+04 0.  0.
        2    1    3    3  502    0  0.14697169477E+04  0.76775045711E+03  0.10124184512E+03  0.16612521127E+04  0.25500000920E-02 0. -1.
       -2    1    3    3    0  502 -0.14697169477E+04 -0.76775045711E+03 -0.65832208412E+03  0.17840674419E+04  0.25500000920E-02 0.  1.
</event>
<event>
 5   0  0.1645631E-08  0.3401439E+04  0.7818609E-02  0.8137553E-01
        1   -1    0    0  501    0  0.00000000000E+00  0.00000000000E+00  0.19033895289E+04  0.19033895290E+04  0.50400001928E-02 0. -1.
       -1   -1    0    0    0  501  0.00000000000E+00  0.00000000000E+00 -0.15196298596E+04  0.15196298596E+04  0.50400001928E-02 0.  1.
    10030    2    1    2    0    0  0.00000000000E+00  0.00000000000E+00  0.38375966938E+03  0.34230193885E+04  0.34014394380E+04 0.  0.
        4    1    3    3  502    0  0.44388165720E+03 -0.36090488657E+03  0.18036535655E+04  0.18922079854E+04  0.12699999809E+01 0. -1.
       -4    1    3    3    0  502 -0.44388165720E+03  0.36090488657E+03 -0.14198938961E+04  0.15308114031E+04  0.12699999809E+01 0.  1.
</event>
<event>
 5   0  0.4973409E-08  0.3400744E+04  0.7818609E-02  0.8137724E-01
        2   -1    0    0  501    0  0.00000000000E+00  0.00000000000E+00  0.19218369789E+04  0.19218369789E+04  0.25500000920E-02 0.  1.
       -2   -1    0    0    0  501  0.00000000000E+00  0.00000000000E+00 -0.15044277154E+04  0.15044277154E+04  0.25500000920E-02 0. -1.
    10030    2    1    2    0    0  0.00000000000E+00  0.00000000000E+00  0.41740926352E+03  0.34262646943E+04  0.34007439278E+04 0.  0.
        1    1    3    3  502    0  0.12990498741E+04 -0.17294495700E+03 -0.88285765994E+03  0.15801513160E+04  0.50400001928E-02 0. -1.
       -1    1    3    3    0  502 -0.12990498741E+04  0.17294495700E+03  0.13002669235E+04  0.18461133784E+04  0.50400001928E-02 0.  1.
</event>
<event>
 5   0  0.1595851E-08  0.3401695E+04  0.7818609E-02  0.8137490E-01
        1   -1    0    0  501    0  0.00000000000E+00  0.00000000000E+00  0.16886905635E+04  0.16886905635E+04  0.50400001928E-02 0. -1.
       -1   -1    0    0    0  501  0.00000000000E+00  0.00000000000E+00 -0.17130917090E+04  0.17130917090E+04  0.50400001928E-02 0.  1.
    10030    2    1    2    0    0  0.00000000000E+00  0.00000000000E+00 -0.24401145524E+02  0.34017822725E+04  0.34016947561E+04 0.  0.
        2    1    3    3  502    0 -0.43983414826E+03  0.68956530291E+03 -0.15035227550E+04  0.17115884610E+04  0.25500000920E-02 0.  1.
       -2    1    3    3    0  502  0.43983414826E+03 -0.68956530291E+03  0.14791216095E+04  0.16901938115E+04  0.25500000920E-02 0. -1.
</event>
<event>
 5   0  0.1645631E-08  0.3397549E+04  0.7818609E-02  0.8138508E-01
        1   -1    0    0  501    0  0.00000000000E+00  0.00000000000E+00  0.22276003337E+04  0.22276003337E+04  0.50400001928E-02 0.  1.
       -1   -1    0    0    0  501  0.00000000000E+00  0.00000000000E+00 -0.12954906324E+04  0.12954906324E+04  0.50400001928E-02 0. -1.
    10030    2    1    2    0    0  0.00000000000E+00  0.00000000000E+00  0.93210970130E+03  0.35230909661E+04  0.33975493315E+04 0.  0.
        4    1    3    3  502    0 -0.12331925883E+04 -0.10151061669E+04  0.10659012321E+04  0.19202477808E+04  0.12699999809E+01 0.  1.
       -4    1    3    3    0  502  0.12331925883E+04  0.10151061669E+04 -0.13379153083E+03  0.16028431853E+04  0.12699999809E+01 0. -1.
</event>
<event>
 5   0  0.4946315E-08  0.3400836E+04  0.7818609E-02  0.8137701E-01
        2   -1    0    0  501    0  0.00000000000E+00  0.00000000000E+00  0.33305276338E+04  0.33305276338E+04  0.25500000920E-02 0. -1.
       -2   -1    0    0    0  501  0.00000000000E+00  0.00000000000E+00 -0.86815709572E+03  0.86815709573E+03  0.25500000920E-02 0.  1.
    10030    2    1    2    0    0  0.00000000000E+00  0.00000000000E+00  0.24623705381E+04  0.41986847296E+04  0.34008358960E+04 0.  0.
        3    1    3    3  502    0 -0.82614248359E+03 -0.11057306570E+04  0.24572838527E+04  0.28184030287E+04  0.10100000352E+00 0. -1.
       -3    1    3    3    0  502  0.82614248359E+03  0.11057306570E+04  0.50866853690E+01  0.13802817008E+04  0.10100000352E+00 0.  1.
</event>
<event>
 5   0  0.1630571E-08  0.3399242E+04  0.7818609E-02  0.8138092E-01
       -1   -1    0    0    0  501  0.00000000000E+00  0.00000000000E+00  0.18947309196E+04  0.18947309196E+04  0.50400001928E-02 0.  1.
        1   -1    0    0  501    0  0.00000000000E+00  0.00000000000E+00 -0.15246026433E+04  0.15246026433E+04  0.50400001928E-02 0. -1.
    10030    2    1    2    0    0  0.00000000000E+00  0.00000000000E+00  0.37012827628E+03  0.34193335629E+04  0.33992421322E+04 0.  0.
        3    1    3    3  502    0  0.15305902446E+04  0.51927113963E+02 -0.55638736883E+03  0.16294078178E+04  0.10100000352E+00 0. -1.
       -3    1    3    3    0  502 -0.15305902446E+04 -0.51927113963E+02  0.92651564511E+03  0.17899257451E+04  0.10100000352E+00 0.  1.
</event>
<event>
 5   0  0.4764953E-08  0.3399907E+04  0.7818609E-02  0.8137929E-01
        2   -1    0    0  501    0  0.00000000000E+00  0.00000000000E+00  0.20947787810E+04  0.20947787810E+04  0.25500000920E-02 0.  1.
       -2   -1    0    0    0  501  0.00000000000E+00  0.00000000000E+00 -0.13795451280E+04  0.13795451280E+04  0.25500000920E-02 0. -1.
    10030    2    1    2    0    0  0.00000000000E+00  0.00000000000E+00  0.71523365301E+03  0.34743239090E+04  0.33999069761E+04 0.  0.
        2    1    3    3  502    0 -0.98725049792E+03 -0.13398480466E+04  0.71158784354E+03  0.18100313789E+04  0.25500000920E-02 0. -1.
       -2    1    3    3    0  502  0.98725049792E+03  0.13398480466E+04  0.36458094655E+01  0.16642925300E+04  0.25500000920E-02 0.  1.
</event>
<event>
 5   0  0.4946315E-08  0.3401366E+04  0.7818609E-02  0.8137571E-01
        2   -1    0    0  501    0  0.00000000000E+00  0.00000000000E+00  0.17077965662E+04  0.17077965662E+04  0.25500000920E-02 0. -1.
       -2   -1    0    0    0  501  0.00000000000E+00  0.00000000000E+00 -0.16935993170E+04  0.16935993170E+04  0.25500000920E-02 0.  1.
    10030    2    1    2    0    0  0.00000000000E+00  0.00000000000E+00  0.14197249141E+02  0.34013958832E+04  0.34013662538E+04 0.  0.
        3    1    3    3  502    0  0.70462388217E+03  0.95625695194E+03 -0.12100401200E+04  0.16956176679E+04  0.10100000352E+00 0.  1.
       -3    1    3    3    0  502 -0.70462388217E+03 -0.95625695194E+03  0.12242373692E+04  0.17057782153E+04  0.10100000352E+00 0. -1.
</event>
<event>
 5   0  0.4764953E-08  0.3399998E+04  0.7818609E-02  0.8137907E-01
        2   -1    0    0  501    0  0.00000000000E+00  0.00000000000E+00  0.31738395446E+04  0.31738395447E+04  0.25500000920E-02 0.  1.
       -2   -1    0    0    0  501  0.00000000000E+00  0.00000000000E+00 -0.91056792845E+03  0.91056792846E+03  0.25500000920E-02 0. -1.
    10030    2    1    2    0    0  0.00000000000E+00  0.00000000000E+00  0.22632716162E+04  0.40844074731E+04  0.33999979408E+04 0.  0.
        2    1    3    3  502    0 -0.24400110291E+03 -0.92017338256E+03 -0.56033506573E+03  0.11046406556E+04  0.25500000920E-02 0. -1.
       -2    1    3    3    0  502  0.24400110291E+03  0.92017338256E+03  0.28236066819E+04  0.29797668175E+04  0.25500000920E-02 0.  1.
</event>
<event>
 5   0  0.4764953E-08  0.3398755E+04  0.7818609E-02  0.8138212E-01
        2   -1    0    0  501    0  0.00000000000E+00  0.00000000000E+00  0.24081095892E+04  0.24081095892E+04  0.25500000920E-02 0.  1.
       -2   -1    0    0    0  501  0.00000000000E+00  0.00000000000E+00 -0.11992327047E+04  0.11992327047E+04  0.25500000920E-02 0. -1.
    10030    2    1    2    0    0  0.00000000000E+00  0.00000000000E+00  0.12088768845E+04  0.36073422939E+04  0.33987549344E+04 0.  0.
        2    1    3    3  502    0  0.12293346462E+04  0.10659321402E+04  0.84032003595E+02  0.16292748011E+04  0.25500000920E-02 0. -1.
       -2    1    3    3    0  502 -0.12293346462E+04 -0.10659321402E+04  0.11248448809E+04  0.19780674928E+04  0.25500000920E-02 0.  1.
</event>
<event>
 5   0  0.1579536E-08  0.3398671E+04  0.7818609E-02  0.8138232E-01
        1   -1    0    0  501    0  0.00000000000E+00  0.00000000000E+00  0.19163841791E+04  0.19163841791E+04  0.50400001928E-02 0. -1.
       -1   -1    0    0    0  501  0.00000000000E+00  0.00000000000E+00 -0.15068699808E+04  0.15068699809E+04  0.50400001928E-02 0.  1.
    10030    2    1    2    0    0  0.00000000000E+00  0.00000000000E+00  0.40951419828E+03  0.34232541600E+04  0.33986713824E+04 0.  0.
        5    1    3    3  502    0  0.38561691693E+02  0.66678660609E+03 -0.13691161241E+04  0.15233490845E+04  0.46999998093E+01 0.  1.
       -5    1    3    3    0  502 -0.38561691693E+02 -0.66678660609E+03  0.17786303224E+04  0.18999050755E+04  0.46999998093E+01 0. -1.
</event>
<event>
 5   0  0.1625282E-08  0.3398971E+04  0.7818609E-02  0.8138159E-01
       -1   -1    0    0    0  501  0.00000000000E+00  0.00000000000E+00  0.20251131958E+04  0.20251131958E+04  0.50400001928E-02 0.  1.
        1   -1    0    0  501    0  0.00000000000E+00  0.00000000000E+00 -0.14262167654E+04  0.14262167655E+04  0.50400001928E-02 0. -1.
    10030    2    1    2    0    0  0.00000000000E+00  0.00000000000E+00  0.59889643038E+03  0.34513299613E+04  0.33989706629E+04 0.  0.
        1    1    3    3  502    0 -0.12739836096E+04  0.19435361528E+03 -0.82551857393E+03  0.15304536847E+04  0.50400001928E-02 0. -1.
       -1    1    3    3    0  502  0.12739836096E+04 -0.19435361528E+03  0.14244150043E+04  0.19208762765E+04  0.50400001928E-02 0.  1.
</event>
<event>
 5   0  0.4764953E-08  0.3400012E+04  0.7818609E-02  0.8137903E-01
       -2   -1    0    0    0  501  0.00000000000E+00  0.00000000000E+00  0.25063480799E+04  0.25063480799E+04  0.25500000920E-02 0.  1.
        2   -1    0    0  501    0  0.00000000000E+00  0.00000000000E+00 -0.11530803432E+04  0.11530803432E+04  0.25500000920E-02 0. -1.
    10030    2    1    2    0    0  0.00000000000E+00  0.00000000000E+00  0.13532677367E+04  0.36594284232E+04  0.34000121790E+04 0.  0.
        2    1    3    3  502    0 -0.50699478054E+03 -0.82617880182E+03  0.21797593946E+04  0.23855745930E+04  0.25500000920E-02 0.  1.
       -2    1    3    3    0  502  0.50699478054E+03  0.82617880182E+03 -0.82649165795E+03  0.12738538302E+04  0.25500000920E-02 0. -1.
</event>
<event>
 5   0  0.4764953E-08  0.3400621E+04  0.7818609E-02  0.8137754E-01
       -2   -1    0    0    0  501  0.00000000000E+00  0.00000000000E+00  0.85359643018E+03  0.85359643018E+03  0.25500000920E-02 0. -1.
        2   -1    0    0  501    0  0.00000000000E+00  0.00000000000E+00 -0.33869125417E+04  0.33869125417E+04  0.25500000920E-02 0.  1.
    10030    2    1    2    0    0  0.00000000000E+00  0.00000000000E+00 -0.25333161115E+04  0.42405089719E+04  0.34006213873E+04 0.  0.
        2    1    3    3  502    0 -0.61658215300E+02  0.36830657762E+03  0.80182871790E+03  0.88452290162E+03  0.25500000920E-02 0. -1.
       -2    1    3    3    0  502  0.61658215300E+02 -0.36830657762E+03 -0.33351448294E+04  0.33559860702E+04  0.25500000920E-02 0.  1.
</event>
<event>
 5   0  0.4946315E-08  0.3408711E+04  0.7818609E-02  0.8135772E-01
       -2   -1    0    0    0  501  0.00000000000E+00  0.00000000000E+00  0.25164983683E+04  0.25164983683E+04  0.25500000920E-02 0.  1.
        2   -1    0    0  501    0  0.00000000000E+00  0.00000000000E+00 -0.11543130598E+04  0.11543130598E+04  0.25500000920E-02 0. -1.
    10030    2    1    2    0    0  0.00000000000E+00  0.00000000000E+00  0.13621853085E+04  0.36708114281E+04  0.34087105665E+04 0.  0.
        3    1    3    3  502    0 -0.10940314885E+04  0.13022832474E+04  0.79896366493E+03  0.18791459503E+04  0.10100000352E+00 0.  1.
       -3    1    3    3    0  502  0.10940314885E+04 -0.13022832474E+04  0.56322164354E+03  0.17916654778E+04  0.10100000352E+00 0. -1.
</event>
<event>
 5   0  0.1595851E-08  0.3400575E+04  0.7818609E-02  0.8137765E-01
        1   -1    0    0  501    0  0.00000000000E+00  0.00000000000E+00  0.21634876759E+04  0.21634876759E+04  0.50400001928E-02 0.  1.
       -1   -1    0    0    0  501  0.00000000000E+00  0.00000000000E+00 -0.13362583245E+04  0.13362583245E+04  0.50400001928E-02 0. -1.
    10030    2    1    2    0    0  0.00000000000E+00  0.00000000000E+00  0.82722935137E+03  0.34997460004E+04  0.34005754906E+04 0.  0.
        2    1    3    3  502    0  0.15608677449E+04  0.59615026853E+03  0.89346448674E+02  0.16732262392E+04  0.25500000920E-02 0.  1.
       -2    1    3    3    0  502 -0.15608677449E+04 -0.59615026853E+03  0.73788290270E+03  0.18265197611E+04  0.25500000920E-02 0. -1.
</event>
<event>
 5   0  0.1625282E-08  0.3399025E+04  0.7818609E-02  0.8138146E-01
       -1   -1    0    0    0  501  0.00000000000E+00  0.00000000000E+00  0.17514168729E+04  0.17514168729E+04  0.50400001928E-02 0. -1.
        1   -1    0    0  501    0  0.00000000000E+00  0.00000000000E+00 -0.16491464971E+04  0.16491464971E+04  0.50400001928E-02 0.  1.
    10030    2    1    2    0    0  0.00000000000E+00  0.00000000000E+00  0.10227037582E+03  0.34005633699E+04  0.33990251548E+04 0.  0.
        1    1    3    3  502    0 -0.13411658623E+04 -0.58223036296E+03 -0.81564302663E+03  0.16742137297E+04  0.50400001928E-02 0.  1.
       -1    1    3    3    0  502  0.13411658623E+04  0.58223036296E+03  0.91791340245E+03  0.17263496402E+04  0.50400001928E-02 0. -1.
</event>
<event>
 5   0  0.4764953E-08  0.3396154E+04  0.7818609E-02  0.8138851E-01
        2   -1    0    0  501    0  0.00000000000E+00  0.00000000000E+00  0.12063518907E+04  0.12063518907E+04  0.25500000920E-02 0. -1.
       -2   -1    0    0    0  501  0.00000000000E+00  0.00000000000E+00 -0.23902354053E+04  0.23902354053E+04  0.25500000920E-02 0.  1.
    10030    2    1    2    0    0  0.00000000000E+00  0.00000000000E+00 -0.11838835146E+04  0.35965872959E+04  0.33961537069E+04 0.  0.
        2    1    3    3  502    0 -0.32512795695E+03 -0.89188238432E+03  0.89909464357E+03  0.13074913208E+04  0.25500000920E-02 0. -1.
       -2    1    3    3    0  502  0.32512795695E+03  0.89188238432E+03 -0.20829781582E+04  0.22890959751E+04  0.25500000920E-02 0.  1.
</event>
<event>
 5   0  0.5001197E-08  0.3410758E+04  0.7818609E-02  0.8135271E-01
        2   -1    0    0  501    0  0.00000000000E+00  0.00000000000E+00  0.23291326787E+04  0.23291326787E+04  0.25500000920E-02 0. -1.
       -2   -1    0    0    0  501  0.00000000000E+00  0.00000000000E+00 -0.12486696399E+04  0.12486696399E+04  0.25500000920E-02 0.  1.
    10030    2    1    2    0    0  0.00000000000E+00  0.00000000000E+00  0.10804630387E+04  0.35778023186E+04  0.34107578415E+04 0.  0.
        5    1    3    3  502    0  0.22028638430E+03 -0.95528784685E+03 -0.92352920461E+03  0.13468590287E+04  0.46999998093E+01 0.  1.
       -5    1    3    3    0  502 -0.22028638430E+03  0.95528784685E+03  0.20039922433E+04  0.22309432899E+04  0.46999998093E+01 0. -1.
</event>
<event>
 5   0  0.1595851E-08  0.3399938E+04  0.7818609E-02  0.8137921E-01
       -1   -1    0    0    0  501  0.00000000000E+00  0.00000000000E+00  0.14820551440E+04  0.14820551440E+04  0.50400001928E-02 0.  1.
        1   -1    0    0  501    0  0.00000000000E+00  0.00000000000E+00 -0.19499243467E+04  0.19499243467E+04  0.50400001928E-02 0. -1.
    10030    2    1    2    0    0  0.00000000000E+00  0.00000000000E+00 -0.46786920269E+03  0.34319794907E+04  0.33999384749E+04 0.  0.
        2    1    3    3  502    0  0.26492875181E+02  0.15994846504E+04 -0.81454418472E+03  0.17951421248E+04  0.25500000920E-02 0. -1.
       -2    1    3    3    0  502 -0.26492875181E+02 -0.15994846504E+04  0.34667498203E+03  0.16368373659E+04  0.25500000920E-02 0.  1.
</event>
<event>
 5   0  0.1579536E-08  0.3398778E+04  0.7818609E-02  0.8138206E-01
        1   -1    0    0  501    0  0.00000000000E+00  0.00000000000E+00  0.18983356090E+04  0.18983356090E+04  0.50400001928E-02 0. -1.
       -1   -1    0    0    0  501  0.00000000000E+00  0.00000000000E+00 -0.15212917943E+04  0.15212917943E+04  0.50400001928E-02 0.  1.
    10030    2    1    2    0    0  0.00000000000E+00  0.00000000000E+00  0.37704381469E+03  0.34196274032E+04  0.33987776536E+04 0.  0.
        5    1    3    3  502    0 -0.21789495831E+03 -0.14001624525E+04 -0.75529830535E+03  0.16057492725E+04  0.46999998093E+01 0.  1.
       -5    1    3    3    0  502  0.21789495831E+03  0.14001624525E+04  0.11323421200E+04  0.18138781307E+04  0.46999998093E+01 0. -1.
</event>
<event>
 5   0  0.4775023E-08  0.3399936E+04  0.7818609E-02  0.8137922E-01
        2   -1    0    0  501    0  0.00000000000E+00  0.00000000000E+00  0.19876719890E+04  0.19876719890E+04  0.25500000920E-02 0. -1.
       -2   -1    0    0    0  501  0.00000000000E+00  0.00000000000E+00 -0.14539075583E+04  0.14539075583E+04  0.25500000920E-02 0.  1.
    10030    2    1    2    0    0  0.00000000000E+00  0.00000000000E+00  0.53376443070E+03  0.34415795473E+04  0.33999360748E+04 0.  0.
        4    1    3    3  502    0 -0.60844893395E+03 -0.15670416903E+04  0.10681486108E+02  0.16810548686E+04  0.12699999809E+01 0.  1.
       -4    1    3    3    0  502  0.60844893395E+03  0.15670416903E+04  0.52308294459E+03  0.17605246787E+04  0.12699999809E+01 0. -1.
</event>
<event>
 5   0  0.1630571E-08  0.3399613E+04  0.7818609E-02  0.8138001E-01
        1   -1    0    0  501    0  0.00000000000E+00  0.00000000000E+00  0.16444522423E+04  0.16444522423E+04  0.50400001928E-02 0. -1.
       -1   -1    0    0    0  501  0.00000000000E+00  0.00000000000E+00 -0.17570241611E+04  0.17570241611E+04  0.50400001928E-02 0.  1.
    10030    2    1    2    0    0  0.00000000000E+00  0.00000000000E+00 -0.11257191884E+03  0.34014764034E+04  0.33996131083E+04 0.  0.
        3    1    3    3  502    0  0.20469561964E+03 -0.94283353995E+03  0.13439477341E+04  0.16543974440E+04  0.10100000352E+00 0. -1.
       -3    1    3    3    0  502 -0.20469561964E+03  0.94283353995E+03 -0.14565196529E+04  0.17470789594E+04  0.10100000352E+00 0.  1.
</event>
<event>
 5   0  0.1595851E-08  0.3400498E+04  0.7818609E-02  0.8137784E-01
       -1   -1    0    0    0  501  0.00000000000E+00  0.00000000000E+00  0.17077328550E+04  0.17077328550E+04  0.50400001928E-02 0.  1.
        1   -1    0    0  501    0  0.00000000000E+00  0.00000000000E+00 -0.16927976875E+04  0.16927976875E+04  0.50400001928E-02 0. -1.
    10030    2    1    2    0    0  0.00000000000E+00  0.00000000000E+00  0.14935167471E+02  0.34005305425E+04  0.34004977447E+04 0.  0.
        2    1    3    3  502    0 -0.47224448027E+03 -0.10184844272E+04  0.12843983975E+04  0.17058735654E+04  0.25500000920E-02 0.  1.
       -2    1    3    3    0  502  0.47224448027E+03  0.10184844272E+04 -0.12694632301E+04  0.16946569771E+04  0.25500000920E-02 0. -1.
</event>
<event>
 5   0  0.4764953E-08  0.3400832E+04  0.7818609E-02  0.8137702E-01
        2   -1    0    0  501    0  0.00000000000E+00  0.00000000000E+00  0.23670730499E+04  0.23670730499E+04  0.25500000920E-02 0. -1.
       -2   -1    0    0    0  501  0.00000000000E+00  0.00000000000E+00 -0.12215150724E+04  0.12215150724E+04  0.25500000920E-02 0.  1.
    10030    2    1    2    0    0  0.00000000000E+00  0.00000000000E+00  0.11455579775E+04  0.35885881223E+04  0.34008324910E+04 0.  0.
        2    1    3    3  502    0  0.61968136735E+03 -0.12127637043E+04 -0.50157409964E+03  0.14513364107E+04  0.25500000920E-02 0.  1.
       -2    1    3    3    0  502 -0.61968136735E+03  0.12127637043E+04  0.16471320771E+04  0.21372517117E+04  0.25500000920E-02 0. -1.
</event>
<event>
 5   0  0.4946315E-08  0.3395903E+04  0.7818609E-02  0.8138912E-01
       -2   -1    0    0    0  501  0.00000000000E+00  0.00000000000E+00  0.15477422548E+04  0.15477422548E+04  0.25500000920E-02 0.  1.
        2   -1    0    0  501    0  0.00000000000E+00  0.00000000000E+00 -0.18627390629E+04  0.18627390629E+04  0.25500000920E-02 0. -1.
    10030    2    1    2    0    0  0.00000000000E+00  0.00000000000E+00 -0.31499680818E+03  0.34104813177E+04  0.33959033893E+04 0.  0.
        3    1    3    3  502    0  0.11804017952E+04 -0.97423712374E+03  0.58088124907E+03  0.16370428849E+04  0.10100000352E+00 0. -1.
       -3    1    3    3    0  502 -0.11804017952E+04  0.97423712374E+03 -0.89587805726E+03  0.17734384328E+04  0.10100000352E+00 0.  1.
</event>
<event>
 5   0  0.1645631E-08  0.3423245E+04  0.7818609E-02  0.8132225E-01
       -1   -1    0    0    0  501  0.00000000000E+00  0.00000000000E+00  0.15070924384E+04  0.15070924384E+04  0.50400001928E-02 0.  1.
        1   -1    0    0  501    0  0.00000000000E+00  0.00000000000E+00 -0.19439091944E+04  0.19439091944E+04  0.50400001928E-02 0. -1.
    10030    2    1    2    0    0  0.00000000000E+00  0.00000000000E+00 -0.43681675605E+03  0.34510016328E+04  0.34232445708E+04 0.  0.
        4    1    3    3  502    0  0.76128339633E+03 -0.17010520987E+03  0.13174807749E+04  0.15310928767E+04  0.12699999809E+01 0.  1.
       -4    1    3    3    0  502 -0.76128339633E+03  0.17010520987E+03 -0.17542975309E+04  0.19199087561E+04  0.12699999809E+01 0. -1.
</event>
<event>
 5   0  0.4946315E-08  0.3400480E+04  0.7818609E-02  0.8137789E-01
       -2   -1    0    0    0  501  0.00000000000E+00  0.00000000000E+00  0.11588364769E+04  0.11588364769E+04  0.25500000920E-02 0. -1.
        2   -1    0    0  501    0  0.00000000000E+00  0.00000000000E+00 -0.24945843523E+04  0.24945843523E+04  0.25500000920E-02 0.  1.
    10030    2    1    2    0    0  0.00000000000E+00  0.00000000000E+00 -0.13357478754E+04  0.36534208291E+04  0.34004795791E+04 0.  0.
        3    1    3    3  502    0  0.16134631889E+04 -0.48290140717E+03 -0.41738320266E+03  0.17351270786E+04  0.10100000352E+00 0.  1.
       -3    1    3    3    0  502 -0.16134631889E+04  0.48290140717E+03 -0.91836467273E+03  0.19182937505E+04  0.10100000352E+00 0. -1.
</event>
<event>
 5   0  0.1630571E-08  0.3391149E+04  0.7818609E-02  0.8140082E-01
        1   -1    0    0  501    0  0.00000000000E+00  0.00000000000E+00  0.20085244893E+04  0.20085244893E+04  0.50400001928E-02 0.  1.
       -1   -1    0    0    0  501  0.00000000000E+00  0.00000000000E+00 -0.14313854741E+04  0.14313854741E+04  0.50400001928E-02 0. -1.
    10030    2    1    2    0    0  0.00000000000E+00  0.00000000000E+00  0.57713901526E+03  0.34399099634E+04  0.33911489371E+04 0.  0.
        3    1    3    3  502    0  0.15481593688E+04  0.41843952482E+03  0.84701591611E+03  0.18136496463E+04  0.10100000352E+00 0. -1.
       -3    1    3    3    0  502 -0.15481593688E+04 -0.41843952482E+03 -0.26987690086E+03  0.16262603171E+04  0.10100000352E+00 0.  1.
</event>
<event>
 5   0  0.4764953E-08  0.3394441E+04  0.7818609E-02  0.8139272E-01
        2   -1    0    0  501    0  0.00000000000E+00  0.00000000000E+00  0.20344900138E+04  0.20344900138E+04  0.25500000920E-02 0.  1.
       -2   -1    0    0    0  501  0.00000000000E+00  0.00000000000E+00 -0.14158624565E+04  0.14158624565E+04  0.25500000920E-02 0. -1.
    10030    2    1    2    0    0  0.00000000000E+00  0.00000000000E+00  0.61862755738E+03  0.34503524703E+04  0.33944413553E+04 0.  0.
        2    1    3    3  502    0  0.15334411806E+04 -0.72575366594E+03  0.35908757783E+03  0.17341003796E+04  0.25500000920E-02 0.  1.
       -2    1    3    3    0  502 -0.15334411806E+04  0.72575366594E+03  0.25953997955E+03  0.17162520907E+04  0.25500000920E-02 0. -1.
</event>
<event>
 5   0  0.4946315E-08  0.3399084E+04  0.7818609E-02  0.8138131E-01
        2   -1    0    0  501    0  0.00000000000E+00  0.00000000000E+00  0.23688287085E+04  0.23688287085E+04  0.25500000920E-02 0.  1.
       -2   -1    0    0    0  501  0.00000000000E+00  0.00000000000E+00 -0.12193550155E+04  0.12193550155E+04  0.25500000920E-02 0. -1.
    10030    2    1    2    0    0  0.00000000000E+00  0.00000000000E+00  0.11494736930E+04  0.35881837240E+04  0.33990840923E+04 0.  0.
        3    1    3    3  502    0  0.12716244220E+04  0.41637678342E+03  0.16809092117E+04  0.21484538823E+04  0.10100000352E+00 0.  1.
       -3    1    3    3    0  502 -0.12716244220E+04 -0.41637678342E+03 -0.53143551872E+03  0.14397298417E+04  0.10100000352E+00 0. -1.
</event>
<event>
 5   0  0.4973409E-08  0.3399213E+04  0.7818609E-02  0.8138100E-01
       -2   -1    0    0    0  501  0.00000000000E+00  0.00000000000E+00  0.16497118290E+04  0.16497118290E+04  0.25500000920E-02 0. -1.
        2   -1    0    0  501    0  0.00000000000E+00  0.00000000000E+00 -0.17510101049E+04  0.17510101049E+04  0.25500000920E-02 0.  1.
    10030    2    1    2    0    0  0.00000000000E+00  0.00000000000E+00 -0.10129827583E+03  0.34007219339E+04  0.33992128987E+04 0.  0.
        1    1    3    3  502    0  0.93237570168E+03 -0.12023970195E+03 -0.14672155932E+04  0.17425566367E+04  0.50400001928E-02 0.  1.
       -1    1    3    3    0  502 -0.93237570168E+03  0.12023970195E+03  0.13659173174E+04  0.16581652972E+04  0.50400001928E-02 0. -1.
</event>
<event>
 5   0  0.1625282E-08  0.3398376E+04  0.7818609E-02  0.8138305E-01
       -1   -1    0    0    0  501  0.00000000000E+00  0.00000000000E+00  0.15083589438E+04  0.15083589438E+04  0.50400001928E-02 0.  1.
        1   -1    0    0  501    0  0.00000000000E+00  0.00000000000E+00 -0.19141592193E+04  0.19141592193E+04  0.50400001928E-02 0. -1.
    10030    2    1    2    0    0  0.00000000000E+00  0.00000000000E+00 -0.40580027550E+03  0.34225181631E+04  0.33983755992E+04 0.  0.
        1    1    3    3  502    0  0.14770727877E+04  0.56658772651E+03  0.42156413180E+03  0.16372177586E+04  0.50400001928E-02 0.  1.
       -1    1    3    3    0  502 -0.14770727877E+04 -0.56658772651E+03 -0.82736440731E+03  0.17853004045E+04  0.50400001928E-02 0. -1.
</event>
<event>
 5   0  0.4946315E-08  0.3399850E+04  0.7818609E-02  0.8137943E-01
        2   -1    0    0  501    0  0.00000000000E+00  0.00000000000E+00  0.29296103860E+04  0.29296103860E+04  0.25500000920E-02 0.  1.
       -2   -1    0    0    0  501  0.00000000000E+00  0.00000000000E+00 -0.98639197402E+03  0.98639197402E+03  0.25500000920E-02 0. -1.
    10030    2    1    2    0    0  0.00000000000E+00  0.00000000000E+00  0.19432184120E+04  0.39160023600E+04  0.33998495095E+04 0.  0.
        3    1    3    3  502    0  0.34843508999E+03  0.11742799244E+04  0.23292894343E+04  0.26317161001E+04  0.10100000352E+00 0.  1.
       -3    1    3    3    0  502 -0.34843508999E+03 -0.11742799244E+04 -0.38607102229E+03  0.12842862599E+04  0.10100000352E+00 0. -1.
</event>
<event>
 5   0  0.1645631E-08  0.3400994E+04  0.7818609E-02  0.8137662E-01
        1   -1    0    0  501    0  0.00000000000E+00  0.00000000000E+00  0.18605571282E+04  0.18605571282E+04  0.50400001928E-02 0.  1.
       -1   -1    0    0    0  501  0.00000000000E+00  0.00000000000E+00 -0.15542064886E+04  0.15542064886E+04  0.50400001928E-02 0. -1.
    10030    2    1    2    0    0  0.00000000000E+00  0.00000000000E+00  0.30635063966E+03  0.34147636168E+04  0.34009939495E+04 0.  0.
        4    1    3    3  502    0 -0.48533600765E+03 -0.39113762840E+03  0.17417151476E+04  0.18498953897E+04  0.12699999809E+01 0.  1.
       -4    1    3    3    0  502  0.48533600765E+03  0.39113762840E+03 -0.14353645079E+04  0.15648682271E+04  0.12699999809E+01 0. -1.
</event>
<event>
 5   0  0.5001197E-08  0.3400086E+04  0.7818609E-02  0.8137885E-01
        2   -1    0    0  501    0  0.00000000000E+00  0.00000000000E+00  0.18757751355E+04  0.18757751355E+04  0.25500000920E-02 0. -1.
       -2   -1    0    0    0  501  0.00000000000E+00  0.00000000000E+00 -0.15407745503E+04  0.15407745503E+04  0.25500000920E-02 0.  1.
    10030    2    1    2    0    0  0.00000000000E+00  0.00000000000E+00  0.33500058512E+03  0.34165496858E+04  0.34000862288E+04 0.  0.
        5    1    3    3  502    0 -0.15883400652E+04  0.19782326322E+03  0.74313211694E+03  0.17647168724E+04  0.46999998093E+01 0. -1.
       -5    1    3    3    0  502  0.15883400652E+04 -0.19782326322E+03 -0.40813153183E+03  0.16518328135E+04  0.46999998093E+01 0.  1.
</event>
<event>
 5   0  0.1645631E-08  0.3400086E+04  0.7818609E-02  0.8137885E-01
       -1   -1    0    0    0  501  0.00000000000E+00  0.00000000000E+00  0.32264476136E+04  0.32264476136E+04  0.50400001928E-02 0. -1.
        1   -1    0    0  501    0  0.00000000000E+00  0.00000000000E+00 -0.89576701947E+03  0.89576701948E+03  0.50400001928E-02 0.  1.
    10030    2    1    2    0    0  0.00000000000E+00  0.00000000000E+00  0.23306805941E+04  0.41222146330E+04  0.34000855062E+04 0.  0.
        4    1    3    3  502    0 -0.33415275389E+03 -0.14247860546E+04  0.11645481979E+03  0.14680724445E+04  0.12699999809E+01 0.  1.
       -4    1    3    3    0  502  0.33415275389E+03  0.14247860546E+04  0.22142257743E+04  0.26541421885E+04  0.12699999809E+01 0. -1.
</event>
<event>
 5   0  0.1630571E-08  0.3398792E+04  0.7818609E-02  0.8138203E-01
       -1   -1    0    0    0  501  0.00000000000E+00  0.00000000000E+00  0.17062041081E+04  0.17062041081E+04  0.50400001928E-02 0.  1.
        1   -1    0    0  501    0  0.00000000000E+00  0.00000000000E+00 -0.16926150196E+04  0.16926150196E+04  0.50400001928E-02 0. -1.
    10030    2    1    2    0    0  0.00000000000E+00  0.00000000000E+00  0.13589088503E+02  0.33988191277E+04  0.33987919618E+04 0.  0.
        3    1    3    3  502    0  0.16864772085E+03  0.16906427265E+04  0.41891939166E+02  0.16995498896E+04  0.10100000352E+00 0.  1.
       -3    1    3    3    0  502 -0.16864772085E+03 -0.16906427265E+04 -0.28302850663E+02  0.16992692382E+04  0.10100000352E+00 0. -1.
</event>
<event>
 5   0  0.4973409E-08  0.3401006E+04  0.7818609E-02  0.8137660E-01
        2   -1    0    0  501    0  0.00000000000E+00  0.00000000000E+00  0.28317928991E+04  0.28317928991E+04  0.25500000920E-02 0. -1.
       -2   -1    0    0    0  501  0.00000000000E+00  0.00000000000E+00 -0.10211586908E+04  0.10211586909E+04  0.25500000920E-02 0.  1.
    10030    2    1    2    0    0  0.00000000000E+00  0.00000000000E+00  0.18106342083E+04  0.38529515900E+04  0.34010056922E+04 0.  0.
        1    1    3    3  502    0  0.10744314273E+04 -0.36902668102E+03 -0.52818718101E+03  0.12528229250E+04  0.50400001928E-02 0.  1.
       -1    1    3    3    0  502 -0.10744314273E+04  0.36902668102E+03  0.23388213893E+04  0.26001286650E+04  0.50400001928E-02 0. -1.
</event>
<event>
 5   0  0.4775023E-08  0.3400679E+04  0.7818609E-02  0.8137740E-01
       -2   -1    0    0    0  501  0.00000000000E+00  0.00000000000E+00  0.22231980896E+04  0.22231980896E+04  0.25500000920E-02 0. -1.
        2   -1    0    0  501    0  0.00000000000E+00  0.00000000000E+00 -0.13004484784E+04  0.13004484784E+04  0.25500000920E-02 0.  1.
    10030    2    1    2    0    0  0.00000000000E+00  0.00000000000E+00  0.92274961127E+03  0.35236465680E+04  0.34006790927E+04 0.  0.
        4    1    3    3  502    0  0.59737398390E+03 -0.15673207678E+04  0.17235702219E+03  0.16861371895E+04  0.12699999809E+01 0. -1.
       -4    1    3    3    0  502 -0.59737398390E+03  0.15673207678E+04  0.75039258908E+03  0.18375093786E+04  0.12699999809E+01 0.  1.
</event>
<event>
 5   0  0.4946315E-08  0.3398601E+04  0.7818609E-02  0.8138250E-01
        2   -1    0    0  501    0  0.00000000000E+00  0.00000000000E+00  0.20487095484E+04  0.20487095484E+04  0.25500000920E-02 0. -1.
       -2   -1    0    0    0  501  0.00000000000E+00  0.00000000000E+00 -0.14094830420E+04  0.14094830420E+04  0.25500000920E-02 0.  1.
    10030    2    1    2    0    0  0.00000000000E+00  0.00000000000E+00  0.63922650643E+03  0.34581925905E+04  0.33986005158E+04 0.  0.
        3    1    3    3  502    0 -0.32713560344E+03  0.10235133503E+04  0.16591398926E+04  0.19766998950E+04  0.10100000352E+00 0. -1.
       -3    1    3    3    0  502  0.32713560344E+03 -0.10235133503E+04 -0.10199133861E+04  0.14814926955E+04  0.10100000352E+00 0.  1.
</event>
<event>
 5   0  0.1645631E-08  0.3402510E+04  0.7818609E-02  0.8137291E-01
        1   -1    0    0  501    0  0.00000000000E+00  0.00000000000E+00  0.19706219246E+04  0.19706219246E+04  0.50400001928E-02 0.  1.
       -1   -1    0    0    0  501  0.00000000000E+00  0.00000000000E+00 -0.14687083609E+04  0.14687083609E+04  0.50400001928E-02 0. -1.
    10030    2    1    2    0    0  0.00000000000E+00  0.00000000000E+00  0.50191356368E+03  0.34393302856E+04  0.34025101892E+04 0.  0.
        4    1    3    3  502    0 -0.23776676654E+03 -0.98021446702E+03  0.16357872778E+04  0.19217583271E+04  0.12699999809E+01 0.  1.
       -4    1    3    3    0  502  0.23776676654E+03  0.98021446702E+03 -0.11338737141E+04  0.15175719585E+04  0.12699999809E+01 0. -1.
</event>
<event>
 5   0  0.1595851E-08  0.3399543E+04  0.7818609E-02  0.8138019E-01
       -1   -1    0    0    0  501  0.00000000000E+00  0.00000000000E+00  0.24324164440E+04  0.24324164440E+04  0.50400001928E-02 0. -1.
        1   -1    0    0  501    0  0.00000000000E+00  0.00000000000E+00 -0.11877993858E+04  0.11877993858E+04  0.50400001928E-02 0.  1.
    10030    2    1    2    0    0  0.00000000000E+00  0.00000000000E+00  0.12446170581E+04  0.36202158298E+04  0.33995427682E+04 0.  0.
        2    1    3    3  502    0  0.14456442181E+04 -0.16728483592E+03  0.15575851361E+04  0.21316526166E+04  0.25500000920E-02 0. -1.
       -2    1    3    3    0  502 -0.14456442181E+04  0.16728483592E+03 -0.31296807796E+03  0.14885632132E+04  0.25500000920E-02 0.  1.
</event>
<event>
 5   0  0.5001197E-08  0.3405224E+04  0.7818609E-02  0.8136625E-01
        2   -1    0    0  501    0  0.00000000000E+00  0.00000000000E+00  0.15504025785E+04  0.15504025785E+04  0.25500000920E-02 0.  1.
       -2   -1    0    0    0  501  0.00000000000E+00  0.00000000000E+00 -0.18697643807E+04  0.18697643807E+04  0.25500000920E-02 0. -1.
    10030    2    1    2    0    0  0.00000000000E+00  0.00000000000E+00 -0.31936180217E+03  0.34201669592E+04  0.34052239380E+04 0.  0.
        5    1    3    3  502    0  0.28615757434E+03 -0.16554655274E+04  0.11796144230E+03  0.16841583244E+04  0.46999998093E+01 0.  1.
       -5    1    3    3    0  502 -0.28615757434E+03  0.16554655274E+04 -0.43732324447E+03  0.17360086348E+04  0.46999998093E+01 0. -1.
</event>
<event>
 5   0  0.1625282E-08  0.3405529E+04  0.7818609E-02  0.8136551E-01
       -1   -1    0    0    0  501  0.00000000000E+00  0.00000000000E+00  0.18690822038E+04  0.18690822038E+04  0.50400001928E-02 0.  1.
        1   -1    0    0  501    0  0.00000000000E+00  0.00000000000E+00 -0.15512463048E+04  0.15512463048E+04  0.50400001928E-02 0. -1.
    10030    2    1    2    0    0  0.00000000000E+00  0.00000000000E+00  0.31783589901E+03  0.34203285087E+04  0.34055289528E+04 0.  0.
        1    1    3    3  502    0  0.35994764746E+03  0.10030869899E+04 -0.11748823313E+04  0.15862201331E+04  0.50400001928E-02 0. -1.
       -1    1    3    3    0  502 -0.35994764746E+03 -0.10030869899E+04  0.14927182303E+04  0.18341083756E+04  0.50400001928E-02 0.  1.
</event>
<event>
 5   0  0.4946315E-08  0.3398800E+04  0.7818609E-02  0.8138201E-01
        2   -1    0    0  501    0  0.00000000000E+00  0.00000000000E+00  0.21406225174E+04  0.21406225174E+04  0.25500000920E-02 0. -1.
       -2   -1    0    0    0  501  0.00000000000E+00  0.00000000000E+00 -0.13491219062E+04  0.13491219062E+04  0.25500000920E-02 0.  1.
    10030    2    1    2    0    0  0.00000000000E+00  0.00000000000E+00  0.79150061122E+03  0.34897444235E+04  0.33988002183E+04 0.  0.
        3    1    3    3  502    0 -0.80123180368E+03 -0.11940143947E+04 -0.53419860485E+03  0.15339527169E+04  0.10100000352E+00 0. -1.
       -3    1    3    3    0  502  0.80123180368E+03  0.11940143947E+04  0.13256992161E+04  0.19557917066E+04  0.10100000352E+00 0.  1.
</event>
<event>
 5   0  0.1595851E-08  0.3397559E+04  0.7818609E-02  0.8138506E-01
       -1   -1    0    0    0  501  0.00000000000E+00  0.00000000000E+00  0.14299702959E+04  0.14299702959E+04  0.50400001928E-02 0. -1.
        1   -1    0    0  501    0  0.00000000000E+00  0.00000000000E+00 -0.20181201580E+04  0.20181201580E+04  0.50400001928E-02 0.  1.
    10030    2    1    2    0    0  0.00000000000E+00  0.00000000000E+00 -0.58814986206E+03  0.34480904539E+04  0.33975590529E+04 0.  0.
        2    1    3    3  502    0 -0.89661114441E+03 -0.91985860468E+03 -0.14222742065E+04  0.19164851461E+04  0.25500000920E-02 0.  1.
       -2    1    3    3    0  502  0.89661114441E+03  0.91985860468E+03  0.83412434443E+03  0.15316053078E+04  0.25500000920E-02 0. -1.
</event>
<event>
 5   0  0.1645631E-08  0.3395525E+04  0.7818609E-02  0.8139005E-01
        1   -1    0    0  501    0  0.00000000000E+00  0.00000000000E+00  0.12586396192E+04  0.12586396192E+04  0.50400001928E-02 0.  1.
       -1   -1    0    0    0  501  0.00000000000E+00  0.00000000000E+00 -0.22900902131E+04  0.22900902131E+04  0.50400001928E-02 0. -1.
    10030    2    1    2    0    0  0.00000000000E+00  0.00000000000E+00 -0.10314505940E+04  0.35487298323E+04  0.33955254519E+04 0.  0.
        4    1    3    3  502    0  0.50972013038E+03 -0.37754688872E+03  0.11301439279E+04  0.12959873360E+04  0.12699999809E+01 0.  1.
       -4    1    3    3    0  502 -0.50972013038E+03  0.37754688872E+03 -0.21615945219E+04  0.22527424962E+04  0.12699999809E+01 0. -1.
</event>
<event>
 5   0  0.1573625E-08  0.3396302E+04  0.7818609E-02  0.8138815E-01
        3   -1    0    0  501    0  0.00000000000E+00  0.00000000000E+00  0.14005037039E+04  0.14005037075E+04  0.10100000352E+00 0.  1.
       -3   -1    0    0    0  501  0.00000000000E+00  0.00000000000E+00 -0.20590567513E+04  0.20590567538E+04  0.10100000352E+00 0. -1.
    10030    2    1    2    0    0  0.00000000000E+00  0.00000000000E+00 -0.65855304740E+03  0.34595604613E+04  0.33963018813E+04 0.  0.
        4    1    3    3  502    0 -0.11363471563E+04  0.11822307912E+04  0.12026010146E+03  0.16442075928E+04  0.12699999809E+01 0.  1.
       -4    1    3    3    0  502  0.11363471563E+04 -0.11822307912E+04 -0.77881314886E+03  0.18153528685E+04  0.12699999809E+01 0. -1.
</event>
<event>
 5   0  0.4775023E-08  0.3398070E+04  0.7818609E-02  0.8138380E-01
       -2   -1    0    0    0  501  0.00000000000E+00  0.00000000000E+00  0.22376660151E+04  0.22376660151E+04  0.25500000920E-02 0. -1.
        2   -1    0    0  501    0  0.00000000000E+00  0.00000000000E+00 -0.12900583877E+04  0.12900583877E+04  0.25500000920E-02 0.  1.
    10030    2    1    2    0    0  0.00000000000E+00  0.00000000000E+00  0.94760762739E+03  0.35277244028E+04  0.33980699296E+04 0.  0.
        4    1    3    3  502    0 -0.22980621987E+03  0.96251732654E+03 -0.96000396795E+03  0.13787166982E+04  0.12699999809E+01 0.  1.
       -4    1    3    3    0  502  0.22980621987E+03 -0.96251732654E+03  0.19076115953E+04  0.21490077045E+04  0.12699999809E+01 0. -1.
</event>
<event>
 5   0  0.1579536E-08  0.3402757E+04  0.7818609E-02  0.8137230E-01
        1   -1    0    0  501    0  0.00000000000E+00  0.00000000000E+00  0.19788150108E+04  0.19788150108E+04  0.50400001928E-02 0.  1.
       -1   -1    0    0    0  501  0.00000000000E+00  0.00000000000E+00 -0.14628391887E+04  0.14628391887E+04  0.50400001928E-02 0. -1.
    10030    2    1    2    0    0  0.00000000000E+00  0.00000000000E+00  0.51597582209E+03  0.34416541996E+04  0.34027566149E+04 0.  0.
        5    1    3    3  502    0  0.17209792078E+02 -0.56478574860E+03 -0.13651581034E+04  0.14774836229E+04  0.46999998093E+01 0. -1.
       -5    1    3    3    0  502 -0.17209792078E+02  0.56478574860E+03  0.18811339255E+04  0.19641705767E+04  0.46999998093E+01 0.  1.
</event>
<event>
 5   0  0.4764953E-08  0.3402682E+04  0.7818609E-02  0.8137248E-01
       -2   -1    0    0    0  501  0.00000000000E+00  0.00000000000E+00  0.13238238220E+04  0.13238238220E+04  0.25500000920E-02 0. -1.
        2   -1    0    0  501    0  0.00000000000E+00  0.00000000000E+00 -0.21865149613E+04  0.21865149613E+04  0.25500000920E-02 0.  1.
    10030    2    1    2    0    0  0.00000000000E+00  0.00000000000E+00 -0.86269113932E+03  0.35103387833E+04  0.34026816441E+04 0.  0.
        2    1    3    3  502    0 -0.12081798994E+04 -0.66540589824E+03  0.59620868877E+03  0.15026405024E+04  0.25500000920E-02 0. -1.
       -2    1    3    3    0  502  0.12081798994E+04  0.66540589824E+03 -0.14588998281E+04  0.20076982809E+04  0.25500000920E-02 0.  1.
</event>
<event>
 5   0  0.1645631E-08  0.3399944E+04  0.7818609E-02  0.8137920E-01
        1   -1    0    0  501    0  0.00000000000E+00  0.00000000000E+00  0.18039968365E+04  0.18039968365E+04  0.50400001928E-02 0.  1.
       -1   -1    0    0    0  501  0.00000000000E+00  0.00000000000E+00 -0.16019453018E+04  0.16019453018E+04  0.50400001928E-02 0. -1.
    10030    2    1    2    0    0  0.00000000000E+00  0.00000000000E+00  0.20205153469E+03  0.34059421383E+04  0.33999436799E+04 0.  0.
        4    1    3    3  502    0 -0.16189455923E+04  0.50892539144E+03  0.12872721361E+01  0.16970542581E+04  0.12699999809E+01 0. -1.
       -4    1    3    3    0  502  0.16189455923E+04 -0.50892539144E+03  0.20076426255E+03  0.17088878802E+04  0.12699999809E+01 0.  1.
</event>
<event>
 5   0  0.1625282E-08  0.3399975E+04  0.7818609E-02  0.8137912E-01
        1   -1    0    0  501    0  0.00000000000E+00  0.00000000000E+00  0.22468266029E+04  0.22468266029E+04  0.50400001928E-02 0.  1.
       -1   -1    0    0    0  501  0.00000000000E+00  0.00000000000E+00 -0.12862399949E+04  0.12862399949E+04  0.50400001928E-02 0. -1.
    10030    2    1    2    0    0  0.00000000000E+00  0.00000000000E+00  0.96058660800E+03  0.35330665978E+04  0.33999754341E+04 0.  0.
        1    1    3    3  502    0 -0.81520328847E+03  0.14832166861E+04  0.64613409483E+03  0.18116228658E+04  0.50400001928E-02 0.  1.
       -1    1    3    3    0  502  0.81520328847E+03 -0.14832166861E+04  0.31445251317E+03  0.17214437320E+04  0.50400001928E-02 0. -1.
</event>
<event>
 5   0  0.4764953E-08  0.3398180E+04  0.7818609E-02  0.8138353E-01
       -2   -1    0    0    0  501  0.00000000000E+00  0.00000000000E+00  0.15917874665E+04  0.15917874665E+04  0.25500000920E-02 0.  1.
        2   -1    0    0  501    0  0.00000000000E+00  0.00000000000E+00 -0.18136260309E+04  0.18136260309E+04  0.25500000920E-02 0. -1.
    10030    2    1    2    0    0  0.00000000000E+00  0.00000000000E+00 -0.22183856437E+03  0.34054134974E+04  0.33981802100E+04 0.  0.
        2    1    3    3  502    0 -0.16101310334E+04 -0.47955081567E+03 -0.36526309897E+03  0.17192754465E+04  0.25500000920E-02 0.  1.
       -2    1    3    3    0  502  0.16101310334E+04  0.47955081567E+03  0.14342453460E+03  0.16861380509E+04  0.25500000920E-02 0. -1.
</event>
<event>
 5   0  0.4775023E-08  0.3397936E+04  0.7818609E-02  0.8138413E-01
        2   -1    0    0  501    0  0.00000000000E+00  0.00000000000E+00  0.19560219307E+04  0.19560219307E+04  0.25500000920E-02 0. -1.
       -2   -1    0    0    0  501  0.00000000000E+00  0.00000000000E+00 -0.14756955181E+04  0.14756955181E+04  0.25500000920E-02 0.  1.
    10030    2    1    2    0    0  0.00000000000E+00  0.00000000000E+00  0.48032641259E+03  0.34317174487E+04  0.33979363127E+04 0.  0.
        4    1    3    3  502    0  0.47826477452E+03  0.96857299874E+03  0.15645430863E+04  0.19012279006E+04  0.12699999809E+01 0. -1.
       -4    1    3    3    0  502 -0.47826477452E+03 -0.96857299874E+03 -0.10842166737E+04  0.15304895481E+04  0.12699999809E+01 0.  1.
</event>
<event>
 5   0  0.1595851E-08  0.3400192E+04  0.7818609E-02  0.8137859E-01
        1   -1    0    0  501    0  0.00000000000E+00  0.00000000000E+00  0.24998217451E+04  0.24998217452E+04  0.50400001928E-02 0.  1.
       -1   -1    0    0    0  501  0.00000000000E+00  0.00000000000E+00 -0.11562128632E+04  0.11562128632E+04  0.50400001928E-02 0. -1.
    10030    2    1    2    0    0  0.00000000000E+00  0.00000000000E+00  0.13436088819E+04  0.36560346084E+04  0.34001917931E+04 0.  0.
        2    1    3    3  502    0 -0.12653342170E+04 -0.96999170887E+02  0.18882308278E+04  0.22750593792E+04  0.25500000920E-02 0.  1.
       -2    1    3    3    0  502  0.12653342170E+04  0.96999170887E+02 -0.54462194585E+03  0.13809752292E+04  0.25500000920E-02 0. -1.
</event>
<event>
 5   0  0.1625282E-08  0.3400973E+04  0.7818609E-02  0.8137668E-01
       -1   -1    0    0    0  501  0.00000000000E+00  0.00000000000E+00  0.18746025955E+04  0.18746025955E+04  0.50400001928E-02 0. -1.
        1   -1    0    0  501    0  0.00000000000E+00  0.00000000000E+00 -0.15425421829E+04  0.15425421829E+04  0.50400001928E-02 0.  1.
    10030    2    1    2    0    0  0.00000000000E+00  0.00000000000E+00  0.33206041264E+03  0.34171447784E+04  0.34009725548E+04 0.  0.
        1    1    3    3  502    0  0.10225808110E+04 -0.63292428328E+03 -0.10419299572E+04  0.15911890834E+04  0.50400001928E-02 0.  1.
       -1    1    3    3    0  502 -0.10225808110E+04  0.63292428328E+03  0.13739903699E+04  0.18259556949E+04  0.50400001928E-02 0. -1.
</event>
<event>
 5   0  0.1625282E-08  0.3396372E+04  0.7818609E-02  0.8138797E-01
        1   -1    0    0  501    0  0.00000000000E+00  0.00000000000E+00  0.29235133604E+04  0.29235133604E+04  0.50400001928E-02 0.  1.
       -1   -1    0    0    0  501  0.00000000000E+00  0.00000000000E+00 -0.98642787386E+03  0.98642787388E+03  0.50400001928E-02 0. -1.
    10030    2    1    2    0    0  0.00000000000E+00  0.00000000000E+00  0.19370854866E+04  0.39099412343E+04  0.33963716336E+04 0.  0.
        1    1    3    3  502    0 -0.59466105406E+02  0.12137374463E+04  0.23341434091E+04  0.26315243226E+04  0.50400001928E-02 0.  1.
       -1    1    3    3    0  502  0.59466105406E+02 -0.12137374463E+04 -0.39705792252E+03  0.12784169117E+04  0.50400001928E-02 0. -1.
</event>
<event>
 5   0  0.4775023E-08  0.3400851E+04  0.7818609E-02  0.8137697E-01
        2   -1    0    0  501    0  0.00000000000E+00  0.00000000000E+00  0.23492359251E+04  0.23492359251E+04  0.25500000920E-02 0. -1.
       -2   -1    0    0    0  501  0.00000000000E+00  0.00000000000E+00 -0.12308031376E+04  0.12308031376E+04  0.25500000920E-02 0.  1.
    10030    2    1    2    0    0  0.00000000000E+00  0.00000000000E+00  0.11184327874E+04  0.35800390627E+04  0.34008510391E+04 0.  0.
        4    1    3    3  502    0 -0.79635697351E+03 -0.60311129667E+03  0.20077708837E+04  0.22425595198E+04  0.12699999809E+01 0. -1.
       -4    1    3    3    0  502  0.79635697351E+03  0.60311129667E+03 -0.88933809624E+03  0.13374795429E+04  0.12699999809E+01 0.  1.
</event>
<event>
 5   0  0.1630571E-08  0.3399876E+04  0.7818609E-02  0.8137937E-01
        1   -1    0    0  501    0  0.00000000000E+00  0.00000000000E+00  0.16815164365E+04  0.16815164365E+04  0.50400001928E-02 0. -1.
       -1   -1    0    0    0  501  0.00000000000E+00  0.00000000000E+00 -0.17185615099E+04  0.17185615099E+04  0.50400001928E-02 0.  1.
    10030    2    1    2    0    0  0.00000000000E+00  0.00000000000E+00 -0.37045073338E+02  0.34000779464E+04  0.33998761307E+04 0.  0.
        3    1    3    3  502    0  0.15415541462E+04  0.56908742580E+03 -0.45390999027E+03  0.17047826763E+04  0.10100000352E+00 0.  1.
       -3    1    3    3    0  502 -0.15415541462E+04 -0.56908742580E+03  0.41686491693E+03  0.16952952702E+04  0.10100000352E+00 0. -1.
</event>
<event>
 5   0  0.1625282E-08  0.3401014E+04  0.7818609E-02  0.8137657E-01
       -1   -1    0    0    0  501  0.00000000000E+00  0.00000000000E+00  0.12571248852E+04  0.12571248852E+04  0.50400001928E-02 0.  1.
        1   -1    0    0  501    0  0.00000000000E+00  0.00000000000E+00 -0.23002685107E+04  0.23002685107E+04  0.50400001928E-02 0. -1.
    10030    2    1    2    0    0  0.00000000000E+00  0.00000000000E+00 -0.10431436255E+04  0.35573933960E+04  0.34010144296E+04 0.  0.
        1    1    3    3  502    0 -0.94955899048E+03 -0.52936126058E+03  0.84616032130E+03  0.13776330825E+04  0.50400001928E-02 0.  1.
       -1    1    3    3    0  502  0.94955899048E+03  0.52936126058E+03 -0.18893039468E+04  0.21797603135E+04  0.50400001928E-02 0. -1.
</event>
<event>
 5   0  0.1625282E-08  0.3400608E+04  0.7818609E-02  0.8137757E-01
       -1   -1    0    0    0  501  0.00000000000E+00  0.00000000000E+00  0.15098578695E+04  0.15098578695E+04  0.50400001928E-02 0.  1.
        1   -1    0    0  501    0  0.00000000000E+00  0.00000000000E+00 -0.19147716166E+04  0.19147716166E+04  0.50400001928E-02 0. -1.
    10030    2    1    2    0    0  0.00000000000E+00  0.00000000000E+00 -0.40491374708E+03  0.34246294861E+04  0.34006075890E+04 0.  0.
        1    1    3    3  502    0 -0.16286235595E+04  0.44223998425E+03  0.64745458426E+01  0.16876115732E+04  0.50400001928E-02 0.  1.
       -1    1    3    3    0  502  0.16286235595E+04 -0.44223998425E+03 -0.41138829292E+03  0.17370179129E+04  0.50400001928E-02 0. -1.
</event>
<event>
 5   0  0.4775023E-08  0.3400137E+04  0.7818609E-02  0.8137873E-01
        2   -1    0    0  501    0  0.00000000000E+00  0.00000000000E+00  0.14946786692E+04  0.14946786692E+04  0.25500000920E-02 0.  1.
       -2   -1    0    0    0  501  0.00000000000E+00  0.00000000000E+00 -0.19336817636E+04  0.19336817636E+04  0.25500000920E-02 0. -1.
    10030    2    1    2    0    0  0.00000000000E+00  0.00000000000E+00 -0.43900309433E+03  0.34283604328E+04  0.34001369885E+04 0.  0.
        4    1    3    3  502    0 -0.10548571077E+04 -0.59407894805E+03 -0.14229657306E+04  0.18682843460E+04  0.12699999809E+01 0. -1.
       -4    1    3    3    0  502  0.10548571077E+04  0.59407894805E+03  0.98396263628E+03  0.15600760868E+04  0.12699999809E+01 0.  1.
</event>
<event>
 5   0  0.4946315E-08  0.3401362E+04  0.7818609E-02  0.8137572E-01
        2   -1    0    0  501    0  0.00000000000E+00  0.00000000000E+00  0.12710517183E+04  0.12710517183E+04  0.25500000920E-02 0.  1.
       -2   -1    0    0    0  501  0.00000000000E+00  0.00000000000E+00 -0.22755292231E+04  0.22755292231E+04  0.25500000920E-02 0. -1.
    10030    2    1    2    0    0  0.00000000000E+00  0.00000000000E+00 -0.10044775048E+04  0.35465809414E+04  0.34013616856E+04 0.  0.
        3    1    3    3  502    0 -0.92964011254E+03  0.39133936108E+02 -0.19865878612E+04  0.21936940407E+04  0.10100000352E+00 0. -1.
       -3    1    3    3    0  502  0.92964011254E+03 -0.39133936108E+02  0.98211035639E+03  0.13528869007E+04  0.10100000352E+00 0.  1.
</event>
<event>
 5   0  0.5001197E-08  0.3401896E+04  0.7818609E-02  0.8137441E-01
        2   -1    0    0  501    0  0.00000000000E+00  0.00000000000E+00  0.14776616019E+04  0.14776616019E+04  0.25500000920E-02 0.  1.
       -2   -1    0    0    0  501  0.00000000000E+00  0.00000000000E+00 -0.19579750710E+04  0.19579750710E+04  0.25500000920E-02 0. -1.
    10030    2    1    2    0    0  0.00000000000E+00  0.00000000000E+00 -0.48031346905E+03  0.34356366729E+04  0.34018962829E+04 0.  0.
        5    1    3    3  502    0 -0.16053280843E+04 -0.11374136623E+03  0.31592873164E+03  0.16400757330E+04  0.46999998093E+01 0.  1.
       -5    1    3    3    0  502  0.16053280843E+04  0.11374136623E+03 -0.79624220069E+03  0.17955609399E+04  0.46999998093E+01 0. -1.
</event>
<event>
 5   0  0.4946315E-08  0.3398611E+04  0.7818609E-02  0.8138247E-01
        2   -1    0    0  501    0  0.00000000000E+00  0.00000000000E+00  0.14037126389E+04  0.14037126389E+04  0.25500000920E-02 0.  1.
       -2   -1    0    0    0  501  0.00000000000E+00  0.00000000000E+00 -0.20571443515E+04  0.20571443515E+04  0.25500000920E-02 0. -1.
    10030    2    1    2    0    0  0.00000000000E+00  0.00000000000E+00 -0.65343171263E+03  0.34608569905E+04  0.33986112024E+04 0.  0.
        3    1    3    3  502    0  0.83008903502E+03 -0.95371698216E+03 -0.14828580750E+04  0.19487154664E+04  0.10100000352E+00 0. -1.
       -3    1    3    3    0  502 -0.83008903502E+03  0.95371698216E+03  0.82942636236E+03  0.15121415241E+04  0.10100000352E+00 0.  1.
</event>
<event>
 5   0  0.1579536E-08  0.3399475E+04  0.7818609E-02  0.8138035E-01
       -1   -1    0    0    0  501  0.00000000000E+00  0.00000000000E+00  0.14530298769E+04  0.14530298769E+04  0.50400001928E-02 0.  1.
        1   -1    0    0  501    0  0.00000000000E+00  0.00000000000E+00 -0.19883329298E+04  0.19883329298E+04  0.50400001928E-02 0. -1.
    10030    2    1    2    0    0  0.00000000000E+00  0.00000000000E+00 -0.53530305286E+03  0.34413628067E+04  0.33994747548E+04 0.  0.
        5    1    3    3  502    0 -0.91307606008E+03 -0.67217638082E+03 -0.15495709181E+04  0.19200836177E+04  0.46999998093E+01 0. -1.
       -5    1    3    3    0  502  0.91307606008E+03  0.67217638082E+03  0.10142678653E+04  0.15212791890E+04  0.46999998093E+01 0.  1.
</event>
<event>
 5   0  0.5001197E-08  0.3399781E+04  0.7818609E-02  0.8137960E-01
        2   -1    0    0  501    0  0.00000000000E+00  0.00000000000E+00  0.24977855011E+04  0.24977855011E+04  0.25500000920E-02 0. -1.
       -2   -1    0    0    0  501  0.00000000000E+00  0.00000000000E+00 -0.11568757306E+04  0.11568757306E+04  0.25500000920E-02 0.  1.
    10030    2    1    2    0    0  0.00000000000E+00  0.00000000000E+00  0.13409097704E+04  0.36546612317E+04  0.33997808321E+04 0.  0.
        5    1    3    3  502    0 -0.12669665343E+04  0.78533342034E+03 -0.20790291700E+03  0.15050576378E+04  0.46999998093E+01 0.  1.
       -5    1    3    3    0  502  0.12669665343E+04 -0.78533342034E+03  0.15488126874E+04  0.21496035939E+04  0.46999998093E+01 0. -1.
</event>
<event>
 5   0  0.4764953E-08  0.3399282E+04  0.7818609E-02  0.8138083E-01
        2   -1    0    0  501    0  0.00000000000E+00  0.00000000000E+00  0.17758172817E+04  0.17758172817E+04  0.25500000920E-02 0. -1.
       -2   -1    0    0    0  501  0.00000000000E+00  0.00000000000E+00 -0.16267322988E+04  0.16267322988E+04  0.25500000920E-02 0.  1.
    10030    2    1    2    0    0  0.00000000000E+00  0.00000000000E+00  0.14908498297E+03  0.34025495805E+04  0.33992818824E+04 0.  0.
        2    1    3    3  502    0  0.12443600197E+04  0.67781963302E+03 -0.86492674533E+03  0.16601113180E+04  0.25500000920E-02 0.  1.
       -2    1    3    3    0  502 -0.12443600197E+04 -0.67781963302E+03  0.10140117283E+04  0.17424382625E+04  0.25500000920E-02 0. -1.
</event>
<event>
 5   0  0.5001197E-08  0.3401293E+04  0.7818609E-02  0.8137589E-01
       -2   -1    0    0    0  501  0.00000000000E+00  0.00000000000E+00  0.13923131894E+04  0.13923131894E+04  0.25500000920E-02 0. -1.
        2   -1    0    0  501    0  0.00000000000E+00  0.00000000000E+00 -0.20772611118E+04  0.20772611118E+04  0.25500000920E-02 0.  1.
    10030    2    1    2    0    0  0.00000000000E+00  0.00000000000E+00 -0.68494792234E+03  0.34695743012E+04  0.34012927212E+04 0.  0.
        5    1    3    3  502    0 -0.16932206959E+03  0.92109530074E+03 -0.17905099174E+04  0.20206519667E+04  0.46999998093E+01 0.  1.
       -5    1    3    3    0  502  0.16932206959E+03 -0.92109530074E+03  0.11055619951E+04  0.14489223345E+04  0.46999998093E+01 0. -1.
</event>
<event>
 5   0  0.1625282E-08  0.3398823E+04  0.7818609E-02  0.8138195E-01
        1   -1    0    0  501    0  0.00000000000E+00  0.00000000000E+00  0.12399494488E+04  0.12399494488E+04  0.50400001928E-02 0.  1.
       -1   -1    0    0    0  501  0.00000000000E+00  0.00000000000E+00 -0.23291265630E+04  0.23291265630E+04  0.50400001928E-02 0. -1.
    10030    2    1    2    0    0  0.00000000000E+00  0.00000000000E+00 -0.10891771142E+04  0.35690760118E+04  0.33988228538E+04 0.  0.
        1    1    3    3  502    0  0.16158164272E+04  0.10021217021E+03 -0.10872879397E+04  0.19501539091E+04  0.50400001928E-02 0.  1.
       -1    1    3    3    0  502 -0.16158164272E+04 -0.10021217021E+03 -0.18891745691E+01  0.16189221027E+04  0.50400001928E-02 0. -1.
</event>
<event>
 5   0  0.4764953E-08  0.3399898E+04  0.7818609E-02  0.8137931E-01
       -2   -1    0    0    0  501  0.00000000000E+00  0.00000000000E+00  0.11868881776E+04  0.11868881776E+04  0.25500000920E-02 0. -1.
        2   -1    0    0  501    0  0.00000000000E+00  0.00000000000E+00 -0.24347929663E+04  0.24347929663E+04  0.25500000920E-02 0.  1.
    10030    2    1    2    0    0  0.00000000000E+00  0.00000000000E+00 -0.12479047888E+04  0.36216811439E+04  0.33998982259E+04 0.  0.
        2    1    3    3  502    0 -0.17246909717E+03  0.16834712214E+04 -0.79573589234E+03  0.18700311636E+04  0.25500000920E-02 0. -1.
       -2    1    3    3    0  502  0.17246909717E+03 -0.16834712214E+04 -0.45216889641E+03  0.17516499803E+04  0.25500000920E-02 0.  1.
</event>
<event>
 5   0  0.1579536E-08  0.3400015E+04  0.7818609E-02  0.8137903E-01
       -1   -1    0    0    0  501  0.00000000000E+00  0.00000000000E+00  0.29843236558E+04  0.29843236559E+04  0.50400001928E-02 0.  1.
        1   -1    0    0  501    0  0.00000000000E+00  0.00000000000E+00 -0.96840237878E+03  0.96840237880E+03  0.50400001928E-02 0. -1.
    10030    2    1    2    0    0  0.00000000000E+00  0.00000000000E+00  0.20159212771E+04  0.39527260346E+04  0.34000153690E+04 0.  0.
        5    1    3    3  502    0  0.16729301329E+04  0.13475509902E+03  0.69353162214E+03  0.18160017530E+04  0.46999998093E+01 0.  1.
       -5    1    3    3    0  502 -0.16729301329E+04 -0.13475509902E+03  0.13223896549E+04  0.21367242816E+04  0.46999998093E+01 0. -1.
</event>
<event>
 5   0  0.1630571E-08  0.3391193E+04  0.7818609E-02  0.8140071E-01
        1   -1    0    0  501    0  0.00000000000E+00  0.00000000000E+00  0.19862831978E+04  0.19862831979E+04  0.50400001928E-02 0.  1.
       -1   -1    0    0    0  501  0.00000000000E+00  0.00000000000E+00 -0.14474512562E+04  0.14474512562E+04  0.50400001928E-02 0. -1.
    10030    2    1    2    0    0  0.00000000000E+00  0.00000000000E+00  0.53883194169E+03  0.34337344540E+04  0.33911933651E+04 0.  0.
        3    1    3    3  502    0 -0.76050879497E+03 -0.18845199549E+02  0.18037866586E+04  0.19576452918E+04  0.10100000352E+00 0.  1.
       -3    1    3    3    0  502  0.76050879497E+03  0.18845199549E+02 -0.12649547169E+04  0.14760891622E+04  0.10100000352E+00 0. -1.
</event>
<event>
 5   0  0.4775023E-08  0.3404011E+04  0.7818609E-02  0.8136923E-01
       -2   -1    0    0    0  501  0.00000000000E+00  0.00000000000E+00  0.24318863137E+04  0.24318863137E+04  0.25500000920E-02 0.  1.
        2   -1    0    0  501    0  0.00000000000E+00  0.00000000000E+00 -0.11911834406E+04  0.11911834406E+04  0.25500000920E-02 0. -1.
    10030    2    1    2    0    0  0.00000000000E+00  0.00000000000E+00  0.12407028731E+04  0.36230697542E+04  0.34040109907E+04 0.  0.
        4    1    3    3  502    0 -0.81092138494E+03  0.78518026565E+03  0.19761884205E+04  0.22758347542E+04  0.12699999809E+01 0.  1.
       -4    1    3    3    0  502  0.81092138494E+03 -0.78518026565E+03 -0.73548554739E+03  0.13472350001E+04  0.12699999809E+01 0. -1.
</event>
<event>
 5   0  0.1579536E-08  0.3395367E+04  0.7818609E-02  0.8139044E-01
       -1   -1    0    0    0  501  0.00000000000E+00  0.00000000000E+00  0.13631575269E+04  0.13631575269E+04  0.50400001928E-02 0. -1.
        1   -1    0    0  501    0  0.00000000000E+00  0.00000000000E+00 -0.21143039866E+04  0.21143039867E+04  0.50400001928E-02 0.  1.
    10030    2    1    2    0    0  0.00000000000E+00  0.00000000000E+00 -0.75114645977E+03  0.34774615135E+04  0.33953670750E+04 0.  0.
        5    1    3    3  502    0  0.83713640354E+03 -0.80940214066E+03  0.88968220279E+03  0.14654302083E+04  0.46999998093E+01 0. -1.
       -5    1    3    3    0  502 -0.83713640354E+03  0.80940214066E+03 -0.16408286626E+04  0.20120313052E+04  0.46999998093E+01 0.  1.
</event>
<event>
 5   0  0.1625282E-08  0.3399936E+04  0.7818609E-02  0.8137922E-01
       -1   -1    0    0    0  501  0.00000000000E+00  0.00000000000E+00  0.12991975545E+04  0.12991975545E+04  0.50400001928E-02 0. -1.
        1   -1    0    0  501    0  0.00000000000E+00  0.00000000000E+00 -0.22243667122E+04  0.22243667122E+04  0.50400001928E-02 0.  1.
    10030    2    1    2    0    0  0.00000000000E+00  0.00000000000E+00 -0.92516915774E+03  0.35235642668E+04  0.33999363482E+04 0.  0.
        1    1    3    3  502    0  0.11778037685E+04  0.76446740918E+03 -0.14556872786E+04  0.20225374137E+04  0.50400001928E-02 0.  1.
       -1    1    3    3    0  502 -0.11778037685E+04 -0.76446740918E+03  0.53051812086E+03  0.15010268530E+04  0.50400001928E-02 0. -1.
</event>
<event>
 5   0  0.1579536E-08  0.3397624E+04  0.7818609E-02  0.8138490E-01
       -1   -1    0    0    0  501  0.00000000000E+00  0.00000000000E+00  0.15825437748E+04  0.15825437748E+04  0.50400001928E-02 0.  1.
        1   -1    0    0  501    0  0.00000000000E+00  0.00000000000E+00 -0.18236227174E+04  0.18236227174E+04  0.50400001928E-02 0. -1.
    10030    2    1    2    0    0  0.00000000000E+00  0.00000000000E+00 -0.24107894262E+03  0.34061664922E+04  0.33976243342E+04 0.  0.
        5    1    3    3  502    0  0.13219706189E+03 -0.14019102733E+04 -0.10732508915E+04  0.17705134972E+04  0.46999998093E+01 0. -1.
       -5    1    3    3    0  502 -0.13219706189E+03  0.14019102733E+04  0.83217194890E+03  0.16356529950E+04  0.46999998093E+01 0.  1.
</event>
<event>
 5   0  0.4946315E-08  0.3403670E+04  0.7818609E-02  0.8137006E-01
        2   -1    0    0  501    0  0.00000000000E+00  0.00000000000E+00  0.17785430070E+04  0.17785430070E+04  0.25500000920E-02 0.  1.
       -2   -1    0    0    0  501  0.00000000000E+00  0.00000000000E+00 -0.16284356419E+04  0.16284356419E+04  0.25500000920E-02 0. -1.
    10030    2    1    2    0    0  0.00000000000E+00  0.00000000000E+00  0.15010736507E+03  0.34069786488E+04  0.34036702679E+04 0.  0.
        3    1    3    3  502    0  0.13243003693E+04 -0.89863450523E+03 -0.50423794402E+03  0.16779664349E+04  0.10100000352E+00 0. -1.
       -3    1    3    3    0  502 -0.13243003693E+04  0.89863450523E+03  0.65434530909E+03  0.17290122139E+04  0.10100000352E+00 0.  1.
</event>
<event>
 5   0  0.1645631E-08  0.3402449E+04  0.7818609E-02  0.8137305E-01
       -1   -1    0    0    0  501  0.00000000000E+00  0.00000000000E+00  0.16361111926E+04  0.16361111926E+04  0.50400001928E-02 0.  1.
        1   -1    0    0  501    0  0.00000000000E+00  0.00000000000E+00 -0.17689295843E+04  0.17689295843E+04  0.50400001928E-02 0. -1.
    10030    2    1    2    0    0  0.00000000000E+00  0.00000000000E+00 -0.13281839167E+03  0.34050407770E+04  0.34024494071E+04 0.  0.
        4    1    3    3  502    0 -0.22811012394E+03 -0.45895819345E+03  0.15570121710E+04  0.16391965609E+04  0.12699999809E+01 0.  1.
       -4    1    3    3    0  502  0.22811012394E+03  0.45895819345E+03 -0.16898305626E+04  0.17658442160E+04  0.12699999809E+01 0. -1.
</event>
<event>
 5   0  0.1573625E-08  0.3407928E+04  0.7818609E-02  0.8135963E-01
        3   -1    0    0  501    0  0.00000000000E+00  0.00000000000E+00  0.17790019649E+04  0.17790019677E+04  0.10100000352E+00 0.  1.
       -3   -1    0    0    0  501  0.00000000000E+00  0.00000000000E+00 -0.16320913625E+04  0.16320913656E+04  0.10100000352E+00 0. -1.
    10030    2    1    2    0    0  0.00000000000E+00  0.00000000000E+00  0.14691060239E+03  0.34110933333E+04  0.34079282568E+04 0.  0.
        2    1    3    3  502    0 -0.11350719321E+04  0.14537942016E+03  0.13371532177E+04  0.17599722141E+04  0.25500000920E-02 0.  1.
       -2    1    3    3    0  502  0.11350719321E+04 -0.14537942016E+03 -0.11902426153E+04  0.16511211192E+04  0.25500000920E-02 0. -1.
</event>
<event>
 5   0  0.5001197E-08  0.3399744E+04  0.7818609E-02  0.8137969E-01
       -2   -1    0    0    0  501  0.00000000000E+00  0.00000000000E+00  0.10736852174E+04  0.10736852174E+04  0.25500000920E-02 0.  1.
        2   -1    0    0  501    0  0.00000000000E+00  0.00000000000E+00 -0.26912592328E+04  0.26912592328E+04  0.25500000920E-02 0. -1.
    10030    2    1    2    0    0  0.00000000000E+00  0.00000000000E+00 -0.16175740154E+04  0.37649444502E+04  0.33997442577E+04 0.  0.
        5    1    3    3  502    0 -0.10230615955E+04  0.10827837342E+03  0.68977920448E+03  0.12386269314E+04  0.46999998093E+01 0.  1.
       -5    1    3    3    0  502  0.10230615955E+04 -0.10827837342E+03 -0.23073532199E+04  0.25263175188E+04  0.46999998093E+01 0. -1.
</event>
<event>
 5   0  0.1579536E-08  0.3394331E+04  0.7818609E-02  0.8139299E-01
       -1   -1    0    0    0  501  0.00000000000E+00  0.00000000000E+00  0.10417235203E+04  0.10417235203E+04  0.50400001928E-02 0. -1.
        1   -1    0    0  501    0  0.00000000000E+00  0.00000000000E+00 -0.27650057659E+04  0.27650057660E+04  0.50400001928E-02 0.  1.
    10030    2    1    2    0    0  0.00000000000E+00  0.00000000000E+00 -0.17232822456E+04  0.38067292863E+04  0.33943314748E+04 0.  0.
        5    1    3    3  502    0 -0.23377656004E+03 -0.39957839626E+03 -0.26928195842E+04  0.27323275385E+04  0.46999998093E+01 0.  1.
       -5    1    3    3    0  502  0.23377656004E+03  0.39957839626E+03  0.96953733856E+03  0.10744017478E+04  0.46999998093E+01 0. -1.
</event>
<event>
 5   0  0.4775023E-08  0.3396162E+04  0.7818609E-02  0.8138849E-01
        2   -1    0    0  501    0  0.00000000000E+00  0.00000000000E+00  0.25305428001E+04  0.25305428001E+04  0.25500000920E-02 0. -1.
       -2   -1    0    0    0  501  0.00000000000E+00  0.00000000000E+00 -0.11394704441E+04  0.11394704441E+04  0.25500000920E-02 0.  1.
    10030    2    1    2    0    0  0.00000000000E+00  0.00000000000E+00  0.13910723560E+04  0.36700132443E+04  0.33961617914E+04 0.  0.
        4    1    3    3  502    0 -0.28678704665E+03 -0.13566163699E+04  0.17547918637E+04  0.22365041657E+04  0.12699999809E+01 0. -1.
       -4    1    3    3    0  502  0.28678704665E+03  0.13566163699E+04 -0.36371950772E+03  0.14335090786E+04  0.12699999809E+01 0.  1.
</event>
<event>
 5   0  0.1645631E-08  0.3400901E+04  0.7818609E-02  0.8137685E-01
        1   -1    0    0  501    0  0.00000000000E+00  0.00000000000E+00  0.88902136753E+03  0.88902136754E+03  0.50400001928E-02 0. -1.
       -1   -1    0    0    0  501  0.00000000000E+00  0.00000000000E+00 -0.32524885135E+04  0.32524885135E+04  0.50400001928E-02 0.  1.
    10030    2    1    2    0    0  0.00000000000E+00  0.00000000000E+00 -0.23634671460E+04  0.41415098810E+04  0.34009009313E+04 0.  0.
        4    1    3    3  502    0 -0.23595007036E+03  0.58427878690E+03  0.74159900959E+03  0.97315201302E+03  0.12699999809E+01 0. -1.
       -4    1    3    3    0  502  0.23595007036E+03 -0.58427878690E+03 -0.31050661555E+04  0.31683578680E+04  0.12699999809E+01 0.  1.
</event>
<event>
 5   0  0.1595851E-08  0.3398128E+04  0.7818609E-02  0.8138366E-01
        1   -1    0    0  501    0  0.00000000000E+00  0.00000000000E+00  0.14207751664E+04  0.14207751664E+04  0.50400001928E-02 0. -1.
       -1   -1    0    0    0  501  0.00000000000E+00  0.00000000000E+00 -0.20318613792E+04  0.20318613792E+04  0.50400001928E-02 0.  1.
    10030    2    1    2    0    0  0.00000000000E+00  0.00000000000E+00 -0.61108621284E+03  0.34526365457E+04  0.33981278312E+04 0.  0.
        2    1    3    3  502    0  0.87717652587E+03  0.13411178446E+04  0.26812190019E+03  0.16247846270E+04  0.25500000920E-02 0. -1.
       -2    1    3    3    0  502 -0.87717652587E+03 -0.13411178446E+04 -0.87920811303E+03  0.18278519187E+04  0.25500000920E-02 0.  1.
</event>
<event>
 5   0  0.1630571E-08  0.3400298E+04  0.7818609E-02  0.8137833E-01
       -1   -1    0    0    0  501  0.00000000000E+00  0.00000000000E+00  0.18161414371E+04  0.18161414371E+04  0.50400001928E-02 0. -1.
        1   -1    0    0  501    0  0.00000000000E+00  0.00000000000E+00 -0.15915645905E+04  0.15915645906E+04  0.50400001928E-02 0.  1.
    10030    2    1    2    0    0  0.00000000000E+00  0.00000000000E+00  0.22457684655E+03  0.34077060277E+04  0.34002978709E+04 0.  0.
        3    1    3    3  502    0  0.11662428515E+04 -0.64582959546E+03  0.11697119034E+04  0.17735400199E+04  0.10100000352E+00 0. -1.
       -3    1    3    3    0  502 -0.11662428515E+04  0.64582959546E+03 -0.94513505685E+03  0.16341660078E+04  0.10100000352E+00 0.  1.
</event>
<event>
 5   0  0.4946315E-08  0.3401015E+04  0.7818609E-02  0.8137657E-01
       -2   -1    0    0    0  501  0.00000000000E+00  0.00000000000E+00  0.20473150841E+04  0.20473150841E+04  0.25500000920E-02 0.  1.
        2   -1    0    0  501    0  0.00000000000E+00  0.00000000000E+00 -0.14124479746E+04  0.14124479746E+04  0.25500000920E-02 0. -1.
    10030    2    1    2    0    0  0.00000000000E+00  0.00000000000E+00  0.63486710957E+03  0.34597630587E+04  0.34010151684E+04 0.  0.
        3    1    3    3  502    0 -0.13271362967E+04  0.95659305666E+03  0.78952416086E+03  0.18165102359E+04  0.10100000352E+00 0.  1.
       -3    1    3    3    0  502  0.13271362967E+04 -0.95659305666E+03 -0.15465705129E+03  0.16432528229E+04  0.10100000352E+00 0. -1.
</event>
<event>
 5   0  0.1595851E-08  0.3398382E+04  0.7818609E-02  0.8138304E-01
       -1   -1    0    0    0  501  0.00000000000E+00  0.00000000000E+00  0.12167759907E+04  0.12167759907E+04  0.50400001928E-02 0.  1.
        1   -1    0    0  501    0  0.00000000000E+00  0.00000000000E+00 -0.23728690479E+04  0.23728690479E+04  0.50400001928E-02 0. -1.
    10030    2    1    2    0    0  0.00000000000E+00  0.00000000000E+00 -0.11560930572E+04  0.35896450387E+04  0.33983820189E+04 0.  0.
        2    1    3    3  502    0  0.53654585522E+03 -0.13588429193E+03  0.11188886048E+04  0.12483019288E+04  0.25500000920E-02 0.  1.
       -2    1    3    3    0  502 -0.53654585522E+03  0.13588429193E+03 -0.22749816620E+04  0.23413431098E+04  0.25500000920E-02 0. -1.
</event>
<event>
 5   0  0.1595851E-08  0.3399445E+04  0.7818609E-02  0.8138043E-01
        1   -1    0    0  501    0  0.00000000000E+00  0.00000000000E+00  0.17538209830E+04  0.17538209830E+04  0.50400001928E-02 0.  1.
       -1   -1    0    0    0  501  0.00000000000E+00  0.00000000000E+00 -0.16472925064E+04  0.16472925064E+04  0.50400001928E-02 0. -1.
    10030    2    1    2    0    0  0.00000000000E+00  0.00000000000E+00  0.10652847666E+03  0.34011134894E+04  0.33994447564E+04 0.  0.
        2    1    3    3  502    0  0.26536297127E+02 -0.32892203856E+03  0.17214645934E+04  0.17528075276E+04  0.25500000920E-02 0.  1.
       -2    1    3    3    0  502 -0.26536297127E+02  0.32892203856E+03 -0.16149361168E+04  0.16483059618E+04  0.25500000920E-02 0. -1.
</event>
<event>
 5   0  0.5001197E-08  0.3394206E+04  0.7818609E-02  0.8139330E-01
        2   -1    0    0  501    0  0.00000000000E+00  0.00000000000E+00  0.23317205605E+04  0.23317205605E+04  0.25500000920E-02 0. -1.
       -2   -1    0    0    0  501  0.00000000000E+00  0.00000000000E+00 -0.12352071191E+04  0.12352071191E+04  0.25500000920E-02 0.  1.
    10030    2    1    2    0    0  0.00000000000E+00  0.00000000000E+00  0.10965134414E+04  0.35669276797E+04  0.33942055543E+04 0.  0.
        5    1    3    3  502    0 -0.18258516850E+03  0.16340201242E+04  0.10641309183E+03  0.16476361692E+04  0.46999998093E+01 0.  1.
       -5    1    3    3    0  502  0.18258516850E+03 -0.16340201242E+04  0.99010034956E+03  0.19192915105E+04  0.46999998093E+01 0. -1.
</event>
<event>
 5   0  0.4775023E-08  0.3400329E+04  0.7818609E-02  0.8137826E-01
        2   -1    0    0  501    0  0.00000000000E+00  0.00000000000E+00  0.12846990692E+04  0.12846990692E+04  0.25500000920E-02 0.  1.
       -2   -1    0    0    0  501  0.00000000000E+00  0.00000000000E+00 -0.22499898101E+04  0.22499898101E+04  0.25500000920E-02 0. -1.
    10030    2    1    2    0    0  0.00000000000E+00  0.00000000000E+00 -0.96529074092E+03  0.35346888793E+04  0.34003292869E+04 0.  0.
        4    1    3    3  502    0  0.64398469595E+03  0.14498157224E+04  0.15296968627E+03  0.15937638644E+04  0.12699999809E+01 0. -1.
       -4    1    3    3    0  502 -0.64398469595E+03 -0.14498157224E+04 -0.11182604272E+04  0.19409250149E+04  0.12699999809E+01 0.  1.
</event>
<event>
 5   0  0.1595851E-08  0.3400401E+04  0.7818609E-02  0.8137808E-01
        1   -1    0    0  501    0  0.00000000000E+00  0.00000000000E+00  0.12087647776E+04  0.12087647776E+04  0.50400001928E-02 0.  1.
       -1   -1    0    0    0  501  0.00000000000E+00  0.00000000000E+00 -0.23914340902E+04  0.23914340902E+04  0.50400001928E-02 0. -1.
    10030    2    1    2    0    0  0.00000000000E+00  0.00000000000E+00 -0.11826693126E+04  0.36001988678E+04  0.34004007388E+04 0.  0.
        2    1    3    3  502    0 -0.45114531254E+03  0.65182051555E+03 -0.21837981756E+04  0.23232254625E+04  0.25500000920E-02 0. -1.
       -2    1    3    3    0  502  0.45114531254E+03 -0.65182051555E+03  0.10011288630E+04  0.12769734053E+04  0.25500000920E-02 0.  1.
</event>
<event>
 5   0  0.1630571E-08  0.3398811E+04  0.7818609E-02  0.8138198E-01
       -1   -1    0    0    0  501  0.00000000000E+00  0.00000000000E+00  0.27216332452E+04  0.27216332452E+04  0.50400001928E-02 0.  1.
        1   -1    0    0  501    0  0.00000000000E+00  0.00000000000E+00 -0.10611198545E+04  0.10611198546E+04  0.50400001928E-02 0. -1.
    10030    2    1    2    0    0  0.00000000000E+00  0.00000000000E+00  0.16605133907E+04  0.37827530998E+04  0.33988110117E+04 0.  0.
        3    1    3    3  502    0 -0.15105475552E+04  0.21451707815E+03  0.16632767666E+04  0.22570469879E+04  0.10100000352E+00 0.  1.
       -3    1    3    3    0  502  0.15105475552E+04 -0.21451707815E+03 -0.27633759141E+01  0.15257061119E+04  0.10100000352E+00 0. -1.
</event>
<event>
 5   0  0.1630571E-08  0.3396942E+04  0.7818609E-02  0.8138657E-01
       -1   -1    0    0    0  501  0.00000000000E+00  0.00000000000E+00  0.88188152254E+03  0.88188152256E+03  0.50400001928E-02 0.  1.
        1   -1    0    0  501    0  0.00000000000E+00  0.00000000000E+00 -0.32711925664E+04  0.32711925664E+04  0.50400001928E-02 0. -1.
    10030    2    1    2    0    0  0.00000000000E+00  0.00000000000E+00 -0.23893110439E+04  0.41530740890E+04  0.33969423198E+04 0.  0.
        3    1    3    3  502    0  0.69534158507E+03 -0.92345455364E+03  0.32674010873E+03  0.12012607300E+04  0.10100000352E+00 0.  1.
       -3    1    3    3    0  502 -0.69534158507E+03  0.92345455364E+03 -0.27160511526E+04  0.29518133590E+04  0.10100000352E+00 0. -1.
</event>
<event>
 5   0  0.4764953E-08  0.3397028E+04  0.7818609E-02  0.8138636E-01
        2   -1    0    0  501    0  0.00000000000E+00  0.00000000000E+00  0.12764360026E+04  0.12764360026E+04  0.25500000920E-02 0. -1.
       -2   -1    0    0    0  501  0.00000000000E+00  0.00000000000E+00 -0.22601603474E+04  0.22601603474E+04  0.25500000920E-02 0.  1.
    10030    2    1    2    0    0  0.00000000000E+00  0.00000000000E+00 -0.98372434483E+03  0.35365963500E+04  0.33970281359E+04 0.  0.
        2    1    3    3  502    0 -0.12552964226E+04 -0.57853659015E+03  0.53585118442E+03  0.14824338725E+04  0.25500000920E-02 0. -1.
       -2    1    3    3    0  502  0.12552964226E+04  0.57853659015E+03 -0.15195755293E+04  0.20541624774E+04  0.25500000920E-02 0.  1.
</event>
<event>
 5   0  0.1625282E-08  0.3399374E+04  0.7818609E-02  0.8138060E-01
        1   -1    0    0  501    0  0.00000000000E+00  0.00000000000E+00  0.18255611982E+04  0.18255611982E+04  0.50400001928E-02 0.  1.
       -1   -1    0    0    0  501  0.00000000000E+00  0.00000000000E+00 -0.15824918614E+04  0.15824918615E+04  0.50400001928E-02 0. -1.
    10030    2    1    2    0    0  0.00000000000E+00  0.00000000000E+00  0.24306933674E+03  0.34080530597E+04  0.33993739063E+04 0.  0.
        1    1    3    3  502    0 -0.15094438079E+04  0.71027007433E+03 -0.20492156704E+03  0.16807430013E+04  0.50400001928E-02 0. -1.
       -1    1    3    3    0  502  0.15094438079E+04 -0.71027007433E+03  0.44799090378E+03  0.17273100583E+04  0.50400001928E-02 0.  1.
</event>
<event>
 5   0  0.5001197E-08  0.3392528E+04  0.7818609E-02  0.8139743E-01
       -2   -1    0    0    0  501  0.00000000000E+00  0.00000000000E+00  0.15118529414E+04  0.15118529414E+04  0.25500000920E-02 0.  1.
        2   -1    0    0  501    0  0.00000000000E+00  0.00000000000E+00 -0.19031694386E+04  0.19031694386E+04  0.25500000920E-02 0. -1.
    10030    2    1    2    0    0  0.00000000000E+00  0.00000000000E+00 -0.39131649716E+03  0.34150223800E+04  0.33925284457E+04 0.  0.
        5    1    3    3  502    0 -0.94560755253E+03 -0.56456926302E+03 -0.14943200195E+04  0.18563206907E+04  0.46999998093E+01 0. -1.
       -5    1    3    3    0  502  0.94560755253E+03  0.56456926302E+03  0.11030035223E+04  0.15587016893E+04  0.46999998093E+01 0.  1.
</event>
<event>
 5   0  0.1630571E-08  0.3399388E+04  0.7818609E-02  0.8138057E-01
       -1   -1    0    0    0  501  0.00000000000E+00  0.00000000000E+00  0.13423301481E+04  0.13423301481E+04  0.50400001928E-02 0.  1.
        1   -1    0    0  501    0  0.00000000000E+00  0.00000000000E+00 -0.21521971626E+04  0.21521971626E+04  0.50400001928E-02 0. -1.
    10030    2    1    2    0    0  0.00000000000E+00  0.00000000000E+00 -0.80986701450E+03  0.34945273107E+04  0.33993876719E+04 0.  0.
        3    1    3    3  502    0  0.15042761105E+04  0.43670689357E+03 -0.10832490303E+04  0.19044652791E+04  0.10100000352E+00 0.  1.
       -3    1    3    3    0  502 -0.15042761105E+04 -0.43670689357E+03  0.27338201577E+03  0.15900620316E+04  0.10100000352E+00 0. -1.
</event>
<event>
 5   0  0.4764953E-08  0.3400697E+04  0.7818609E-02  0.8137735E-01
        2   -1    0    0  501    0  0.00000000000E+00  0.00000000000E+00  0.90649075354E+03  0.90649075355E+03  0.25500000920E-02 0.  1.
       -2   -1    0    0    0  501  0.00000000000E+00  0.00000000000E+00 -0.31894249793E+04  0.31894249793E+04  0.25500000920E-02 0. -1.
    10030    2    1    2    0    0  0.00000000000E+00  0.00000000000E+00 -0.22829342258E+04  0.40959157328E+04  0.34006965480E+04 0.  0.
        2    1    3    3  502    0  0.83655578056E+03  0.68222570050E+03 -0.27237871051E+04  0.29298931166E+04  0.25500000920E-02 0. -1.
       -2    1    3    3    0  502 -0.83655578056E+03 -0.68222570050E+03  0.44085287938E+03  0.11660226163E+04  0.25500000920E-02 0.  1.
</event>
<event>
 5   0  0.5001197E-08  0.3399387E+04  0.7818609E-02  0.8138057E-01
        2   -1    0    0  501    0  0.00000000000E+00  0.00000000000E+00  0.16571913297E+04  0.16571913297E+04  0.25500000920E-02 0. -1.
       -2   -1    0    0    0  501  0.00000000000E+00  0.00000000000E+00 -0.17432852333E+04  0.17432852333E+04  0.25500000920E-02 0.  1.
    10030    2    1    2    0    0  0.00000000000E+00  0.00000000000E+00 -0.86093903591E+02  0.34004765630E+04  0.33993865175E+04 0.  0.
        5    1    3    3  502    0 -0.21423353286E+03 -0.12916598416E+04 -0.11272090150E+04  0.17276873000E+04  0.46999998093E+01 0.  1.
       -5    1    3    3    0  502  0.21423353286E+03  0.12916598416E+04  0.10411151114E+04  0.16727892630E+04  0.46999998093E+01 0. -1.
</event>
<event>
 5   0  0.1625282E-08  0.3399920E+04  0.7818609E-02  0.8137926E-01
       -1   -1    0    0    0  501  0.00000000000E+00  0.00000000000E+00  0.13183998325E+04  0.13183998325E+04  0.50400001928E-02 0.  1.
        1   -1    0    0  501    0  0.00000000000E+00  0.00000000000E+00 -0.21919482206E+04  0.21919482206E+04  0.50400001928E-02 0. -1.
    10030    2    1    2    0    0  0.00000000000E+00  0.00000000000E+00 -0.87354838809E+03  0.35103480532E+04  0.33999200973E+04 0.  0.
        1    1    3    3  502    0 -0.29822369945E+03 -0.13864940100E+04 -0.14045337458E+04  0.19960005155E+04  0.50400001928E-02 0. -1.
       -1    1    3    3    0  502  0.29822369945E+03  0.13864940100E+04  0.53098535774E+03  0.15143475377E+04  0.50400001928E-02 0.  1.
</event>
<event>
 5   0  0.1645631E-08  0.3397472E+04  0.7818609E-02  0.8138527E-01
       -1   -1    0    0    0  501  0.00000000000E+00  0.00000000000E+00  0.13631629316E+04  0.13631629316E+04  0.50400001928E-02 0.  1.
        1   -1    0    0  501    0  0.00000000000E+00  0.00000000000E+00 -0.21169176333E+04  0.21169176333E+04  0.50400001928E-02 0. -1.
    10030    2    1    2    0    0  0.00000000000E+00  0.00000000000E+00 -0.75375470175E+03  0.34800805649E+04  0.33974717935E+04 0.  0.
        4    1    3    3  502    0  0.82786794193E+02  0.89137324589E+03 -0.18556920991E+04  0.20603384907E+04  0.12699999809E+01 0. -1.
       -4    1    3    3    0  502 -0.82786794193E+02 -0.89137324589E+03  0.11019373973E+04  0.14197420742E+04  0.12699999809E+01 0.  1.
</event>
<event>
 5   0  0.4946315E-08  0.3392040E+04  0.7818609E-02  0.8139863E-01
        2   -1    0    0  501    0  0.00000000000E+00  0.00000000000E+00  0.18245444496E+04  0.18245444496E+04  0.25500000920E-02 0. -1.
       -2   -1    0    0    0  501  0.00000000000E+00  0.00000000000E+00 -0.15765490802E+04  0.15765490802E+04  0.25500000920E-02 0.  1.
    10030    2    1    2    0    0  0.00000000000E+00  0.00000000000E+00  0.24799536947E+03  0.34010935298E+04  0.33920400197E+04 0.  0.
        3    1    3    3  502    0  0.35719442520E+03  0.32952847639E+03  0.17532367706E+04  0.18193449531E+04  0.10100000352E+00 0. -1.
       -3    1    3    3    0  502 -0.35719442520E+03 -0.32952847639E+03 -0.15052414011E+04  0.15817485768E+04  0.10100000352E+00 0.  1.
</event>
<event>
 5   0  0.1579536E-08  0.3400188E+04  0.7818609E-02  0.8137860E-01
       -1   -1    0    0    0  501  0.00000000000E+00  0.00000000000E+00  0.12031181436E+04  0.12031181436E+04  0.50400001928E-02 0.  1.
        1   -1    0    0  501    0  0.00000000000E+00  0.00000000000E+00 -0.24023579060E+04  0.24023579060E+04  0.50400001928E-02 0. -1.
    10030    2    1    2    0    0  0.00000000000E+00  0.00000000000E+00 -0.11992397623E+04  0.36054760496E+04  0.34001884561E+04 0.  0.
        5    1    3    3  502    0  0.12543090791E+04 -0.54572573186E+03 -0.16701214301E+04  0.21588041879E+04  0.46999998093E+01 0. -1.
       -5    1    3    3    0  502 -0.12543090791E+04  0.54572573186E+03  0.47088166777E+03  0.14466718617E+04  0.46999998093E+01 0.  1.
</event>
<event>
 5   0  0.4973409E-08  0.3399618E+04  0.7818609E-02  0.8138000E-01
       -2   -1    0    0    0  501  0.00000000000E+00  0.00000000000E+00  0.14920124029E+04  0.14920124029E+04  0.25500000920E-02 0. -1.
        2   -1    0    0  501    0  0.00000000000E+00  0.00000000000E+00 -0.19365459331E+04  0.19365459331E+04  0.25500000920E-02 0.  1.
    10030    2    1    2    0    0  0.00000000000E+00  0.00000000000E+00 -0.44453353017E+03  0.34285583360E+04  0.33996179497E+04 0.  0.
        1    1    3    3  502    0 -0.64694963940E+03 -0.10091261040E+04  0.99317791687E+03  0.15566893409E+04  0.50400001928E-02 0. -1.
       -1    1    3    3    0  502  0.64694963940E+03  0.10091261040E+04 -0.14377114470E+04  0.18718689950E+04  0.50400001928E-02 0.  1.
</event>
<event>
 5   0  0.1625282E-08  0.3399775E+04  0.7818609E-02  0.8137962E-01
       -1   -1    0    0    0  501  0.00000000000E+00  0.00000000000E+00  0.88151707617E+03  0.88151707618E+03  0.50400001928E-02 0.  1.
        1   -1    0    0  501    0  0.00000000000E+00  0.00000000000E+00 -0.32780048923E+04  0.32780048923E+04  0.50400001928E-02 0. -1.
    10030    2    1    2    0    0  0.00000000000E+00  0.00000000000E+00 -0.23964878161E+04  0.41595219685E+04  0.33997748681E+04 0.  0.
        1    1    3    3  502    0 -0.16202348193E+04 -0.34617735907E+03 -0.73297511899E+03  0.18116986942E+04  0.50400001928E-02 0.  1.
       -1    1    3    3    0  502  0.16202348193E+04  0.34617735907E+03 -0.16635126971E+04  0.23478232743E+04  0.50400001928E-02 0. -1.
</event>
<event>
 5   0  0.4764953E-08  0.3399386E+04  0.7818609E-02  0.8138057E-01
       -2   -1    0    0    0  501  0.00000000000E+00  0.00000000000E+00  0.20170620668E+04  0.20170620668E+04  0.25500000920E-02 0. -1.
        2   -1    0    0  501    0  0.00000000000E+00  0.00000000000E+00 -0.14322594091E+04  0.14322594091E+04  0.25500000920E-02 0.  1.
    10030    2    1    2    0    0  0.00000000000E+00  0.00000000000E+00  0.58480265762E+03  0.34493214759E+04  0.33993858998E+04 0.  0.
        2    1    3    3  502    0 -0.67122404821E+03  0.11079237984E+04  0.14089837769E+04  0.19139676459E+04  0.25500000920E-02 0. -1.
       -2    1    3    3    0  502  0.67122404821E+03 -0.11079237984E+04 -0.82418111927E+03  0.15353538300E+04  0.25500000920E-02 0.  1.
</event>
<event>
 5   0  0.1630571E-08  0.3399634E+04  0.7818609E-02  0.8137996E-01
       -1   -1    0    0    0  501  0.00000000000E+00  0.00000000000E+00  0.18976331358E+04  0.18976331358E+04  0.50400001928E-02 0. -1.
        1   -1    0    0  501    0  0.00000000000E+00  0.00000000000E+00 -0.15226218027E+04  0.15226218027E+04  0.50400001928E-02 0.  1.
    10030    2    1    2    0    0  0.00000000000E+00  0.00000000000E+00  0.37501133313E+03  0.34202549385E+04  0.33996338544E+04 0.  0.
        3    1    3    3  502    0  0.13296238488E+04  0.35417261014E+03  0.11915772369E+04  0.18202181569E+04  0.10100000352E+00 0. -1.
       -3    1    3    3    0  502 -0.13296238488E+04 -0.35417261014E+03 -0.81656590378E+03  0.16000367816E+04  0.10100000352E+00 0.  1.
</event>
<event>
 5   0  0.4775023E-08  0.3400004E+04  0.7818609E-02  0.8137905E-01
       -2   -1    0    0    0  501  0.00000000000E+00  0.00000000000E+00  0.10706876667E+04  0.10706876667E+04  0.25500000920E-02 0. -1.
        2   -1    0    0  501    0  0.00000000000E+00  0.00000000000E+00 -0.26992060876E+04  0.26992060876E+04  0.25500000920E-02 0.  1.
    10030    2    1    2    0    0  0.00000000000E+00  0.00000000000E+00 -0.16285184209E+04  0.37698937543E+04  0.34000039223E+04 0.  0.
        4    1    3    3  502    0  0.47330713662E+03  0.92715469672E+03 -0.23044881672E+04  0.25286958700E+04  0.12699999809E+01 0.  1.
       -4    1    3    3    0  502 -0.47330713662E+03 -0.92715469672E+03  0.67596974630E+03  0.12411978843E+04  0.12699999809E+01 0. -1.
</event>
<event>
 5   0  0.4973409E-08  0.3400599E+04  0.7818609E-02  0.8137759E-01
       -2   -1    0    0    0  501  0.00000000000E+00  0.00000000000E+00  0.17811727105E+04  0.17811727105E+04  0.25500000920E-02 0. -1.
        2   -1    0    0  501    0  0.00000000000E+00  0.00000000000E+00 -0.16230986559E+04  0.16230986559E+04  0.25500000920E-02 0.  1.
    10030    2    1    2    0    0  0.00000000000E+00  0.00000000000E+00  0.15807405466E+03  0.34042713664E+04  0.34005993779E+04 0.  0.
        1    1    3    3  502    0  0.62533941738E+03 -0.98440881085E+02  0.16588028263E+04  0.17754905831E+04  0.50400001928E-02 0. -1.
       -1    1    3    3    0  502 -0.62533941738E+03  0.98440881085E+02 -0.15007287717E+04  0.16287807833E+04  0.50400001928E-02 0.  1.
</event>
<event>
 5   0  0.1630571E-08  0.3399734E+04  0.7818609E-02  0.8137971E-01
        1   -1    0    0  501    0  0.00000000000E+00  0.00000000000E+00  0.11848615164E+04  0.11848615164E+04  0.50400001928E-02 0. -1.
       -1   -1    0    0    0  501  0.00000000000E+00  0.00000000000E+00 -0.24387225920E+04  0.24387225920E+04  0.50400001928E-02 0.  1.
    10030    2    1    2    0    0  0.00000000000E+00  0.00000000000E+00 -0.12538610756E+04  0.36235841084E+04  0.33997344299E+04 0.  0.
        3    1    3    3  502    0 -0.60601427759E+03  0.15494095018E+04 -0.25521942413E+03  0.16831696508E+04  0.10100000352E+00 0. -1.
       -3    1    3    3    0  502  0.60601427759E+03 -0.15494095018E+04 -0.99864165146E+03  0.19404144576E+04  0.10100000352E+00 0.  1.
</event>
<event>
 5   0  0.1579536E-08  0.3397191E+04  0.7818609E-02  0.8138596E-01
       -1   -1    0    0    0  501  0.00000000000E+00  0.00000000000E+00  0.11955505773E+04  0.11955505773E+04  0.50400001928E-02 0. -1.
        1   -1    0    0  501    0  0.00000000000E+00  0.00000000000E+00 -0.24133031599E+04  0.24133031599E+04  0.50400001928E-02 0.  1.
    10030    2    1    2    0    0  0.00000000000E+00  0.00000000000E+00 -0.12177525826E+04  0.36088537371E+04  0.33971905957E+04 0.  0.
        5    1    3    3  502    0 -0.59649085035E+03 -0.12843358493E+04  0.38758876809E+03  0.14681849514E+04  0.46999998093E+01 0. -1.
       -5    1    3    3    0  502  0.59649085035E+03  0.12843358493E+04 -0.16053413507E+04  0.21406687858E+04  0.46999998093E+01 0.  1.
</event>
<event>
 5   0  0.1630571E-08  0.3399068E+04  0.7818609E-02  0.8138135E-01
        1   -1    0    0  501    0  0.00000000000E+00  0.00000000000E+00  0.26677028592E+04  0.26677028592E+04  0.50400001928E-02 0. -1.
       -1   -1    0    0    0  501  0.00000000000E+00  0.00000000000E+00 -0.10827351233E+04  0.10827351233E+04  0.50400001928E-02 0.  1.
    10030    2    1    2    0    0  0.00000000000E+00  0.00000000000E+00  0.15849677359E+04  0.37504379824E+04  0.33990678629E+04 0.  0.
        3    1    3    3  502    0  0.30698918925E+03 -0.15268196252E+04  0.15432597690E+04  0.21925034219E+04  0.10100000352E+00 0. -1.
       -3    1    3    3    0  502 -0.30698918925E+03  0.15268196252E+04  0.41707966831E+02  0.15579345605E+04  0.10100000352E+00 0.  1.
</event>
<event>
 5   0  0.1579536E-08  0.3402876E+04  0.7818609E-02  0.8137201E-01
        1   -1    0    0  501    0  0.00000000000E+00  0.00000000000E+00  0.29364596297E+04  0.29364596297E+04  0.50400001928E-02 0.  1.
       -1   -1    0    0    0  501  0.00000000000E+00  0.00000000000E+00 -0.98584420956E+03  0.98584420958E+03  0.50400001928E-02 0. -1.
    10030    2    1    2    0    0  0.00000000000E+00  0.00000000000E+00  0.19506154202E+04  0.39223038393E+04  0.34028762673E+04 0.  0.
        5    1    3    3  502    0 -0.55630209412E+03  0.12815293260E+04  0.20946666919E+04  0.25178244723E+04  0.46999998093E+01 0.  1.
       -5    1    3    3    0  502  0.55630209412E+03 -0.12815293260E+04 -0.14405127171E+03  0.14044793670E+04  0.46999998093E+01 0. -1.
</event>
<event>
 5   0  0.4764953E-08  0.3426663E+04  0.7818609E-02  0.8131393E-01
       -2   -1    0    0    0  501  0.00000000000E+00  0.00000000000E+00  0.15752743401E+04  0.15752743401E+04  0.25500000920E-02 0.  1.
        2   -1    0    0  501    0  0.00000000000E+00  0.00000000000E+00 -0.18634884966E+04  0.18634884966E+04  0.25500000920E-02 0. -1.
    10030    2    1    2    0    0  0.00000000000E+00  0.00000000000E+00 -0.28821415653E+03  0.34387628367E+04  0.34266634569E+04 0.  0.
        2    1    3    3  502    0 -0.15392404712E+04 -0.34100381361E+03 -0.81726677063E+03  0.17758011723E+04  0.25500000920E-02 0. -1.
       -2    1    3    3    0  502  0.15392404712E+04  0.34100381361E+03  0.52905261410E+03  0.16629616645E+04  0.25500000920E-02 0.  1.
</event>
<event>
 5   0  0.1630571E-08  0.3399786E+04  0.7818609E-02  0.8137959E-01
        1   -1    0    0  501    0  0.00000000000E+00  0.00000000000E+00  0.22070342401E+04  0.22070342401E+04  0.50400001928E-02 0.  1.
       -1   -1    0    0    0  501  0.00000000000E+00  0.00000000000E+00 -0.13092849315E+04  0.13092849315E+04  0.50400001928E-02 0. -1.
    10030    2    1    2    0    0  0.00000000000E+00  0.00000000000E+00  0.89774930856E+03  0.35163191716E+04  0.33997862720E+04 0.  0.
        3    1    3    3  502    0 -0.12573515724E+04 -0.68962626291E+03  0.13929143832E+04  0.19991817947E+04  0.10100000352E+00 0.  1.
       -3    1    3    3    0  502  0.12573515724E+04  0.68962626291E+03 -0.49516507462E+03  0.15171373769E+04  0.10100000352E+00 0. -1.
</event>
<event>
 5   0  0.4973409E-08  0.3402602E+04  0.7818609E-02  0.8137268E-01
       -2   -1    0    0    0  501  0.00000000000E+00  0.00000000000E+00  0.15469978572E+04  0.15469978572E+04  0.25500000920E-02 0. -1.
        2   -1    0    0  501    0  0.00000000000E+00  0.00000000000E+00 -0.18709948715E+04  0.18709948715E+04  0.25500000920E-02 0.  1.
    10030    2    1    2    0    0  0.00000000000E+00  0.00000000000E+00 -0.32399701438E+03  0.34179927287E+04  0.34026019791E+04 0.  0.
        1    1    3    3  502    0  0.15588424747E+04  0.52534620485E+03 -0.59806638119E+03  0.17503319377E+04  0.50400001928E-02 0.  1.
       -1    1    3    3    0  502 -0.15588424747E+04 -0.52534620485E+03  0.27406936681E+03  0.16676607910E+04  0.50400001928E-02 0. -1.
</event>
<event>
 5   0  0.4775023E-08  0.3394810E+04  0.7818609E-02  0.8139181E-01
       -2   -1    0    0    0  501  0.00000000000E+00  0.00000000000E+00  0.26124781638E+04  0.26124781638E+04  0.25500000920E-02 0. -1.
        2   -1    0    0  501    0  0.00000000000E+00  0.00000000000E+00 -0.11028545714E+04  0.11028545714E+04  0.25500000920E-02 0.  1.
    10030    2    1    2    0    0  0.00000000000E+00  0.00000000000E+00  0.15096235924E+04  0.37153327352E+04  0.33948098536E+04 0.  0.
        4    1    3    3  502    0 -0.10232736054E+04 -0.24384179467E+03 -0.70311823212E+03  0.12652764731E+04  0.12699999809E+01 0.  1.
       -4    1    3    3    0  502  0.10232736054E+04  0.24384179467E+03  0.22127418245E+04  0.24500562620E+04  0.12699999809E+01 0. -1.
</event>
<event>
 5   0  0.1579536E-08  0.3398940E+04  0.7818609E-02  0.8138167E-01
        1   -1    0    0  501    0  0.00000000000E+00  0.00000000000E+00  0.10339714894E+04  0.10339714894E+04  0.50400001928E-02 0. -1.
       -1   -1    0    0    0  501  0.00000000000E+00  0.00000000000E+00 -0.27933049503E+04  0.27933049503E+04  0.50400001928E-02 0.  1.
    10030    2    1    2    0    0  0.00000000000E+00  0.00000000000E+00 -0.17593334610E+04  0.38272764397E+04  0.33989396463E+04 0.  0.
        5    1    3    3  502    0 -0.14988509507E+04  0.42292835679E+03 -0.11368041501E+03  0.15615274234E+04  0.46999998093E+01 0. -1.
       -5    1    3    3    0  502  0.14988509507E+04 -0.42292835679E+03 -0.16456530459E+04  0.22657490163E+04  0.46999998093E+01 0.  1.
</event>
<event>
 5   0  0.4946315E-08  0.3397191E+04  0.7818609E-02  0.8138596E-01
       -2   -1    0    0    0  501  0.00000000000E+00  0.00000000000E+00  0.13483069625E+04  0.13483069625E+04  0.25500000920E-02 0.  1.
        2   -1    0    0  501    0  0.00000000000E+00  0.00000000000E+00 -0.21398887709E+04  0.21398887709E+04  0.25500000920E-02 0. -1.
    10030    2    1    2    0    0  0.00000000000E+00  0.00000000000E+00 -0.79158180837E+03  0.34881957334E+04  0.33971911508E+04 0.  0.
        3    1    3    3  502    0 -0.62169292719E+03  0.33222866138E+03  0.11910367165E+04  0.13839965497E+04  0.10100000352E+00 0.  1.
       -3    1    3    3    0  502  0.62169292719E+03 -0.33222866138E+03 -0.19826185249E+04  0.21041991837E+04  0.10100000352E+00 0. -1.
</event>
<event>
 5   0  0.4973409E-08  0.3398494E+04  0.7818609E-02  0.8138276E-01
       -2   -1    0    0    0  501  0.00000000000E+00  0.00000000000E+00  0.19813955218E+04  0.19813955218E+04  0.25500000920E-02 0.  1.
        2   -1    0    0  501    0  0.00000000000E+00  0.00000000000E+00 -0.14572765332E+04  0.14572765332E+04  0.25500000920E-02 0. -1.
    10030    2    1    2    0    0  0.00000000000E+00  0.00000000000E+00  0.52411898863E+03  0.34386720549E+04  0.33984944883E+04 0.  0.
        1    1    3    3  502    0 -0.13595290624E+04 -0.44123202769E+03 -0.66773638385E+03  0.15776174607E+04  0.50400001928E-02 0.  1.
       -1    1    3    3    0  502  0.13595290624E+04  0.44123202769E+03  0.11918553725E+04  0.18610545943E+04  0.50400001928E-02 0. -1.
</event>
<event>
 5   0  0.1595851E-08  0.3397896E+04  0.7818609E-02  0.8138423E-01
       -1   -1    0    0    0  501  0.00000000000E+00  0.00000000000E+00  0.20884705191E+04  0.20884705191E+04  0.50400001928E-02 0.  1.
        1   -1    0    0  501    0  0.00000000000E+00  0.00000000000E+00 -0.13820760750E+04  0.13820760750E+04  0.50400001928E-02 0. -1.
    10030    2    1    2    0    0  0.00000000000E+00  0.00000000000E+00  0.70639444413E+03  0.34705465942E+04  0.33978964892E+04 0.  0.
        2    1    3    3  502    0 -0.65892644217E+03 -0.14669157706E+04  0.91300267335E+03  0.18492160003E+04  0.25500000920E-02 0.  1.
       -2    1    3    3    0  502  0.65892644217E+03  0.14669157706E+04 -0.20660822922E+03  0.16213305939E+04  0.25500000920E-02 0. -1.
</event>
<event>
 5   0  0.1579536E-08  0.3399162E+04  0.7818609E-02  0.8138112E-01
        1   -1    0    0  501    0  0.00000000000E+00  0.00000000000E+00  0.19929772732E+04  0.19929772732E+04  0.50400001928E-02 0.  1.
       -1   -1    0    0    0  501  0.00000000000E+00  0.00000000000E+00 -0.14493767781E+04  0.14493767781E+04  0.50400001928E-02 0. -1.
    10030    2    1    2    0    0  0.00000000000E+00  0.00000000000E+00  0.54360049511E+03  0.34423540513E+04  0.33991616490E+04 0.  0.
        5    1    3    3  502    0 -0.92394375956E+02  0.19029496532E+03 -0.14359861413E+04  0.14514913650E+04  0.46999998093E+01 0. -1.
       -5    1    3    3    0  502  0.92394375956E+02 -0.19029496532E+03  0.19795866365E+04  0.19908626863E+04  0.46999998093E+01 0.  1.
</event>
<event>
 5   0  0.1625282E-08  0.3400094E+04  0.7818609E-02  0.8137883E-01
        1   -1    0    0  501    0  0.00000000000E+00  0.00000000000E+00  0.18007239259E+04  0.18007239259E+04  0.50400001928E-02 0.  1.
       -1   -1    0    0    0  501  0.00000000000E+00  0.00000000000E+00 -0.16049985164E+04  0.16049985164E+04  0.50400001928E-02 0. -1.
    10030    2    1    2    0    0  0.00000000000E+00  0.00000000000E+00  0.19572540954E+03  0.34057224423E+04  0.34000936631E+04 0.  0.
        1    1    3    3  502    0 -0.71393684988E+03 -0.45331104111E+02 -0.14468961063E+04  0.16140845942E+04  0.50400001928E-02 0. -1.
       -1    1    3    3    0  502  0.71393684988E+03  0.45331104111E+02  0.16426215158E+04  0.17916378482E+04  0.50400001928E-02 0.  1.
</event>
<event>
 5   0  0.5001197E-08  0.3402243E+04  0.7818609E-02  0.8137356E-01
        2   -1    0    0  501    0  0.00000000000E+00  0.00000000000E+00  0.23078537410E+04  0.23078537410E+04  0.25500000920E-02 0.  1.
       -2   -1    0    0    0  501  0.00000000000E+00  0.00000000000E+00 -0.12538984621E+04  0.12538984621E+04  0.25500000920E-02 0. -1.
    10030    2    1    2    0    0  0.00000000000E+00  0.00000000000E+00  0.10539552788E+04  0.35617522031E+04  0.34022429405E+04 0.  0.
        5    1    3    3  502    0 -0.64133698399E+03  0.26800959133E+03  0.21523970844E+04  0.22618526846E+04  0.46999998093E+01 0.  1.
       -5    1    3    3    0  502  0.64133698399E+03 -0.26800959133E+03 -0.10984418055E+04  0.12998995185E+04  0.46999998093E+01 0. -1.
</event>
<event>
 5   0  0.4946315E-08  0.3401581E+04  0.7818609E-02  0.8137518E-01
       -2   -1    0    0    0  501  0.00000000000E+00  0.00000000000E+00  0.13221440544E+04  0.13221440544E+04  0.25500000920E-02 0. -1.
        2   -1    0    0  501    0  0.00000000000E+00  0.00000000000E+00 -0.21878763360E+04  0.21878763360E+04  0.25500000920E-02 0.  1.
    10030    2    1    2    0    0  0.00000000000E+00  0.00000000000E+00 -0.86573228161E+03  0.35100203903E+04  0.34015806263E+04 0.  0.
        3    1    3    3  502    0  0.12052584480E+04  0.11941074941E+04 -0.31013303046E+03  0.17247385717E+04  0.10100000352E+00 0.  1.
       -3    1    3    3    0  502 -0.12052584480E+04 -0.11941074941E+04 -0.55559925115E+03  0.17852818186E+04  0.10100000352E+00 0. -1.
</event>
<event>
 5   0  0.4775023E-08  0.3400784E+04  0.7818609E-02  0.8137714E-01
       -2   -1    0    0    0  501  0.00000000000E+00  0.00000000000E+00  0.91795663891E+03  0.91795663892E+03  0.25500000920E-02 0.  1.
        2   -1    0    0  501    0  0.00000000000E+00  0.00000000000E+00 -0.31497493354E+04  0.31497493354E+04  0.25500000920E-02 0. -1.
    10030    2    1    2    0    0  0.00000000000E+00  0.00000000000E+00 -0.22317926965E+04  0.40677059743E+04  0.34007842115E+04 0.  0.
        4    1    3    3  502    0  0.58337902320E+03 -0.43538812083E+03 -0.29539523233E+04  0.30423230995E+04  0.12699999809E+01 0. -1.
       -4    1    3    3    0  502 -0.58337902320E+03  0.43538812083E+03  0.72215962682E+03  0.10253828748E+04  0.12699999809E+01 0.  1.
</event>
<event>
 5   0  0.4946315E-08  0.3401595E+04  0.7818609E-02  0.8137515E-01
       -2   -1    0    0    0  501  0.00000000000E+00  0.00000000000E+00  0.23074931564E+04  0.23074931564E+04  0.25500000920E-02 0.  1.
        2   -1    0    0  501    0  0.00000000000E+00  0.00000000000E+00 -0.12536170474E+04  0.12536170474E+04  0.25500000920E-02 0. -1.
    10030    2    1    2    0    0  0.00000000000E+00  0.00000000000E+00  0.10538761091E+04  0.35611102038E+04  0.34015953654E+04 0.  0.
        3    1    3    3  502    0  0.36314549100E+03  0.15767044763E+04  0.10757753267E+04  0.19429781823E+04  0.10100000352E+00 0.  1.
       -3    1    3    3    0  502 -0.36314549100E+03 -0.15767044763E+04 -0.21899217611E+02  0.16181320215E+04  0.10100000352E+00 0. -1.
</event>
<event>
 5   0  0.1579536E-08  0.3402249E+04  0.7818609E-02  0.8137355E-01
       -1   -1    0    0    0  501  0.00000000000E+00  0.00000000000E+00  0.14618618413E+04  0.14618618413E+04  0.50400001928E-02 0.  1.
        1   -1    0    0  501    0  0.00000000000E+00  0.00000000000E+00 -0.19795470315E+04  0.19795470316E+04  0.50400001928E-02 0. -1.
    10030    2    1    2    0    0  0.00000000000E+00  0.00000000000E+00 -0.51768519026E+03  0.34414088728E+04  0.34022488260E+04 0.  0.
        5    1    3    3  502    0 -0.11166705408E+04  0.57241574716E+03 -0.14206222325E+04  0.18954689398E+04  0.46999998093E+01 0. -1.
       -5    1    3    3    0  502  0.11166705408E+04 -0.57241574716E+03  0.90293704224E+03  0.15459399330E+04  0.46999998093E+01 0.  1.
</event>
<event>
 5   0  0.1645631E-08  0.3393055E+04  0.7818609E-02  0.8139613E-01
       -1   -1    0    0    0  501  0.00000000000E+00  0.00000000000E+00  0.13223994528E+04  0.13223994528E+04  0.50400001928E-02 0.  1.
        1   -1    0    0  501    0  0.00000000000E+00  0.00000000000E+00 -0.21765026595E+04  0.21765026595E+04  0.50400001928E-02 0. -1.
    10030    2    1    2    0    0  0.00000000000E+00  0.00000000000E+00 -0.85410320674E+03  0.34989021123E+04  0.33930552167E+04 0.  0.
        4    1    3    3  502    0 -0.27723213645E+03 -0.16566444541E+04 -0.67297772249E+03  0.18094831120E+04  0.12699999809E+01 0.  1.
       -4    1    3    3    0  502  0.27723213645E+03  0.16566444541E+04 -0.18112548425E+03  0.16894190003E+04  0.12699999809E+01 0. -1.
</event>
<event>
 5   0  0.1579536E-08  0.3399906E+04  0.7818609E-02  0.8137929E-01
        1   -1    0    0  501    0  0.00000000000E+00  0.00000000000E+00  0.13502186209E+04  0.13502186209E+04  0.50400001928E-02 0. -1.
       -1   -1    0    0    0  501  0.00000000000E+00  0.00000000000E+00 -0.21402762722E+04  0.21402762722E+04  0.50400001928E-02 0.  1.
    10030    2    1    2    0    0  0.00000000000E+00  0.00000000000E+00 -0.79005765131E+03  0.34904948930E+04  0.33999063966E+04 0.  0.
        5    1    3    3  502    0 -0.12420954558E+04  0.26783349247E+03  0.76434452124E+03  0.14828285599E+04  0.46999998093E+01 0. -1.
       -5    1    3    3    0  502  0.12420954558E+04 -0.26783349247E+03 -0.15544021726E+04  0.20076663331E+04  0.46999998093E+01 0.  1.
</event>
<event>
 5   0  0.1645631E-08  0.3398973E+04  0.7818609E-02  0.8138158E-01
        1   -1    0    0  501    0  0.00000000000E+00  0.00000000000E+00  0.18044791187E+04  0.18044791187E+04  0.50400001928E-02 0.  1.
       -1   -1    0    0    0  501  0.00000000000E+00  0.00000000000E+00 -0.16006030875E+04  0.16006030875E+04  0.50400001928E-02 0. -1.
    10030    2    1    2    0    0  0.00000000000E+00  0.00000000000E+00  0.20387603117E+03  0.34050822062E+04  0.33989732854E+04 0.  0.
        4    1    3    3  502    0 -0.49064276666E+02  0.16547326257E+04  0.48695397120E+03  0.17255935642E+04  0.12699999809E+01 0.  1.
       -4    1    3    3    0  502  0.49064276666E+02 -0.16547326257E+04 -0.28307794003E+03  0.16794886420E+04  0.12699999809E+01 0. -1.
</event>
<event>
 5   0  0.4946315E-08  0.3398777E+04  0.7818609E-02  0.8138207E-01
        2   -1    0    0  501    0  0.00000000000E+00  0.00000000000E+00  0.15570962197E+04  0.15570962198E+04  0.25500000920E-02 0. -1.
       -2   -1    0    0    0  501  0.00000000000E+00  0.00000000000E+00 -0.18546838489E+04  0.18546838489E+04  0.25500000920E-02 0.  1.
    10030    2    1    2    0    0  0.00000000000E+00  0.00000000000E+00 -0.29758762919E+03  0.34117800687E+04  0.33987769624E+04 0.  0.
        3    1    3    3  502    0  0.13011185224E+04 -0.22074273446E+03 -0.12235366526E+04  0.17996329388E+04  0.10100000352E+00 0.  1.
       -3    1    3    3    0  502 -0.13011185224E+04  0.22074273446E+03  0.92594902344E+03  0.16121471298E+04  0.10100000352E+00 0. -1.
</event>
<event>
 5   0  0.1630571E-08  0.3399199E+04  0.7818609E-02  0.8138103E-01
        1   -1    0    0  501    0  0.00000000000E+00  0.00000000000E+00  0.21883383744E+04  0.21883383744E+04  0.50400001928E-02 0.  1.
       -1   -1    0    0    0  501  0.00000000000E+00  0.00000000000E+00 -0.13200145745E+04  0.13200145745E+04  0.50400001928E-02 0. -1.
    10030    2    1    2    0    0  0.00000000000E+00  0.00000000000E+00  0.86832379989E+03  0.35083529490E+04  0.33991990517E+04 0.  0.
        3    1    3    3  502    0 -0.15787052694E+04  0.27064399439E+03 -0.15249170569E+03  0.16089786294E+04  0.10100000352E+00 0. -1.
       -3    1    3    3    0  502  0.15787052694E+04 -0.27064399439E+03  0.10208155056E+04  0.18993743196E+04  0.10100000352E+00 0.  1.
</event>
<event>
 5   0  0.5001197E-08  0.3400006E+04  0.7818609E-02  0.8137905E-01
       -2   -1    0    0    0  501  0.00000000000E+00  0.00000000000E+00  0.17422491038E+04  0.17422491038E+04  0.25500000920E-02 0. -1.
        2   -1    0    0  501    0  0.00000000000E+00  0.00000000000E+00 -0.16587811412E+04  0.16587811412E+04  0.25500000920E-02 0.  1.
    10030    2    1    2    0    0  0.00000000000E+00  0.00000000000E+00  0.83467962617E+02  0.34010302450E+04  0.34000058569E+04 0.  0.
        5    1    3    3  502    0  0.14374780262E+04  0.64315090363E+03 -0.59877269473E+03  0.16847958306E+04  0.46999998093E+01 0. -1.
       -5    1    3    3    0  502 -0.14374780262E+04 -0.64315090363E+03  0.68224065735E+03  0.17162344144E+04  0.46999998093E+01 0.  1.
</event>
<event>
 5   0  0.4946315E-08  0.3400226E+04  0.7818609E-02  0.8137851E-01
        2   -1    0    0  501    0  0.00000000000E+00  0.00000000000E+00  0.19770567915E+04  0.19770567915E+04  0.25500000920E-02 0. -1.
       -2   -1    0    0    0  501  0.00000000000E+00  0.00000000000E+00 -0.14619627609E+04  0.14619627609E+04  0.25500000920E-02 0.  1.
    10030    2    1    2    0    0  0.00000000000E+00  0.00000000000E+00  0.51509403060E+03  0.34390195525E+04  0.34002255252E+04 0.  0.
        3    1    3    3  502    0 -0.96225939670E+03  0.31598758355E+03  0.16386270315E+04  0.19263670102E+04  0.10100000352E+00 0. -1.
       -3    1    3    3    0  502  0.96225939670E+03 -0.31598758355E+03 -0.11235330009E+04  0.15126525423E+04  0.10100000352E+00 0.  1.
</event>
<event>
 5   0  0.1630571E-08  0.3399769E+04  0.7818609E-02  0.8137963E-01
       -1   -1    0    0    0  501  0.00000000000E+00  0.00000000000E+00  0.16688914408E+04  0.16688914408E+04  0.50400001928E-02 0. -1.
        1   -1    0    0  501    0  0.00000000000E+00  0.00000000000E+00 -0.17314536084E+04  0.17314536084E+04  0.50400001928E-02 0.  1.
    10030    2    1    2    0    0  0.00000000000E+00  0.00000000000E+00 -0.62562167607E+02  0.34003450492E+04  0.33997694670E+04 0.  0.
        3    1    3    3  502    0 -0.10680895642E+04  0.10206898151E+04 -0.87224748456E+03  0.17156452723E+04  0.10100000352E+00 0.  1.
       -3    1    3    3    0  502  0.10680895642E+04 -0.10206898151E+04  0.80968531696E+03  0.16846997769E+04  0.10100000352E+00 0. -1.
</event>
<event>
 5   0  0.4775023E-08  0.3401510E+04  0.7818609E-02  0.8137536E-01
        2   -1    0    0  501    0  0.00000000000E+00  0.00000000000E+00  0.13377671141E+04  0.13377671141E+04  0.25500000920E-02 0.  1.
       -2   -1    0    0    0  501  0.00000000000E+00  0.00000000000E+00 -0.21622358035E+04  0.21622358035E+04  0.25500000920E-02 0. -1.
    10030    2    1    2    0    0  0.00000000000E+00  0.00000000000E+00 -0.82446868943E+03  0.35000029175E+04  0.34015102238E+04 0.  0.
        4    1    3    3  502    0  0.50651233762E+03 -0.77655878697E+03 -0.18793417234E+04  0.20955966272E+04  0.12699999809E+01 0. -1.
       -4    1    3    3    0  502 -0.50651233762E+03  0.77655878697E+03  0.10548730339E+04  0.14044062904E+04  0.12699999809E+01 0.  1.
</event>
<event>
 5   0  0.5001197E-08  0.3397851E+04  0.7818609E-02  0.8138434E-01
       -2   -1    0    0    0  501  0.00000000000E+00  0.00000000000E+00  0.13484848983E+04  0.13484848983E+04  0.25500000920E-02 0.  1.
        2   -1    0    0  501    0  0.00000000000E+00  0.00000000000E+00 -0.21404382011E+04  0.21404382011E+04  0.25500000920E-02 0. -1.
    10030    2    1    2    0    0  0.00000000000E+00  0.00000000000E+00 -0.79195330273E+03  0.34889230994E+04  0.33978514328E+04 0.  0.
        5    1    3    3  502    0  0.74572686419E+02 -0.25520717820E+03 -0.21189365378E+04  0.21355575222E+04  0.46999998093E+01 0. -1.
       -5    1    3    3    0  502 -0.74572686419E+02  0.25520717820E+03  0.13269832351E+04  0.13533655772E+04  0.46999998093E+01 0.  1.
</event>
<event>
 5   0  0.1595851E-08  0.3399591E+04  0.7818609E-02  0.8138007E-01
        1   -1    0    0  501    0  0.00000000000E+00  0.00000000000E+00  0.18840475927E+04  0.18840475927E+04  0.50400001928E-02 0. -1.
       -1   -1    0    0    0  501  0.00000000000E+00  0.00000000000E+00 -0.15335625008E+04  0.15335625008E+04  0.50400001928E-02 0.  1.
    10030    2    1    2    0    0  0.00000000000E+00  0.00000000000E+00  0.35048509184E+03  0.34176100935E+04  0.33995909977E+04 0.  0.
        2    1    3    3  502    0  0.51820002944E+03 -0.83917863191E+03  0.15669765068E+04  0.18515311014E+04  0.25500000920E-02 0. -1.
       -2    1    3    3    0  502 -0.51820002944E+03  0.83917863191E+03 -0.12164914150E+04  0.15660789921E+04  0.25500000920E-02 0.  1.
</event>
<event>
 5   0  0.1645631E-08  0.3401395E+04  0.7818609E-02  0.8137564E-01
        1   -1    0    0  501    0  0.00000000000E+00  0.00000000000E+00  0.16343486417E+04  0.16343486417E+04  0.50400001928E-02 0.  1.
       -1   -1    0    0    0  501  0.00000000000E+00  0.00000000000E+00 -0.17697403968E+04  0.17697403968E+04  0.50400001928E-02 0. -1.
    10030    2    1    2    0    0  0.00000000000E+00  0.00000000000E+00 -0.13539175502E+03  0.34040890385E+04  0.34013954864E+04 0.  0.
        4    1    3    3  502    0 -0.13653324728E+04  0.95306196020E+02 -0.10780274754E+04  0.17422287115E+04  0.12699999809E+01 0. -1.
       -4    1    3    3    0  502  0.13653324728E+04 -0.95306196020E+02  0.94263572042E+03  0.16618603270E+04  0.12699999809E+01 0.  1.
</event>
<event>
 5   0  0.1630571E-08  0.3399978E+04  0.7818609E-02  0.8137912E-01
       -1   -1    0    0    0  501  0.00000000000E+00  0.00000000000E+00  0.15691407329E+04  0.15691407329E+04  0.50400001928E-02 0. -1.
        1   -1    0    0  501    0  0.00000000000E+00  0.00000000000E+00 -0.18417490185E+04  0.18417490185E+04  0.50400001928E-02 0.  1.
    10030    2    1    2    0    0  0.00000000000E+00  0.00000000000E+00 -0.27260828560E+03  0.34108897514E+04  0.33999784732E+04 0.  0.
        3    1    3    3  502    0 -0.56726377101E+03  0.15650050432E+04 -0.48227960687E+03  0.17330962467E+04  0.10100000352E+00 0.  1.
       -3    1    3    3    0  502  0.56726377101E+03 -0.15650050432E+04  0.20967132128E+03  0.16777935046E+04  0.10100000352E+00 0. -1.
</event>
<event>
 5   0  0.1579536E-08  0.3402643E+04  0.7818609E-02  0.8137258E-01
       -1   -1    0    0    0  501  0.00000000000E+00  0.00000000000E+00  0.15572111145E+04  0.15572111145E+04  0.50400001928E-02 0.  1.
        1   -1    0    0  501    0  0.00000000000E+00  0.00000000000E+00 -0.18587679327E+04  0.18587679327E+04  0.50400001928E-02 0. -1.
    10030    2    1    2    0    0  0.00000000000E+00  0.00000000000E+00 -0.30155681826E+03  0.34159790472E+04  0.34026425519E+04 0.  0.
        5    1    3    3  502    0  0.64882789242E+03 -0.88841343357E+03 -0.14536384217E+04  0.18230037888E+04  0.46999998093E+01 0. -1.
       -5    1    3    3    0  502 -0.64882789242E+03  0.88841343357E+03  0.11520816034E+04  0.15929752584E+04  0.46999998093E+01 0.  1.
</event>
<event>
 5   0  0.4973409E-08  0.3399502E+04  0.7818609E-02  0.8138029E-01
        2   -1    0    0  501    0  0.00000000000E+00  0.00000000000E+00  0.21134597966E+04  0.21134597966E+04  0.25500000920E-02 0. -1.
       -2   -1    0    0    0  501  0.00000000000E+00  0.00000000000E+00 -0.13670253484E+04  0.13670253484E+04  0.25500000920E-02 0.  1.
    10030    2    1    2    0    0  0.00000000000E+00  0.00000000000E+00  0.74643444816E+03  0.34804851450E+04  0.33995017957E+04 0.  0.
        1    1    3    3  502    0  0.47518363334E+03  0.13240465170E+04  0.13500178180E+04  0.19497299233E+04  0.50400001928E-02 0. -1.
       -1    1    3    3    0  502 -0.47518363334E+03 -0.13240465170E+04 -0.60358336989E+03  0.15307552218E+04  0.50400001928E-02 0.  1.
</event>
<event>
 5   0  0.1625282E-08  0.3399239E+04  0.7818609E-02  0.8138093E-01
       -1   -1    0    0    0  501  0.00000000000E+00  0.00000000000E+00  0.15266691545E+04  0.15266691545E+04  0.50400001928E-02 0.  1.
        1   -1    0    0  501    0  0.00000000000E+00  0.00000000000E+00 -0.18921626584E+04  0.18921626584E+04  0.50400001928E-02 0. -1.
    10030    2    1    2    0    0  0.00000000000E+00  0.00000000000E+00 -0.36549350394E+03  0.34188318130E+04  0.33992389536E+04 0.  0.
        1    1    3    3  502    0  0.23432730011E+03 -0.13861288445E+04 -0.11434718354E+04  0.18121231458E+04  0.50400001928E-02 0. -1.
       -1    1    3    3    0  502 -0.23432730011E+03  0.13861288445E+04  0.77797833143E+03  0.16067086672E+04  0.50400001928E-02 0.  1.
</event>
<event>
 5   0  0.4973409E-08  0.3399350E+04  0.7818609E-02  0.8138066E-01
        2   -1    0    0  501    0  0.00000000000E+00  0.00000000000E+00  0.19343049236E+04  0.19343049236E+04  0.25500000920E-02 0.  1.
       -2   -1    0    0    0  501  0.00000000000E+00  0.00000000000E+00 -0.14935055995E+04  0.14935055995E+04  0.25500000920E-02 0. -1.
    10030    2    1    2    0    0  0.00000000000E+00  0.00000000000E+00  0.44079932417E+03  0.34278105231E+04  0.33993500758E+04 0.  0.
        1    1    3    3  502    0  0.23986946212E+03  0.42851860124E+02 -0.14758017566E+04  0.14957822253E+04  0.50400001928E-02 0. -1.
       -1    1    3    3    0  502 -0.23986946212E+03 -0.42851860124E+02  0.19166010807E+04  0.19320282978E+04  0.50400001928E-02 0.  1.
</event>
<event>
 5   0  0.1630571E-08  0.3398859E+04  0.7818609E-02  0.8138186E-01
       -1   -1    0    0    0  501  0.00000000000E+00  0.00000000000E+00  0.13911751734E+04  0.13911751734E+04  0.50400001928E-02 0.  1.
        1   -1    0    0  501    0  0.00000000000E+00  0.00000000000E+00 -0.20759861809E+04  0.20759861809E+04  0.50400001928E-02 0. -1.
    10030    2    1    2    0    0  0.00000000000E+00  0.00000000000E+00 -0.68481100753E+03  0.34671613544E+04  0.33988588881E+04 0.  0.
        3    1    3    3  502    0  0.38627779708E+03 -0.29188692503E+03  0.13193338165E+04  0.14053648078E+04  0.10100000352E+00 0.  1.
       -3    1    3    3    0  502 -0.38627779708E+03  0.29188692503E+03 -0.20041448240E+04  0.20617965466E+04  0.10100000352E+00 0. -1.
</event>
<event>
 5   0  0.1595851E-08  0.3406617E+04  0.7818609E-02  0.8136284E-01
       -1   -1    0    0    0  501  0.00000000000E+00  0.00000000000E+00  0.18310130255E+04  0.18310130255E+04  0.50400001928E-02 0.  1.
        1   -1    0    0  501    0  0.00000000000E+00  0.00000000000E+00 -0.15845106799E+04  0.15845106800E+04  0.50400001928E-02 0. -1.
    10030    2    1    2    0    0  0.00000000000E+00  0.00000000000E+00  0.24650234553E+03  0.34155237054E+04  0.34066169107E+04 0.  0.
        2    1    3    3  502    0  0.65010969084E+03 -0.71967463161E+03  0.15271569959E+04  0.18090833800E+04  0.25500000920E-02 0.  1.
       -2    1    3    3    0  502 -0.65010969084E+03  0.71967463161E+03 -0.12806546504E+04  0.16064403254E+04  0.25500000920E-02 0. -1.
</event>
<event>
 5   0  0.1579536E-08  0.3411580E+04  0.7818609E-02  0.8135070E-01
       -1   -1    0    0    0  501  0.00000000000E+00  0.00000000000E+00  0.15215787539E+04  0.15215787539E+04  0.50400001928E-02 0.  1.
        1   -1    0    0  501    0  0.00000000000E+00  0.00000000000E+00 -0.19123031383E+04  0.19123031383E+04  0.50400001928E-02 0. -1.
    10030    2    1    2    0    0  0.00000000000E+00  0.00000000000E+00 -0.39072438440E+03  0.34338818923E+04  0.34115801772E+04 0.  0.
        5    1    3    3  502    0  0.13644192545E+04 -0.86862201938E+03 -0.74070990087E+03  0.17789933563E+04  0.46999998093E+01 0. -1.
       -5    1    3    3    0  502 -0.13644192545E+04  0.86862201938E+03  0.34998551648E+03  0.16548885359E+04  0.46999998093E+01 0.  1.
</event>
<event>
 5   0  0.5001197E-08  0.3397585E+04  0.7818609E-02  0.8138499E-01
       -2   -1    0    0    0  501  0.00000000000E+00  0.00000000000E+00  0.13111598914E+04  0.13111598914E+04  0.25500000920E-02 0. -1.
        2   -1    0    0  501    0  0.00000000000E+00  0.00000000000E+00 -0.22010257608E+04  0.22010257608E+04  0.25500000920E-02 0.  1.
    10030    2    1    2    0    0  0.00000000000E+00  0.00000000000E+00 -0.88986586938E+03  0.35121856522E+04  0.33975854353E+04 0.  0.
        5    1    3    3  502    0  0.52321759414E+03 -0.15563080674E+04  0.56869389035E+01  0.16419213997E+04  0.46999998093E+01 0. -1.
       -5    1    3    3    0  502 -0.52321759414E+03  0.15563080674E+04 -0.89555280828E+03  0.18702642525E+04  0.46999998093E+01 0.  1.
</event>
<event>
 5   0  0.5001197E-08  0.3401109E+04  0.7818609E-02  0.8137634E-01
        2   -1    0    0  501    0  0.00000000000E+00  0.00000000000E+00  0.25606776095E+04  0.25606776095E+04  0.25500000920E-02 0. -1.
       -2   -1    0    0    0  501  0.00000000000E+00  0.00000000000E+00 -0.11293440619E+04  0.11293440619E+04  0.25500000920E-02 0.  1.
    10030    2    1    2    0    0  0.00000000000E+00  0.00000000000E+00  0.14313335476E+04  0.36900216714E+04  0.34011092619E+04 0.  0.
        5    1    3    3  502    0 -0.25446463411E+03  0.16365290117E+04  0.29703413424E+03  0.16826261685E+04  0.46999998093E+01 0.  1.
       -5    1    3    3    0  502  0.25446463411E+03 -0.16365290117E+04  0.11342994134E+04  0.20073955030E+04  0.46999998093E+01 0. -1.
</event>
<event>
 5   0  0.5001197E-08  0.3399707E+04  0.7818609E-02  0.8137978E-01
        2   -1    0    0  501    0  0.00000000000E+00  0.00000000000E+00  0.17424013039E+04  0.17424013039E+04  0.25500000920E-02 0.  1.
       -2   -1    0    0    0  501  0.00000000000E+00  0.00000000000E+00 -0.16583447268E+04  0.16583447268E+04  0.25500000920E-02 0. -1.
    10030    2    1    2    0    0  0.00000000000E+00  0.00000000000E+00  0.84056577015E+02  0.34007460307E+04  0.33997070546E+04 0.  0.
        5    1    3    3  502    0 -0.13056060963E+04 -0.21830570557E+03 -0.10247005682E+04  0.16740065724E+04  0.46999998093E+01 0.  1.
       -5    1    3    3    0  502  0.13056060963E+04  0.21830570557E+03  0.11087571452E+04  0.17267394583E+04  0.46999998093E+01 0. -1.
</event>
<event>
 5   0  0.1645631E-08  0.3401726E+04  0.7818609E-02  0.8137483E-01
        1   -1    0    0  501    0  0.00000000000E+00  0.00000000000E+00  0.22238068914E+04  0.22238068914E+04  0.50400001928E-02 0. -1.
       -1   -1    0    0    0  501  0.00000000000E+00  0.00000000000E+00 -0.13008929479E+04  0.13008929479E+04  0.50400001928E-02 0.  1.
    10030    2    1    2    0    0  0.00000000000E+00  0.00000000000E+00  0.92291394347E+03  0.35246998393E+04  0.34017258575E+04 0.  0.
        4    1    3    3  502    0 -0.11336681969E+04  0.61980505350E+03 -0.68468245249E+03  0.14622426470E+04  0.12699999809E+01 0.  1.
       -4    1    3    3    0  502  0.11336681969E+04 -0.61980505350E+03  0.16075963960E+04  0.20624571923E+04  0.12699999809E+01 0. -1.
</event>
<event>
 5   0  0.4764953E-08  0.3400411E+04  0.7818609E-02  0.8137805E-01
       -2   -1    0    0    0  501  0.00000000000E+00  0.00000000000E+00  0.19151800433E+04  0.19151800433E+04  0.25500000920E-02 0.  1.
        2   -1    0    0  501    0  0.00000000000E+00  0.00000000000E+00 -0.15093613188E+04  0.15093613188E+04  0.25500000920E-02 0. -1.
    10030    2    1    2    0    0  0.00000000000E+00  0.00000000000E+00  0.40581872445E+03  0.34245413621E+04  0.34004109610E+04 0.  0.
        2    1    3    3  502    0 -0.10554087170E+04  0.30757139807E+03 -0.11032953210E+04  0.15574813933E+04  0.25500000920E-02 0. -1.
       -2    1    3    3    0  502  0.10554087170E+04 -0.30757139807E+03  0.15091140455E+04  0.18670599688E+04  0.25500000920E-02 0.  1.
</event>
<event>
 5   0  0.4946315E-08  0.3398049E+04  0.7818609E-02  0.8138385E-01
        2   -1    0    0  501    0  0.00000000000E+00  0.00000000000E+00  0.16066395750E+04  0.16066395750E+04  0.25500000920E-02 0. -1.
       -2   -1    0    0    0  501  0.00000000000E+00  0.00000000000E+00 -0.17967217289E+04  0.17967217289E+04  0.25500000920E-02 0.  1.
    10030    2    1    2    0    0  0.00000000000E+00  0.00000000000E+00 -0.19008215394E+03  0.34033613039E+04  0.33980489902E+04 0.  0.
        3    1    3    3  502    0  0.14102927080E+04 -0.77654713435E+03 -0.63878321163E+03  0.17320493572E+04  0.10100000352E+00 0.  1.
       -3    1    3    3    0  502 -0.14102927080E+04  0.77654713435E+03  0.44870105769E+03  0.16713119468E+04  0.10100000352E+00 0. -1.
</event>
<event>
 5   0  0.1630571E-08  0.3389729E+04  0.7818609E-02  0.8140432E-01
       -1   -1    0    0    0  501  0.00000000000E+00  0.00000000000E+00  0.13498244075E+04  0.13498244075E+04  0.50400001928E-02 0.  1.
        1   -1    0    0  501    0  0.00000000000E+00  0.00000000000E+00 -0.21281033762E+04  0.21281033762E+04  0.50400001928E-02 0. -1.
    10030    2    1    2    0    0  0.00000000000E+00  0.00000000000E+00 -0.77827896868E+03  0.34779277837E+04  0.33897291212E+04 0.  0.
        3    1    3    3  502    0 -0.12723788961E+04 -0.45227741608E+03  0.66174829246E+03  0.15037997636E+04  0.10100000352E+00 0.  1.
       -3    1    3    3    0  502  0.12723788961E+04  0.45227741608E+03 -0.14400272611E+04  0.19741280200E+04  0.10100000352E+00 0. -1.
</event>
<event>
 5   0  0.4946315E-08  0.3398501E+04  0.7818609E-02  0.8138274E-01
        2   -1    0    0  501    0  0.00000000000E+00  0.00000000000E+00  0.22563240744E+04  0.22563240744E+04  0.25500000920E-02 0.  1.
       -2   -1    0    0    0  501  0.00000000000E+00  0.00000000000E+00 -0.12797151314E+04  0.12797151314E+04  0.25500000920E-02 0. -1.
    10030    2    1    2    0    0  0.00000000000E+00  0.00000000000E+00  0.97660894304E+03  0.35360392058E+04  0.33985008808E+04 0.  0.
        3    1    3    3  502    0  0.60587161423E+03 -0.12351292396E+04 -0.54947136264E+03  0.14813991494E+04  0.10100000352E+00 0. -1.
       -3    1    3    3    0  502 -0.60587161423E+03  0.12351292396E+04  0.15260803057E+04  0.20546400563E+04  0.10100000352E+00 0.  1.
</event>
<event>
 5   0  0.1645631E-08  0.3401119E+04  0.7818609E-02  0.8137632E-01
       -1   -1    0    0    0  501  0.00000000000E+00  0.00000000000E+00  0.17604969025E+04  0.17604969025E+04  0.50400001928E-02 0.  1.
        1   -1    0    0  501    0  0.00000000000E+00  0.00000000000E+00 -0.16426629612E+04  0.16426629612E+04  0.50400001928E-02 0. -1.
    10030    2    1    2    0    0  0.00000000000E+00  0.00000000000E+00  0.11783394134E+03  0.34031598637E+04  0.34011192599E+04 0.  0.
        4    1    3    3  502    0  0.11862298981E+04 -0.15230772023E+03 -0.11507593382E+04  0.16596950563E+04  0.12699999809E+01 0. -1.
       -4    1    3    3    0  502 -0.11862298981E+04  0.15230772023E+03  0.12685932795E+04  0.17434648074E+04  0.12699999809E+01 0.  1.
</event>
<event>
 5   0  0.5001197E-08  0.3399781E+04  0.7818609E-02  0.8137960E-01
       -2   -1    0    0    0  501  0.00000000000E+00  0.00000000000E+00  0.16889356949E+04  0.16889356949E+04  0.25500000920E-02 0. -1.
        2   -1    0    0  501    0  0.00000000000E+00  0.00000000000E+00 -0.17109161168E+04  0.17109161168E+04  0.25500000920E-02 0.  1.
    10030    2    1    2    0    0  0.00000000000E+00  0.00000000000E+00 -0.21980421900E+02  0.33998518117E+04  0.33997807580E+04 0.  0.
        5    1    3    3  502    0 -0.16511790396E+04 -0.10685073580E+03 -0.40060829965E+03  0.17024448303E+04  0.46999998093E+01 0.  1.
       -5    1    3    3    0  502  0.16511790396E+04  0.10685073580E+03  0.37862787775E+03  0.16974069814E+04  0.46999998093E+01 0. -1.
</event>
<event>
 5   0  0.1630571E-08  0.3400643E+04  0.7818609E-02  0.8137749E-01
        1   -1    0    0  501    0  0.00000000000E+00  0.00000000000E+00  0.10183341769E+04  0.10183341770E+04  0.50400001928E-02 0. -1.
       -1   -1    0    0    0  501  0.00000000000E+00  0.00000000000E+00 -0.28390413621E+04  0.28390413621E+04  0.50400001928E-02 0.  1.
    10030    2    1    2    0    0  0.00000000000E+00  0.00000000000E+00 -0.18207071852E+04  0.38573755391E+04  0.34006427915E+04 0.  0.
        3    1    3    3  502    0 -0.62785603695E+03 -0.17980545910E+03  0.87038664506E+03  0.10881664066E+04  0.10100000352E+00 0. -1.
       -3    1    3    3    0  502  0.62785603695E+03  0.17980545910E+03 -0.26910938303E+04  0.27692091325E+04  0.10100000352E+00 0.  1.
</event>
<event>
 5   0  0.4764953E-08  0.3400844E+04  0.7818609E-02  0.8137699E-01
        2   -1    0    0  501    0  0.00000000000E+00  0.00000000000E+00  0.25477567666E+04  0.25477567666E+04  0.25500000920E-02 0. -1.
       -2   -1    0    0    0  501  0.00000000000E+00  0.00000000000E+00 -0.11348942339E+04  0.11348942339E+04  0.25500000920E-02 0.  1.
    10030    2    1    2    0    0  0.00000000000E+00  0.00000000000E+00  0.14128625327E+04  0.36826510005E+04  0.34008436975E+04 0.  0.
        2    1    3    3  502    0 -0.58502795642E+03  0.13579862906E+04 -0.20281985635E+03  0.14924879797E+04  0.25500000920E-02 0.  1.
       -2    1    3    3    0  502  0.58502795642E+03 -0.13579862906E+04  0.16156823890E+04  0.21901630208E+04  0.25500000920E-02 0. -1.
</event>
<event>
 5   0  0.1579536E-08  0.3399081E+04  0.7818609E-02  0.8138132E-01
        1   -1    0    0  501    0  0.00000000000E+00  0.00000000000E+00  0.16946776100E+04  0.16946776100E+04  0.50400001928E-02 0.  1.
       -1   -1    0    0    0  501  0.00000000000E+00  0.00000000000E+00 -0.17044172153E+04  0.17044172153E+04  0.50400001928E-02 0. -1.
    10030    2    1    2    0    0  0.00000000000E+00  0.00000000000E+00 -0.97396052999E+01  0.33990948254E+04  0.33990808716E+04 0.  0.
        5    1    3    3  502    0 -0.60539249070E+03 -0.15880539632E+04 -0.52509571345E+01  0.16995485048E+04  0.46999998093E+01 0.  1.
       -5    1    3    3    0  502  0.60539249070E+03  0.15880539632E+04 -0.44886481654E+01  0.16995463205E+04  0.46999998093E+01 0. -1.
</event>
<event>
 5   0  0.1595851E-08  0.3400188E+04  0.7818609E-02  0.8137860E-01
       -1   -1    0    0    0  501  0.00000000000E+00  0.00000000000E+00  0.24679027947E+04  0.24679027947E+04  0.50400001928E-02 0. -1.
        1   -1    0    0  501    0  0.00000000000E+00  0.00000000000E+00 -0.11711645875E+04  0.11711645875E+04  0.50400001928E-02 0.  1.
    10030    2    1    2    0    0  0.00000000000E+00  0.00000000000E+00  0.12967382072E+04  0.36390673822E+04  0.34001884410E+04 0.  0.
        2    1    3    3  502    0  0.23671548116E+03 -0.67037774887E+02 -0.11520117000E+04  0.11779894903E+04  0.25500000920E-02 0.  1.
       -2    1    3    3    0  502 -0.23671548116E+03  0.67037774887E+02  0.24487499072E+04  0.24610778919E+04  0.25500000920E-02 0. -1.
</event>
<event>
 5   0  0.1579536E-08  0.3399097E+04  0.7818609E-02  0.8138128E-01
       -1   -1    0    0    0  501  0.00000000000E+00  0.00000000000E+00  0.14218208648E+04  0.14218208648E+04  0.50400001928E-02 0. -1.
        1   -1    0    0  501    0  0.00000000000E+00  0.00000000000E+00 -0.20315259235E+04  0.20315259235E+04  0.50400001928E-02 0.  1.
    10030    2    1    2    0    0  0.00000000000E+00  0.00000000000E+00 -0.60970505876E+03  0.34533467883E+04  0.33990974951E+04 0.  0.
        5    1    3    3  502    0 -0.15331080864E+04  0.10594032987E+03 -0.10422463511E+04  0.18568638357E+04  0.46999998093E+01 0.  1.
       -5    1    3    3    0  502  0.15331080864E+04 -0.10594032987E+03  0.43254129229E+03  0.15964829525E+04  0.46999998093E+01 0. -1.
</event>
<event>
 5   0  0.5001197E-08  0.3399695E+04  0.7818609E-02  0.8137981E-01
        2   -1    0    0  501    0  0.00000000000E+00  0.00000000000E+00  0.17516119648E+04  0.17516119648E+04  0.25500000920E-02 0. -1.
       -2   -1    0    0    0  501  0.00000000000E+00  0.00000000000E+00 -0.16496132539E+04  0.16496132539E+04  0.25500000920E-02 0.  1.
    10030    2    1    2    0    0  0.00000000000E+00  0.00000000000E+00  0.10199871082E+03  0.34012252187E+04  0.33996954645E+04 0.  0.
        5    1    3    3  502    0  0.92487695823E+03  0.11745396598E+04  0.86038713683E+03  0.17248851891E+04  0.46999998093E+01 0.  1.
       -5    1    3    3    0  502 -0.92487695823E+03 -0.11745396598E+04 -0.75838842601E+03  0.16763400296E+04  0.46999998093E+01 0. -1.
</event>
<event>
 5   0  0.1579536E-08  0.3400240E+04  0.7818609E-02  0.8137847E-01
        1   -1    0    0  501    0  0.00000000000E+00  0.00000000000E+00  0.21644677300E+04  0.21644677300E+04  0.50400001928E-02 0.  1.
       -1   -1    0    0    0  501  0.00000000000E+00  0.00000000000E+00 -0.13353895427E+04  0.13353895427E+04  0.50400001928E-02 0. -1.
    10030    2    1    2    0    0  0.00000000000E+00  0.00000000000E+00  0.82907818736E+03  0.34998572727E+04  0.34002397398E+04 0.  0.
        5    1    3    3  502    0 -0.31226057022E+03 -0.16051352336E+04  0.89337773595E+03  0.18633603116E+04  0.46999998093E+01 0.  1.
       -5    1    3    3    0  502  0.31226057022E+03  0.16051352336E+04 -0.64299548589E+02  0.16364969611E+04  0.46999998093E+01 0. -1.
</event>
<event>
 5   0  0.4973409E-08  0.3400932E+04  0.7818609E-02  0.8137678E-01
        2   -1    0    0  501    0  0.00000000000E+00  0.00000000000E+00  0.15035430749E+04  0.15035430749E+04  0.25500000920E-02 0.  1.
       -2   -1    0    0    0  501  0.00000000000E+00  0.00000000000E+00 -0.19231806636E+04  0.19231806636E+04  0.25500000920E-02 0. -1.
    10030    2    1    2    0    0  0.00000000000E+00  0.00000000000E+00 -0.41963758869E+03  0.34267237385E+04  0.34009322066E+04 0.  0.
        1    1    3    3  502    0  0.49274205573E+03  0.13141495411E+04  0.75756711480E+03  0.15948955086E+04  0.50400001928E-02 0. -1.
       -1    1    3    3    0  502 -0.49274205573E+03 -0.13141495411E+04 -0.11772047035E+04  0.18318282299E+04  0.50400001928E-02 0.  1.
</event>
<event>
 5   0  0.5001197E-08  0.3399171E+04  0.7818609E-02  0.8138110E-01
       -2   -1    0    0    0  501  0.00000000000E+00  0.00000000000E+00  0.25571818324E+04  0.25571818324E+04  0.25500000920E-02 0.  1.
        2   -1    0    0  501    0  0.00000000000E+00  0.00000000000E+00 -0.11295991260E+04  0.11295991260E+04  0.25500000920E-02 0. -1.
    10030    2    1    2    0    0  0.00000000000E+00  0.00000000000E+00  0.14275827064E+04  0.36867809584E+04  0.33991707006E+04 0.  0.
        5    1    3    3  502    0 -0.66615197105E+03 -0.15610659934E+04  0.61749400998E+03  0.18061025515E+04  0.46999998093E+01 0. -1.
       -5    1    3    3    0  502  0.66615197105E+03  0.15610659934E+04  0.81008869644E+03  0.18806784069E+04  0.46999998093E+01 0.  1.
</event>
<event>
 5   0  0.5001197E-08  0.3401833E+04  0.7818609E-02  0.8137457E-01
       -2   -1    0    0    0  501  0.00000000000E+00  0.00000000000E+00  0.10742867598E+04  0.10742867598E+04  0.25500000920E-02 0.  1.
        2   -1    0    0  501    0  0.00000000000E+00  0.00000000000E+00 -0.26930583843E+04  0.26930583843E+04  0.25500000920E-02 0. -1.
    10030    2    1    2    0    0  0.00000000000E+00  0.00000000000E+00 -0.16187716245E+04  0.37673451440E+04  0.34018330150E+04 0.  0.
        5    1    3    3  502    0 -0.27488921436E+03 -0.96857893103E+03  0.70881902663E+03  0.12313227555E+04  0.46999998093E+01 0.  1.
       -5    1    3    3    0  502  0.27488921436E+03  0.96857893103E+03 -0.23275906511E+04  0.25360223885E+04  0.46999998093E+01 0. -1.
</event>
<event>
 5   0  0.1579536E-08  0.3400628E+04  0.7818609E-02  0.8137752E-01
        1   -1    0    0  501    0  0.00000000000E+00  0.00000000000E+00  0.12460255217E+04  0.12460255217E+04  0.50400001928E-02 0.  1.
       -1   -1    0    0    0  501  0.00000000000E+00  0.00000000000E+00 -0.23202312683E+04  0.23202312683E+04  0.50400001928E-02 0. -1.
    10030    2    1    2    0    0  0.00000000000E+00  0.00000000000E+00 -0.10742057466E+04  0.35662567901E+04  0.34006278107E+04 0.  0.
        5    1    3    3  502    0 -0.17102890698E+03 -0.65677869803E+03  0.10978137766E+04  0.12906689441E+04  0.46999998093E+01 0.  1.
       -5    1    3    3    0  502  0.17102890698E+03  0.65677869803E+03 -0.21720195232E+04  0.22755878459E+04  0.46999998093E+01 0. -1.
</event>
<event>
 5   0  0.1579536E-08  0.3400377E+04  0.7818609E-02  0.8137814E-01
       -1   -1    0    0    0  501  0.00000000000E+00  0.00000000000E+00  0.12952202110E+04  0.12952202110E+04  0.50400001928E-02 0. -1.
        1   -1    0    0  501    0  0.00000000000E+00  0.00000000000E+00 -0.22317758846E+04  0.22317758846E+04  0.50400001928E-02 0.  1.
    10030    2    1    2    0    0  0.00000000000E+00  0.00000000000E+00 -0.93655567355E+03  0.35269960956E+04  0.34003771745E+04 0.  0.
        5    1    3    3  502    0 -0.16159330050E+04 -0.33895996196E+03 -0.88894838287E+03  0.18752025623E+04  0.46999998093E+01 0.  1.
       -5    1    3    3    0  502  0.16159330050E+04  0.33895996196E+03 -0.47607290686E+02  0.16517935333E+04  0.46999998093E+01 0. -1.
</event>
<event>
 5   0  0.5001197E-08  0.3399957E+04  0.7818609E-02  0.8137917E-01
        2   -1    0    0  501    0  0.00000000000E+00  0.00000000000E+00  0.17901155204E+04  0.17901155204E+04  0.25500000920E-02 0. -1.
       -2   -1    0    0    0  501  0.00000000000E+00  0.00000000000E+00 -0.16143797861E+04  0.16143797861E+04  0.25500000920E-02 0.  1.
    10030    2    1    2    0    0  0.00000000000E+00  0.00000000000E+00  0.17573573433E+03  0.34044953065E+04  0.33999566532E+04 0.  0.
        5    1    3    3  502    0  0.58751923391E+03  0.11045664756E+04  0.12403422680E+04  0.17617369217E+04  0.46999998093E+01 0. -1.
       -5    1    3    3    0  502 -0.58751923391E+03 -0.11045664756E+04 -0.10646065337E+04  0.16427583848E+04  0.46999998093E+01 0.  1.
</event>
<event>
 5   0  0.1645631E-08  0.3398843E+04  0.7818609E-02  0.8138190E-01
        1   -1    0    0  501    0  0.00000000000E+00  0.00000000000E+00  0.24169273077E+04  0.24169273077E+04  0.50400001928E-02 0.  1.
       -1   -1    0    0    0  501  0.00000000000E+00  0.00000000000E+00 -0.11949196399E+04  0.11949196399E+04  0.50400001928E-02 0. -1.
    10030    2    1    2    0    0  0.00000000000E+00  0.00000000000E+00  0.12220076678E+04  0.36118469476E+04  0.33988432786E+04 0.  0.
        4    1    3    3  502    0 -0.85929346383E+02  0.86095253297E+03  0.21653406236E+04  0.23318071845E+04  0.12699999809E+01 0.  1.
       -4    1    3    3    0  502  0.85929346383E+02 -0.86095253297E+03 -0.94333295584E+03  0.12800397631E+04  0.12699999809E+01 0. -1.
</event>
<event>
 5   0  0.4973409E-08  0.3397893E+04  0.7818609E-02  0.8138424E-01
        2   -1    0    0  501    0  0.00000000000E+00  0.00000000000E+00  0.22277351461E+04  0.22277351461E+04  0.25500000920E-02 0. -1.
       -2   -1    0    0    0  501  0.00000000000E+00  0.00000000000E+00 -0.12956745886E+04  0.12956745886E+04  0.25500000920E-02 0.  1.
    10030    2    1    2    0    0  0.00000000000E+00  0.00000000000E+00  0.93206055747E+03  0.35234097347E+04  0.33978933585E+04 0.  0.
        1    1    3    3  502    0  0.65893872304E+03  0.49464002917E+03 -0.10746366504E+04  0.13541465687E+04  0.50400001928E-02 0.  1.
       -1    1    3    3    0  502 -0.65893872304E+03 -0.49464002917E+03  0.20066972079E+04  0.21692631660E+04  0.50400001928E-02 0. -1.
</event>
<event>
 5   0  0.1579536E-08  0.3400428E+04  0.7818609E-02  0.8137801E-01
       -1   -1    0    0    0  501  0.00000000000E+00  0.00000000000E+00  0.17545364024E+04  0.17545364024E+04  0.50400001928E-02 0. -1.
        1   -1    0    0  501    0  0.00000000000E+00  0.00000000000E+00 -0.16475735204E+04  0.16475735204E+04  0.50400001928E-02 0.  1.
    10030    2    1    2    0    0  0.00000000000E+00  0.00000000000E+00  0.10696288199E+03  0.34021099228E+04  0.34004280420E+04 0.  0.
        5    1    3    3  502    0 -0.10317198322E+04  0.11747043002E+04  0.72189093247E+03  0.17220698631E+04  0.46999998093E+01 0. -1.
       -5    1    3    3    0  502  0.10317198322E+04 -0.11747043002E+04 -0.61492805048E+03  0.16800400597E+04  0.46999998093E+01 0.  1.
</event>
<event>
 5   0  0.1625282E-08  0.3402480E+04  0.7818609E-02  0.8137298E-01
        1   -1    0    0  501    0  0.00000000000E+00  0.00000000000E+00  0.27632433319E+04  0.27632433319E+04  0.50400001928E-02 0.  1.
       -1   -1    0    0    0  501  0.00000000000E+00  0.00000000000E+00 -0.10473986894E+04  0.10473986894E+04  0.50400001928E-02 0. -1.
    10030    2    1    2    0    0  0.00000000000E+00  0.00000000000E+00  0.17158446425E+04  0.38106420213E+04  0.34024799451E+04 0.  0.
        1    1    3    3  502    0  0.11333615089E+04 -0.79485006010E+03  0.19654505416E+04  0.24040155489E+04  0.50400001928E-02 0.  1.
       -1    1    3    3    0  502 -0.11333615089E+04  0.79485006010E+03 -0.24960589915E+03  0.14066264723E+04  0.50400001928E-02 0. -1.
</event>
<event>
 5   0  0.1625282E-08  0.3398489E+04  0.7818609E-02  0.8138277E-01
       -1   -1    0    0    0  501  0.00000000000E+00  0.00000000000E+00  0.15668735859E+04  0.15668735859E+04  0.50400001928E-02 0.  1.
        1   -1    0    0  501    0  0.00000000000E+00  0.00000000000E+00 -0.18427978897E+04  0.18427978897E+04  0.50400001928E-02 0. -1.
    10030    2    1    2    0    0  0.00000000000E+00  0.00000000000E+00 -0.27592430380E+03  0.34096714755E+04  0.33984886861E+04 0.  0.
        1    1    3    3  502    0  0.10270809043E+04  0.12325432500E+04  0.42367741616E+03  0.16593856092E+04  0.50400001928E-02 0.  1.
       -1    1    3    3    0  502 -0.10270809043E+04 -0.12325432500E+04 -0.69960171996E+03  0.17502858663E+04  0.50400001928E-02 0. -1.
</event>
<event>
 5   0  0.1645631E-08  0.3402456E+04  0.7818609E-02  0.8137304E-01
       -1   -1    0    0    0  501  0.00000000000E+00  0.00000000000E+00  0.11973178243E+04  0.11973178243E+04  0.50400001928E-02 0.  1.
        1   -1    0    0  501    0  0.00000000000E+00  0.00000000000E+00 -0.24172174410E+04  0.24172174410E+04  0.50400001928E-02 0. -1.
    10030    2    1    2    0    0  0.00000000000E+00  0.00000000000E+00 -0.12198996167E+04  0.36145352652E+04  0.34024564815E+04 0.  0.
        4    1    3    3  502    0 -0.14781442089E+04  0.42009896593E+03  0.16546635752E+03  0.15455659714E+04  0.12699999809E+01 0.  1.
       -4    1    3    3    0  502  0.14781442089E+04 -0.42009896593E+03 -0.13853659742E+04  0.20689692939E+04  0.12699999809E+01 0. -1.
</event>
<event>
 5   0  0.4775023E-08  0.3400617E+04  0.7818609E-02  0.8137755E-01
        2   -1    0    0  501    0  0.00000000000E+00  0.00000000000E+00  0.21028495845E+04  0.21028495845E+04  0.25500000920E-02 0. -1.
       -2   -1    0    0    0  501  0.00000000000E+00  0.00000000000E+00 -0.13748244195E+04  0.13748244195E+04  0.25500000920E-02 0.  1.
    10030    2    1    2    0    0  0.00000000000E+00  0.00000000000E+00  0.72802516492E+03  0.34776740040E+04  0.34006169789E+04 0.  0.
        4    1    3    3  502    0  0.72237879976E+03 -0.42080802065E+03 -0.11501237441E+04  0.14218638333E+04  0.12699999809E+01 0.  1.
       -4    1    3    3    0  502 -0.72237879976E+03  0.42080802065E+03  0.18781489091E+04  0.20558101707E+04  0.12699999809E+01 0. -1.
</event>
<event>
 5   0  0.4973409E-08  0.3402741E+04  0.7818609E-02  0.8137234E-01
        2   -1    0    0  501    0  0.00000000000E+00  0.00000000000E+00  0.11037306744E+04  0.11037306744E+04  0.25500000920E-02 0. -1.
       -2   -1    0    0    0  501  0.00000000000E+00  0.00000000000E+00 -0.26226165899E+04  0.26226165899E+04  0.25500000920E-02 0.  1.
    10030    2    1    2    0    0  0.00000000000E+00  0.00000000000E+00 -0.15188859154E+04  0.37263472643E+04  0.34027414698E+04 0.  0.
        1    1    3    3  502    0 -0.28093311103E+03  0.46167707543E+03 -0.25261214423E+04  0.25832844745E+04  0.50400001928E-02 0.  1.
       -1    1    3    3    0  502  0.28093311103E+03 -0.46167707543E+03  0.10072355269E+04  0.11430627898E+04  0.50400001928E-02 0. -1.
</event>
<event>
 5   0  0.1645631E-08  0.3399435E+04  0.7818609E-02  0.8138045E-01
        1   -1    0    0  501    0  0.00000000000E+00  0.00000000000E+00  0.18968924580E+04  0.18968924580E+04  0.50400001928E-02 0. -1.
       -1   -1    0    0    0  501  0.00000000000E+00  0.00000000000E+00 -0.15230381661E+04  0.15230381661E+04  0.50400001928E-02 0.  1.
    10030    2    1    2    0    0  0.00000000000E+00  0.00000000000E+00  0.37385429193E+03  0.34199306241E+04  0.33994350181E+04 0.  0.
        4    1    3    3  502    0 -0.73967654000E+03 -0.45082778139E+03 -0.12843095038E+04  0.15491351092E+04  0.12699999809E+01 0.  1.
       -4    1    3    3    0  502  0.73967654000E+03  0.45082778139E+03  0.16581637957E+04  0.18707955149E+04  0.12699999809E+01 0. -1.
</event>
<event>
 5   0  0.5001197E-08  0.3398241E+04  0.7818609E-02  0.8138338E-01
        2   -1    0    0  501    0  0.00000000000E+00  0.00000000000E+00  0.19331253779E+04  0.19331253779E+04  0.25500000920E-02 0.  1.
       -2   -1    0    0    0  501  0.00000000000E+00  0.00000000000E+00 -0.14934418014E+04  0.14934418014E+04  0.25500000920E-02 0. -1.
    10030    2    1    2    0    0  0.00000000000E+00  0.00000000000E+00  0.43968357648E+03  0.34265671793E+04  0.33982408665E+04 0.  0.
        5    1    3    3  502    0 -0.26261271102E+03  0.13441831832E+04 -0.79412188702E+03  0.15831757727E+04  0.46999998093E+01 0. -1.
       -5    1    3    3    0  502  0.26261271102E+03 -0.13441831832E+04  0.12338054635E+04  0.18433914065E+04  0.46999998093E+01 0.  1.
</event>
<event>
 5   0  0.4946315E-08  0.3398487E+04  0.7818609E-02  0.8138278E-01
        2   -1    0    0  501    0  0.00000000000E+00  0.00000000000E+00  0.21966816726E+04  0.21966816726E+04  0.25500000920E-02 0. -1.
       -2   -1    0    0    0  501  0.00000000000E+00  0.00000000000E+00 -0.13144498612E+04  0.13144498612E+04  0.25500000920E-02 0.  1.
    10030    2    1    2    0    0  0.00000000000E+00  0.00000000000E+00  0.88223181146E+03  0.35111315338E+04  0.33984866748E+04 0.  0.
        3    1    3    3  502    0 -0.16230303932E+04  0.41788728693E+03  0.73071099773E+03  0.18283314836E+04  0.10100000352E+00 0. -1.
       -3    1    3    3    0  502  0.16230303932E+04 -0.41788728693E+03  0.15152081373E+03  0.16828000502E+04  0.10100000352E+00 0.  1.
</event>
<event>
 5   0  0.4775023E-08  0.3398714E+04  0.7818609E-02  0.8138222E-01
        2   -1    0    0  501    0  0.00000000000E+00  0.00000000000E+00  0.21470543298E+04  0.21470543298E+04  0.25500000920E-02 0.  1.
       -2   -1    0    0    0  501  0.00000000000E+00  0.00000000000E+00 -0.13450118726E+04  0.13450118726E+04  0.25500000920E-02 0. -1.
    10030    2    1    2    0    0  0.00000000000E+00  0.00000000000E+00  0.80204245721E+03  0.34920662024E+04  0.33987136183E+04 0.  0.
        4    1    3    3  502    0 -0.58790159800E+03 -0.15943937671E+04  0.39115656050E+03  0.17437674275E+04  0.12699999809E+01 0. -1.
       -4    1    3    3    0  502  0.58790159800E+03  0.15943937671E+04  0.41088589671E+03  0.17482987749E+04  0.12699999809E+01 0.  1.
</event>
<event>
 5   0  0.4764953E-08  0.3400551E+04  0.7818609E-02  0.8137771E-01
        2   -1    0    0  501    0  0.00000000000E+00  0.00000000000E+00  0.18222567252E+04  0.18222567252E+04  0.25500000920E-02 0.  1.
       -2   -1    0    0    0  501  0.00000000000E+00  0.00000000000E+00 -0.15864598882E+04  0.15864598882E+04  0.25500000920E-02 0. -1.
    10030    2    1    2    0    0  0.00000000000E+00  0.00000000000E+00  0.23579683697E+03  0.34087166134E+04  0.34005512497E+04 0.  0.
        2    1    3    3  502    0  0.11119664250E+03 -0.14885629109E+04 -0.69815279195E+03  0.16479082359E+04  0.25500000920E-02 0. -1.
       -2    1    3    3    0  502 -0.11119664250E+03  0.14885629109E+04  0.93394962892E+03  0.17608083775E+04  0.25500000920E-02 0.  1.
</event>
<event>
 5   0  0.4764953E-08  0.3398779E+04  0.7818609E-02  0.8138206E-01
       -2   -1    0    0    0  501  0.00000000000E+00  0.00000000000E+00  0.13201622161E+04  0.13201622161E+04  0.25500000920E-02 0.  1.
        2   -1    0    0  501    0  0.00000000000E+00  0.00000000000E+00 -0.21875529208E+04  0.21875529208E+04  0.25500000920E-02 0. -1.
    10030    2    1    2    0    0  0.00000000000E+00  0.00000000000E+00 -0.86739070478E+03  0.35077151369E+04  0.33987790229E+04 0.  0.
        2    1    3    3  502    0  0.14785120156E+04  0.83780961699E+03 -0.43514649147E+03  0.17542164073E+04  0.25500000920E-02 0.  1.
       -2    1    3    3    0  502 -0.14785120156E+04 -0.83780961699E+03 -0.43224421332E+03  0.17534987296E+04  0.25500000920E-02 0. -1.
</event>
<event>
 5   0  0.4764953E-08  0.3400485E+04  0.7818609E-02  0.8137787E-01
        2   -1    0    0  501    0  0.00000000000E+00  0.00000000000E+00  0.19079213290E+04  0.19079213290E+04  0.25500000920E-02 0.  1.
       -2   -1    0    0    0  501  0.00000000000E+00  0.00000000000E+00 -0.15151694672E+04  0.15151694672E+04  0.25500000920E-02 0. -1.
    10030    2    1    2    0    0  0.00000000000E+00  0.00000000000E+00  0.39275186182E+03  0.34230907962E+04  0.34004847557E+04 0.  0.
        2    1    3    3  502    0 -0.81686892265E+03 -0.10364702238E+04 -0.88279510552E+03  0.15877255934E+04  0.25500000920E-02 0. -1.
       -2    1    3    3    0  502  0.81686892265E+03  0.10364702238E+04  0.12755469673E+04  0.18353652028E+04  0.25500000920E-02 0.  1.
</event>
<event>
 5   0  0.4946315E-08  0.3398696E+04  0.7818609E-02  0.8138226E-01
        2   -1    0    0  501    0  0.00000000000E+00  0.00000000000E+00  0.18675776106E+04  0.18675776106E+04  0.25500000920E-02 0. -1.
       -2   -1    0    0    0  501  0.00000000000E+00  0.00000000000E+00 -0.15462728016E+04  0.15462728016E+04  0.25500000920E-02 0.  1.
    10030    2    1    2    0    0  0.00000000000E+00  0.00000000000E+00  0.32130480905E+03  0.34138504122E+04  0.33986964937E+04 0.  0.
        3    1    3    3  502    0  0.10535094449E+04  0.75423978353E+03 -0.94380680783E+03  0.16029757023E+04  0.10100000352E+00 0.  1.
       -3    1    3    3    0  502 -0.10535094449E+04 -0.75423978353E+03  0.12651116169E+04  0.18108747099E+04  0.10100000352E+00 0. -1.
</event>
<event>
 5   0  0.4775023E-08  0.3395667E+04  0.7818609E-02  0.8138971E-01
        2   -1    0    0  501    0  0.00000000000E+00  0.00000000000E+00  0.19184959034E+04  0.19184959035E+04  0.25500000920E-02 0. -1.
       -2   -1    0    0    0  501  0.00000000000E+00  0.00000000000E+00 -0.15025512416E+04  0.15025512416E+04  0.25500000920E-02 0.  1.
    10030    2    1    2    0    0  0.00000000000E+00  0.00000000000E+00  0.41594466185E+03  0.34210471451E+04  0.33956668869E+04 0.  0.
        4    1    3    3  502    0 -0.44174049377E+02 -0.13513400344E+04 -0.82662361021E+03  0.15847332397E+04  0.12699999809E+01 0.  1.
       -4    1    3    3    0  502  0.44174049377E+02  0.13513400344E+04  0.12425682721E+04  0.18363139053E+04  0.12699999809E+01 0. -1.
</event>
<event>
 5   0  0.4973409E-08  0.3401541E+04  0.7818609E-02  0.8137528E-01
       -2   -1    0    0    0  501  0.00000000000E+00  0.00000000000E+00  0.13903935563E+04  0.13903935563E+04  0.25500000920E-02 0.  1.
        2   -1    0    0  501    0  0.00000000000E+00  0.00000000000E+00 -0.20804328014E+04  0.20804328014E+04  0.25500000920E-02 0. -1.
    10030    2    1    2    0    0  0.00000000000E+00  0.00000000000E+00 -0.69003924517E+03  0.34708263577E+04  0.34015410398E+04 0.  0.
        1    1    3    3  502    0  0.32557208812E+03  0.12745194668E+04 -0.14450431188E+04  0.19541101993E+04  0.50400001928E-02 0. -1.
       -1    1    3    3    0  502 -0.32557208812E+03 -0.12745194668E+04  0.75500387365E+03  0.15167161584E+04  0.50400001928E-02 0.  1.
</event>
<event>
 5   0  0.1625282E-08  0.3400643E+04  0.7818609E-02  0.8137749E-01
       -1   -1    0    0    0  501  0.00000000000E+00  0.00000000000E+00  0.11121731363E+04  0.11121731363E+04  0.50400001928E-02 0.  1.
        1   -1    0    0  501    0  0.00000000000E+00  0.00000000000E+00 -0.25994991540E+04  0.25994991540E+04  0.50400001928E-02 0. -1.
    10030    2    1    2    0    0  0.00000000000E+00  0.00000000000E+00 -0.14873260177E+04  0.37116722903E+04  0.34006429551E+04 0.  0.
        1    1    3    3  502    0  0.16279006757E+04 -0.16030937961E+03 -0.12501453491E+04  0.20587916604E+04  0.50400001928E-02 0. -1.
       -1    1    3    3    0  502 -0.16279006757E+04  0.16030937961E+03 -0.23718066858E+03  0.16528806299E+04  0.50400001928E-02 0.  1.
</event>
<event>
 5   0  0.1630571E-08  0.3397109E+04  0.7818609E-02  0.8138616E-01
        1   -1    0    0  501    0  0.00000000000E+00  0.00000000000E+00  0.26586636583E+04  0.26586636583E+04  0.50400001928E-02 0. -1.
       -1   -1    0    0    0  501  0.00000000000E+00  0.00000000000E+00 -0.10851641877E+04  0.10851641877E+04  0.50400001928E-02 0.  1.
    10030    2    1    2    0    0  0.00000000000E+00  0.00000000000E+00  0.15734994706E+04  0.37438278460E+04  0.33971085289E+04 0.  0.
        3    1    3    3  502    0 -0.13443825936E+04  0.10015769356E+04  0.10876869455E+04  0.19983953106E+04  0.10100000352E+00 0. -1.
       -3    1    3    3    0  502  0.13443825936E+04 -0.10015769356E+04  0.48581252507E+03  0.17454325354E+04  0.10100000352E+00 0.  1.
</event>
<event>
 5   0  0.1625282E-08  0.3399398E+04  0.7818609E-02  0.8138054E-01
        1   -1    0    0  501    0  0.00000000000E+00  0.00000000000E+00  0.17891782985E+04  0.17891782985E+04  0.50400001928E-02 0.  1.
       -1   -1    0    0    0  501  0.00000000000E+00  0.00000000000E+00 -0.16146949417E+04  0.16146949417E+04  0.50400001928E-02 0. -1.
    10030    2    1    2    0    0  0.00000000000E+00  0.00000000000E+00  0.17448335673E+03  0.34038732402E+04  0.33993982693E+04 0.  0.
        1    1    3    3  502    0 -0.12809172295E+04  0.10361401014E+03 -0.10266490492E+04  0.16448383149E+04  0.50400001928E-02 0. -1.
       -1    1    3    3    0  502  0.12809172295E+04 -0.10361401014E+03  0.12011324059E+04  0.17590349253E+04  0.50400001928E-02 0.  1.
</event>
<event>
 5   0  0.4775023E-08  0.3399767E+04  0.7818609E-02  0.8137963E-01
        2   -1    0    0  501    0  0.00000000000E+00  0.00000000000E+00  0.22910015898E+04  0.22910015898E+04  0.25500000920E-02 0.  1.
       -2   -1    0    0    0  501  0.00000000000E+00  0.00000000000E+00 -0.12612842931E+04  0.12612842931E+04  0.25500000920E-02 0. -1.
    10030    2    1    2    0    0  0.00000000000E+00  0.00000000000E+00  0.10297172967E+04  0.35522858829E+04  0.33997672395E+04 0.  0.
        4    1    3    3  502    0  0.27245958921E+03  0.69225115262E+03 -0.10821590226E+04  0.13132081515E+04  0.12699999809E+01 0. -1.
       -4    1    3    3    0  502 -0.27245958921E+03 -0.69225115262E+03  0.21118763194E+04  0.22390777314E+04  0.12699999809E+01 0.  1.
</event>
<event>
 5   0  0.4764953E-08  0.3400365E+04  0.7818609E-02  0.8137817E-01
        2   -1    0    0  501    0  0.00000000000E+00  0.00000000000E+00  0.19293762799E+04  0.19293762799E+04  0.25500000920E-02 0. -1.
       -2   -1    0    0    0  501  0.00000000000E+00  0.00000000000E+00 -0.14982146311E+04  0.14982146311E+04  0.25500000920E-02 0.  1.
    10030    2    1    2    0    0  0.00000000000E+00  0.00000000000E+00  0.43116164879E+03  0.34275909110E+04  0.34003645519E+04 0.  0.
        2    1    3    3  502    0  0.45664493073E+03 -0.77758642072E+03  0.16684592228E+04  0.18965551436E+04  0.25500000920E-02 0. -1.
       -2    1    3    3    0  502 -0.45664493073E+03  0.77758642072E+03 -0.12372975740E+04  0.15310357674E+04  0.25500000920E-02 0.  1.
</event>
<event>
 5   0  0.4764953E-08  0.3399141E+04  0.7818609E-02  0.8138117E-01
        2   -1    0    0  501    0  0.00000000000E+00  0.00000000000E+00  0.21170961630E+04  0.21170961630E+04  0.25500000920E-02 0. -1.
       -2   -1    0    0    0  501  0.00000000000E+00  0.00000000000E+00 -0.13643872938E+04  0.13643872938E+04  0.25500000920E-02 0.  1.
    10030    2    1    2    0    0  0.00000000000E+00  0.00000000000E+00  0.75270886927E+03  0.34814834568E+04  0.33991405411E+04 0.  0.
        2    1    3    3  502    0  0.43754907212E+02 -0.41410593460E+03  0.20640394697E+04  0.21056251208E+04  0.25500000920E-02 0. -1.
       -2    1    3    3    0  502 -0.43754907212E+02  0.41410593460E+03 -0.13113306004E+04  0.13758583360E+04  0.25500000920E-02 0.  1.
</event>
<event>
 5   0  0.4973409E-08  0.3403959E+04  0.7818609E-02  0.8136935E-01
       -2   -1    0    0    0  501  0.00000000000E+00  0.00000000000E+00  0.17190692940E+04  0.17190692940E+04  0.25500000920E-02 0. -1.
        2   -1    0    0  501    0  0.00000000000E+00  0.00000000000E+00 -0.16850600456E+04  0.16850600456E+04  0.25500000920E-02 0.  1.
    10030    2    1    2    0    0  0.00000000000E+00  0.00000000000E+00  0.34009248468E+02  0.34041293396E+04  0.34039594492E+04 0.  0.
        1    1    3    3  502    0  0.15646357762E+04  0.20720721963E+03  0.65399405749E+03  0.17084285678E+04  0.50400001928E-02 0. -1.
       -1    1    3    3    0  502 -0.15646357762E+04 -0.20720721963E+03 -0.61998480903E+03  0.16957007718E+04  0.50400001928E-02 0.  1.
</event>
<event>
 5   0  0.5001197E-08  0.3399579E+04  0.7818609E-02  0.8138010E-01
        2   -1    0    0  501    0  0.00000000000E+00  0.00000000000E+00  0.18259060237E+04  0.18259060237E+04  0.25500000920E-02 0. -1.
       -2   -1    0    0    0  501  0.00000000000E+00  0.00000000000E+00 -0.15823836054E+04  0.15823836054E+04  0.25500000920E-02 0.  1.
    10030    2    1    2    0    0  0.00000000000E+00  0.00000000000E+00  0.24352241831E+03  0.34082896290E+04  0.33995786544E+04 0.  0.
        5    1    3    3  502    0 -0.14656625948E+04  0.14351516904E+02  0.98471577614E+03  0.17658029498E+04  0.46999998093E+01 0. -1.
       -5    1    3    3    0  502  0.14656625948E+04 -0.14351516904E+02 -0.74119335783E+03  0.16424866792E+04  0.46999998093E+01 0.  1.
</event>
<event>
 5   0  0.1595851E-08  0.3400155E+04  0.7818609E-02  0.8137868E-01
       -1   -1    0    0    0  501  0.00000000000E+00  0.00000000000E+00  0.12798972927E+04  0.12798972927E+04  0.50400001928E-02 0.  1.
        1   -1    0    0  501    0  0.00000000000E+00  0.00000000000E+00 -0.22581991837E+04  0.22581991837E+04  0.50400001928E-02 0. -1.
    10030    2    1    2    0    0  0.00000000000E+00  0.00000000000E+00 -0.97830189101E+03  0.35380964764E+04  0.34001547151E+04 0.  0.
        2    1    3    3  502    0  0.98800635775E+03 -0.13347408483E+04 -0.86802866704E+03  0.18738098788E+04  0.25500000920E-02 0.  1.
       -2    1    3    3    0  502 -0.98800635775E+03  0.13347408483E+04 -0.11027322397E+03  0.16642865976E+04  0.25500000920E-02 0. -1.
</event>
<event>
 5   0  0.1630571E-08  0.3400393E+04  0.7818609E-02  0.8137810E-01
       -1   -1    0    0    0  501  0.00000000000E+00  0.00000000000E+00  0.11350026018E+04  0.11350026018E+04  0.50400001928E-02 0.  1.
        1   -1    0    0  501    0  0.00000000000E+00  0.00000000000E+00 -0.25468388951E+04  0.25468388951E+04  0.50400001928E-02 0. -1.
    10030    2    1    2    0    0  0.00000000000E+00  0.00000000000E+00 -0.14118362933E+04  0.36818414969E+04  0.34003933727E+04 0.  0.
        3    1    3    3  502    0 -0.96192032092E+03 -0.12615735539E+04 -0.43912770657E+02  0.15870686429E+04  0.10100000352E+00 0.  1.
       -3    1    3    3    0  502  0.96192032092E+03  0.12615735539E+04 -0.13679235227E+04  0.20947728540E+04  0.10100000352E+00 0. -1.
</event>
<event>
 5   0  0.1625282E-08  0.3404186E+04  0.7818609E-02  0.8136880E-01
       -1   -1    0    0    0  501  0.00000000000E+00  0.00000000000E+00  0.15319372707E+04  0.15319372707E+04  0.50400001928E-02 0.  1.
        1   -1    0    0  501    0  0.00000000000E+00  0.00000000000E+00 -0.18911486057E+04  0.18911486057E+04  0.50400001928E-02 0. -1.
    10030    2    1    2    0    0  0.00000000000E+00  0.00000000000E+00 -0.35921133497E+03  0.34230858764E+04  0.34041862661E+04 0.  0.
        1    1    3    3  502    0 -0.24943186915E+03  0.13848231678E+04  0.78340100874E+03  0.16104870704E+04  0.50400001928E-02 0.  1.
       -1    1    3    3    0  502  0.24943186915E+03 -0.13848231678E+04 -0.11426123437E+04  0.18125988060E+04  0.50400001928E-02 0. -1.
</event>
<event>
 5   0  0.1595851E-08  0.3398768E+04  0.7818609E-02  0.8138209E-01
       -1   -1    0    0    0  501  0.00000000000E+00  0.00000000000E+00  0.12405557391E+04  0.12405557391E+04  0.50400001928E-02 0.  1.
        1   -1    0    0  501    0  0.00000000000E+00  0.00000000000E+00 -0.23279128992E+04  0.23279128992E+04  0.50400001928E-02 0. -1.
    10030    2    1    2    0    0  0.00000000000E+00  0.00000000000E+00 -0.10873571602E+04  0.35684686383E+04  0.33987678398E+04 0.  0.
        2    1    3    3  502    0 -0.46406752073E+02 -0.67641211746E+03 -0.21797576539E+04  0.22827681374E+04  0.25500000920E-02 0. -1.
       -2    1    3    3    0  502  0.46406752073E+02  0.67641211746E+03  0.10924004937E+04  0.12857005009E+04  0.25500000920E-02 0.  1.
</event>
<event>
 5   0  0.4946315E-08  0.3402938E+04  0.7818609E-02  0.8137186E-01
       -2   -1    0    0    0  501  0.00000000000E+00  0.00000000000E+00  0.15718044888E+04  0.15718044888E+04  0.25500000920E-02 0.  1.
        2   -1    0    0  501    0  0.00000000000E+00  0.00000000000E+00 -0.18418300793E+04  0.18418300793E+04  0.25500000920E-02 0. -1.
    10030    2    1    2    0    0  0.00000000000E+00  0.00000000000E+00 -0.27002559053E+03  0.34136345681E+04  0.34029380166E+04 0.  0.
        3    1    3    3  502    0 -0.23334850316E+03 -0.12164362430E+04  0.10351994179E+04  0.16142510654E+04  0.10100000352E+00 0.  1.
       -3    1    3    3    0  502  0.23334850316E+03  0.12164362430E+04 -0.13052250084E+04  0.17993835027E+04  0.10100000352E+00 0. -1.
</event>
<event>
 5   0  0.1595851E-08  0.3399876E+04  0.7818609E-02  0.8137937E-01
       -1   -1    0    0    0  501  0.00000000000E+00  0.00000000000E+00  0.25826534805E+04  0.25826534805E+04  0.50400001928E-02 0. -1.
        1   -1    0    0  501    0  0.00000000000E+00  0.00000000000E+00 -0.11189226718E+04  0.11189226718E+04  0.50400001928E-02 0.  1.
    10030    2    1    2    0    0  0.00000000000E+00  0.00000000000E+00  0.14637308087E+04  0.37015761523E+04  0.33998761934E+04 0.  0.
        2    1    3    3  502    0  0.10057629663E+04 -0.73667556733E+03 -0.52634118171E+03  0.13532498200E+04  0.25500000920E-02 0.  1.
       -2    1    3    3    0  502 -0.10057629663E+04  0.73667556733E+03  0.19900719904E+04  0.23483263323E+04  0.25500000920E-02 0. -1.
</event>
<event>
 5   0  0.5001197E-08  0.3399720E+04  0.7818609E-02  0.8137975E-01
       -2   -1    0    0    0  501  0.00000000000E+00  0.00000000000E+00  0.21619174247E+04  0.21619174247E+04  0.25500000920E-02 0.  1.
        2   -1    0    0  501    0  0.00000000000E+00  0.00000000000E+00 -0.13365565238E+04  0.13365565238E+04  0.25500000920E-02 0. -1.
    10030    2    1    2    0    0  0.00000000000E+00  0.00000000000E+00  0.82536090083E+03  0.34984739485E+04  0.33997204814E+04 0.  0.
        5    1    3    3  502    0 -0.10894870204E+04 -0.11221025955E+03 -0.92505348391E+03  0.14336384300E+04  0.46999998093E+01 0. -1.
       -5    1    3    3    0  502  0.10894870204E+04  0.11221025955E+03  0.17504143847E+04  0.20648355185E+04  0.46999998093E+01 0.  1.
</event>
<event>
 5   0  0.4775023E-08  0.3398922E+04  0.7818609E-02  0.8138171E-01
        2   -1    0    0  501    0  0.00000000000E+00  0.00000000000E+00  0.22167655220E+04  0.22167655220E+04  0.25500000920E-02 0. -1.
       -2   -1    0    0    0  501  0.00000000000E+00  0.00000000000E+00 -0.13028750580E+04  0.13028750580E+04  0.25500000920E-02 0.  1.
    10030    2    1    2    0    0  0.00000000000E+00  0.00000000000E+00  0.91389046405E+03  0.35196405800E+04  0.33989224811E+04 0.  0.
        4    1    3    3  502    0 -0.68552133359E+03 -0.15264641736E+04  0.76436379329E+03  0.18396428984E+04  0.12699999809E+01 0. -1.
       -4    1    3    3    0  502  0.68552133359E+03  0.15264641736E+04  0.14952667076E+03  0.16799976816E+04  0.12699999809E+01 0.  1.
</event>
<event>
 5   0  0.1579536E-08  0.3388951E+04  0.7818609E-02  0.8140623E-01
       -1   -1    0    0    0  501  0.00000000000E+00  0.00000000000E+00  0.12618117216E+04  0.12618117217E+04  0.50400001928E-02 0. -1.
        1   -1    0    0  501    0  0.00000000000E+00  0.00000000000E+00 -0.22754960749E+04  0.22754960749E+04  0.50400001928E-02 0.  1.
    10030    2    1    2    0    0  0.00000000000E+00  0.00000000000E+00 -0.10136843532E+04  0.35373077965E+04  0.33889512359E+04 0.  0.
        5    1    3    3  502    0  0.98102667074E+03 -0.13621935495E+04 -0.74768314698E+03  0.18376715629E+04  0.46999998093E+01 0.  1.
       -5    1    3    3    0  502 -0.98102667074E+03  0.13621935495E+04 -0.26600120627E+03  0.16996362336E+04  0.46999998093E+01 0. -1.
</event>
<event>
 5   0  0.1630571E-08  0.3398888E+04  0.7818609E-02  0.8138179E-01
       -1   -1    0    0    0  501  0.00000000000E+00  0.00000000000E+00  0.13173699294E+04  0.13173699294E+04  0.50400001928E-02 0.  1.
        1   -1    0    0  501    0  0.00000000000E+00  0.00000000000E+00 -0.21923306417E+04  0.21923306417E+04  0.50400001928E-02 0. -1.
    10030    2    1    2    0    0  0.00000000000E+00  0.00000000000E+00 -0.87496071234E+03  0.35097005712E+04  0.33988883258E+04 0.  0.
        3    1    3    3  502    0  0.89405786427E+03  0.26202820928E+03 -0.19051250106E+04  0.21207309031E+04  0.10100000352E+00 0. -1.
       -3    1    3    3    0  502 -0.89405786427E+03 -0.26202820928E+03  0.10301642983E+04  0.13889696680E+04  0.10100000352E+00 0.  1.
</event>
<event>
 5   0  0.1625282E-08  0.3402019E+04  0.7818609E-02  0.8137411E-01
       -1   -1    0    0    0  501  0.00000000000E+00  0.00000000000E+00  0.24576888426E+04  0.24576888426E+04  0.50400001928E-02 0.  1.
        1   -1    0    0  501    0  0.00000000000E+00  0.00000000000E+00 -0.11772985189E+04  0.11772985189E+04  0.50400001928E-02 0. -1.
    10030    2    1    2    0    0  0.00000000000E+00  0.00000000000E+00  0.12803903237E+04  0.36349873615E+04  0.34020190677E+04 0.  0.
        1    1    3    3  502    0 -0.44127595854E+03 -0.16325098947E+04  0.83611014030E+03  0.18865029008E+04  0.50400001928E-02 0. -1.
       -1    1    3    3    0  502  0.44127595854E+03  0.16325098947E+04  0.44428018340E+03  0.17484844607E+04  0.50400001928E-02 0.  1.
</event>
<event>
 5   0  0.1579536E-08  0.3399451E+04  0.7818609E-02  0.8138041E-01
        1   -1    0    0  501    0  0.00000000000E+00  0.00000000000E+00  0.29480048154E+04  0.29480048154E+04  0.50400001928E-02 0. -1.
       -1   -1    0    0    0  501  0.00000000000E+00  0.00000000000E+00 -0.98000741176E+03  0.98000741177E+03  0.50400001928E-02 0.  1.
    10030    2    1    2    0    0  0.00000000000E+00  0.00000000000E+00  0.19679974037E+04  0.39280122272E+04  0.33994508786E+04 0.  0.
        5    1    3    3  502    0 -0.51551947425E+02 -0.14545304981E+04  0.19984112269E+04  0.24722431302E+04  0.46999998093E+01 0. -1.
       -5    1    3    3    0  502  0.51551947425E+02  0.14545304981E+04 -0.30413823186E+02  0.14557690970E+04  0.46999998093E+01 0.  1.
</event>
<event>
 5   0  0.4764953E-08  0.3400498E+04  0.7818609E-02  0.8137784E-01
        2   -1    0    0  501    0  0.00000000000E+00  0.00000000000E+00  0.22245620409E+04  0.22245620409E+04  0.25500000920E-02 0. -1.
       -2   -1    0    0    0  501  0.00000000000E+00  0.00000000000E+00 -0.12995125291E+04  0.12995125292E+04  0.25500000920E-02 0.  1.
    10030    2    1    2    0    0  0.00000000000E+00  0.00000000000E+00  0.92504951177E+03  0.35240745701E+04  0.34004977542E+04 0.  0.
        2    1    3    3  502    0  0.45929986528E+03 -0.76032234483E+02 -0.12321725858E+04  0.13171888809E+04  0.25500000920E-02 0.  1.
       -2    1    3    3    0  502 -0.45929986528E+03  0.76032234483E+02  0.21572220975E+04  0.22068856891E+04  0.25500000920E-02 0. -1.
</event>
<event>
 5   0  0.1595851E-08  0.3400926E+04  0.7818609E-02  0.8137679E-01
       -1   -1    0    0    0  501  0.00000000000E+00  0.00000000000E+00  0.11846290146E+04  0.11846290146E+04  0.50400001928E-02 0. -1.
        1   -1    0    0  501    0  0.00000000000E+00  0.00000000000E+00 -0.24409109200E+04  0.24409109200E+04  0.50400001928E-02 0.  1.
    10030    2    1    2    0    0  0.00000000000E+00  0.00000000000E+00 -0.12562819054E+04  0.36255399345E+04  0.34009256962E+04 0.  0.
        2    1    3    3  502    0 -0.14741515807E+04  0.41584993705E+03  0.15923260621E+03  0.15399380104E+04  0.25500000920E-02 0. -1.
       -2    1    3    3    0  502  0.14741515807E+04 -0.41584993705E+03 -0.14155145116E+04  0.20856019241E+04  0.25500000920E-02 0.  1.
</event>
<event>
 5   0  0.5001197E-08  0.3400118E+04  0.7818609E-02  0.8137877E-01
       -2   -1    0    0    0  501  0.00000000000E+00  0.00000000000E+00  0.14155517168E+04  0.14155517168E+04  0.25500000920E-02 0. -1.
        2   -1    0    0  501    0  0.00000000000E+00  0.00000000000E+00 -0.20417488742E+04  0.20417488742E+04  0.25500000920E-02 0.  1.
    10030    2    1    2    0    0  0.00000000000E+00  0.00000000000E+00 -0.62619715736E+03  0.34573005910E+04  0.34001183063E+04 0.  0.
        5    1    3    3  502    0  0.13767715173E+04 -0.72037218523E+03  0.38824266383E+03  0.16016211637E+04  0.46999998093E+01 0. -1.
       -5    1    3    3    0  502 -0.13767715173E+04  0.72037218523E+03 -0.10144398212E+04  0.18556794273E+04  0.46999998093E+01 0.  1.
</event>
<event>
 5   0  0.1625282E-08  0.3400458E+04  0.7818609E-02  0.8137794E-01
        1   -1    0    0  501    0  0.00000000000E+00  0.00000000000E+00  0.14728320906E+04  0.14728320906E+04  0.50400001928E-02 0. -1.
       -1   -1    0    0    0  501  0.00000000000E+00  0.00000000000E+00 -0.19627350344E+04  0.19627350344E+04  0.50400001928E-02 0.  1.
    10030    2    1    2    0    0  0.00000000000E+00  0.00000000000E+00 -0.48990294380E+03  0.34355671250E+04  0.34004582891E+04 0.  0.
        1    1    3    3  502    0  0.32808135437E+03 -0.14894223445E+04  0.51431469201E+03  0.16095141807E+04  0.50400001928E-02 0. -1.
       -1    1    3    3    0  502 -0.32808135437E+03  0.14894223445E+04 -0.10042176358E+04  0.18260529443E+04  0.50400001928E-02 0.  1.
</event>
<event>
 5   0  0.4946315E-08  0.3398200E+04  0.7818609E-02  0.8138348E-01
       -2   -1    0    0    0  501  0.00000000000E+00  0.00000000000E+00  0.13815427254E+04  0.13815427254E+04  0.25500000920E-02 0.  1.
        2   -1    0    0  501    0  0.00000000000E+00  0.00000000000E+00 -0.20896496077E+04  0.20896496077E+04  0.25500000920E-02 0. -1.
    10030    2    1    2    0    0  0.00000000000E+00  0.00000000000E+00 -0.70810688232E+03  0.34711923331E+04  0.33981996493E+04 0.  0.
        3    1    3    3  502    0  0.32810729506E+03 -0.10949160263E+04  0.93010745064E+03  0.14736333946E+04  0.10100000352E+00 0.  1.
       -3    1    3    3    0  502 -0.32810729506E+03  0.10949160263E+04 -0.16382143330E+04  0.19975589385E+04  0.10100000352E+00 0. -1.
</event>
<event>
 5   0  0.5001197E-08  0.3402890E+04  0.7818609E-02  0.8137197E-01
       -2   -1    0    0    0  501  0.00000000000E+00  0.00000000000E+00  0.15035255871E+04  0.15035255871E+04  0.25500000920E-02 0.  1.
        2   -1    0    0  501    0  0.00000000000E+00  0.00000000000E+00 -0.19254177627E+04  0.19254177627E+04  0.25500000920E-02 0. -1.
    10030    2    1    2    0    0  0.00000000000E+00  0.00000000000E+00 -0.42189217559E+03  0.34289433498E+04  0.34028898731E+04 0.  0.
        5    1    3    3  502    0  0.53527454413E+03  0.11765285888E+04  0.90394005882E+03  0.15772977137E+04  0.46999998093E+01 0. -1.
       -5    1    3    3    0  502 -0.53527454413E+03 -0.11765285888E+04 -0.13258322344E+04  0.18516456361E+04  0.46999998093E+01 0.  1.
</event>
<event>
 5   0  0.5001197E-08  0.3398664E+04  0.7818609E-02  0.8138234E-01
       -2   -1    0    0    0  501  0.00000000000E+00  0.00000000000E+00  0.16000637566E+04  0.16000637566E+04  0.25500000920E-02 0.  1.
        2   -1    0    0  501    0  0.00000000000E+00  0.00000000000E+00 -0.18047593544E+04  0.18047593544E+04  0.25500000920E-02 0. -1.
    10030    2    1    2    0    0  0.00000000000E+00  0.00000000000E+00 -0.20469559782E+03  0.34048231110E+04  0.33986644626E+04 0.  0.
        5    1    3    3  502    0  0.13632125012E+04 -0.75680225862E+03 -0.77930147987E+03  0.17431095401E+04  0.46999998093E+01 0. -1.
       -5    1    3    3    0  502 -0.13632125012E+04  0.75680225862E+03  0.57460588206E+03  0.16617135709E+04  0.46999998093E+01 0.  1.
</event>
<event>
 5   0  0.4946315E-08  0.3398313E+04  0.7818609E-02  0.8138320E-01
       -2   -1    0    0    0  501  0.00000000000E+00  0.00000000000E+00  0.12823728729E+04  0.12823728729E+04  0.25500000920E-02 0.  1.
        2   -1    0    0  501    0  0.00000000000E+00  0.00000000000E+00 -0.22513994778E+04  0.22513994778E+04  0.25500000920E-02 0. -1.
    10030    2    1    2    0    0  0.00000000000E+00  0.00000000000E+00 -0.96902660484E+03  0.35337723507E+04  0.33983134737E+04 0.  0.
        3    1    3    3  502    0 -0.17832375988E+03  0.11228250346E+04 -0.17976222590E+04  0.21269652602E+04  0.10100000352E+00 0. -1.
       -3    1    3    3    0  502  0.17832375988E+03 -0.11228250346E+04  0.82859565416E+03  0.14068070906E+04  0.10100000352E+00 0.  1.
</event>
<event>
 5   0  0.1625282E-08  0.3399195E+04  0.7818609E-02  0.8138104E-01
        1   -1    0    0  501    0  0.00000000000E+00  0.00000000000E+00  0.12381449298E+04  0.12381449299E+04  0.50400001928E-02 0. -1.
       -1   -1    0    0    0  501  0.00000000000E+00  0.00000000000E+00 -0.23330318542E+04  0.23330318542E+04  0.50400001928E-02 0.  1.
    10030    2    1    2    0    0  0.00000000000E+00  0.00000000000E+00 -0.10948869243E+04  0.35711767840E+04  0.33991949408E+04 0.  0.
        1    1    3    3  502    0 -0.58385989088E+03  0.62365740560E+03  0.99617704673E+03  0.13123298519E+04  0.50400001928E-02 0. -1.
       -1    1    3    3    0  502  0.58385989088E+03 -0.62365740560E+03 -0.20910639711E+04  0.22588469321E+04  0.50400001928E-02 0.  1.
</event>
<event>
 5   0  0.1645631E-08  0.3400640E+04  0.7818609E-02  0.8137749E-01
        1   -1    0    0  501    0  0.00000000000E+00  0.00000000000E+00  0.21536271977E+04  0.21536271977E+04  0.50400001928E-02 0. -1.
       -1   -1    0    0    0  501  0.00000000000E+00  0.00000000000E+00 -0.13424271251E+04  0.13424271251E+04  0.50400001928E-02 0.  1.
    10030    2    1    2    0    0  0.00000000000E+00  0.00000000000E+00  0.81120007261E+03  0.34960543227E+04  0.34006396854E+04 0.  0.
        4    1    3    3  502    0 -0.93032511372E+03 -0.87750823496E+03 -0.74635721901E+03  0.14807350306E+04  0.12699999809E+01 0.  1.
       -4    1    3    3    0  502  0.93032511372E+03  0.87750823496E+03  0.15575572916E+04  0.20153192921E+04  0.12699999809E+01 0. -1.
</event>
<event>
 5   0  0.1579536E-08  0.3399691E+04  0.7818609E-02  0.8137982E-01
        1   -1    0    0  501    0  0.00000000000E+00  0.00000000000E+00  0.16171534895E+04  0.16171534895E+04  0.50400001928E-02 0. -1.
       -1   -1    0    0    0  501  0.00000000000E+00  0.00000000000E+00 -0.17867660050E+04  0.17867660050E+04  0.50400001928E-02 0.  1.
    10030    2    1    2    0    0  0.00000000000E+00  0.00000000000E+00 -0.16961251552E+03  0.34039194945E+04  0.33996910918E+04 0.  0.
        5    1    3    3  502    0 -0.85177312751E-01 -0.12433500292E+04 -0.12453568317E+04  0.17597883482E+04  0.46999998093E+01 0.  1.
       -5    1    3    3    0  502  0.85177312751E-01  0.12433500292E+04  0.10757443162E+04  0.16441311463E+04  0.46999998093E+01 0. -1.
</event>
<event>
 5   0  0.4764953E-08  0.3404862E+04  0.7818609E-02  0.8136714E-01
       -2   -1    0    0    0  501  0.00000000000E+00  0.00000000000E+00  0.14808963861E+04  0.14808963861E+04  0.25500000920E-02 0. -1.
        2   -1    0    0  501    0  0.00000000000E+00  0.00000000000E+00 -0.19571055490E+04  0.19571055490E+04  0.25500000920E-02 0.  1.
    10030    2    1    2    0    0  0.00000000000E+00  0.00000000000E+00 -0.47620916294E+03  0.34380019352E+04  0.34048615448E+04 0.  0.
        2    1    3    3  502    0 -0.12941794209E+04  0.10837620676E+04 -0.46123036834E+03  0.17499068676E+04  0.25500000920E-02 0. -1.
       -2    1    3    3    0  502  0.12941794209E+04 -0.10837620676E+04 -0.14978794604E+02  0.16880950675E+04  0.25500000920E-02 0.  1.
</event>
<event>
 5   0  0.1630571E-08  0.3396793E+04  0.7818609E-02  0.8138694E-01
       -1   -1    0    0    0  501  0.00000000000E+00  0.00000000000E+00  0.13357795574E+04  0.13357795575E+04  0.50400001928E-02 0.  1.
        1   -1    0    0  501    0  0.00000000000E+00  0.00000000000E+00 -0.21594513498E+04  0.21594513498E+04  0.50400001928E-02 0. -1.
    10030    2    1    2    0    0  0.00000000000E+00  0.00000000000E+00 -0.82367179233E+03  0.34952309072E+04  0.33967931750E+04 0.  0.
        3    1    3    3  502    0  0.14173536971E+03  0.55047110575E+03  0.12349956101E+04  0.13595298895E+04  0.10100000352E+00 0.  1.
       -3    1    3    3    0  502 -0.14173536971E+03 -0.55047110575E+03 -0.20586674024E+04  0.21357010178E+04  0.10100000352E+00 0. -1.
</event>
<event>
 5   0  0.1645631E-08  0.3401425E+04  0.7818609E-02  0.8137557E-01
       -1   -1    0    0    0  501  0.00000000000E+00  0.00000000000E+00  0.13180945543E+04  0.13180945543E+04  0.50400001928E-02 0. -1.
        1   -1    0    0  501    0  0.00000000000E+00  0.00000000000E+00 -0.21943967906E+04  0.21943967906E+04  0.50400001928E-02 0.  1.
    10030    2    1    2    0    0  0.00000000000E+00  0.00000000000E+00 -0.87630223624E+03  0.35124913449E+04  0.34014246778E+04 0.  0.
        4    1    3    3  502    0  0.69799647575E+03  0.13562837214E+04  0.33854963306E+03  0.15624730654E+04  0.12699999809E+01 0. -1.
       -4    1    3    3    0  502 -0.69799647575E+03 -0.13562837214E+04 -0.12148518693E+04  0.19500182795E+04  0.12699999809E+01 0.  1.
</event>
<event>
 5   0  0.4775023E-08  0.3399331E+04  0.7818609E-02  0.8138071E-01
        2   -1    0    0  501    0  0.00000000000E+00  0.00000000000E+00  0.91013888787E+03  0.91013888787E+03  0.25500000920E-02 0.  1.
       -2   -1    0    0    0  501  0.00000000000E+00  0.00000000000E+00 -0.31740892465E+04  0.31740892465E+04  0.25500000920E-02 0. -1.
    10030    2    1    2    0    0  0.00000000000E+00  0.00000000000E+00 -0.22639503586E+04  0.40842281343E+04  0.33993305557E+04 0.  0.
        4    1    3    3  502    0 -0.33703607310E+03  0.83255115663E+03 -0.28656596820E+04  0.30031220037E+04  0.12699999809E+01 0. -1.
       -4    1    3    3    0  502  0.33703607310E+03 -0.83255115663E+03  0.60170932341E+03  0.10811061307E+04  0.12699999809E+01 0.  1.
</event>
<event>
 5   0  0.1645631E-08  0.3392641E+04  0.7818609E-02  0.8139715E-01
        1   -1    0    0  501    0  0.00000000000E+00  0.00000000000E+00  0.25700099650E+04  0.25700099650E+04  0.50400001928E-02 0. -1.
       -1   -1    0    0    0  501  0.00000000000E+00  0.00000000000E+00 -0.11196467395E+04  0.11196467395E+04  0.50400001928E-02 0.  1.
    10030    2    1    2    0    0  0.00000000000E+00  0.00000000000E+00  0.14503632256E+04  0.36896567045E+04  0.33926410230E+04 0.  0.
        4    1    3    3  502    0 -0.17463875765E+03  0.10942383597E+04  0.21220109528E+04  0.23939065103E+04  0.12699999809E+01 0. -1.
       -4    1    3    3    0  502  0.17463875765E+03 -0.10942383597E+04 -0.67164772722E+03  0.12957501942E+04  0.12699999809E+01 0.  1.
</event>
<event>
 5   0  0.1645631E-08  0.3392624E+04  0.7818609E-02  0.8139719E-01
       -1   -1    0    0    0  501  0.00000000000E+00  0.00000000000E+00  0.26974202596E+04  0.26974202596E+04  0.50400001928E-02 0. -1.
        1   -1    0    0  501    0  0.00000000000E+00  0.00000000000E+00 -0.10667503990E+04  0.10667503990E+04  0.50400001928E-02 0.  1.
    10030    2    1    2    0    0  0.00000000000E+00  0.00000000000E+00  0.16306698606E+04  0.37641706586E+04  0.33926238448E+04 0.  0.
        4    1    3    3  502    0  0.12309705213E+04 -0.30531525622E+03 -0.43451740754E+03  0.13406389597E+04  0.12699999809E+01 0.  1.
       -4    1    3    3    0  502 -0.12309705213E+04  0.30531525622E+03  0.20651872681E+04  0.24235316988E+04  0.12699999809E+01 0. -1.
</event>
<event>
 5   0  0.1625282E-08  0.3399356E+04  0.7818609E-02  0.8138064E-01
       -1   -1    0    0    0  501  0.00000000000E+00  0.00000000000E+00  0.18848760847E+04  0.18848760847E+04  0.50400001928E-02 0. -1.
        1   -1    0    0  501    0  0.00000000000E+00  0.00000000000E+00 -0.15326767886E+04  0.15326767886E+04  0.50400001928E-02 0.  1.
    10030    2    1    2    0    0  0.00000000000E+00  0.00000000000E+00  0.35219929611E+03  0.34175528733E+04  0.33993563063E+04 0.  0.
        1    1    3    3  502    0  0.51784978536E+03  0.84106868214E+03 -0.12145403980E+04  0.15654626494E+04  0.50400001928E-02 0.  1.
       -1    1    3    3    0  502 -0.51784978536E+03 -0.84106868214E+03  0.15667396941E+04  0.18520902239E+04  0.50400001928E-02 0. -1.
</event>
<event>
 5   0  0.4973409E-08  0.3399119E+04  0.7818609E-02  0.8138123E-01
       -2   -1    0    0    0  501  0.00000000000E+00  0.00000000000E+00  0.17795674278E+04  0.17795674278E+04  0.25500000920E-02 0.  1.
        2   -1    0    0  501    0  0.00000000000E+00  0.00000000000E+00 -0.16231486611E+04  0.16231486611E+04  0.25500000920E-02 0. -1.
    10030    2    1    2    0    0  0.00000000000E+00  0.00000000000E+00  0.15641876677E+03  0.34027160889E+04  0.33991189963E+04 0.  0.
        1    1    3    3  502    0  0.13573735861E+04 -0.86032053272E+03 -0.47544733918E+03  0.16759071107E+04  0.50400001928E-02 0. -1.
       -1    1    3    3    0  502 -0.13573735861E+04  0.86032053272E+03  0.63186610594E+03  0.17268089782E+04  0.50400001928E-02 0.  1.
</event>
<event>
 5   0  0.1630571E-08  0.3400086E+04  0.7818609E-02  0.8137885E-01
       -1   -1    0    0    0  501  0.00000000000E+00  0.00000000000E+00  0.18275285241E+04  0.18275285241E+04  0.50400001928E-02 0.  1.
        1   -1    0    0  501    0  0.00000000000E+00  0.00000000000E+00 -0.15814508657E+04  0.15814508657E+04  0.50400001928E-02 0. -1.
    10030    2    1    2    0    0  0.00000000000E+00  0.00000000000E+00  0.24607765844E+03  0.34089793898E+04  0.34000862145E+04 0.  0.
        3    1    3    3  502    0 -0.12522685456E+03 -0.28313545601E+03 -0.15529491213E+04  0.15835082681E+04  0.10100000352E+00 0. -1.
       -3    1    3    3    0  502  0.12522685456E+03  0.28313545601E+03  0.17990267798E+04  0.18254711217E+04  0.10100000352E+00 0.  1.
</event>
<event>
 5   0  0.4764953E-08  0.3399456E+04  0.7818609E-02  0.8138040E-01
        2   -1    0    0  501    0  0.00000000000E+00  0.00000000000E+00  0.17917033925E+04  0.17917033925E+04  0.25500000920E-02 0.  1.
       -2   -1    0    0    0  501  0.00000000000E+00  0.00000000000E+00 -0.16124736188E+04  0.16124736188E+04  0.25500000920E-02 0. -1.
    10030    2    1    2    0    0  0.00000000000E+00  0.00000000000E+00  0.17922977369E+03  0.34041770113E+04  0.33994555171E+04 0.  0.
        2    1    3    3  502    0 -0.13101061341E+04  0.10563488564E+04  0.32832269516E+03  0.17146564615E+04  0.25500000920E-02 0.  1.
       -2    1    3    3    0  502  0.13101061341E+04 -0.10563488564E+04 -0.14909292147E+03  0.16895205498E+04  0.25500000920E-02 0. -1.
</event>
<event>
 5   0  0.4946315E-08  0.3400149E+04  0.7818609E-02  0.8137870E-01
       -2   -1    0    0    0  501  0.00000000000E+00  0.00000000000E+00  0.23438415877E+04  0.23438415877E+04  0.25500000920E-02 0. -1.
        2   -1    0    0  501    0  0.00000000000E+00  0.00000000000E+00 -0.12331264149E+04  0.12331264149E+04  0.25500000920E-02 0.  1.
    10030    2    1    2    0    0  0.00000000000E+00  0.00000000000E+00  0.11107151728E+04  0.35769680027E+04  0.34001488051E+04 0.  0.
        3    1    3    3  502    0 -0.65735953232E+03 -0.55909905490E+03 -0.98558126184E+03  0.13099937946E+04  0.10100000352E+00 0.  1.
       -3    1    3    3    0  502  0.65735953232E+03  0.55909905490E+03  0.20962964347E+04  0.22669742081E+04  0.10100000352E+00 0. -1.
</event>
<event>
 5   0  0.1579536E-08  0.3402540E+04  0.7818609E-02  0.8137283E-01
       -1   -1    0    0    0  501  0.00000000000E+00  0.00000000000E+00  0.14429522044E+04  0.14429522044E+04  0.50400001928E-02 0. -1.
        1   -1    0    0  501    0  0.00000000000E+00  0.00000000000E+00 -0.20058313918E+04  0.20058313918E+04  0.50400001928E-02 0.  1.
    10030    2    1    2    0    0  0.00000000000E+00  0.00000000000E+00 -0.56287918734E+03  0.34487835962E+04  0.34025395389E+04 0.  0.
        5    1    3    3  502    0  0.12489213918E+04  0.64516543046E+03  0.68983962847E+03  0.15658684104E+04  0.46999998093E+01 0. -1.
       -5    1    3    3    0  502 -0.12489213918E+04 -0.64516543046E+03 -0.12527188158E+04  0.18829151858E+04  0.46999998093E+01 0.  1.
</event>
<event>
 5   0  0.4775023E-08  0.3400075E+04  0.7818609E-02  0.8137888E-01
        2   -1    0    0  501    0  0.00000000000E+00  0.00000000000E+00  0.14677098724E+04  0.14677098724E+04  0.25500000920E-02 0.  1.
       -2   -1    0    0    0  501  0.00000000000E+00  0.00000000000E+00 -0.19691404239E+04  0.19691404239E+04  0.25500000920E-02 0. -1.
    10030    2    1    2    0    0  0.00000000000E+00  0.00000000000E+00 -0.50143055152E+03  0.34368502963E+04  0.34000746111E+04 0.  0.
        4    1    3    3  502    0 -0.33544492760E+03  0.88039839420E+03  0.11796879967E+04  0.15097317690E+04  0.12699999809E+01 0.  1.
       -4    1    3    3    0  502  0.33544492760E+03 -0.88039839420E+03 -0.16811185482E+04  0.19271185272E+04  0.12699999809E+01 0. -1.
</event>
<event>
 5   0  0.4775023E-08  0.3400683E+04  0.7818609E-02  0.8137739E-01
        2   -1    0    0  501    0  0.00000000000E+00  0.00000000000E+00  0.27084220147E+04  0.27084220147E+04  0.25500000920E-02 0. -1.
       -2   -1    0    0    0  501  0.00000000000E+00  0.00000000000E+00 -0.10674707467E+04  0.10674707467E+04  0.25500000920E-02 0.  1.
    10030    2    1    2    0    0  0.00000000000E+00  0.00000000000E+00  0.16409512680E+04  0.37758927614E+04  0.34006830316E+04 0.  0.
        4    1    3    3  502    0 -0.11134287265E+04 -0.12291896031E+04  0.12367086722E+04  0.20688355571E+04  0.12699999809E+01 0.  1.
       -4    1    3    3    0  502  0.11134287265E+04  0.12291896031E+04  0.40424259579E+03  0.17070572043E+04  0.12699999809E+01 0. -1.
</event>
<event>
 5   0  0.4764953E-08  0.3399429E+04  0.7818609E-02  0.8138046E-01
        2   -1    0    0  501    0  0.00000000000E+00  0.00000000000E+00  0.16126353363E+04  0.16126353363E+04  0.25500000920E-02 0. -1.
       -2   -1    0    0    0  501  0.00000000000E+00  0.00000000000E+00 -0.17914959626E+04  0.17914959626E+04  0.25500000920E-02 0.  1.
    10030    2    1    2    0    0  0.00000000000E+00  0.00000000000E+00 -0.17886062625E+03  0.34041312989E+04  0.33994291839E+04 0.  0.
        2    1    3    3  502    0  0.12824692914E+04  0.10730028467E+03  0.10224157297E+04  0.16436467866E+04  0.25500000920E-02 0. -1.
       -2    1    3    3    0  502 -0.12824692914E+04 -0.10730028467E+03 -0.12012763560E+04  0.17604845123E+04  0.25500000920E-02 0.  1.
</event>
<event>
 5   0  0.1579536E-08  0.3398399E+04  0.7818609E-02  0.8138299E-01
       -1   -1    0    0    0  501  0.00000000000E+00  0.00000000000E+00  0.18535555862E+04  0.18535555862E+04  0.50400001928E-02 0.  1.
        1   -1    0    0  501    0  0.00000000000E+00  0.00000000000E+00 -0.15576973074E+04  0.15576973074E+04  0.50400001928E-02 0. -1.
    10030    2    1    2    0    0  0.00000000000E+00  0.00000000000E+00  0.29585827881E+03  0.34112528936E+04  0.33983987675E+04 0.  0.
        5    1    3    3  502    0 -0.10647005811E+04 -0.43227763802E+03 -0.11085262622E+04  0.15966539536E+04  0.46999998093E+01 0. -1.
       -5    1    3    3    0  502  0.10647005811E+04  0.43227763802E+03  0.14043845410E+04  0.18145989399E+04  0.46999998093E+01 0.  1.
</event>
<event>
 5   0  0.4946315E-08  0.3399740E+04  0.7818609E-02  0.8137970E-01
        2   -1    0    0  501    0  0.00000000000E+00  0.00000000000E+00  0.27278695446E+04  0.27278695446E+04  0.25500000920E-02 0. -1.
       -2   -1    0    0    0  501  0.00000000000E+00  0.00000000000E+00 -0.10592730902E+04  0.10592730902E+04  0.25500000920E-02 0.  1.
    10030    2    1    2    0    0  0.00000000000E+00  0.00000000000E+00  0.16685964544E+04  0.37871426349E+04  0.33997404620E+04 0.  0.
        3    1    3    3  502    0  0.73679292456E+03 -0.12830742177E+04  0.17665726766E+04  0.23043268634E+04  0.10100000352E+00 0. -1.
       -3    1    3    3    0  502 -0.73679292456E+03  0.12830742177E+04 -0.97976222205E+02  0.14828157714E+04  0.10100000352E+00 0.  1.
</event>
<event>
 5   0  0.1573625E-08  0.3403996E+04  0.7818609E-02  0.8136926E-01
       -3   -1    0    0    0  501  0.00000000000E+00  0.00000000000E+00  0.29646991446E+04  0.29646991463E+04  0.10100000352E+00 0. -1.
        3   -1    0    0  501    0  0.00000000000E+00  0.00000000000E+00 -0.97709630677E+03  0.97709631199E+03  0.10100000352E+00 0.  1.
    10030    2    1    2    0    0  0.00000000000E+00  0.00000000000E+00  0.19876028378E+04  0.39417954583E+04  0.34039956513E+04 0.  0.
        1    1    3    3  502    0 -0.56681351110E+03  0.15848419610E+04  0.12862829261E+04  0.21183780030E+04  0.50400001928E-02 0. -1.
       -1    1    3    3    0  502  0.56681351110E+03 -0.15848419610E+04  0.70131991166E+03  0.18234174553E+04  0.50400001928E-02 0.  1.
</event>
<event>
 5   0  0.1630571E-08  0.3399654E+04  0.7818609E-02  0.8137991E-01
       -1   -1    0    0    0  501  0.00000000000E+00  0.00000000000E+00  0.13336576781E+04  0.13336576781E+04  0.50400001928E-02 0. -1.
        1   -1    0    0  501    0  0.00000000000E+00  0.00000000000E+00 -0.21665318561E+04  0.21665318561E+04  0.50400001928E-02 0.  1.
    10030    2    1    2    0    0  0.00000000000E+00  0.00000000000E+00 -0.83287417804E+03  0.35001895342E+04  0.33996540088E+04 0.  0.
        3    1    3    3  502    0  0.13223201702E+04 -0.34875768006E+03  0.62299722350E+03  0.15027601613E+04  0.10100000352E+00 0. -1.
       -3    1    3    3    0  502 -0.13223201702E+04  0.34875768006E+03 -0.14558714015E+04  0.19974293729E+04  0.10100000352E+00 0.  1.
</event>
<event>
 5   0  0.1573625E-08  0.3399593E+04  0.7818609E-02  0.8138006E-01
        3   -1    0    0  501    0  0.00000000000E+00  0.00000000000E+00  0.23196953911E+04  0.23196953933E+04  0.10100000352E+00 0.  1.
       -3   -1    0    0    0  501  0.00000000000E+00  0.00000000000E+00 -0.12455551456E+04  0.12455551497E+04  0.10100000352E+00 0. -1.
    10030    2    1    2    0    0  0.00000000000E+00  0.00000000000E+00  0.10741402455E+04  0.35652505430E+04  0.33995932356E+04 0.  0.
        3    1    3    3  502    0 -0.15852285559E+04 -0.59470877311E+03  0.69500889729E+03  0.18302091347E+04  0.10100000352E+00 0.  1.
       -3    1    3    3    0  502  0.15852285559E+04  0.59470877311E+03  0.37913134816E+03  0.17350414083E+04  0.10100000352E+00 0. -1.
</event>
<event>
 5   0  0.4775023E-08  0.3405656E+04  0.7818609E-02  0.8136520E-01
        2   -1    0    0  501    0  0.00000000000E+00  0.00000000000E+00  0.19571893128E+04  0.19571893128E+04  0.25500000920E-02 0. -1.
       -2   -1    0    0    0  501  0.00000000000E+00  0.00000000000E+00 -0.14815242557E+04  0.14815242557E+04  0.25500000920E-02 0.  1.
    10030    2    1    2    0    0  0.00000000000E+00  0.00000000000E+00  0.47566505704E+03  0.34387135685E+04  0.34056561424E+04 0.  0.
        4    1    3    3  502    0 -0.22296791263E+03  0.33890549889E+03  0.19076840501E+04  0.19503414253E+04  0.12699999809E+01 0. -1.
       -4    1    3    3    0  502  0.22296791263E+03 -0.33890549889E+03 -0.14320189931E+04  0.14883721432E+04  0.12699999809E+01 0.  1.
</event>
<event>
 5   0  0.1645631E-08  0.3404159E+04  0.7818609E-02  0.8136886E-01
        1   -1    0    0  501    0  0.00000000000E+00  0.00000000000E+00  0.21546945026E+04  0.21546945026E+04  0.50400001928E-02 0. -1.
       -1   -1    0    0    0  501  0.00000000000E+00  0.00000000000E+00 -0.13445407872E+04  0.13445407872E+04  0.50400001928E-02 0.  1.
    10030    2    1    2    0    0  0.00000000000E+00  0.00000000000E+00  0.81015371542E+03  0.34992352899E+04  0.34041590109E+04 0.  0.
        4    1    3    3  502    0 -0.13184594953E+04 -0.39118451255E+03  0.14359380275E+04  0.19882857931E+04  0.12699999809E+01 0. -1.
       -4    1    3    3    0  502  0.13184594953E+04  0.39118451255E+03 -0.62578431205E+03  0.15109494967E+04  0.12699999809E+01 0.  1.
</event>
<event>
 5   0  0.1630571E-08  0.3400010E+04  0.7818609E-02  0.8137904E-01
        1   -1    0    0  501    0  0.00000000000E+00  0.00000000000E+00  0.16148680464E+04  0.16148680464E+04  0.50400001928E-02 0. -1.
       -1   -1    0    0    0  501  0.00000000000E+00  0.00000000000E+00 -0.17896306247E+04  0.17896306247E+04  0.50400001928E-02 0.  1.
    10030    2    1    2    0    0  0.00000000000E+00  0.00000000000E+00 -0.17476257831E+03  0.34044986710E+04  0.34000101827E+04 0.  0.
        3    1    3    3  502    0  0.14500536540E+03  0.12299343574E+04 -0.12535011241E+04  0.17621095759E+04  0.10100000352E+00 0.  1.
       -3    1    3    3    0  502 -0.14500536540E+03 -0.12299343574E+04  0.10787385458E+04  0.16423890951E+04  0.10100000352E+00 0. -1.
</event>
<event>
 5   0  0.4764953E-08  0.3401561E+04  0.7818609E-02  0.8137523E-01
        2   -1    0    0  501    0  0.00000000000E+00  0.00000000000E+00  0.24120714066E+04  0.24120714066E+04  0.25500000920E-02 0.  1.
       -2   -1    0    0    0  501  0.00000000000E+00  0.00000000000E+00 -0.11992407144E+04  0.11992407144E+04  0.25500000920E-02 0. -1.
    10030    2    1    2    0    0  0.00000000000E+00  0.00000000000E+00  0.12128306923E+04  0.36113121210E+04  0.34015609575E+04 0.  0.
        2    1    3    3  502    0  0.92901171583E+03  0.11533048149E+04  0.14943361966E+04  0.21038572748E+04  0.25500000920E-02 0.  1.
       -2    1    3    3    0  502 -0.92901171583E+03 -0.11533048149E+04 -0.28150550436E+03  0.15074548462E+04  0.25500000920E-02 0. -1.
</event>
<event>
 5   0  0.1630571E-08  0.3398255E+04  0.7818609E-02  0.8138335E-01
       -1   -1    0    0    0  501  0.00000000000E+00  0.00000000000E+00  0.99518194680E+03  0.99518194681E+03  0.50400001928E-02 0. -1.
        1   -1    0    0  501    0  0.00000000000E+00  0.00000000000E+00 -0.29010108414E+04  0.29010108414E+04  0.50400001928E-02 0.  1.
    10030    2    1    2    0    0  0.00000000000E+00  0.00000000000E+00 -0.19058288946E+04  0.38961927882E+04  0.33982546208E+04 0.  0.
        3    1    3    3  502    0 -0.79765433806E+03 -0.12748424676E+04 -0.18597285382E+04  0.23916659479E+04  0.10100000352E+00 0.  1.
       -3    1    3    3    0  502  0.79765433806E+03  0.12748424676E+04 -0.46100356445E+02  0.15045268404E+04  0.10100000352E+00 0. -1.
</event>
<event>
 5   0  0.4775023E-08  0.3399482E+04  0.7818609E-02  0.8138033E-01
        2   -1    0    0  501    0  0.00000000000E+00  0.00000000000E+00  0.23698359112E+04  0.23698359112E+04  0.25500000920E-02 0.  1.
       -2   -1    0    0    0  501  0.00000000000E+00  0.00000000000E+00 -0.12191222645E+04  0.12191222645E+04  0.25500000920E-02 0. -1.
    10030    2    1    2    0    0  0.00000000000E+00  0.00000000000E+00  0.11507136468E+04  0.35889581757E+04  0.33994821503E+04 0.  0.
        4    1    3    3  502    0 -0.12897044684E+04  0.46783271224E+03  0.16347364492E+04  0.21341438409E+04  0.12699999809E+01 0.  1.
       -4    1    3    3    0  502  0.12897044684E+04 -0.46783271224E+03 -0.48402280241E+03  0.14548143348E+04  0.12699999809E+01 0. -1.
</event>
<event>
 5   0  0.4973409E-08  0.3379468E+04  0.7818609E-02  0.8142964E-01
        2   -1    0    0  501    0  0.00000000000E+00  0.00000000000E+00  0.31257139645E+04  0.31257139645E+04  0.25500000920E-02 0. -1.
       -2   -1    0    0    0  501  0.00000000000E+00  0.00000000000E+00 -0.91345537944E+03  0.91345537944E+03  0.25500000920E-02 0.  1.
    10030    2    1    2    0    0  0.00000000000E+00  0.00000000000E+00  0.22122585851E+04  0.40391693439E+04  0.33794675530E+04 0.  0.
        1    1    3    3  502    0 -0.11995540070E+04  0.10067872249E+04  0.18645454560E+04  0.24349702440E+04  0.50400001928E-02 0. -1.
       -1    1    3    3    0  502  0.11995540070E+04 -0.10067872249E+04  0.34771312908E+03  0.16041990999E+04  0.50400001928E-02 0.  1.
</event>
<event>
 5   0  0.4973409E-08  0.3399878E+04  0.7818609E-02  0.8137936E-01
        2   -1    0    0  501    0  0.00000000000E+00  0.00000000000E+00  0.96742056343E+03  0.96742056343E+03  0.25500000920E-02 0.  1.
       -2   -1    0    0    0  501  0.00000000000E+00  0.00000000000E+00 -0.29871108269E+04  0.29871108269E+04  0.25500000920E-02 0. -1.
    10030    2    1    2    0    0  0.00000000000E+00  0.00000000000E+00 -0.20196902634E+04  0.39545313903E+04  0.33998779032E+04 0.  0.
        1    1    3    3  502    0  0.96193618234E+02 -0.15936220947E+02 -0.29838556280E+04  0.29854483053E+04  0.50400001928E-02 0. -1.
       -1    1    3    3    0  502 -0.96193618234E+02  0.15936220947E+02  0.96416536453E+03  0.96908308494E+03  0.50400001928E-02 0.  1.
</event>
<event>
 5   0  0.4946315E-08  0.3403033E+04  0.7818609E-02  0.8137162E-01
        2   -1    0    0  501    0  0.00000000000E+00  0.00000000000E+00  0.18448274245E+04  0.18448274245E+04  0.25500000920E-02 0.  1.
       -2   -1    0    0    0  501  0.00000000000E+00  0.00000000000E+00 -0.15693387027E+04  0.15693387027E+04  0.25500000920E-02 0. -1.
    10030    2    1    2    0    0  0.00000000000E+00  0.00000000000E+00  0.27548872173E+03  0.34141661272E+04  0.34030333980E+04 0.  0.
        3    1    3    3  502    0  0.15676596843E+04  0.23543538391E+03  0.75796765824E+03  0.17571288191E+04  0.10100000352E+00 0.  1.
       -3    1    3    3    0  502 -0.15676596843E+04 -0.23543538391E+03 -0.48247893651E+03  0.16570373080E+04  0.10100000352E+00 0. -1.
</event>
<event>
 5   0  0.5001197E-08  0.3399206E+04  0.7818609E-02  0.8138101E-01
        2   -1    0    0  501    0  0.00000000000E+00  0.00000000000E+00  0.16785140292E+04  0.16785140292E+04  0.25500000920E-02 0.  1.
       -2   -1    0    0    0  501  0.00000000000E+00  0.00000000000E+00 -0.17209565857E+04  0.17209565857E+04  0.25500000920E-02 0. -1.
    10030    2    1    2    0    0  0.00000000000E+00  0.00000000000E+00 -0.42442556458E+02  0.33994706149E+04  0.33992056559E+04 0.  0.
        5    1    3    3  502    0 -0.15142350231E+04  0.77124647495E+03 -0.51204484258E+02  0.17001096493E+04  0.46999998093E+01 0. -1.
       -5    1    3    3    0  502  0.15142350231E+04 -0.77124647495E+03  0.87619278002E+01  0.16993609657E+04  0.46999998093E+01 0.  1.
</event>
<event>
 5   0  0.1630571E-08  0.3401440E+04  0.7818609E-02  0.8137553E-01
        1   -1    0    0  501    0  0.00000000000E+00  0.00000000000E+00  0.23347642542E+04  0.23347642542E+04  0.50400001928E-02 0.  1.
       -1   -1    0    0    0  501  0.00000000000E+00  0.00000000000E+00 -0.12388613835E+04  0.12388613835E+04  0.50400001928E-02 0. -1.
    10030    2    1    2    0    0  0.00000000000E+00  0.00000000000E+00  0.10959028707E+04  0.35736256377E+04  0.34014404444E+04 0.  0.
        3    1    3    3  502    0 -0.12611929313E+04  0.43487191936E+03  0.16562090025E+04  0.21266756843E+04  0.10100000352E+00 0.  1.
       -3    1    3    3    0  502  0.12611929313E+04 -0.43487191936E+03 -0.56030613174E+03  0.14469499534E+04  0.10100000352E+00 0. -1.
</event>
<event>
 5   0  0.1645631E-08  0.3399703E+04  0.7818609E-02  0.8137979E-01
        1   -1    0    0  501    0  0.00000000000E+00  0.00000000000E+00  0.95056352361E+03  0.95056352362E+03  0.50400001928E-02 0.  1.
       -1   -1    0    0    0  501  0.00000000000E+00  0.00000000000E+00 -0.30397706538E+04  0.30397706539E+04  0.50400001928E-02 0. -1.
    10030    2    1    2    0    0  0.00000000000E+00  0.00000000000E+00 -0.20892071302E+04  0.39903341775E+04  0.33997029892E+04 0.  0.
        4    1    3    3  502    0  0.23164550920E+03  0.60995798534E+03 -0.28869432347E+04  0.29597552668E+04  0.12699999809E+01 0. -1.
       -4    1    3    3    0  502 -0.23164550920E+03 -0.60995798534E+03  0.79773610450E+03  0.10305789107E+04  0.12699999809E+01 0.  1.
</event>
<event>
 5   0  0.4775023E-08  0.3400077E+04  0.7818609E-02  0.8137887E-01
       -2   -1    0    0    0  501  0.00000000000E+00  0.00000000000E+00  0.15233108039E+04  0.15233108039E+04  0.25500000920E-02 0. -1.
        2   -1    0    0  501    0  0.00000000000E+00  0.00000000000E+00 -0.18972699057E+04  0.18972699057E+04  0.25500000920E-02 0.  1.
    10030    2    1    2    0    0  0.00000000000E+00  0.00000000000E+00 -0.37395910179E+03  0.34205807096E+04  0.34000774964E+04 0.  0.
        4    1    3    3  502    0  0.21192873921E+03  0.15434079630E+04 -0.87160377640E+03  0.17851377220E+04  0.12699999809E+01 0. -1.
       -4    1    3    3    0  502 -0.21192873921E+03 -0.15434079630E+04  0.49764467461E+03  0.16354429876E+04  0.12699999809E+01 0.  1.
</event>
<event>
 5   0  0.1630571E-08  0.3398548E+04  0.7818609E-02  0.8138263E-01
       -1   -1    0    0    0  501  0.00000000000E+00  0.00000000000E+00  0.12434835545E+04  0.12434835545E+04  0.50400001928E-02 0.  1.
        1   -1    0    0  501    0  0.00000000000E+00  0.00000000000E+00 -0.23221313702E+04  0.23221313702E+04  0.50400001928E-02 0. -1.
    10030    2    1    2    0    0  0.00000000000E+00  0.00000000000E+00 -0.10786478157E+04  0.35656149247E+04  0.33985480254E+04 0.  0.
        3    1    3    3  502    0  0.64830882624E+03  0.76002870687E+03 -0.19815194569E+04  0.22190915569E+04  0.10100000352E+00 0. -1.
       -3    1    3    3    0  502 -0.64830882624E+03 -0.76002870687E+03  0.90287164120E+03  0.13465233678E+04  0.10100000352E+00 0.  1.
</event>
<event>
 5   0  0.1595851E-08  0.3399150E+04  0.7818609E-02  0.8138115E-01
        1   -1    0    0  501    0  0.00000000000E+00  0.00000000000E+00  0.11306261943E+04  0.11306261943E+04  0.50400001928E-02 0.  1.
       -1   -1    0    0    0  501  0.00000000000E+00  0.00000000000E+00 -0.25548270646E+04  0.25548270646E+04  0.50400001928E-02 0. -1.
    10030    2    1    2    0    0  0.00000000000E+00  0.00000000000E+00 -0.14242008702E+04  0.36854532589E+04  0.33991495414E+04 0.  0.
        2    1    3    3  502    0 -0.16410524974E+03 -0.15547461447E+04  0.10672599301E+02  0.15634193334E+04  0.25500000920E-02 0.  1.
       -2    1    3    3    0  502  0.16410524974E+03  0.15547461447E+04 -0.14348734695E+04  0.21220339256E+04  0.25500000920E-02 0. -1.
</event>
<event>
 5   0  0.1630571E-08  0.3396919E+04  0.7818609E-02  0.8138663E-01
        1   -1    0    0  501    0  0.00000000000E+00  0.00000000000E+00  0.26378002334E+04  0.26378002334E+04  0.50400001928E-02 0.  1.
       -1   -1    0    0    0  501  0.00000000000E+00  0.00000000000E+00 -0.10936249969E+04  0.10936249969E+04  0.50400001928E-02 0. -1.
    10030    2    1    2    0    0  0.00000000000E+00  0.00000000000E+00  0.15441752365E+04  0.37314252302E+04  0.33969187638E+04 0.  0.
        3    1    3    3  502    0 -0.53652141011E+03 -0.14014287078E+04  0.16459829115E+04  0.22273565951E+04  0.10100000352E+00 0.  1.
       -3    1    3    3    0  502  0.53652141011E+03  0.14014287078E+04 -0.10180767496E+03  0.15040686352E+04  0.10100000352E+00 0. -1.
</event>
<event>
 5   0  0.1630571E-08  0.3401443E+04  0.7818609E-02  0.8137552E-01
        1   -1    0    0  501    0  0.00000000000E+00  0.00000000000E+00  0.16943186625E+04  0.16943186625E+04  0.50400001928E-02 0. -1.
       -1   -1    0    0    0  501  0.00000000000E+00  0.00000000000E+00 -0.17071481301E+04  0.17071481301E+04  0.50400001928E-02 0.  1.
    10030    2    1    2    0    0  0.00000000000E+00  0.00000000000E+00 -0.12829467555E+02  0.34014667926E+04  0.34014425978E+04 0.  0.
        3    1    3    3  502    0 -0.13204306431E+04 -0.18940559778E+03 -0.10614299929E+04  0.17047126455E+04  0.10100000352E+00 0.  1.
       -3    1    3    3    0  502  0.13204306431E+04  0.18940559778E+03  0.10486005254E+04  0.16967541471E+04  0.10100000352E+00 0. -1.
</event>
<event>
 5   0  0.1579536E-08  0.3398951E+04  0.7818609E-02  0.8138164E-01
        1   -1    0    0  501    0  0.00000000000E+00  0.00000000000E+00  0.20114373965E+04  0.20114373965E+04  0.50400001928E-02 0. -1.
       -1   -1    0    0    0  501  0.00000000000E+00  0.00000000000E+00 -0.14358968146E+04  0.14358968146E+04  0.50400001928E-02 0.  1.
    10030    2    1    2    0    0  0.00000000000E+00  0.00000000000E+00  0.57554058195E+03  0.34473342111E+04  0.33989507501E+04 0.  0.
        5    1    3    3  502    0  0.10777288068E+04 -0.90873827109E+03  0.12504334696E+04  0.18843859950E+04  0.46999998093E+01 0. -1.
       -5    1    3    3    0  502 -0.10777288068E+04  0.90873827109E+03 -0.67489288765E+03  0.15629482161E+04  0.46999998093E+01 0.  1.
</event>
<event>
 5   0  0.1595851E-08  0.3399412E+04  0.7818609E-02  0.8138051E-01
        1   -1    0    0  501    0  0.00000000000E+00  0.00000000000E+00  0.13896698973E+04  0.13896698973E+04  0.50400001928E-02 0. -1.
       -1   -1    0    0    0  501  0.00000000000E+00  0.00000000000E+00 -0.20789117692E+04  0.20789117692E+04  0.50400001928E-02 0.  1.
    10030    2    1    2    0    0  0.00000000000E+00  0.00000000000E+00 -0.68924187190E+03  0.34685816664E+04  0.33994123638E+04 0.  0.
        2    1    3    3  502    0 -0.57099541334E+03 -0.13359531320E+04  0.55548198943E+03  0.15554313786E+04  0.25500000920E-02 0. -1.
       -2    1    3    3    0  502  0.57099541334E+03  0.13359531320E+04 -0.12447238613E+04  0.19131502879E+04  0.25500000920E-02 0.  1.
</event>
<event>
 5   0  0.1595851E-08  0.3399207E+04  0.7818609E-02  0.8138101E-01
       -1   -1    0    0    0  501  0.00000000000E+00  0.00000000000E+00  0.19940833943E+04  0.19940833943E+04  0.50400001928E-02 0. -1.
        1   -1    0    0  501    0  0.00000000000E+00  0.00000000000E+00 -0.14486118203E+04  0.14486118203E+04  0.50400001928E-02 0.  1.
    10030    2    1    2    0    0  0.00000000000E+00  0.00000000000E+00  0.54547157401E+03  0.34426952145E+04  0.33992074226E+04 0.  0.
        2    1    3    3  502    0  0.15958306850E+03 -0.42991824890E+03  0.19302416993E+04  0.19839681132E+04  0.25500000920E-02 0. -1.
       -2    1    3    3    0  502 -0.15958306850E+03  0.42991824890E+03 -0.13847701252E+04  0.14587271014E+04  0.25500000920E-02 0.  1.
</event>
<event>
 5   0  0.5001197E-08  0.3399510E+04  0.7818609E-02  0.8138026E-01
       -2   -1    0    0    0  501  0.00000000000E+00  0.00000000000E+00  0.15061087954E+04  0.15061087954E+04  0.25500000920E-02 0. -1.
        2   -1    0    0  501    0  0.00000000000E+00  0.00000000000E+00 -0.19182995274E+04  0.19182995274E+04  0.25500000920E-02 0.  1.
    10030    2    1    2    0    0  0.00000000000E+00  0.00000000000E+00 -0.41219073196E+03  0.34244083228E+04  0.33995104297E+04 0.  0.
        5    1    3    3  502    0 -0.70481637548E+03  0.42466150037E+03  0.12920910972E+04  0.15318697747E+04  0.46999998093E+01 0. -1.
       -5    1    3    3    0  502  0.70481637548E+03 -0.42466150037E+03 -0.17042818292E+04  0.18925385482E+04  0.46999998093E+01 0.  1.
</event>
<event>
 5   0  0.1630571E-08  0.3399268E+04  0.7818609E-02  0.8138086E-01
       -1   -1    0    0    0  501  0.00000000000E+00  0.00000000000E+00  0.17117746946E+04  0.17117746946E+04  0.50400001928E-02 0.  1.
        1   -1    0    0  501    0  0.00000000000E+00  0.00000000000E+00 -0.16875797810E+04  0.16875797810E+04  0.50400001928E-02 0. -1.
    10030    2    1    2    0    0  0.00000000000E+00  0.00000000000E+00  0.24194913578E+02  0.33993544756E+04  0.33992683708E+04 0.  0.
        3    1    3    3  502    0  0.33349525786E+03 -0.15887321377E+04 -0.49137081686E+03  0.16960938012E+04  0.10100000352E+00 0.  1.
       -3    1    3    3    0  502 -0.33349525786E+03  0.15887321377E+04  0.51556573044E+03  0.17032606744E+04  0.10100000352E+00 0. -1.
</event>
<event>
 5   0  0.5001197E-08  0.3403222E+04  0.7818609E-02  0.8137116E-01
        2   -1    0    0  501    0  0.00000000000E+00  0.00000000000E+00  0.18913012358E+04  0.18913012358E+04  0.25500000920E-02 0. -1.
       -2   -1    0    0    0  501  0.00000000000E+00  0.00000000000E+00 -0.15309459749E+04  0.15309459749E+04  0.25500000920E-02 0.  1.
    10030    2    1    2    0    0  0.00000000000E+00  0.00000000000E+00  0.36035526095E+03  0.34222472107E+04  0.34032220112E+04 0.  0.
        5    1    3    3  502    0 -0.59917726208E+03 -0.15314329731E+04  0.61983753459E+03  0.17574188464E+04  0.46999998093E+01 0. -1.
       -5    1    3    3    0  502  0.59917726208E+03  0.15314329731E+04 -0.25948227364E+03  0.16648283643E+04  0.46999998093E+01 0.  1.
</event>
<event>
 5   0  0.1630571E-08  0.3399570E+04  0.7818609E-02  0.8138012E-01
        1   -1    0    0  501    0  0.00000000000E+00  0.00000000000E+00  0.82195715718E+03  0.82195715720E+03  0.50400001928E-02 0.  1.
       -1   -1    0    0    0  501  0.00000000000E+00  0.00000000000E+00 -0.35151087674E+04  0.35151087674E+04  0.50400001928E-02 0. -1.
    10030    2    1    2    0    0  0.00000000000E+00  0.00000000000E+00 -0.26931516102E+04  0.43370659246E+04  0.33995698609E+04 0.  0.
        3    1    3    3  502    0 -0.34814682632E+03 -0.12586206781E+04 -0.27347254043E+04  0.30305206271E+04  0.10100000352E+00 0. -1.
       -3    1    3    3    0  502  0.34814682632E+03  0.12586206781E+04  0.41573794065E+02  0.13065452975E+04  0.10100000352E+00 0.  1.
</event>
<event>
 5   0  0.4775023E-08  0.3403360E+04  0.7818609E-02  0.8137082E-01
        2   -1    0    0  501    0  0.00000000000E+00  0.00000000000E+00  0.20734579308E+04  0.20734579308E+04  0.25500000920E-02 0.  1.
       -2   -1    0    0    0  501  0.00000000000E+00  0.00000000000E+00 -0.13965627083E+04  0.13965627083E+04  0.25500000920E-02 0. -1.
    10030    2    1    2    0    0  0.00000000000E+00  0.00000000000E+00  0.67689522249E+03  0.34700206391E+04  0.34033595305E+04 0.  0.
        4    1    3    3  502    0 -0.11652209015E+03  0.29765200703E+03  0.20425729822E+04  0.20674332190E+04  0.12699999809E+01 0.  1.
       -4    1    3    3    0  502  0.11652209015E+03 -0.29765200703E+03 -0.13656777597E+04  0.14025874201E+04  0.12699999809E+01 0. -1.
</event>
<event>
 5   0  0.1645631E-08  0.3399081E+04  0.7818609E-02  0.8138132E-01
        1   -1    0    0  501    0  0.00000000000E+00  0.00000000000E+00  0.17757677821E+04  0.17757677821E+04  0.50400001928E-02 0.  1.
       -1   -1    0    0    0  501  0.00000000000E+00  0.00000000000E+00 -0.16265853281E+04  0.16265853281E+04  0.50400001928E-02 0. -1.
    10030    2    1    2    0    0  0.00000000000E+00  0.00000000000E+00  0.14918245407E+03  0.34023531102E+04  0.33990809467E+04 0.  0.
        4    1    3    3  502    0  0.14975116999E+04 -0.68536170341E+03  0.49472645212E+03  0.17195981598E+04  0.12699999809E+01 0.  1.
       -4    1    3    3    0  502 -0.14975116999E+04  0.68536170341E+03 -0.34554399806E+03  0.16827549504E+04  0.12699999809E+01 0. -1.
</event>
<event>
 5   0  0.4775023E-08  0.3401762E+04  0.7818609E-02  0.8137474E-01
       -2   -1    0    0    0  501  0.00000000000E+00  0.00000000000E+00  0.10663506454E+04  0.10663506454E+04  0.25500000920E-02 0.  1.
        2   -1    0    0  501    0  0.00000000000E+00  0.00000000000E+00 -0.27129871409E+04  0.27129871409E+04  0.25500000920E-02 0. -1.
    10030    2    1    2    0    0  0.00000000000E+00  0.00000000000E+00 -0.16466364956E+04  0.37793377863E+04  0.34017616545E+04 0.  0.
        4    1    3    3  502    0 -0.11096520776E+03  0.42106624902E+03 -0.26500117787E+04  0.26855491252E+04  0.12699999809E+01 0. -1.
       -4    1    3    3    0  502  0.11096520776E+03 -0.42106624902E+03  0.10033752832E+04  0.10937886611E+04  0.12699999809E+01 0.  1.
</event>
<event>
 5   0  0.4764953E-08  0.3399590E+04  0.7818609E-02  0.8138007E-01
       -2   -1    0    0    0  501  0.00000000000E+00  0.00000000000E+00  0.13473635268E+04  0.13473635268E+04  0.25500000920E-02 0. -1.
        2   -1    0    0  501    0  0.00000000000E+00  0.00000000000E+00 -0.21444127319E+04  0.21444127319E+04  0.25500000920E-02 0.  1.
    10030    2    1    2    0    0  0.00000000000E+00  0.00000000000E+00 -0.79704920511E+03  0.34917762587E+04  0.33995902703E+04 0.  0.
        2    1    3    3  502    0  0.87463416913E+03  0.93129966388E+03  0.75303755302E+03  0.14830271575E+04  0.25500000920E-02 0. -1.
       -2    1    3    3    0  502 -0.87463416913E+03 -0.93129966388E+03 -0.15500867581E+04  0.20087491012E+04  0.25500000920E-02 0.  1.
</event>
<event>
 5   0  0.1625282E-08  0.3399947E+04  0.7818609E-02  0.8137919E-01
       -1   -1    0    0    0  501  0.00000000000E+00  0.00000000000E+00  0.20208913626E+04  0.20208913626E+04  0.50400001928E-02 0.  1.
        1   -1    0    0  501    0  0.00000000000E+00  0.00000000000E+00 -0.14300172179E+04  0.14300172179E+04  0.50400001928E-02 0. -1.
    10030    2    1    2    0    0  0.00000000000E+00  0.00000000000E+00  0.59087414464E+03  0.34509085805E+04  0.33999467314E+04 0.  0.
        1    1    3    3  502    0 -0.70335382280E+03 -0.37216894202E+03 -0.12293092491E+04  0.14643829934E+04  0.50400001928E-02 0. -1.
       -1    1    3    3    0  502  0.70335382280E+03  0.37216894202E+03  0.18201833937E+04  0.19865255871E+04  0.50400001928E-02 0.  1.
</event>
<event>
 5   0  0.1573625E-08  0.3399347E+04  0.7818609E-02  0.8138067E-01
        3   -1    0    0  501    0  0.00000000000E+00  0.00000000000E+00  0.18588924825E+04  0.18588924852E+04  0.10100000352E+00 0.  1.
       -3   -1    0    0    0  501  0.00000000000E+00  0.00000000000E+00 -0.15540919127E+04  0.15540919160E+04  0.10100000352E+00 0. -1.
    10030    2    1    2    0    0  0.00000000000E+00  0.00000000000E+00  0.30480056982E+03  0.34129844012E+04  0.33993468689E+04 0.  0.
        5    1    3    3  502    0 -0.82781670081E+02  0.16976491926E+04  0.15094261487E+03  0.17063620217E+04  0.46999998093E+01 0.  1.
       -5    1    3    3    0  502  0.82781670081E+02 -0.16976491926E+04  0.15385795495E+03  0.17066223795E+04  0.46999998093E+01 0. -1.
</event>
<event>
 5   0  0.1625282E-08  0.3398424E+04  0.7818609E-02  0.8138293E-01
        1   -1    0    0  501    0  0.00000000000E+00  0.00000000000E+00  0.20151274691E+04  0.20151274691E+04  0.50400001928E-02 0. -1.
       -1   -1    0    0    0  501  0.00000000000E+00  0.00000000000E+00 -0.14328230435E+04  0.14328230435E+04  0.50400001928E-02 0.  1.
    10030    2    1    2    0    0  0.00000000000E+00  0.00000000000E+00  0.58230442559E+03  0.34479505126E+04  0.33984237954E+04 0.  0.
        1    1    3    3  502    0 -0.16698197883E+04 -0.31106691100E+03  0.33938795073E+03  0.17321215112E+04  0.50400001928E-02 0.  1.
       -1    1    3    3    0  502  0.16698197883E+04  0.31106691100E+03  0.24291647486E+03  0.17158290014E+04  0.50400001928E-02 0. -1.
</event>
<event>
 5   0  0.5001197E-08  0.3399947E+04  0.7818609E-02  0.8137919E-01
        2   -1    0    0  501    0  0.00000000000E+00  0.00000000000E+00  0.25189667531E+04  0.25189667531E+04  0.25500000920E-02 0. -1.
       -2   -1    0    0    0  501  0.00000000000E+00  0.00000000000E+00 -0.11472598382E+04  0.11472598382E+04  0.25500000920E-02 0.  1.
    10030    2    1    2    0    0  0.00000000000E+00  0.00000000000E+00  0.13717069149E+04  0.36662265913E+04  0.33999466993E+04 0.  0.
        5    1    3    3  502    0  0.27696333540E+02 -0.29422552980E+03  0.24910479474E+04  0.25085210215E+04  0.46999998093E+01 0. -1.
       -5    1    3    3    0  502 -0.27696333540E+02  0.29422552980E+03 -0.11193410325E+04  0.11577055697E+04  0.46999998093E+01 0.  1.
</event>
<event>
 5   0  0.4946315E-08  0.3400899E+04  0.7818609E-02  0.8137686E-01
        2   -1    0    0  501    0  0.00000000000E+00  0.00000000000E+00  0.95329321937E+03  0.95329321937E+03  0.25500000920E-02 0. -1.
       -2   -1    0    0    0  501  0.00000000000E+00  0.00000000000E+00 -0.30331992750E+04  0.30331992750E+04  0.25500000920E-02 0.  1.
    10030    2    1    2    0    0  0.00000000000E+00  0.00000000000E+00 -0.20799060556E+04  0.39864924944E+04  0.34008988823E+04 0.  0.
        3    1    3    3  502    0  0.64297687386E+03  0.11642288313E+04 -0.22819635483E+04  0.26412507791E+04  0.10100000352E+00 0.  1.
       -3    1    3    3    0  502 -0.64297687386E+03 -0.11642288313E+04  0.20205749268E+03  0.13452417153E+04  0.10100000352E+00 0. -1.
</event>
<event>
 5   0  0.4946315E-08  0.3399402E+04  0.7818609E-02  0.8138053E-01
       -2   -1    0    0    0  501  0.00000000000E+00  0.00000000000E+00  0.17012185731E+04  0.17012185731E+04  0.25500000920E-02 0. -1.
        2   -1    0    0  501    0  0.00000000000E+00  0.00000000000E+00 -0.16981849406E+04  0.16981849406E+04  0.25500000920E-02 0.  1.
    10030    2    1    2    0    0  0.00000000000E+00  0.00000000000E+00  0.30336325541E+01  0.33994035137E+04  0.33994021601E+04 0.  0.
        3    1    3    3  502    0 -0.11524496914E+04  0.28536104501E+03  0.12178283357E+04  0.17007871950E+04  0.10100000352E+00 0. -1.
       -3    1    3    3    0  502  0.11524496914E+04 -0.28536104501E+03 -0.12147947031E+04  0.16986163187E+04  0.10100000352E+00 0.  1.
</event>
<event>
 5   0  0.1595851E-08  0.3399183E+04  0.7818609E-02  0.8138107E-01
        1   -1    0    0  501    0  0.00000000000E+00  0.00000000000E+00  0.22968915573E+04  0.22968915573E+04  0.50400001928E-02 0.  1.
       -1   -1    0    0    0  501  0.00000000000E+00  0.00000000000E+00 -0.12576174725E+04  0.12576174725E+04  0.50400001928E-02 0. -1.
    10030    2    1    2    0    0  0.00000000000E+00  0.00000000000E+00  0.10392740849E+04  0.35545090298E+04  0.33991828164E+04 0.  0.
        2    1    3    3  502    0  0.11118282767E+04  0.12617238253E+04  0.26242615827E+03  0.17020507092E+04  0.25500000920E-02 0. -1.
       -2    1    3    3    0  502 -0.11118282767E+04 -0.12617238253E+04  0.77684792658E+03  0.18524583205E+04  0.25500000920E-02 0.  1.
</event>
<event>
 5   0  0.4775023E-08  0.3400550E+04  0.7818609E-02  0.8137771E-01
       -2   -1    0    0    0  501  0.00000000000E+00  0.00000000000E+00  0.12844858254E+04  0.12844858254E+04  0.25500000920E-02 0.  1.
        2   -1    0    0  501    0  0.00000000000E+00  0.00000000000E+00 -0.22506551245E+04  0.22506551245E+04  0.25500000920E-02 0. -1.
    10030    2    1    2    0    0  0.00000000000E+00  0.00000000000E+00 -0.96616929902E+03  0.35351409499E+04  0.34005497234E+04 0.  0.
        4    1    3    3  502    0 -0.86567202503E+03  0.34964231924E+03 -0.19603465923E+04  0.21713125480E+04  0.12699999809E+01 0. -1.
       -4    1    3    3    0  502  0.86567202503E+03 -0.34964231924E+03  0.99417729329E+03  0.13638284019E+04  0.12699999809E+01 0.  1.
</event>
<event>
 5   0  0.1625282E-08  0.3400721E+04  0.7818609E-02  0.8137729E-01
        1   -1    0    0  501    0  0.00000000000E+00  0.00000000000E+00  0.16526381133E+04  0.16526381133E+04  0.50400001928E-02 0.  1.
       -1   -1    0    0    0  501  0.00000000000E+00  0.00000000000E+00 -0.17494607146E+04  0.17494607146E+04  0.50400001928E-02 0. -1.
    10030    2    1    2    0    0  0.00000000000E+00  0.00000000000E+00 -0.96822601361E+02  0.34020988279E+04  0.34007207793E+04 0.  0.
        1    1    3    3  502    0 -0.65534180105E+03  0.31604712435E+03  0.14890480791E+04  0.16572938312E+04  0.50400001928E-02 0.  1.
       -1    1    3    3    0  502  0.65534180105E+03 -0.31604712435E+03 -0.15858706805E+04  0.17448049967E+04  0.50400001928E-02 0. -1.
</event>
<event>
 5   0  0.4946315E-08  0.3397796E+04  0.7818609E-02  0.8138447E-01
        2   -1    0    0  501    0  0.00000000000E+00  0.00000000000E+00  0.25393425913E+04  0.25393425913E+04  0.25500000920E-02 0. -1.
       -2   -1    0    0    0  501  0.00000000000E+00  0.00000000000E+00 -0.11366150929E+04  0.11366150929E+04  0.25500000920E-02 0.  1.
    10030    2    1    2    0    0  0.00000000000E+00  0.00000000000E+00  0.14027274984E+04  0.36759576842E+04  0.33977964126E+04 0.  0.
        3    1    3    3  502    0 -0.15961654460E+04 -0.57329361404E+03  0.59401673486E+03  0.17970157457E+04  0.10100000352E+00 0.  1.
       -3    1    3    3    0  502  0.15961654460E+04  0.57329361404E+03  0.80871076351E+03  0.18789419385E+04  0.10100000352E+00 0. -1.
</event>
<event>
 5   0  0.1625282E-08  0.3401558E+04  0.7818609E-02  0.8137524E-01
        1   -1    0    0  501    0  0.00000000000E+00  0.00000000000E+00  0.10948615509E+04  0.10948615509E+04  0.50400001928E-02 0. -1.
       -1   -1    0    0    0  501  0.00000000000E+00  0.00000000000E+00 -0.26420224555E+04  0.26420224555E+04  0.50400001928E-02 0.  1.
    10030    2    1    2    0    0  0.00000000000E+00  0.00000000000E+00 -0.15471609046E+04  0.37368840063E+04  0.34015577626E+04 0.  0.
        1    1    3    3  502    0  0.11745668111E+04 -0.31152264929E+03 -0.20808425370E+04  0.24096803146E+04  0.50400001928E-02 0.  1.
       -1    1    3    3    0  502 -0.11745668111E+04  0.31152264929E+03  0.53368163237E+03  0.13272036918E+04  0.50400001928E-02 0. -1.
</event>
<event>
 5   0  0.5001197E-08  0.3401193E+04  0.7818609E-02  0.8137614E-01
       -2   -1    0    0    0  501  0.00000000000E+00  0.00000000000E+00  0.10347056557E+04  0.10347056557E+04  0.25500000920E-02 0. -1.
        2   -1    0    0  501    0  0.00000000000E+00  0.00000000000E+00 -0.27950253707E+04  0.27950253707E+04  0.25500000920E-02 0.  1.
    10030    2    1    2    0    0  0.00000000000E+00  0.00000000000E+00 -0.17603197150E+04  0.38297310265E+04  0.34011930607E+04 0.  0.
        5    1    3    3  502    0 -0.33699690239E+03 -0.97268473632E+03 -0.24043463876E+04  0.26154514238E+04  0.46999998093E+01 0.  1.
       -5    1    3    3    0  502  0.33699690239E+03  0.97268473632E+03  0.64402667260E+03  0.12142796027E+04  0.46999998093E+01 0. -1.
</event>
<event>
 5   0  0.1645631E-08  0.3399497E+04  0.7818609E-02  0.8138030E-01
       -1   -1    0    0    0  501  0.00000000000E+00  0.00000000000E+00  0.11892641824E+04  0.11892641824E+04  0.50400001928E-02 0.  1.
        1   -1    0    0  501    0  0.00000000000E+00  0.00000000000E+00 -0.24293546886E+04  0.24293546887E+04  0.50400001928E-02 0. -1.
    10030    2    1    2    0    0  0.00000000000E+00  0.00000000000E+00 -0.12400905063E+04  0.36186188710E+04  0.33994967377E+04 0.  0.
        4    1    3    3  502    0  0.12180448760E+04  0.10631421960E+04 -0.11784930904E+04  0.20006879382E+04  0.12699999809E+01 0. -1.
       -4    1    3    3    0  502 -0.12180448760E+04 -0.10631421960E+04 -0.61597415877E+02  0.16179309328E+04  0.12699999809E+01 0.  1.
</event>
<event>
 5   0  0.4764953E-08  0.3399282E+04  0.7818609E-02  0.8138083E-01
        2   -1    0    0  501    0  0.00000000000E+00  0.00000000000E+00  0.21826326346E+04  0.21826326346E+04  0.25500000920E-02 0. -1.
       -2   -1    0    0    0  501  0.00000000000E+00  0.00000000000E+00 -0.13235297143E+04  0.13235297143E+04  0.25500000920E-02 0.  1.
    10030    2    1    2    0    0  0.00000000000E+00  0.00000000000E+00  0.85910292029E+03  0.35061623489E+04  0.33992817755E+04 0.  0.
        2    1    3    3  502    0  0.37982459574E+03  0.14645964411E+04 -0.36904700298E+03  0.15574033354E+04  0.25500000920E-02 0.  1.
       -2    1    3    3    0  502 -0.37982459574E+03 -0.14645964411E+04  0.12281499233E+04  0.19487590135E+04  0.25500000920E-02 0. -1.
</event>
<event>
 5   0  0.4946315E-08  0.3402864E+04  0.7818609E-02  0.8137204E-01
       -2   -1    0    0    0  501  0.00000000000E+00  0.00000000000E+00  0.11618087874E+04  0.11618087874E+04  0.25500000920E-02 0. -1.
        2   -1    0    0  501    0  0.00000000000E+00  0.00000000000E+00 -0.24916929796E+04  0.24916929796E+04  0.25500000920E-02 0.  1.
    10030    2    1    2    0    0  0.00000000000E+00  0.00000000000E+00 -0.13298841922E+04  0.36535017671E+04  0.34028639698E+04 0.  0.
        3    1    3    3  502    0  0.24451964330E+03  0.15267604968E+04  0.97340310021E+02  0.15492780954E+04  0.10100000352E+00 0. -1.
       -3    1    3    3    0  502 -0.24451964330E+03 -0.15267604968E+04 -0.14272245022E+04  0.21042236717E+04  0.10100000352E+00 0.  1.
</event>
<event>
 5   0  0.1579536E-08  0.3397963E+04  0.7818609E-02  0.8138407E-01
       -1   -1    0    0    0  501  0.00000000000E+00  0.00000000000E+00  0.14193217708E+04  0.14193217708E+04  0.50400001928E-02 0.  1.
        1   -1    0    0  501    0  0.00000000000E+00  0.00000000000E+00 -0.20337441230E+04  0.20337441230E+04  0.50400001928E-02 0. -1.
    10030    2    1    2    0    0  0.00000000000E+00  0.00000000000E+00 -0.61442235220E+03  0.34530658938E+04  0.33979625131E+04 0.  0.
        5    1    3    3  502    0  0.45211092296E+03 -0.13922000530E+04 -0.11836883839E+04  0.18824891911E+04  0.46999998093E+01 0. -1.
       -5    1    3    3    0  502 -0.45211092296E+03  0.13922000530E+04  0.56926603175E+03  0.15705767027E+04  0.46999998093E+01 0.  1.
</event>
<event>
 5   0  0.1573625E-08  0.3398456E+04  0.7818609E-02  0.8138285E-01
       -4   -1    0    0    0  501  0.00000000000E+00  0.00000000000E+00  0.15058768879E+04  0.15058774234E+04  0.12699999809E+01 0.  1.
        4   -1    0    0  501    0  0.00000000000E+00  0.00000000000E+00 -0.19174040378E+04  0.19174044584E+04  0.12699999809E+01 0. -1.
    10030    2    1    2    0    0  0.00000000000E+00  0.00000000000E+00 -0.41152714992E+03  0.34232818818E+04  0.33984561564E+04 0.  0.
        4    1    3    3  502    0  0.76595533289E+03 -0.11454374240E+04  0.79581371444E+03  0.15912371116E+04  0.12699999809E+01 0.  1.
       -4    1    3    3    0  502 -0.76595533289E+03  0.11454374240E+04 -0.12073408644E+04  0.18320447702E+04  0.12699999809E+01 0. -1.
</event>
<event>
 5   0  0.4775023E-08  0.3398979E+04  0.7818609E-02  0.8138157E-01
       -2   -1    0    0    0  501  0.00000000000E+00  0.00000000000E+00  0.14806597506E+04  0.14806597506E+04  0.25500000920E-02 0.  1.
        2   -1    0    0  501    0  0.00000000000E+00  0.00000000000E+00 -0.19506604768E+04  0.19506604768E+04  0.25500000920E-02 0. -1.
    10030    2    1    2    0    0  0.00000000000E+00  0.00000000000E+00 -0.47000072621E+03  0.34313202274E+04  0.33989789379E+04 0.  0.
        4    1    3    3  502    0  0.59262904223E+03 -0.26588141581E+03  0.13504077477E+04  0.14985008531E+04  0.12699999809E+01 0.  1.
       -4    1    3    3    0  502 -0.59262904223E+03  0.26588141581E+03 -0.18204084739E+04  0.19328193743E+04  0.12699999809E+01 0. -1.
</event>
<event>
 5   0  0.4764953E-08  0.3395597E+04  0.7818609E-02  0.8138988E-01
       -2   -1    0    0    0  501  0.00000000000E+00  0.00000000000E+00  0.11389244349E+04  0.11389244349E+04  0.25500000920E-02 0.  1.
        2   -1    0    0  501    0  0.00000000000E+00  0.00000000000E+00 -0.25309145492E+04  0.25309145492E+04  0.25500000920E-02 0. -1.
    10030    2    1    2    0    0  0.00000000000E+00  0.00000000000E+00 -0.13919901144E+04  0.36698389841E+04  0.33955973982E+04 0.  0.
        2    1    3    3  502    0  0.15094214100E+04 -0.44620082034E+03 -0.13838503253E+04  0.20958267791E+04  0.25500000920E-02 0. -1.
       -2    1    3    3    0  502 -0.15094214100E+04  0.44620082034E+03 -0.81397890025E+01  0.15740122049E+04  0.25500000920E-02 0.  1.
</event>
<event>
 5   0  0.1595851E-08  0.3399288E+04  0.7818609E-02  0.8138081E-01
       -1   -1    0    0    0  501  0.00000000000E+00  0.00000000000E+00  0.11643188446E+04  0.11643188446E+04  0.50400001928E-02 0.  1.
        1   -1    0    0  501    0  0.00000000000E+00  0.00000000000E+00 -0.24810983099E+04  0.24810983099E+04  0.50400001928E-02 0. -1.
    10030    2    1    2    0    0  0.00000000000E+00  0.00000000000E+00 -0.13167794653E+04  0.36454171545E+04  0.33992878769E+04 0.  0.
        2    1    3    3  502    0 -0.88830628029E+03  0.89846913747E+03 -0.18775672605E+04  0.22630938240E+04  0.25500000920E-02 0. -1.
       -2    1    3    3    0  502  0.88830628029E+03 -0.89846913747E+03  0.56078779523E+03  0.13823233304E+04  0.25500000920E-02 0.  1.
</event>
<event>
 5   0  0.4764953E-08  0.3397740E+04  0.7818609E-02  0.8138461E-01
        2   -1    0    0  501    0  0.00000000000E+00  0.00000000000E+00  0.22918131969E+04  0.22918131969E+04  0.25500000920E-02 0.  1.
       -2   -1    0    0    0  501  0.00000000000E+00  0.00000000000E+00 -0.12593343519E+04  0.12593343519E+04  0.25500000920E-02 0. -1.
    10030    2    1    2    0    0  0.00000000000E+00  0.00000000000E+00  0.10324788450E+04  0.35511475488E+04  0.33977398882E+04 0.  0.
        2    1    3    3  502    0 -0.32271783816E+03 -0.32907836437E+03 -0.11927387974E+04  0.12786966848E+04  0.25500000920E-02 0. -1.
       -2    1    3    3    0  502  0.32271783816E+03  0.32907836437E+03  0.22252176424E+04  0.22724508639E+04  0.25500000920E-02 0.  1.
</event>
<event>
 5   0  0.5001197E-08  0.3398938E+04  0.7818609E-02  0.8138167E-01
        2   -1    0    0  501    0  0.00000000000E+00  0.00000000000E+00  0.24900170989E+04  0.24900170989E+04  0.25500000920E-02 0.  1.
       -2   -1    0    0    0  501  0.00000000000E+00  0.00000000000E+00 -0.11599093225E+04  0.11599093225E+04  0.25500000920E-02 0. -1.
    10030    2    1    2    0    0  0.00000000000E+00  0.00000000000E+00  0.13301077764E+04  0.36499264214E+04  0.33989375082E+04 0.  0.
        5    1    3    3  502    0 -0.68461516154E+03 -0.12848364156E+04  0.16065330939E+04  0.21680574729E+04  0.46999998093E+01 0.  1.
       -5    1    3    3    0  502  0.68461516154E+03  0.12848364156E+04 -0.27642531751E+03  0.14818689484E+04  0.46999998093E+01 0. -1.
</event>
<event>
 5   0  0.4775023E-08  0.3399500E+04  0.7818609E-02  0.8138029E-01
       -2   -1    0    0    0  501  0.00000000000E+00  0.00000000000E+00  0.23863149927E+04  0.23863149927E+04  0.25500000920E-02 0. -1.
        2   -1    0    0  501    0  0.00000000000E+00  0.00000000000E+00 -0.12107164281E+04  0.12107164281E+04  0.25500000920E-02 0.  1.
    10030    2    1    2    0    0  0.00000000000E+00  0.00000000000E+00  0.11755985646E+04  0.35970314208E+04  0.33995004129E+04 0.  0.
        4    1    3    3  502    0 -0.13124194935E+04 -0.47505134812E+03  0.16142331408E+04  0.21339796054E+04  0.12699999809E+01 0. -1.
       -4    1    3    3    0  502  0.13124194935E+04  0.47505134812E+03 -0.43863457622E+03  0.14630518155E+04  0.12699999809E+01 0.  1.
</event>
<event>
 5   0  0.4764953E-08  0.3399996E+04  0.7818609E-02  0.8137907E-01
        2   -1    0    0  501    0  0.00000000000E+00  0.00000000000E+00  0.15841717320E+04  0.15841717320E+04  0.25500000920E-02 0.  1.
       -2   -1    0    0    0  501  0.00000000000E+00  0.00000000000E+00 -0.18242929329E+04  0.18242929329E+04  0.25500000920E-02 0. -1.
    10030    2    1    2    0    0  0.00000000000E+00  0.00000000000E+00 -0.24012120094E+03  0.34084646649E+04  0.33999960560E+04 0.  0.
        2    1    3    3  502    0  0.33070502295E+02 -0.93715257510E+03 -0.15415644766E+04  0.18043751391E+04  0.25500000920E-02 0. -1.
       -2    1    3    3    0  502 -0.33070502295E+02  0.93715257510E+03  0.13014432756E+04  0.16040895258E+04  0.25500000920E-02 0.  1.
</event>
<event>
 5   0  0.5001197E-08  0.3402115E+04  0.7818609E-02  0.8137387E-01
        2   -1    0    0  501    0  0.00000000000E+00  0.00000000000E+00  0.18986773846E+04  0.18986773846E+04  0.25500000920E-02 0.  1.
       -2   -1    0    0    0  501  0.00000000000E+00  0.00000000000E+00 -0.15240063370E+04  0.15240063370E+04  0.25500000920E-02 0. -1.
    10030    2    1    2    0    0  0.00000000000E+00  0.00000000000E+00  0.37467104762E+03  0.34226837216E+04  0.34021148517E+04 0.  0.
        5    1    3    3  502    0  0.11666437301E+03  0.15251506832E+04 -0.56139456272E+03  0.16293805963E+04  0.46999998093E+01 0.  1.
       -5    1    3    3    0  502 -0.11666437301E+03 -0.15251506832E+04  0.93606561034E+03  0.17933031253E+04  0.46999998093E+01 0. -1.
</event>
<event>
 5   0  0.1625282E-08  0.3400159E+04  0.7818609E-02  0.8137867E-01
       -1   -1    0    0    0  501  0.00000000000E+00  0.00000000000E+00  0.14525170693E+04  0.14525170694E+04  0.50400001928E-02 0. -1.
        1   -1    0    0  501    0  0.00000000000E+00  0.00000000000E+00 -0.19898353134E+04  0.19898353134E+04  0.50400001928E-02 0.  1.
    10030    2    1    2    0    0  0.00000000000E+00  0.00000000000E+00 -0.53731824409E+03  0.34423523828E+04  0.34001586775E+04 0.  0.
        1    1    3    3  502    0 -0.12165587197E+04 -0.69135969803E+03  0.70886726081E+03  0.15685936835E+04  0.50400001928E-02 0. -1.
       -1    1    3    3    0  502  0.12165587197E+04  0.69135969803E+03 -0.12461855049E+04  0.18737586993E+04  0.50400001928E-02 0.  1.
</event>
<event>
 5   0  0.4946315E-08  0.3399136E+04  0.7818609E-02  0.8138118E-01
       -2   -1    0    0    0  501  0.00000000000E+00  0.00000000000E+00  0.16218045136E+04  0.16218045136E+04  0.25500000920E-02 0. -1.
        2   -1    0    0  501    0  0.00000000000E+00  0.00000000000E+00 -0.17810600673E+04  0.17810600673E+04  0.25500000920E-02 0.  1.
    10030    2    1    2    0    0  0.00000000000E+00  0.00000000000E+00 -0.15925555369E+03  0.34028645809E+04  0.33991359233E+04 0.  0.
        3    1    3    3  502    0 -0.11289543108E+04  0.12158072137E+04 -0.44855098839E+03  0.17186980584E+04  0.10100000352E+00 0.  1.
       -3    1    3    3    0  502  0.11289543108E+04 -0.12158072137E+04  0.28929543470E+03  0.16841665225E+04  0.10100000352E+00 0. -1.
</event>
<event>
 5   0  0.1625282E-08  0.3401701E+04  0.7818609E-02  0.8137489E-01
       -1   -1    0    0    0  501  0.00000000000E+00  0.00000000000E+00  0.15102763667E+04  0.15102763667E+04  0.50400001928E-02 0. -1.
        1   -1    0    0  501    0  0.00000000000E+00  0.00000000000E+00 -0.19154727036E+04  0.19154727036E+04  0.50400001928E-02 0.  1.
    10030    2    1    2    0    0  0.00000000000E+00  0.00000000000E+00 -0.40519633692E+03  0.34257490703E+04  0.34017014303E+04 0.  0.
        1    1    3    3  502    0  0.10523861902E+04 -0.53729190913E+02  0.11419391555E+04  0.15538431562E+04  0.50400001928E-02 0. -1.
       -1    1    3    3    0  502 -0.10523861902E+04  0.53729190913E+02 -0.15471354924E+04  0.18719059141E+04  0.50400001928E-02 0.  1.
</event>
<event>
 5   0  0.4764953E-08  0.3405196E+04  0.7818609E-02  0.8136632E-01
        2   -1    0    0  501    0  0.00000000000E+00  0.00000000000E+00  0.19492061236E+04  0.19492061236E+04  0.25500000920E-02 0.  1.
       -2   -1    0    0    0  501  0.00000000000E+00  0.00000000000E+00 -0.14871902429E+04  0.14871902429E+04  0.25500000920E-02 0. -1.
    10030    2    1    2    0    0  0.00000000000E+00  0.00000000000E+00  0.46201588067E+03  0.34363963665E+04  0.34051962225E+04 0.  0.
        2    1    3    3  502    0  0.10299980417E+04  0.91972463545E+03  0.12361515098E+04  0.18533375100E+04  0.25500000920E-02 0.  1.
       -2    1    3    3    0  502 -0.10299980417E+04 -0.91972463545E+03 -0.77413562911E+03  0.15830588565E+04  0.25500000920E-02 0. -1.
</event>
<event>
 5   0  0.5001197E-08  0.3399611E+04  0.7818609E-02  0.8138002E-01
        2   -1    0    0  501    0  0.00000000000E+00  0.00000000000E+00  0.15196528818E+04  0.15196528818E+04  0.25500000920E-02 0.  1.
       -2   -1    0    0    0  501  0.00000000000E+00  0.00000000000E+00 -0.19013144772E+04  0.19013144772E+04  0.25500000920E-02 0. -1.
    10030    2    1    2    0    0  0.00000000000E+00  0.00000000000E+00 -0.38166159537E+03  0.34209673590E+04  0.33996105803E+04 0.  0.
        5    1    3    3  502    0  0.32995557008E+03  0.10959039655E+04 -0.14554835418E+04  0.18515751701E+04  0.46999998093E+01 0. -1.
       -5    1    3    3    0  502 -0.32995557008E+03 -0.10959039655E+04  0.10738219465E+04  0.15693921889E+04  0.46999998093E+01 0.  1.
</event>
<event>
 5   0  0.1630571E-08  0.3407180E+04  0.7818609E-02  0.8136146E-01
       -1   -1    0    0    0  501  0.00000000000E+00  0.00000000000E+00  0.10059038859E+04  0.10059038859E+04  0.50400001928E-02 0. -1.
        1   -1    0    0  501    0  0.00000000000E+00  0.00000000000E+00 -0.28851859238E+04  0.28851859238E+04  0.50400001928E-02 0.  1.
    10030    2    1    2    0    0  0.00000000000E+00  0.00000000000E+00 -0.18792820379E+04  0.38910898097E+04  0.34071804955E+04 0.  0.
        3    1    3    3  502    0  0.66372494463E+03 -0.87099570439E+03  0.55071663424E+03  0.12257459527E+04  0.10100000352E+00 0. -1.
       -3    1    3    3    0  502 -0.66372494463E+03  0.87099570439E+03 -0.24299986721E+04  0.26653438570E+04  0.10100000352E+00 0.  1.
</event>
<event>
 5   0  0.1625282E-08  0.3399603E+04  0.7818609E-02  0.8138004E-01
       -1   -1    0    0    0  501  0.00000000000E+00  0.00000000000E+00  0.12365490690E+04  0.12365490690E+04  0.50400001928E-02 0.  1.
        1   -1    0    0  501    0  0.00000000000E+00  0.00000000000E+00 -0.23366037004E+04  0.23366037004E+04  0.50400001928E-02 0. -1.
    10030    2    1    2    0    0  0.00000000000E+00  0.00000000000E+00 -0.11000546314E+04  0.35731527694E+04  0.33996029947E+04 0.  0.
        1    1    3    3  502    0 -0.34477110527E+02  0.85304370355E+02 -0.23339845128E+04  0.23357973399E+04  0.50400001928E-02 0. -1.
       -1    1    3    3    0  502  0.34477110527E+02 -0.85304370355E+02  0.12339298814E+04  0.12373554296E+04  0.50400001928E-02 0.  1.
</event>
<event>
 5   0  0.1579536E-08  0.3407364E+04  0.7818609E-02  0.8136101E-01
       -1   -1    0    0    0  501  0.00000000000E+00  0.00000000000E+00  0.16308338365E+04  0.16308338365E+04  0.50400001928E-02 0.  1.
        1   -1    0    0  501    0  0.00000000000E+00  0.00000000000E+00 -0.17797840523E+04  0.17797840523E+04  0.50400001928E-02 0. -1.
    10030    2    1    2    0    0  0.00000000000E+00  0.00000000000E+00 -0.14895021583E+03  0.34106178888E+04  0.34073638221E+04 0.  0.
        5    1    3    3  502    0 -0.10027551317E+04 -0.79071503609E+03 -0.12032762827E+04  0.17546065157E+04  0.46999998093E+01 0. -1.
       -5    1    3    3    0  502  0.10027551317E+04  0.79071503609E+03  0.10543260668E+04  0.16560113731E+04  0.46999998093E+01 0.  1.
</event>
<event>
 5   0  0.1573625E-08  0.3400367E+04  0.7818609E-02  0.8137816E-01
       -3   -1    0    0    0  501  0.00000000000E+00  0.00000000000E+00  0.18912651531E+04  0.18912651558E+04  0.10100000352E+00 0. -1.
        3   -1    0    0  501    0  0.00000000000E+00  0.00000000000E+00 -0.15284076395E+04  0.15284076428E+04  0.10100000352E+00 0.  1.
    10030    2    1    2    0    0  0.00000000000E+00  0.00000000000E+00  0.36285751367E+03  0.34196727986E+04  0.34003671088E+04 0.  0.
        1    1    3    3  502    0  0.18282666025E+03 -0.15814329738E+04  0.78169970638E+03  0.17735304534E+04  0.50400001928E-02 0.  1.
       -1    1    3    3    0  502 -0.18282666025E+03  0.15814329738E+04 -0.41884219271E+03  0.16461423452E+04  0.50400001928E-02 0. -1.
</event>
<event>
 5   0  0.1630571E-08  0.3400369E+04  0.7818609E-02  0.8137816E-01
       -1   -1    0    0    0  501  0.00000000000E+00  0.00000000000E+00  0.11951733864E+04  0.11951733864E+04  0.50400001928E-02 0.  1.
        1   -1    0    0  501    0  0.00000000000E+00  0.00000000000E+00 -0.24185839604E+04  0.24185839604E+04  0.50400001928E-02 0. -1.
    10030    2    1    2    0    0  0.00000000000E+00  0.00000000000E+00 -0.12234105739E+04  0.36137573468E+04  0.34003689107E+04 0.  0.
        3    1    3    3  502    0  0.34907846906E+03  0.16206113258E+04 -0.21067867618E+03  0.16711141079E+04  0.10100000352E+00 0. -1.
       -3    1    3    3    0  502 -0.34907846906E+03 -0.16206113258E+04 -0.10127318978E+04  0.19426432389E+04  0.10100000352E+00 0.  1.
</event>
<event>
 5   0  0.5001197E-08  0.3401180E+04  0.7818609E-02  0.8137617E-01
       -2   -1    0    0    0  501  0.00000000000E+00  0.00000000000E+00  0.18725419227E+04  0.18725419227E+04  0.25500000920E-02 0.  1.
        2   -1    0    0  501    0  0.00000000000E+00  0.00000000000E+00 -0.15444276894E+04  0.15444276894E+04  0.25500000920E-02 0. -1.
    10030    2    1    2    0    0  0.00000000000E+00  0.00000000000E+00  0.32811423327E+03  0.34169696122E+04  0.34011795572E+04 0.  0.
        5    1    3    3  502    0  0.12270197000E+04  0.64943511349E+03 -0.82266357037E+03  0.16137350312E+04  0.46999998093E+01 0. -1.
       -5    1    3    3    0  502 -0.12270197000E+04 -0.64943511349E+03  0.11507778036E+04  0.18032345810E+04  0.46999998093E+01 0.  1.
</event>
<event>
 5   0  0.1573625E-08  0.3400207E+04  0.7818609E-02  0.8137855E-01
        3   -1    0    0  501    0  0.00000000000E+00  0.00000000000E+00  0.21588157287E+04  0.21588157311E+04  0.10100000352E+00 0.  1.
       -3   -1    0    0    0  501  0.00000000000E+00  0.00000000000E+00 -0.13388600376E+04  0.13388600414E+04  0.10100000352E+00 0. -1.
    10030    2    1    2    0    0  0.00000000000E+00  0.00000000000E+00  0.81995569113E+03  0.34976757725E+04  0.34002071222E+04 0.  0.
        1    1    3    3  502    0  0.55443443810E+03  0.10211254842E+04 -0.86666911756E+03  0.14495551593E+04  0.50400001928E-02 0. -1.
       -1    1    3    3    0  502 -0.55443443810E+03 -0.10211254842E+04  0.16866248087E+04  0.20481206131E+04  0.50400001928E-02 0.  1.
</event>
<event>
 5   0  0.5001197E-08  0.3399112E+04  0.7818609E-02  0.8138124E-01
        2   -1    0    0  501    0  0.00000000000E+00  0.00000000000E+00  0.19344512619E+04  0.19344512619E+04  0.25500000920E-02 0.  1.
       -2   -1    0    0    0  501  0.00000000000E+00  0.00000000000E+00 -0.14931831455E+04  0.14931831455E+04  0.25500000920E-02 0. -1.
    10030    2    1    2    0    0  0.00000000000E+00  0.00000000000E+00  0.44126811649E+03  0.34276344074E+04  0.33991116604E+04 0.  0.
        5    1    3    3  502    0 -0.15107611875E+04  0.26032777219E+03  0.96047856191E+03  0.18090635899E+04  0.46999998093E+01 0.  1.
       -5    1    3    3    0  502  0.15107611875E+04 -0.26032777219E+03 -0.51921044541E+03  0.16185708175E+04  0.46999998093E+01 0. -1.
</event>
<event>
 5   0  0.1625282E-08  0.3399200E+04  0.7818609E-02  0.8138103E-01
        1   -1    0    0  501    0  0.00000000000E+00  0.00000000000E+00  0.18429765543E+04  0.18429765543E+04  0.50400001928E-02 0.  1.
       -1   -1    0    0    0  501  0.00000000000E+00  0.00000000000E+00 -0.15673772316E+04  0.15673772316E+04  0.50400001928E-02 0. -1.
    10030    2    1    2    0    0  0.00000000000E+00  0.00000000000E+00  0.27559932270E+03  0.34103537859E+04  0.33991996056E+04 0.  0.
        1    1    3    3  502    0  0.16503819224E+03  0.13088502343E+04  0.12129096526E+04  0.17920592530E+04  0.50400001928E-02 0.  1.
       -1    1    3    3    0  502 -0.16503819224E+03 -0.13088502343E+04 -0.93731032988E+03  0.16182945329E+04  0.50400001928E-02 0. -1.
</event>
<event>
 5   0  0.1579536E-08  0.3398664E+04  0.7818609E-02  0.8138234E-01
        1   -1    0    0  501    0  0.00000000000E+00  0.00000000000E+00  0.25657618259E+04  0.25657618259E+04  0.50400001928E-02 0. -1.
       -1   -1    0    0    0  501  0.00000000000E+00  0.00000000000E+00 -0.11254860508E+04  0.11254860508E+04  0.50400001928E-02 0.  1.
    10030    2    1    2    0    0  0.00000000000E+00  0.00000000000E+00  0.14402757751E+04  0.36912478767E+04  0.33986639402E+04 0.  0.
        5    1    3    3  502    0 -0.30678489499E+03  0.95475001628E+03  0.22101153470E+04  0.24269933050E+04  0.46999998093E+01 0. -1.
       -5    1    3    3    0  502  0.30678489499E+03 -0.95475001628E+03 -0.76983957196E+03  0.12642545717E+04  0.46999998093E+01 0.  1.
</event>
<event>
 5   0  0.4946315E-08  0.3400109E+04  0.7818609E-02  0.8137880E-01
        2   -1    0    0  501    0  0.00000000000E+00  0.00000000000E+00  0.11447075838E+04  0.11447075838E+04  0.25500000920E-02 0.  1.
       -2   -1    0    0    0  501  0.00000000000E+00  0.00000000000E+00 -0.25248233897E+04  0.25248233897E+04  0.25500000920E-02 0. -1.
    10030    2    1    2    0    0  0.00000000000E+00  0.00000000000E+00 -0.13801158059E+04  0.36695309735E+04  0.34001085170E+04 0.  0.
        3    1    3    3  502    0 -0.79195837994E+03 -0.14695825305E+04 -0.34316414146E+03  0.17042982508E+04  0.10100000352E+00 0.  1.
       -3    1    3    3    0  502  0.79195837994E+03  0.14695825305E+04 -0.10369516645E+04  0.19652327227E+04  0.10100000352E+00 0. -1.
</event>
<event>
 5   0  0.5001197E-08  0.3399542E+04  0.7818609E-02  0.8138019E-01
       -2   -1    0    0    0  501  0.00000000000E+00  0.00000000000E+00  0.12602229160E+04  0.12602229160E+04  0.25500000920E-02 0. -1.
        2   -1    0    0  501    0  0.00000000000E+00  0.00000000000E+00 -0.22926273356E+04  0.22926273356E+04  0.25500000920E-02 0.  1.
    10030    2    1    2    0    0  0.00000000000E+00  0.00000000000E+00 -0.10324044196E+04  0.35528502517E+04  0.33995420317E+04 0.  0.
        5    1    3    3  502    0 -0.94570433320E+02 -0.11724686475E+04 -0.17985546837E+04  0.21490573134E+04  0.46999998093E+01 0.  1.
       -5    1    3    3    0  502  0.94570433320E+02  0.11724686475E+04  0.76615026409E+03  0.14037929382E+04  0.46999998093E+01 0. -1.
</event>
<event>
 5   0  0.1573625E-08  0.3400220E+04  0.7818609E-02  0.8137852E-01
        3   -1    0    0  501    0  0.00000000000E+00  0.00000000000E+00  0.13652394650E+04  0.13652394687E+04  0.10100000352E+00 0.  1.
       -3   -1    0    0    0  501  0.00000000000E+00  0.00000000000E+00 -0.21171187186E+04  0.21171187210E+04  0.10100000352E+00 0. -1.
    10030    2    1    2    0    0  0.00000000000E+00  0.00000000000E+00 -0.75187925361E+03  0.34823581898E+04  0.34002200149E+04 0.  0.
        3    1    3    3  502    0 -0.50191640752E+03  0.11144147876E+04  0.83435782642E+03  0.14798626259E+04  0.10100000352E+00 0.  1.
       -3    1    3    3    0  502  0.50191640752E+03 -0.11144147876E+04 -0.15862370800E+04  0.20024955638E+04  0.10100000352E+00 0. -1.
</event>
<event>
 5   0  0.4775023E-08  0.3400130E+04  0.7818609E-02  0.8137875E-01
        2   -1    0    0  501    0  0.00000000000E+00  0.00000000000E+00  0.25770315907E+04  0.25770315907E+04  0.25500000920E-02 0. -1.
       -2   -1    0    0    0  501  0.00000000000E+00  0.00000000000E+00 -0.11215307857E+04  0.11215307858E+04  0.25500000920E-02 0.  1.
    10030    2    1    2    0    0  0.00000000000E+00  0.00000000000E+00  0.14555008049E+04  0.36985623764E+04  0.34001295650E+04 0.  0.
        4    1    3    3  502    0  0.36900096389E+03 -0.14124894824E+04 -0.21987884547E+03  0.14763592275E+04  0.12699999809E+01 0. -1.
       -4    1    3    3    0  502 -0.36900096389E+03  0.14124894824E+04  0.16753796504E+04  0.22222031489E+04  0.12699999809E+01 0.  1.
</event>
<event>
 5   0  0.1630571E-08  0.3399135E+04  0.7818609E-02  0.8138119E-01
        1   -1    0    0  501    0  0.00000000000E+00  0.00000000000E+00  0.20537538689E+04  0.20537538689E+04  0.50400001928E-02 0.  1.
       -1   -1    0    0    0  501  0.00000000000E+00  0.00000000000E+00 -0.14064633812E+04  0.14064633812E+04  0.50400001928E-02 0. -1.
    10030    2    1    2    0    0  0.00000000000E+00  0.00000000000E+00  0.64729048774E+03  0.34602172501E+04  0.33991349550E+04 0.  0.
        3    1    3    3  502    0 -0.88254754778E+03  0.14407704471E+04  0.51085195280E+03  0.17651287158E+04  0.10100000352E+00 0.  1.
       -3    1    3    3    0  502  0.88254754778E+03 -0.14407704471E+04  0.13643853495E+03  0.16950885344E+04  0.10100000352E+00 0. -1.
</event>
<event>
 5   0  0.1645631E-08  0.3392080E+04  0.7818609E-02  0.8139853E-01
        1   -1    0    0  501    0  0.00000000000E+00  0.00000000000E+00  0.15138995544E+04  0.15138995544E+04  0.50400001928E-02 0.  1.
       -1   -1    0    0    0  501  0.00000000000E+00  0.00000000000E+00 -0.19000944851E+04  0.19000944851E+04  0.50400001928E-02 0. -1.
    10030    2    1    2    0    0  0.00000000000E+00  0.00000000000E+00 -0.38619493077E+03  0.34139940395E+04  0.33920803023E+04 0.  0.
        4    1    3    3  502    0  0.58020450356E+03  0.15629767127E+04  0.12039044933E+03  0.16715349064E+04  0.12699999809E+01 0. -1.
       -4    1    3    3    0  502 -0.58020450356E+03 -0.15629767127E+04 -0.50658538010E+03  0.17424591331E+04  0.12699999809E+01 0.  1.
</event>
<event>
 5   0  0.1645631E-08  0.3399130E+04  0.7818609E-02  0.8138120E-01
       -1   -1    0    0    0  501  0.00000000000E+00  0.00000000000E+00  0.13820310034E+04  0.13820310034E+04  0.50400001928E-02 0. -1.
        1   -1    0    0  501    0  0.00000000000E+00  0.00000000000E+00 -0.20900549389E+04  0.20900549390E+04  0.50400001928E-02 0.  1.
    10030    2    1    2    0    0  0.00000000000E+00  0.00000000000E+00 -0.70802393554E+03  0.34720859424E+04  0.33991297266E+04 0.  0.
        4    1    3    3  502    0 -0.53966115229E+03 -0.33979656551E+02 -0.19998457516E+04  0.20716595810E+04  0.12699999809E+01 0.  1.
       -4    1    3    3    0  502  0.53966115229E+03  0.33979656551E+02  0.12918218161E+04  0.14004263614E+04  0.12699999809E+01 0. -1.
</event>
<event>
 5   0  0.1645631E-08  0.3399677E+04  0.7818609E-02  0.8137986E-01
        1   -1    0    0  501    0  0.00000000000E+00  0.00000000000E+00  0.24703662765E+04  0.24703662765E+04  0.50400001928E-02 0. -1.
       -1   -1    0    0    0  501  0.00000000000E+00  0.00000000000E+00 -0.11696449463E+04  0.11696449463E+04  0.50400001928E-02 0.  1.
    10030    2    1    2    0    0  0.00000000000E+00  0.00000000000E+00  0.13007213303E+04  0.36400112228E+04  0.33996772969E+04 0.  0.
        4    1    3    3  502    0 -0.15115733630E+04 -0.20401693770E+03  0.14537179994E+04  0.21070772594E+04  0.12699999809E+01 0. -1.
       -4    1    3    3    0  502  0.15115733630E+04  0.20401693770E+03 -0.15299666911E+03  0.15329339634E+04  0.12699999809E+01 0.  1.
</event>
<event>
 5   0  0.1625282E-08  0.3399519E+04  0.7818609E-02  0.8138024E-01
        1   -1    0    0  501    0  0.00000000000E+00  0.00000000000E+00  0.22132415681E+04  0.22132415681E+04  0.50400001928E-02 0. -1.
       -1   -1    0    0    0  501  0.00000000000E+00  0.00000000000E+00 -0.13054078035E+04  0.13054078035E+04  0.50400001928E-02 0.  1.
    10030    2    1    2    0    0  0.00000000000E+00  0.00000000000E+00  0.90783376457E+03  0.35186493716E+04  0.33995192684E+04 0.  0.
        1    1    3    3  502    0 -0.15078472583E+04 -0.28960767414E+03 -0.30081833383E+03  0.15645982325E+04  0.50400001928E-02 0.  1.
       -1    1    3    3    0  502  0.15078472583E+04  0.28960767414E+03  0.12086520984E+04  0.19540511391E+04  0.50400001928E-02 0. -1.
</event>
<event>
 5   0  0.1579536E-08  0.3400607E+04  0.7818609E-02  0.8137757E-01
        1   -1    0    0  501    0  0.00000000000E+00  0.00000000000E+00  0.20352983464E+04  0.20352983464E+04  0.50400001928E-02 0. -1.
       -1   -1    0    0    0  501  0.00000000000E+00  0.00000000000E+00 -0.14204458846E+04  0.14204458846E+04  0.50400001928E-02 0.  1.
    10030    2    1    2    0    0  0.00000000000E+00  0.00000000000E+00  0.61485246180E+03  0.34557442310E+04  0.34006065106E+04 0.  0.
        5    1    3    3  502    0  0.11128924858E+04  0.41440402445E+03 -0.92916421915E+03  0.15078556352E+04  0.46999998093E+01 0.  1.
       -5    1    3    3    0  502 -0.11128924858E+04 -0.41440402445E+03  0.15440166809E+04  0.19478885958E+04  0.46999998093E+01 0. -1.
</event>
<event>
 5   0  0.4775023E-08  0.3400663E+04  0.7818609E-02  0.8137744E-01
       -2   -1    0    0    0  501  0.00000000000E+00  0.00000000000E+00  0.12548322315E+04  0.12548322315E+04  0.25500000920E-02 0.  1.
        2   -1    0    0  501    0  0.00000000000E+00  0.00000000000E+00 -0.23039950448E+04  0.23039950448E+04  0.25500000920E-02 0. -1.
    10030    2    1    2    0    0  0.00000000000E+00  0.00000000000E+00 -0.10491628133E+04  0.35588272763E+04  0.34006630197E+04 0.  0.
        4    1    3    3  502    0  0.62853861848E+03  0.14763691481E+04  0.64073603842E+02  0.16058747448E+04  0.12699999809E+01 0. -1.
       -4    1    3    3    0  502 -0.62853861848E+03 -0.14763691481E+04 -0.11132364172E+04  0.19529525314E+04  0.12699999809E+01 0.  1.
</event>
<event>
 5   0  0.1579536E-08  0.3404208E+04  0.7818609E-02  0.8136874E-01
        1   -1    0    0  501    0  0.00000000000E+00  0.00000000000E+00  0.23672281604E+04  0.23672281604E+04  0.50400001928E-02 0.  1.
       -1   -1    0    0    0  501  0.00000000000E+00  0.00000000000E+00 -0.12238610084E+04  0.12238610084E+04  0.50400001928E-02 0. -1.
    10030    2    1    2    0    0  0.00000000000E+00  0.00000000000E+00  0.11433671519E+04  0.35910891688E+04  0.34042081273E+04 0.  0.
        5    1    3    3  502    0  0.13858898412E+04 -0.83281752737E+03  0.10640492928E+02  0.16169140348E+04  0.46999998093E+01 0.  1.
       -5    1    3    3    0  502 -0.13858898412E+04  0.83281752737E+03  0.11327266590E+04  0.19741751340E+04  0.46999998093E+01 0. -1.
</event>
<event>
 5   0  0.4775023E-08  0.3406643E+04  0.7818609E-02  0.8136278E-01
       -2   -1    0    0    0  501  0.00000000000E+00  0.00000000000E+00  0.17106900427E+04  0.17106900427E+04  0.25500000920E-02 0. -1.
        2   -1    0    0  501    0  0.00000000000E+00  0.00000000000E+00 -0.16959845419E+04  0.16959845419E+04  0.25500000920E-02 0.  1.
    10030    2    1    2    0    0  0.00000000000E+00  0.00000000000E+00  0.14705500752E+02  0.34066745846E+04  0.34066428450E+04 0.  0.
        4    1    3    3  502    0  0.10849512449E+04 -0.18970316033E+03  0.13066707332E+04  0.17089460234E+04  0.12699999809E+01 0. -1.
       -4    1    3    3    0  502 -0.10849512449E+04  0.18970316033E+03 -0.12919652324E+04  0.16977285612E+04  0.12699999809E+01 0.  1.
</event>
<event>
 5   0  0.1625282E-08  0.3396349E+04  0.7818609E-02  0.8138803E-01
       -1   -1    0    0    0  501  0.00000000000E+00  0.00000000000E+00  0.14175405430E+04  0.14175405430E+04  0.50400001928E-02 0.  1.
        1   -1    0    0  501    0  0.00000000000E+00  0.00000000000E+00 -0.20343661671E+04  0.20343661672E+04  0.50400001928E-02 0. -1.
    10030    2    1    2    0    0  0.00000000000E+00  0.00000000000E+00 -0.61682562411E+03  0.34519067102E+04  0.33963489346E+04 0.  0.
        1    1    3    3  502    0  0.49457770042E+03 -0.13585401829E+04  0.59697799870E+03  0.15641679134E+04  0.50400001928E-02 0.  1.
       -1    1    3    3    0  502 -0.49457770042E+03  0.13585401829E+04 -0.12138036228E+04  0.18877387968E+04  0.50400001928E-02 0. -1.
</event>
<event>
 5   0  0.4973409E-08  0.3399678E+04  0.7818609E-02  0.8137985E-01
        2   -1    0    0  501    0  0.00000000000E+00  0.00000000000E+00  0.33460869724E+04  0.33460869724E+04  0.25500000920E-02 0.  1.
       -2   -1    0    0    0  501  0.00000000000E+00  0.00000000000E+00 -0.86353167994E+03  0.86353167994E+03  0.25500000920E-02 0. -1.
    10030    2    1    2    0    0  0.00000000000E+00  0.00000000000E+00  0.24825552925E+04  0.42096186524E+04  0.33996776933E+04 0.  0.
        1    1    3    3  502    0  0.71574263701E+03  0.95591412369E+02 -0.66417570885E+03  0.98109867638E+03  0.50400001928E-02 0. -1.
       -1    1    3    3    0  502 -0.71574263701E+03 -0.95591412369E+02  0.31467310013E+04  0.32285199760E+04  0.50400001928E-02 0.  1.
</event>
<event>
 5   0  0.1630571E-08  0.3401066E+04  0.7818609E-02  0.8137645E-01
        1   -1    0    0  501    0  0.00000000000E+00  0.00000000000E+00  0.12661324158E+04  0.12661324159E+04  0.50400001928E-02 0.  1.
       -1   -1    0    0    0  501  0.00000000000E+00  0.00000000000E+00 -0.22839732390E+04  0.22839732390E+04  0.50400001928E-02 0. -1.
    10030    2    1    2    0    0  0.00000000000E+00  0.00000000000E+00 -0.10178408231E+04  0.35501056548E+04  0.34010660416E+04 0.  0.
        3    1    3    3  502    0 -0.52271922840E+02 -0.81288827761E+03  0.10492406441E+04  0.13283168467E+04  0.10100000352E+00 0.  1.
       -3    1    3    3    0  502  0.52271922840E+02  0.81288827761E+03 -0.20670814672E+04  0.22217888081E+04  0.10100000352E+00 0. -1.
</event>
<event>
 5   0  0.4764953E-08  0.3398439E+04  0.7818609E-02  0.8138290E-01
       -2   -1    0    0    0  501  0.00000000000E+00  0.00000000000E+00  0.11171978664E+04  0.11171978664E+04  0.25500000920E-02 0. -1.
        2   -1    0    0  501    0  0.00000000000E+00  0.00000000000E+00 -0.25844544573E+04  0.25844544573E+04  0.25500000920E-02 0.  1.
    10030    2    1    2    0    0  0.00000000000E+00  0.00000000000E+00 -0.14672565909E+04  0.37016523238E+04  0.33984390568E+04 0.  0.
        2    1    3    3  502    0 -0.16396193713E+04  0.24964193778E+03 -0.11363077301E+04  0.20104397622E+04  0.25500000920E-02 0.  1.
       -2    1    3    3    0  502  0.16396193713E+04 -0.24964193778E+03 -0.33094886074E+03  0.16912125616E+04  0.25500000920E-02 0. -1.
</event>
<event>
 5   0  0.1625282E-08  0.3399541E+04  0.7818609E-02  0.8138019E-01
        1   -1    0    0  501    0  0.00000000000E+00  0.00000000000E+00  0.25387282780E+04  0.25387282780E+04  0.50400001928E-02 0. -1.
       -1   -1    0    0    0  501  0.00000000000E+00  0.00000000000E+00 -0.11380578829E+04  0.11380578829E+04  0.50400001928E-02 0.  1.
    10030    2    1    2    0    0  0.00000000000E+00  0.00000000000E+00  0.14006703951E+04  0.36767861609E+04  0.33995409863E+04 0.  0.
        1    1    3    3  502    0  0.73188150380E+03 -0.46548713995E+03 -0.88069173179E+03  0.12361014277E+04  0.50400001928E-02 0.  1.
       -1    1    3    3    0  502 -0.73188150380E+03  0.46548713995E+03  0.22813621269E+04  0.24406847332E+04  0.50400001928E-02 0. -1.
</event>
<event>
 5   0  0.1630571E-08  0.3399485E+04  0.7818609E-02  0.8138033E-01
        1   -1    0    0  501    0  0.00000000000E+00  0.00000000000E+00  0.16877986746E+04  0.16877986746E+04  0.50400001928E-02 0. -1.
       -1   -1    0    0    0  501  0.00000000000E+00  0.00000000000E+00 -0.17117707515E+04  0.17117707515E+04  0.50400001928E-02 0.  1.
    10030    2    1    2    0    0  0.00000000000E+00  0.00000000000E+00 -0.23972076867E+02  0.33995694261E+04  0.33994849054E+04 0.  0.
        3    1    3    3  502    0 -0.11394630893E+04 -0.57249620453E+03 -0.11358450880E+04  0.17077096094E+04  0.10100000352E+00 0.  1.
       -3    1    3    3    0  502  0.11394630893E+04  0.57249620453E+03  0.11118730112E+04  0.16918598166E+04  0.10100000352E+00 0. -1.
</event>
<event>
 5   0  0.1625282E-08  0.3400491E+04  0.7818609E-02  0.8137786E-01
        1   -1    0    0  501    0  0.00000000000E+00  0.00000000000E+00  0.30820787736E+04  0.30820787736E+04  0.50400001928E-02 0.  1.
       -1   -1    0    0    0  501  0.00000000000E+00  0.00000000000E+00 -0.93794940222E+03  0.93794940223E+03  0.50400001928E-02 0. -1.
    10030    2    1    2    0    0  0.00000000000E+00  0.00000000000E+00  0.21441293713E+04  0.40200281758E+04  0.34004905195E+04 0.  0.
        1    1    3    3  502    0 -0.88287858021E+03  0.11510357070E+04  0.23656726932E+02  0.14508333560E+04  0.50400001928E-02 0. -1.
       -1    1    3    3    0  502  0.88287858021E+03 -0.11510357070E+04  0.21204726444E+04  0.25691948198E+04  0.50400001928E-02 0.  1.
</event>
<event>
 5   0  0.5001197E-08  0.3399108E+04  0.7818609E-02  0.8138125E-01
        2   -1    0    0  501    0  0.00000000000E+00  0.00000000000E+00  0.24366787695E+04  0.24366787695E+04  0.25500000920E-02 0. -1.
       -2   -1    0    0    0  501  0.00000000000E+00  0.00000000000E+00 -0.11854180460E+04  0.11854180460E+04  0.25500000920E-02 0.  1.
    10030    2    1    2    0    0  0.00000000000E+00  0.00000000000E+00  0.12512607235E+04  0.36220968155E+04  0.33991075215E+04 0.  0.
        5    1    3    3  502    0  0.58616311877E+03 -0.10658606997E+04 -0.63917029799E+03  0.13741204433E+04  0.46999998093E+01 0.  1.
       -5    1    3    3    0  502 -0.58616311877E+03  0.10658606997E+04  0.18904310215E+04  0.22479763722E+04  0.46999998093E+01 0. -1.
</event>
<event>
 5   0  0.4946315E-08  0.3399367E+04  0.7818609E-02  0.8138062E-01
        2   -1    0    0  501    0  0.00000000000E+00  0.00000000000E+00  0.20254704912E+04  0.20254704912E+04  0.25500000920E-02 0. -1.
       -2   -1    0    0    0  501  0.00000000000E+00  0.00000000000E+00 -0.14262978802E+04  0.14262978802E+04  0.25500000920E-02 0.  1.
    10030    2    1    2    0    0  0.00000000000E+00  0.00000000000E+00  0.59917261099E+03  0.34517683714E+04  0.33993671576E+04 0.  0.
        3    1    3    3  502    0 -0.50146673172E+03 -0.14745070955E+03  0.19418340391E+04  0.20109525207E+04  0.10100000352E+00 0. -1.
       -3    1    3    3    0  502  0.50146673172E+03  0.14745070955E+03 -0.13426614282E+04  0.14408158507E+04  0.10100000352E+00 0.  1.
</event>
<event>
 5   0  0.4973409E-08  0.3397627E+04  0.7818609E-02  0.8138489E-01
        2   -1    0    0  501    0  0.00000000000E+00  0.00000000000E+00  0.21276426593E+04  0.21276426593E+04  0.25500000920E-02 0. -1.
       -2   -1    0    0    0  501  0.00000000000E+00  0.00000000000E+00 -0.13564152186E+04  0.13564152186E+04  0.25500000920E-02 0.  1.
    10030    2    1    2    0    0  0.00000000000E+00  0.00000000000E+00  0.77122744065E+03  0.34840578779E+04  0.33976267499E+04 0.  0.
        1    1    3    3  502    0  0.97627570712E+03  0.26010885285E+03  0.17860776666E+04  0.20520341865E+04  0.50400001928E-02 0. -1.
       -1    1    3    3    0  502 -0.97627570712E+03 -0.26010885285E+03 -0.10148502259E+04  0.14320236914E+04  0.50400001928E-02 0.  1.
</event>
<event>
 5   0  0.1595851E-08  0.3398496E+04  0.7818609E-02  0.8138276E-01
       -1   -1    0    0    0  501  0.00000000000E+00  0.00000000000E+00  0.11814177235E+04  0.11814177236E+04  0.50400001928E-02 0.  1.
        1   -1    0    0  501    0  0.00000000000E+00  0.00000000000E+00 -0.24440499285E+04  0.24440499286E+04  0.50400001928E-02 0. -1.
    10030    2    1    2    0    0  0.00000000000E+00  0.00000000000E+00 -0.12626322050E+04  0.36254676521E+04  0.33984960808E+04 0.  0.
        2    1    3    3  502    0 -0.13901528213E+04  0.84746215140E+03 -0.11503564294E+04  0.19934986529E+04  0.25500000920E-02 0.  1.
       -2    1    3    3    0  502  0.13901528213E+04 -0.84746215140E+03 -0.11227577560E+03  0.16319689992E+04  0.25500000920E-02 0. -1.
</event>
<event>
 5   0  0.1625282E-08  0.3400388E+04  0.7818609E-02  0.8137811E-01
       -1   -1    0    0    0  501  0.00000000000E+00  0.00000000000E+00  0.23552650734E+04  0.23552650734E+04  0.50400001928E-02 0. -1.
        1   -1    0    0  501    0  0.00000000000E+00  0.00000000000E+00 -0.12273179027E+04  0.12273179028E+04  0.50400001928E-02 0.  1.
    10030    2    1    2    0    0  0.00000000000E+00  0.00000000000E+00  0.11279471707E+04  0.35825829762E+04  0.34003876193E+04 0.  0.
        1    1    3    3  502    0 -0.16368498028E+04 -0.11957669825E+03  0.96246463832E+02  0.16440314004E+04  0.50400001928E-02 0.  1.
       -1    1    3    3    0  502  0.16368498028E+04  0.11957669825E+03  0.10317007069E+04  0.19385515758E+04  0.50400001928E-02 0. -1.
</event>
<event>
 5   0  0.5001197E-08  0.3400569E+04  0.7818609E-02  0.8137767E-01
        2   -1    0    0  501    0  0.00000000000E+00  0.00000000000E+00  0.29333403730E+04  0.29333403730E+04  0.25500000920E-02 0. -1.
       -2   -1    0    0    0  501  0.00000000000E+00  0.00000000000E+00 -0.98555448752E+03  0.98555448753E+03  0.25500000920E-02 0.  1.
    10030    2    1    2    0    0  0.00000000000E+00  0.00000000000E+00  0.19477858854E+04  0.39188948605E+04  0.34005686395E+04 0.  0.
        5    1    3    3  502    0  0.19579930275E+03  0.71595428261E+03 -0.78898219209E+03  0.10832556906E+04  0.46999998093E+01 0.  1.
       -5    1    3    3    0  502 -0.19579930275E+03 -0.71595428261E+03  0.27367680775E+04  0.28356391699E+04  0.46999998093E+01 0. -1.
</event>
<event>
 5   0  0.1579536E-08  0.3388020E+04  0.7818609E-02  0.8140853E-01
        1   -1    0    0  501    0  0.00000000000E+00  0.00000000000E+00  0.89552642350E+03  0.89552642351E+03  0.50400001928E-02 0.  1.
       -1   -1    0    0    0  501  0.00000000000E+00  0.00000000000E+00 -0.32044499195E+04  0.32044499195E+04  0.50400001928E-02 0. -1.
    10030    2    1    2    0    0  0.00000000000E+00  0.00000000000E+00 -0.23089234960E+04  0.40999763430E+04  0.33880198203E+04 0.  0.
        5    1    3    3  502    0 -0.12928203814E+03 -0.14864310621E+04 -0.18373957460E+03  0.15033208138E+04  0.46999998093E+01 0.  1.
       -5    1    3    3    0  502  0.12928203814E+03  0.14864310621E+04 -0.21251839214E+04  0.25966555293E+04  0.46999998093E+01 0. -1.
</event>
<event>
 5   0  0.1645631E-08  0.3399392E+04  0.7818609E-02  0.8138056E-01
        1   -1    0    0  501    0  0.00000000000E+00  0.00000000000E+00  0.20358955280E+04  0.20358955280E+04  0.50400001928E-02 0.  1.
       -1   -1    0    0    0  501  0.00000000000E+00  0.00000000000E+00 -0.14190149919E+04  0.14190149919E+04  0.50400001928E-02 0. -1.
    10030    2    1    2    0    0  0.00000000000E+00  0.00000000000E+00  0.61688053607E+03  0.34549105199E+04  0.33993918728E+04 0.  0.
        4    1    3    3  502    0 -0.25309538930E+01  0.15449494512E+04  0.10285955004E+04  0.18560402821E+04  0.12699999809E+01 0.  1.
       -4    1    3    3    0  502  0.25309538930E+01 -0.15449494512E+04 -0.41171496437E+03  0.15988702378E+04  0.12699999809E+01 0. -1.
</event>
<event>
 5   0  0.4946315E-08  0.3401408E+04  0.7818609E-02  0.8137561E-01
        2   -1    0    0  501    0  0.00000000000E+00  0.00000000000E+00  0.23789386304E+04  0.23789386304E+04  0.25500000920E-02 0.  1.
       -2   -1    0    0    0  501  0.00000000000E+00  0.00000000000E+00 -0.12158335012E+04  0.12158335012E+04  0.25500000920E-02 0. -1.
    10030    2    1    2    0    0  0.00000000000E+00  0.00000000000E+00  0.11631051293E+04  0.35947721316E+04  0.34014075229E+04 0.  0.
        3    1    3    3  502    0  0.11883000768E+04  0.85417938878E+03  0.14972455561E+04  0.20936627633E+04  0.10100000352E+00 0.  1.
       -3    1    3    3    0  502 -0.11883000768E+04 -0.85417938878E+03 -0.33414042684E+03  0.15011093684E+04  0.10100000352E+00 0. -1.
</event>
<event>
 5   0  0.1573625E-08  0.3399706E+04  0.7818609E-02  0.8137979E-01
        3   -1    0    0  501    0  0.00000000000E+00  0.00000000000E+00  0.15348874696E+04  0.15348874730E+04  0.10100000352E+00 0. -1.
       -3   -1    0    0    0  501  0.00000000000E+00  0.00000000000E+00 -0.18825483199E+04  0.18825483226E+04  0.10100000352E+00 0.  1.
    10030    2    1    2    0    0  0.00000000000E+00  0.00000000000E+00 -0.34766085029E+03  0.34174357956E+04  0.33997057741E+04 0.  0.
        2    1    3    3  502    0  0.15049257533E+04 -0.75552410624E+03 -0.40716518081E+03  0.17324553912E+04  0.25500000920E-02 0.  1.
       -2    1    3    3    0  502 -0.15049257533E+04  0.75552410624E+03  0.59504330519E+02  0.16849804044E+04  0.25500000920E-02 0. -1.
</event>
<event>
 5   0  0.5001197E-08  0.3403707E+04  0.7818609E-02  0.8136997E-01
       -2   -1    0    0    0  501  0.00000000000E+00  0.00000000000E+00  0.15159148734E+04  0.15159148734E+04  0.25500000920E-02 0.  1.
        2   -1    0    0  501    0  0.00000000000E+00  0.00000000000E+00 -0.19105989078E+04  0.19105989078E+04  0.25500000920E-02 0. -1.
    10030    2    1    2    0    0  0.00000000000E+00  0.00000000000E+00 -0.39468403437E+03  0.34265137812E+04  0.34037069800E+04 0.  0.
        5    1    3    3  502    0  0.58457048048E+03  0.11131998347E+04 -0.13519124623E+04  0.18462464393E+04  0.46999998093E+01 0. -1.
       -5    1    3    3    0  502 -0.58457048048E+03 -0.11131998347E+04  0.95722842793E+03  0.15802673419E+04  0.46999998093E+01 0.  1.
</event>
<event>
 5   0  0.4775023E-08  0.3393081E+04  0.7818609E-02  0.8139607E-01
        2   -1    0    0  501    0  0.00000000000E+00  0.00000000000E+00  0.26259466386E+04  0.26259466386E+04  0.25500000920E-02 0.  1.
       -2   -1    0    0    0  501  0.00000000000E+00  0.00000000000E+00 -0.10960807906E+04  0.10960807906E+04  0.25500000920E-02 0. -1.
    10030    2    1    2    0    0  0.00000000000E+00  0.00000000000E+00  0.15298658480E+04  0.37220274292E+04  0.33930809998E+04 0.  0.
        4    1    3    3  502    0 -0.12902817334E+04 -0.92185278163E+03  0.10347475129E+03  0.15891343995E+04  0.12699999809E+01 0. -1.
       -4    1    3    3    0  502  0.12902817334E+04  0.92185278163E+03  0.14263910967E+04  0.21328930297E+04  0.12699999809E+01 0.  1.
</event>
<event>
 5   0  0.4973409E-08  0.3402231E+04  0.7818609E-02  0.8137359E-01
       -2   -1    0    0    0  501  0.00000000000E+00  0.00000000000E+00  0.17486291946E+04  0.17486291946E+04  0.25500000920E-02 0. -1.
        2   -1    0    0  501    0  0.00000000000E+00  0.00000000000E+00 -0.16548932685E+04  0.16548932685E+04  0.25500000920E-02 0.  1.
    10030    2    1    2    0    0  0.00000000000E+00  0.00000000000E+00  0.93735926072E+02  0.34035224631E+04  0.34022314344E+04 0.  0.
        1    1    3    3  502    0 -0.86792766977E+03  0.50032367029E+02 -0.14158746328E+04  0.16614760466E+04  0.50400001928E-02 0.  1.
       -1    1    3    3    0  502  0.86792766977E+03 -0.50032367029E+02  0.15096105589E+04  0.17420464165E+04  0.50400001928E-02 0. -1.
</event>
<event>
 5   0  0.4973409E-08  0.3407224E+04  0.7818609E-02  0.8136136E-01
       -2   -1    0    0    0  501  0.00000000000E+00  0.00000000000E+00  0.16505929366E+04  0.16505929366E+04  0.25500000920E-02 0.  1.
        2   -1    0    0  501    0  0.00000000000E+00  0.00000000000E+00 -0.17583341928E+04  0.17583341929E+04  0.25500000920E-02 0. -1.
    10030    2    1    2    0    0  0.00000000000E+00  0.00000000000E+00 -0.10774125625E+03  0.34089271295E+04  0.34072240894E+04 0.  0.
        1    1    3    3  502    0  0.35940781511E+03 -0.93258810861E+03  0.13264563900E+04  0.16608374732E+04  0.50400001928E-02 0.  1.
       -1    1    3    3    0  502 -0.35940781511E+03  0.93258810861E+03 -0.14341976462E+04  0.17480896563E+04  0.50400001928E-02 0. -1.
</event>
<event>
 5   0  0.1595851E-08  0.3399085E+04  0.7818609E-02  0.8138131E-01
        1   -1    0    0  501    0  0.00000000000E+00  0.00000000000E+00  0.13936977973E+04  0.13936977974E+04  0.50400001928E-02 0. -1.
       -1   -1    0    0    0  501  0.00000000000E+00  0.00000000000E+00 -0.20725045810E+04  0.20725045810E+04  0.50400001928E-02 0.  1.
    10030    2    1    2    0    0  0.00000000000E+00  0.00000000000E+00 -0.67880678363E+03  0.34662023783E+04  0.33990852119E+04 0.  0.
        2    1    3    3  502    0  0.62604709992E+03 -0.10755533873E+04  0.84090320271E+03  0.15019548118E+04  0.25500000920E-02 0. -1.
       -2    1    3    3    0  502 -0.62604709992E+03  0.10755533873E+04 -0.15197099863E+04  0.19642475666E+04  0.25500000920E-02 0.  1.
</event>
<event>
 5   0  0.4973409E-08  0.3400131E+04  0.7818609E-02  0.8137874E-01
        2   -1    0    0  501    0  0.00000000000E+00  0.00000000000E+00  0.24119294117E+04  0.24119294117E+04  0.25500000920E-02 0.  1.
       -2   -1    0    0    0  501  0.00000000000E+00  0.00000000000E+00 -0.11983033428E+04  0.11983033428E+04  0.25500000920E-02 0. -1.
    10030    2    1    2    0    0  0.00000000000E+00  0.00000000000E+00  0.12136260689E+04  0.36102327545E+04  0.34001312190E+04 0.  0.
        1    1    3    3  502    0  0.12379906161E+04 -0.71465798422E+03 -0.37030480824E+03  0.14766456755E+04  0.50400001928E-02 0. -1.
       -1    1    3    3    0  502 -0.12379906161E+04  0.71465798422E+03  0.15839308771E+04  0.21335870790E+04  0.50400001928E-02 0.  1.
</event>
<event>
 5   0  0.1579536E-08  0.3398290E+04  0.7818609E-02  0.8138326E-01
        1   -1    0    0  501    0  0.00000000000E+00  0.00000000000E+00  0.18992124708E+04  0.18992124708E+04  0.50400001928E-02 0. -1.
       -1   -1    0    0    0  501  0.00000000000E+00  0.00000000000E+00 -0.15201534622E+04  0.15201534623E+04  0.50400001928E-02 0.  1.
    10030    2    1    2    0    0  0.00000000000E+00  0.00000000000E+00  0.37905900857E+03  0.34193659331E+04  0.33982904014E+04 0.  0.
        5    1    3    3  502    0  0.81099828443E+03 -0.11849324266E+04 -0.72455887075E+03  0.16083503101E+04  0.46999998093E+01 0.  1.
       -5    1    3    3    0  502 -0.81099828443E+03  0.11849324266E+04  0.11036178793E+04  0.18110156229E+04  0.46999998093E+01 0. -1.
</event>
<event>
 5   0  0.1630571E-08  0.3400274E+04  0.7818609E-02  0.8137839E-01
       -1   -1    0    0    0  501  0.00000000000E+00  0.00000000000E+00  0.11531108927E+04  0.11531108927E+04  0.50400001928E-02 0. -1.
        1   -1    0    0  501    0  0.00000000000E+00  0.00000000000E+00 -0.25066675085E+04  0.25066675085E+04  0.50400001928E-02 0.  1.
    10030    2    1    2    0    0  0.00000000000E+00  0.00000000000E+00 -0.13535566158E+04  0.36597784012E+04  0.34002738763E+04 0.  0.
        3    1    3    3  502    0  0.16989699833E+04  0.11469943337E+02 -0.74343220101E+03  0.18545409167E+04  0.10100000352E+00 0. -1.
       -3    1    3    3    0  502 -0.16989699833E+04 -0.11469943337E+02 -0.61012441481E+03  0.18052374845E+04  0.10100000352E+00 0.  1.
</event>
<event>
 5   0  0.4775023E-08  0.3382204E+04  0.7818609E-02  0.8142288E-01
        2   -1    0    0  501    0  0.00000000000E+00  0.00000000000E+00  0.21474551862E+04  0.21474551862E+04  0.25500000920E-02 0.  1.
       -2   -1    0    0    0  501  0.00000000000E+00  0.00000000000E+00 -0.13317279971E+04  0.13317279971E+04  0.25500000920E-02 0. -1.
    10030    2    1    2    0    0  0.00000000000E+00  0.00000000000E+00  0.81572718909E+03  0.34791831833E+04  0.33822041299E+04 0.  0.
        4    1    3    3  502    0 -0.86285876185E+03  0.13316917761E+04  0.10093484727E+04  0.18806153731E+04  0.12699999809E+01 0.  1.
       -4    1    3    3    0  502  0.86285876185E+03 -0.13316917761E+04 -0.19362128359E+03  0.15985678102E+04  0.12699999809E+01 0. -1.
</event>
<event>
 5   0  0.1625282E-08  0.3394454E+04  0.7818609E-02  0.8139269E-01
        1   -1    0    0  501    0  0.00000000000E+00  0.00000000000E+00  0.17268931816E+04  0.17268931816E+04  0.50400001928E-02 0.  1.
       -1   -1    0    0    0  501  0.00000000000E+00  0.00000000000E+00 -0.16680700084E+04  0.16680700084E+04  0.50400001928E-02 0. -1.
    10030    2    1    2    0    0  0.00000000000E+00  0.00000000000E+00  0.58823173167E+02  0.33949631900E+04  0.33944535489E+04 0.  0.
        1    1    3    3  502    0 -0.91625228231E+03  0.11971158086E+04 -0.75043249742E+03  0.16839695476E+04  0.50400001928E-02 0. -1.
       -1    1    3    3    0  502  0.91625228231E+03 -0.11971158086E+04  0.80925567059E+03  0.17109936424E+04  0.50400001928E-02 0.  1.
</event>
<event>
 5   0  0.4946315E-08  0.3400327E+04  0.7818609E-02  0.8137826E-01
        2   -1    0    0  501    0  0.00000000000E+00  0.00000000000E+00  0.17406337250E+04  0.17406337250E+04  0.25500000920E-02 0. -1.
       -2   -1    0    0    0  501  0.00000000000E+00  0.00000000000E+00 -0.16606340470E+04  0.16606340470E+04  0.25500000920E-02 0.  1.
    10030    2    1    2    0    0  0.00000000000E+00  0.00000000000E+00  0.79999677992E+02  0.34012677720E+04  0.34003268238E+04 0.  0.
        3    1    3    3  502    0  0.95194185135E+03 -0.14079999990E+04  0.83581742763E+02  0.17016589562E+04  0.10100000352E+00 0.  1.
       -3    1    3    3    0  502 -0.95194185135E+03  0.14079999990E+04 -0.35820647708E+01  0.16996088158E+04  0.10100000352E+00 0. -1.
</event>
<event>
 5   0  0.4946315E-08  0.3399827E+04  0.7818609E-02  0.8137949E-01
        2   -1    0    0  501    0  0.00000000000E+00  0.00000000000E+00  0.31254185350E+04  0.31254185350E+04  0.25500000920E-02 0.  1.
       -2   -1    0    0    0  501  0.00000000000E+00  0.00000000000E+00 -0.92458232316E+03  0.92458232316E+03  0.25500000920E-02 0. -1.
    10030    2    1    2    0    0  0.00000000000E+00  0.00000000000E+00  0.22008362118E+04  0.40500008582E+04  0.33998274838E+04 0.  0.
        3    1    3    3  502    0  0.12203008452E+04  0.10880324964E+04  0.54581071095E+03  0.17236177675E+04  0.10100000352E+00 0. -1.
       -3    1    3    3    0  502 -0.12203008452E+04 -0.10880324964E+04  0.16550255009E+04  0.23263830907E+04  0.10100000352E+00 0.  1.
</event>
<event>
 5   0  0.4946315E-08  0.3397422E+04  0.7818609E-02  0.8138539E-01
        2   -1    0    0  501    0  0.00000000000E+00  0.00000000000E+00  0.24126954021E+04  0.24126954021E+04  0.25500000920E-02 0. -1.
       -2   -1    0    0    0  501  0.00000000000E+00  0.00000000000E+00 -0.11960145604E+04  0.11960145604E+04  0.25500000920E-02 0.  1.
    10030    2    1    2    0    0  0.00000000000E+00  0.00000000000E+00  0.12166808417E+04  0.36087099625E+04  0.33974218641E+04 0.  0.
        3    1    3    3  502    0  0.78288007150E+03 -0.79158734197E+03  0.19711385996E+04  0.22638240027E+04  0.10100000352E+00 0. -1.
       -3    1    3    3    0  502 -0.78288007150E+03  0.79158734197E+03 -0.75445775785E+03  0.13448859598E+04  0.10100000352E+00 0.  1.
</event>
<event>
 5   0  0.1595851E-08  0.3400313E+04  0.7818609E-02  0.8137829E-01
        1   -1    0    0  501    0  0.00000000000E+00  0.00000000000E+00  0.23530754714E+04  0.23530754714E+04  0.50400001928E-02 0.  1.
       -1   -1    0    0    0  501  0.00000000000E+00  0.00000000000E+00 -0.12284063782E+04  0.12284063783E+04  0.50400001928E-02 0. -1.
    10030    2    1    2    0    0  0.00000000000E+00  0.00000000000E+00  0.11246690932E+04  0.35814818497E+04  0.34003134665E+04 0.  0.
        2    1    3    3  502    0  0.28719128901E+03 -0.59558042238E+03 -0.10874320107E+04  0.12726756279E+04  0.25500000920E-02 0. -1.
       -2    1    3    3    0  502 -0.28719128901E+03  0.59558042238E+03  0.22121011038E+04  0.23088062218E+04  0.25500000920E-02 0.  1.
</event>
<event>
 5   0  0.5001197E-08  0.3408586E+04  0.7818609E-02  0.8135802E-01
        2   -1    0    0  501    0  0.00000000000E+00  0.00000000000E+00  0.24504411543E+04  0.24504411543E+04  0.25500000920E-02 0. -1.
       -2   -1    0    0    0  501  0.00000000000E+00  0.00000000000E+00 -0.11853437925E+04  0.11853437925E+04  0.25500000920E-02 0.  1.
    10030    2    1    2    0    0  0.00000000000E+00  0.00000000000E+00  0.12650973618E+04  0.36357849468E+04  0.34085863410E+04 0.  0.
        5    1    3    3  502    0 -0.15760515650E+03  0.35412678958E+03 -0.11376959646E+04  0.12019231948E+04  0.46999998093E+01 0.  1.
       -5    1    3    3    0  502  0.15760515650E+03 -0.35412678958E+03  0.24027933264E+04  0.24338617520E+04  0.46999998093E+01 0. -1.
</event>
<event>
 5   0  0.5001197E-08  0.3396765E+04  0.7818609E-02  0.8138701E-01
       -2   -1    0    0    0  501  0.00000000000E+00  0.00000000000E+00  0.13831948761E+04  0.13831948761E+04  0.25500000920E-02 0.  1.
        2   -1    0    0  501    0  0.00000000000E+00  0.00000000000E+00 -0.20853913007E+04  0.20853913007E+04  0.25500000920E-02 0. -1.
    10030    2    1    2    0    0  0.00000000000E+00  0.00000000000E+00 -0.70219642465E+03  0.34685861768E+04  0.33967646735E+04 0.  0.
        5    1    3    3  502    0  0.14448019798E+04  0.55892009121E+03  0.35977947597E+03  0.15903797630E+04  0.46999998093E+01 0.  1.
       -5    1    3    3    0  502 -0.14448019798E+04 -0.55892009121E+03 -0.10619759006E+04  0.18782064138E+04  0.46999998093E+01 0. -1.
</event>
<event>
 5   0  0.4775023E-08  0.3407332E+04  0.7818609E-02  0.8136109E-01
       -2   -1    0    0    0  501  0.00000000000E+00  0.00000000000E+00  0.11705950982E+04  0.11705950982E+04  0.25500000920E-02 0. -1.
        2   -1    0    0  501    0  0.00000000000E+00  0.00000000000E+00 -0.24794893954E+04  0.24794893954E+04  0.25500000920E-02 0.  1.
    10030    2    1    2    0    0  0.00000000000E+00  0.00000000000E+00 -0.13088942972E+04  0.36500844936E+04  0.34073321718E+04 0.  0.
        4    1    3    3  502    0  0.56452370009E+03  0.12012440191E+04 -0.17986252762E+04  0.22353363725E+04  0.12699999809E+01 0.  1.
       -4    1    3    3    0  502 -0.56452370009E+03 -0.12012440191E+04  0.48973097898E+03  0.14147481211E+04  0.12699999809E+01 0. -1.
</event>
<event>
 5   0  0.4775023E-08  0.3398689E+04  0.7818609E-02  0.8138228E-01
       -2   -1    0    0    0  501  0.00000000000E+00  0.00000000000E+00  0.28456335670E+04  0.28456335670E+04  0.25500000920E-02 0.  1.
        2   -1    0    0  501    0  0.00000000000E+00  0.00000000000E+00 -0.10148080676E+04  0.10148080676E+04  0.25500000920E-02 0. -1.
    10030    2    1    2    0    0  0.00000000000E+00  0.00000000000E+00  0.18308254994E+04  0.38604416346E+04  0.33986891009E+04 0.  0.
        4    1    3    3  502    0 -0.16591590607E+03  0.32473224651E+03  0.28006668456E+04  0.28243079706E+04  0.12699999809E+01 0.  1.
       -4    1    3    3    0  502  0.16591590607E+03 -0.32473224651E+03 -0.96984134624E+03  0.10361336640E+04  0.12699999809E+01 0. -1.
</event>
<event>
 5   0  0.1595851E-08  0.3399239E+04  0.7818609E-02  0.8138093E-01
       -1   -1    0    0    0  501  0.00000000000E+00  0.00000000000E+00  0.14004105742E+04  0.14004105742E+04  0.50400001928E-02 0.  1.
        1   -1    0    0  501    0  0.00000000000E+00  0.00000000000E+00 -0.20627567562E+04  0.20627567562E+04  0.50400001928E-02 0. -1.
    10030    2    1    2    0    0  0.00000000000E+00  0.00000000000E+00 -0.66234618199E+03  0.34631673304E+04  0.33992389580E+04 0.  0.
        2    1    3    3  502    0 -0.77174351878E+03  0.10721141668E+04 -0.14207197988E+04  0.19399643275E+04  0.25500000920E-02 0. -1.
       -2    1    3    3    0  502  0.77174351878E+03 -0.10721141668E+04  0.75837361678E+03  0.15232030029E+04  0.25500000920E-02 0.  1.
</event>
<event>
 5   0  0.4946315E-08  0.3399529E+04  0.7818609E-02  0.8138022E-01
       -2   -1    0    0    0  501  0.00000000000E+00  0.00000000000E+00  0.14624668736E+04  0.14624668736E+04  0.25500000920E-02 0. -1.
        2   -1    0    0  501    0  0.00000000000E+00  0.00000000000E+00 -0.19755655940E+04  0.19755655940E+04  0.25500000920E-02 0.  1.
    10030    2    1    2    0    0  0.00000000000E+00  0.00000000000E+00 -0.51309872048E+03  0.34380324676E+04  0.33995289308E+04 0.  0.
        3    1    3    3  502    0 -0.13397055248E+04  0.98290215709E+03 -0.61878442253E+03  0.17730769062E+04  0.10100000352E+00 0. -1.
       -3    1    3    3    0  502  0.13397055248E+04 -0.98290215709E+03  0.10568570205E+03  0.16649555614E+04  0.10100000352E+00 0.  1.
</event>
<event>
 5   0  0.1645631E-08  0.3400470E+04  0.7818609E-02  0.8137791E-01
        1   -1    0    0  501    0  0.00000000000E+00  0.00000000000E+00  0.18604202810E+04  0.18604202810E+04  0.50400001928E-02 0. -1.
       -1   -1    0    0    0  501  0.00000000000E+00  0.00000000000E+00 -0.15538416694E+04  0.15538416694E+04  0.50400001928E-02 0.  1.
    10030    2    1    2    0    0  0.00000000000E+00  0.00000000000E+00  0.30657861164E+03  0.34142619504E+04  0.34004697059E+04 0.  0.
        4    1    3    3  502    0  0.13118340255E+04 -0.76856102804E+03 -0.61085097952E+03  0.16385161263E+04  0.12699999809E+01 0. -1.
       -4    1    3    3    0  502 -0.13118340255E+04  0.76856102804E+03  0.91742959116E+03  0.17757458241E+04  0.12699999809E+01 0.  1.
</event>
<event>
 5   0  0.4973409E-08  0.3399733E+04  0.7818609E-02  0.8137972E-01
        2   -1    0    0  501    0  0.00000000000E+00  0.00000000000E+00  0.27846121646E+04  0.27846121646E+04  0.25500000920E-02 0. -1.
       -2   -1    0    0    0  501  0.00000000000E+00  0.00000000000E+00 -0.10376837946E+04  0.10376837946E+04  0.25500000920E-02 0.  1.
    10030    2    1    2    0    0  0.00000000000E+00  0.00000000000E+00  0.17469283700E+04  0.38222959592E+04  0.33997334705E+04 0.  0.
        1    1    3    3  502    0 -0.29459285354E+03  0.10212162571E+04  0.23649560362E+04  0.25928140401E+04  0.50400001928E-02 0. -1.
       -1    1    3    3    0  502  0.29459285354E+03 -0.10212162571E+04 -0.61802766626E+03  0.12294819191E+04  0.50400001928E-02 0.  1.
</event>
<event>
 5   0  0.4764953E-08  0.3399688E+04  0.7818609E-02  0.8137983E-01
       -2   -1    0    0    0  501  0.00000000000E+00  0.00000000000E+00  0.16220882005E+04  0.16220882005E+04  0.25500000920E-02 0. -1.
        2   -1    0    0  501    0  0.00000000000E+00  0.00000000000E+00 -0.17813266634E+04  0.17813266634E+04  0.25500000920E-02 0.  1.
    10030    2    1    2    0    0  0.00000000000E+00  0.00000000000E+00 -0.15923846289E+03  0.34034148639E+04  0.33996876103E+04 0.  0.
        2    1    3    3  502    0 -0.15471838644E+04 -0.69712222123E+03 -0.17827503168E+03  0.17063233247E+04  0.25500000920E-02 0.  1.
       -2    1    3    3    0  502  0.15471838644E+04  0.69712222123E+03  0.19036568782E+02  0.16970915392E+04  0.25500000920E-02 0. -1.
</event>
<event>
 5   0  0.1645631E-08  0.3399897E+04  0.7818609E-02  0.8137931E-01
       -1   -1    0    0    0  501  0.00000000000E+00  0.00000000000E+00  0.15057073022E+04  0.15057073022E+04  0.50400001928E-02 0.  1.
        1   -1    0    0  501    0  0.00000000000E+00  0.00000000000E+00 -0.19192479608E+04  0.19192479608E+04  0.50400001928E-02 0. -1.
    10030    2    1    2    0    0  0.00000000000E+00  0.00000000000E+00 -0.41354065854E+03  0.34249552630E+04  0.33998974510E+04 0.  0.
        4    1    3    3  502    0  0.75625627195E+03 -0.13854519125E+04 -0.84263041088E+03  0.17892535240E+04  0.12699999809E+01 0.  1.
       -4    1    3    3    0  502 -0.75625627195E+03  0.13854519125E+04  0.42908975233E+03  0.16357017391E+04  0.12699999809E+01 0. -1.
</event>
<event>
 5   0  0.1595851E-08  0.3400217E+04  0.7818609E-02  0.8137853E-01
        1   -1    0    0  501    0  0.00000000000E+00  0.00000000000E+00  0.16775839588E+04  0.16775839588E+04  0.50400001928E-02 0.  1.
       -1   -1    0    0    0  501  0.00000000000E+00  0.00000000000E+00 -0.17229350250E+04  0.17229350250E+04  0.50400001928E-02 0. -1.
    10030    2    1    2    0    0  0.00000000000E+00  0.00000000000E+00 -0.45351066203E+02  0.34005189837E+04  0.34002165578E+04 0.  0.
        2    1    3    3  502    0  0.15984689804E+03  0.83237611703E+03  0.14512150698E+04  0.16806029304E+04  0.25500000920E-02 0.  1.
       -2    1    3    3    0  502 -0.15984689804E+03 -0.83237611703E+03 -0.14965661360E+04  0.17199160533E+04  0.25500000920E-02 0. -1.
</event>
<event>
 5   0  0.4775023E-08  0.3401048E+04  0.7818609E-02  0.8137649E-01
        2   -1    0    0  501    0  0.00000000000E+00  0.00000000000E+00  0.13111534789E+04  0.13111534789E+04  0.25500000920E-02 0. -1.
       -2   -1    0    0    0  501  0.00000000000E+00  0.00000000000E+00 -0.22055247928E+04  0.22055247928E+04  0.25500000920E-02 0.  1.
    10030    2    1    2    0    0  0.00000000000E+00  0.00000000000E+00 -0.89437131390E+03  0.35166782718E+04  0.34010477827E+04 0.  0.
        4    1    3    3  502    0 -0.90003830109E+03 -0.10516228526E+04  0.57422499738E+03  0.14985711621E+04  0.12699999809E+01 0. -1.
       -4    1    3    3    0  502  0.90003830109E+03  0.10516228526E+04 -0.14685963113E+04  0.20181071096E+04  0.12699999809E+01 0.  1.
</event>
<event>
 5   0  0.4775023E-08  0.3393023E+04  0.7818609E-02  0.8139621E-01
        2   -1    0    0  501    0  0.00000000000E+00  0.00000000000E+00  0.18490401459E+04  0.18490401459E+04  0.25500000920E-02 0. -1.
       -2   -1    0    0    0  501  0.00000000000E+00  0.00000000000E+00 -0.15565648886E+04  0.15565648886E+04  0.25500000920E-02 0.  1.
    10030    2    1    2    0    0  0.00000000000E+00  0.00000000000E+00  0.29247525721E+03  0.34056050345E+04  0.33930228226E+04 0.  0.
        4    1    3    3  502    0  0.53220840483E+02  0.16552771267E+04  0.51553480054E+03  0.17345179641E+04  0.12699999809E+01 0.  1.
       -4    1    3    3    0  502 -0.53220840483E+02 -0.16552771267E+04 -0.22305954333E+03  0.16710870704E+04  0.12699999809E+01 0. -1.
</event>
<event>
 5   0  0.1645631E-08  0.3400560E+04  0.7818609E-02  0.8137769E-01
       -1   -1    0    0    0  501  0.00000000000E+00  0.00000000000E+00  0.14567930474E+04  0.14567930474E+04  0.50400001928E-02 0.  1.
        1   -1    0    0  501    0  0.00000000000E+00  0.00000000000E+00 -0.19844636663E+04  0.19844636663E+04  0.50400001928E-02 0. -1.
    10030    2    1    2    0    0  0.00000000000E+00  0.00000000000E+00 -0.52767061894E+03  0.34412567137E+04  0.34005604667E+04 0.  0.
        4    1    3    3  502    0 -0.61244956938E+03  0.12127074222E+03  0.13365938508E+04  0.14752239840E+04  0.12699999809E+01 0.  1.
       -4    1    3    3    0  502  0.61244956938E+03 -0.12127074222E+03 -0.18642644698E+04  0.19660327297E+04  0.12699999809E+01 0. -1.
</event>
<event>
 5   0  0.1595851E-08  0.3398898E+04  0.7818609E-02  0.8138177E-01
       -1   -1    0    0    0  501  0.00000000000E+00  0.00000000000E+00  0.16312015430E+04  0.16312015430E+04  0.50400001928E-02 0.  1.
        1   -1    0    0  501    0  0.00000000000E+00  0.00000000000E+00 -0.17705517046E+04  0.17705517046E+04  0.50400001928E-02 0. -1.
    10030    2    1    2    0    0  0.00000000000E+00  0.00000000000E+00 -0.13935016158E+03  0.34017532476E+04  0.33988978641E+04 0.  0.
        2    1    3    3  502    0 -0.19024761201E+03  0.43632982012E+03  0.15631208562E+04  0.16339904151E+04  0.25500000920E-02 0.  1.
       -2    1    3    3    0  502  0.19024761201E+03 -0.43632982012E+03 -0.17024710177E+04  0.17677628325E+04  0.25500000920E-02 0. -1.
</event>
<event>
 5   0  0.5001197E-08  0.3396542E+04  0.7818609E-02  0.8138756E-01
       -2   -1    0    0    0  501  0.00000000000E+00  0.00000000000E+00  0.11555188844E+04  0.11555188844E+04  0.25500000920E-02 0.  1.
        2   -1    0    0  501    0  0.00000000000E+00  0.00000000000E+00 -0.24959553776E+04  0.24959553776E+04  0.25500000920E-02 0. -1.
    10030    2    1    2    0    0  0.00000000000E+00  0.00000000000E+00 -0.13404364932E+04  0.36514742620E+04  0.33965415195E+04 0.  0.
        5    1    3    3  502    0  0.63851891337E+03 -0.38101260998E+03  0.97121551800E+03  0.12231756554E+04  0.46999998093E+01 0.  1.
       -5    1    3    3    0  502 -0.63851891337E+03  0.38101260998E+03 -0.23116520112E+04  0.24282986065E+04  0.46999998093E+01 0. -1.
</event>
<event>
 5   0  0.5001197E-08  0.3373930E+04  0.7818609E-02  0.8144335E-01
        2   -1    0    0  501    0  0.00000000000E+00  0.00000000000E+00  0.25959001153E+04  0.25959001153E+04  0.25500000920E-02 0.  1.
       -2   -1    0    0    0  501  0.00000000000E+00  0.00000000000E+00 -0.10962865060E+04  0.10962865060E+04  0.25500000920E-02 0. -1.
    10030    2    1    2    0    0  0.00000000000E+00  0.00000000000E+00  0.14996136093E+04  0.36921866213E+04  0.33739296183E+04 0.  0.
        5    1    3    3  502    0  0.79797797893E+03 -0.11359298864E+04  0.17987206769E+04  0.22721187745E+04  0.46999998093E+01 0.  1.
       -5    1    3    3    0  502 -0.79797797893E+03  0.11359298864E+04 -0.29910706755E+03  0.14200678468E+04  0.46999998093E+01 0. -1.
</event>
<event>
 5   0  0.1579536E-08  0.3401206E+04  0.7818609E-02  0.8137611E-01
       -1   -1    0    0    0  501  0.00000000000E+00  0.00000000000E+00  0.10921316006E+04  0.10921316006E+04  0.50400001928E-02 0. -1.
        1   -1    0    0  501    0  0.00000000000E+00  0.00000000000E+00 -0.26480781028E+04  0.26480781028E+04  0.50400001928E-02 0.  1.
    10030    2    1    2    0    0  0.00000000000E+00  0.00000000000E+00 -0.15559465021E+04  0.37402097034E+04  0.34012055374E+04 0.  0.
        5    1    3    3  502    0 -0.13584315290E+04 -0.95961832094E+03 -0.11680455153E+04  0.20323769228E+04  0.46999998093E+01 0.  1.
       -5    1    3    3    0  502  0.13584315290E+04  0.95961832094E+03 -0.38790098686E+03  0.17078327806E+04  0.46999998093E+01 0. -1.
</event>
<event>
 5   0  0.4764953E-08  0.3399870E+04  0.7818609E-02  0.8137938E-01
        2   -1    0    0  501    0  0.00000000000E+00  0.00000000000E+00  0.24290522699E+04  0.24290522699E+04  0.25500000920E-02 0.  1.
       -2   -1    0    0    0  501  0.00000000000E+00  0.00000000000E+00 -0.11896737957E+04  0.11896737957E+04  0.25500000920E-02 0. -1.
    10030    2    1    2    0    0  0.00000000000E+00  0.00000000000E+00  0.12393784741E+04  0.36187260656E+04  0.33998704881E+04 0.  0.
        2    1    3    3  502    0 -0.12449452527E+04 -0.88516883939E+03 -0.17422597698E+03  0.15374547953E+04  0.25500000920E-02 0. -1.
       -2    1    3    3    0  502  0.12449452527E+04  0.88516883939E+03  0.14136044511E+04  0.20812712703E+04  0.25500000920E-02 0.  1.
</event>
<event>
 5   0  0.1645631E-08  0.3401589E+04  0.7818609E-02  0.8137516E-01
        1   -1    0    0  501    0  0.00000000000E+00  0.00000000000E+00  0.22187282950E+04  0.22187282950E+04  0.50400001928E-02 0.  1.
       -1   -1    0    0    0  501  0.00000000000E+00  0.00000000000E+00 -0.13037658116E+04  0.13037658116E+04  0.50400001928E-02 0. -1.
    10030    2    1    2    0    0  0.00000000000E+00  0.00000000000E+00  0.91496248337E+03  0.35224941066E+04  0.34015890970E+04 0.  0.
        4    1    3    3  502    0  0.47829890740E+03  0.74533723425E+03  0.19611259901E+04  0.21518164883E+04  0.12699999809E+01 0.  1.
       -4    1    3    3    0  502 -0.47829890740E+03 -0.74533723425E+03 -0.10461635067E+04  0.13706776183E+04  0.12699999809E+01 0. -1.
</event>
<event>
 5   0  0.4946315E-08  0.3400080E+04  0.7818609E-02  0.8137887E-01
        2   -1    0    0  501    0  0.00000000000E+00  0.00000000000E+00  0.20690858385E+04  0.20690858385E+04  0.25500000920E-02 0. -1.
       -2   -1    0    0    0  501  0.00000000000E+00  0.00000000000E+00 -0.13968179777E+04  0.13968179777E+04  0.25500000920E-02 0.  1.
    10030    2    1    2    0    0  0.00000000000E+00  0.00000000000E+00  0.67226786077E+03  0.34659038162E+04  0.34000801735E+04 0.  0.
        3    1    3    3  502    0 -0.97754148832E+02  0.60178706160E+03  0.19538135991E+04  0.20467269313E+04  0.10100000352E+00 0. -1.
       -3    1    3    3    0  502  0.97754148832E+02 -0.60178706160E+03 -0.12815457383E+04  0.14191768849E+04  0.10100000352E+00 0.  1.
</event>
<event>
 5   0  0.5001197E-08  0.3402045E+04  0.7818609E-02  0.8137405E-01
       -2   -1    0    0    0  501  0.00000000000E+00  0.00000000000E+00  0.16484728125E+04  0.16484728125E+04  0.25500000920E-02 0. -1.
        2   -1    0    0  501    0  0.00000000000E+00  0.00000000000E+00 -0.17552475035E+04  0.17552475035E+04  0.25500000920E-02 0.  1.
    10030    2    1    2    0    0  0.00000000000E+00  0.00000000000E+00 -0.10677469103E+03  0.34037203160E+04  0.34020451429E+04 0.  0.
        5    1    3    3  502    0 -0.94516293494E+03  0.28286781101E+03 -0.14397494633E+04  0.17453503314E+04  0.46999998093E+01 0.  1.
       -5    1    3    3    0  502  0.94516293494E+03 -0.28286781101E+03  0.13329747723E+04  0.16583699846E+04  0.46999998093E+01 0. -1.
</event>
<event>
 5   0  0.4764953E-08  0.3399487E+04  0.7818609E-02  0.8138032E-01
       -2   -1    0    0    0  501  0.00000000000E+00  0.00000000000E+00  0.16545467839E+04  0.16545467839E+04  0.25500000920E-02 0. -1.
        2   -1    0    0  501    0  0.00000000000E+00  0.00000000000E+00 -0.17461744011E+04  0.17461744011E+04  0.25500000920E-02 0.  1.
    10030    2    1    2    0    0  0.00000000000E+00  0.00000000000E+00 -0.91627617215E+02  0.34007211850E+04  0.33994865727E+04 0.  0.
        2    1    3    3  502    0 -0.67686074439E+03  0.15389695444E+04  0.20439602759E+03  0.16936190427E+04  0.25500000920E-02 0.  1.
       -2    1    3    3    0  502  0.67686074439E+03 -0.15389695444E+04 -0.29602364481E+03  0.17071021423E+04  0.25500000920E-02 0. -1.
</event>
<event>
 5   0  0.1630571E-08  0.3408128E+04  0.7818609E-02  0.8135914E-01
       -1   -1    0    0    0  501  0.00000000000E+00  0.00000000000E+00  0.11316212196E+04  0.11316212196E+04  0.50400001928E-02 0. -1.
        1   -1    0    0  501    0  0.00000000000E+00  0.00000000000E+00 -0.25660828016E+04  0.25660828016E+04  0.50400001928E-02 0.  1.
    10030    2    1    2    0    0  0.00000000000E+00  0.00000000000E+00 -0.14344615821E+04  0.36977040212E+04  0.34081277849E+04 0.  0.
        3    1    3    3  502    0 -0.51684507469E+02 -0.16941826404E+04 -0.52648755666E+03  0.17748564068E+04  0.10100000352E+00 0. -1.
       -3    1    3    3    0  502  0.51684507469E+02  0.16941826404E+04 -0.90797402541E+03  0.19228476144E+04  0.10100000352E+00 0.  1.
</event>
<event>
 5   0  0.4764953E-08  0.3404083E+04  0.7818609E-02  0.8136905E-01
        2   -1    0    0  501    0  0.00000000000E+00  0.00000000000E+00  0.17261637202E+04  0.17261637202E+04  0.25500000920E-02 0. -1.
       -2   -1    0    0    0  501  0.00000000000E+00  0.00000000000E+00 -0.16782563663E+04  0.16782563663E+04  0.25500000920E-02 0.  1.
    10030    2    1    2    0    0  0.00000000000E+00  0.00000000000E+00  0.47907353945E+02  0.34044200865E+04  0.34040829912E+04 0.  0.
        2    1    3    3  502    0  0.89588664430E+03 -0.13021105759E+04  0.65555435541E+03  0.17110979938E+04  0.25500000920E-02 0. -1.
       -2    1    3    3    0  502 -0.89588664430E+03  0.13021105759E+04 -0.60764700146E+03  0.16933220928E+04  0.25500000920E-02 0.  1.
</event>
<event>
 5   0  0.1579536E-08  0.3400563E+04  0.7818609E-02  0.8137768E-01
        1   -1    0    0  501    0  0.00000000000E+00  0.00000000000E+00  0.19573791851E+04  0.19573791851E+04  0.50400001928E-02 0.  1.
       -1   -1    0    0    0  501  0.00000000000E+00  0.00000000000E+00 -0.14769529129E+04  0.14769529129E+04  0.50400001928E-02 0. -1.
    10030    2    1    2    0    0  0.00000000000E+00  0.00000000000E+00  0.48042627217E+03  0.34343320981E+04  0.34005628294E+04 0.  0.
        5    1    3    3  502    0 -0.11654528295E+04 -0.86190345474E+03 -0.65730598349E+03  0.15916127384E+04  0.46999998093E+01 0. -1.
       -5    1    3    3    0  502  0.11654528295E+04  0.86190345474E+03  0.11377322557E+04  0.18427193597E+04  0.46999998093E+01 0.  1.
</event>
<event>
 5   0  0.1645631E-08  0.3392723E+04  0.7818609E-02  0.8139695E-01
       -1   -1    0    0    0  501  0.00000000000E+00  0.00000000000E+00  0.11994000690E+04  0.11994000690E+04  0.50400001928E-02 0.  1.
        1   -1    0    0  501    0  0.00000000000E+00  0.00000000000E+00 -0.23992354287E+04  0.23992354287E+04  0.50400001928E-02 0. -1.
    10030    2    1    2    0    0  0.00000000000E+00  0.00000000000E+00 -0.11998353597E+04  0.35986354977E+04  0.33927234717E+04 0.  0.
        4    1    3    3  502    0 -0.14182556640E+02 -0.51286412085E+03  0.11151304355E+04  0.12274967424E+04  0.12699999809E+01 0.  1.
       -4    1    3    3    0  502  0.14182556640E+02  0.51286412085E+03 -0.23149657952E+04  0.23711387554E+04  0.12699999809E+01 0. -1.
</event>
<event>
 5   0  0.4946315E-08  0.3386714E+04  0.7818609E-02  0.8141175E-01
       -2   -1    0    0    0  501  0.00000000000E+00  0.00000000000E+00  0.11674567157E+04  0.11674567157E+04  0.25500000920E-02 0.  1.
        2   -1    0    0  501    0  0.00000000000E+00  0.00000000000E+00 -0.24561579465E+04  0.24561579465E+04  0.25500000920E-02 0. -1.
    10030    2    1    2    0    0  0.00000000000E+00  0.00000000000E+00 -0.12887012308E+04  0.36236146622E+04  0.33867140945E+04 0.  0.
        3    1    3    3  502    0  0.12670921592E+03  0.16746064410E+04 -0.41215391441E+03  0.17292289661E+04  0.10100000352E+00 0. -1.
       -3    1    3    3    0  502 -0.12670921592E+03 -0.16746064410E+04 -0.87654731636E+03  0.18943856962E+04  0.10100000352E+00 0.  1.
</event>
<event>
 5   0  0.1630571E-08  0.3399507E+04  0.7818609E-02  0.8138027E-01
        1   -1    0    0  501    0  0.00000000000E+00  0.00000000000E+00  0.19636653837E+04  0.19636653837E+04  0.50400001928E-02 0. -1.
       -1   -1    0    0    0  501  0.00000000000E+00  0.00000000000E+00 -0.14713111588E+04  0.14713111588E+04  0.50400001928E-02 0.  1.
    10030    2    1    2    0    0  0.00000000000E+00  0.00000000000E+00  0.49235422491E+03  0.34349765425E+04  0.33995074885E+04 0.  0.
        3    1    3    3  502    0 -0.91837692716E+03  0.67275911163E+03  0.15215435582E+04  0.19002936121E+04  0.10100000352E+00 0. -1.
       -3    1    3    3    0  502  0.91837692716E+03 -0.67275911163E+03 -0.10291893333E+04  0.15346829303E+04  0.10100000352E+00 0.  1.
</event>
<event>
 5   0  0.1595851E-08  0.3403021E+04  0.7818609E-02  0.8137165E-01
       -1   -1    0    0    0  501  0.00000000000E+00  0.00000000000E+00  0.12434047716E+04  0.12434047716E+04  0.50400001928E-02 0.  1.
        1   -1    0    0  501    0  0.00000000000E+00  0.00000000000E+00 -0.23283949762E+04  0.23283949763E+04  0.50400001928E-02 0. -1.
    10030    2    1    2    0    0  0.00000000000E+00  0.00000000000E+00 -0.10849902047E+04  0.35717997478E+04  0.34030206721E+04 0.  0.
        2    1    3    3  502    0  0.16222046105E+04  0.31153840544E+03 -0.97081993200E+03  0.19160102601E+04  0.25500000920E-02 0. -1.
       -2    1    3    3    0  502 -0.16222046105E+04 -0.31153840544E+03 -0.11417027266E+03  0.16557894877E+04  0.25500000920E-02 0.  1.
</event>
<event>
 5   0  0.1595851E-08  0.3400222E+04  0.7818609E-02  0.8137852E-01
        1   -1    0    0  501    0  0.00000000000E+00  0.00000000000E+00  0.27412400796E+04  0.27412400796E+04  0.50400001928E-02 0.  1.
       -1   -1    0    0    0  501  0.00000000000E+00  0.00000000000E+00 -0.10544049019E+04  0.10544049019E+04  0.50400001928E-02 0. -1.
    10030    2    1    2    0    0  0.00000000000E+00  0.00000000000E+00  0.16868351776E+04  0.37956449815E+04  0.34002217441E+04 0.  0.
        2    1    3    3  502    0  0.28669203410E+02 -0.16584720034E+04  0.42719481474E+03  0.17128475470E+04  0.25500000920E-02 0. -1.
       -2    1    3    3    0  502 -0.28669203410E+02  0.16584720034E+04  0.12596403629E+04  0.20827974345E+04  0.25500000920E-02 0.  1.
</event>
<event>
 5   0  0.4775023E-08  0.3407851E+04  0.7818609E-02  0.8135982E-01
        2   -1    0    0  501    0  0.00000000000E+00  0.00000000000E+00  0.22427728705E+04  0.22427728705E+04  0.25500000920E-02 0. -1.
       -2   -1    0    0    0  501  0.00000000000E+00  0.00000000000E+00 -0.12945409900E+04  0.12945409900E+04  0.25500000920E-02 0.  1.
    10030    2    1    2    0    0  0.00000000000E+00  0.00000000000E+00  0.94823188054E+03  0.35373138605E+04  0.34078505907E+04 0.  0.
        4    1    3    3  502    0 -0.15395634939E+03 -0.13795399148E+02 -0.12872479856E+04  0.12964959930E+04  0.12699999809E+01 0.  1.
       -4    1    3    3    0  502  0.15395634939E+03  0.13795399148E+02  0.22354798662E+04  0.22408178675E+04  0.12699999809E+01 0. -1.
</event>
<event>
 5   0  0.1625282E-08  0.3395801E+04  0.7818609E-02  0.8138938E-01
        1   -1    0    0  501    0  0.00000000000E+00  0.00000000000E+00  0.21758752756E+04  0.21758752756E+04  0.50400001928E-02 0.  1.
       -1   -1    0    0    0  501  0.00000000000E+00  0.00000000000E+00 -0.13249227899E+04  0.13249227899E+04  0.50400001928E-02 0. -1.
    10030    2    1    2    0    0  0.00000000000E+00  0.00000000000E+00  0.85095248563E+03  0.35007980655E+04  0.33958013727E+04 0.  0.
        1    1    3    3  502    0 -0.16927032331E+04 -0.12015956213E+03  0.48364957186E+03  0.17645394482E+04  0.50400001928E-02 0.  1.
       -1    1    3    3    0  502  0.16927032331E+04  0.12015956213E+03  0.36730291377E+03  0.17362586173E+04  0.50400001928E-02 0. -1.
</event>
<event>
 5   0  0.1625282E-08  0.3399592E+04  0.7818609E-02  0.8138007E-01
        1   -1    0    0  501    0  0.00000000000E+00  0.00000000000E+00  0.22819644583E+04  0.22819644583E+04  0.50400001928E-02 0. -1.
       -1   -1    0    0    0  501  0.00000000000E+00  0.00000000000E+00 -0.12661484457E+04  0.12661484457E+04  0.50400001928E-02 0.  1.
    10030    2    1    2    0    0  0.00000000000E+00  0.00000000000E+00  0.10158160126E+04  0.35481129040E+04  0.33995915943E+04 0.  0.
        1    1    3    3  502    0  0.23515834115E+03  0.58925137403E+03  0.21537576734E+04  0.22452591706E+04  0.50400001928E-02 0. -1.
       -1    1    3    3    0  502 -0.23515834115E+03 -0.58925137403E+03 -0.11379416608E+04  0.13028537334E+04  0.50400001928E-02 0.  1.
</event>
<event>
 5   0  0.5001197E-08  0.3400301E+04  0.7818609E-02  0.8137832E-01
       -2   -1    0    0    0  501  0.00000000000E+00  0.00000000000E+00  0.12909286000E+04  0.12909286001E+04  0.25500000920E-02 0.  1.
        2   -1    0    0  501    0  0.00000000000E+00  0.00000000000E+00 -0.22390948260E+04  0.22390948260E+04  0.25500000920E-02 0. -1.
    10030    2    1    2    0    0  0.00000000000E+00  0.00000000000E+00 -0.94816622595E+03  0.35300234261E+04  0.34003008979E+04 0.  0.
        5    1    3    3  502    0 -0.18309974254E+03  0.74765671842E+03  0.10996559814E+04  0.13423045302E+04  0.46999998093E+01 0.  1.
       -5    1    3    3    0  502  0.18309974254E+03 -0.74765671842E+03 -0.20478222074E+04  0.21877188959E+04  0.46999998093E+01 0. -1.
</event>
<event>
 5   0  0.4973409E-08  0.3405404E+04  0.7818609E-02  0.8136581E-01
        2   -1    0    0  501    0  0.00000000000E+00  0.00000000000E+00  0.17234997018E+04  0.17234997018E+04  0.25500000920E-02 0. -1.
       -2   -1    0    0    0  501  0.00000000000E+00  0.00000000000E+00 -0.16821549119E+04  0.16821549119E+04  0.25500000920E-02 0.  1.
    10030    2    1    2    0    0  0.00000000000E+00  0.00000000000E+00  0.41344789858E+02  0.34056546137E+04  0.34054036407E+04 0.  0.
        1    1    3    3  502    0  0.57411206128E+03 -0.13308273337E+04 -0.87297470379E+03  0.16919783936E+04  0.50400001928E-02 0. -1.
       -1    1    3    3    0  502 -0.57411206128E+03  0.13308273337E+04  0.91431949365E+03  0.17136762201E+04  0.50400001928E-02 0.  1.
</event>
<event>
 5   0  0.4973409E-08  0.3375164E+04  0.7818609E-02  0.8144029E-01
        2   -1    0    0  501    0  0.00000000000E+00  0.00000000000E+00  0.19481464600E+04  0.19481464600E+04  0.25500000920E-02 0.  1.
       -2   -1    0    0    0  501  0.00000000000E+00  0.00000000000E+00 -0.14618678366E+04  0.14618678366E+04  0.25500000920E-02 0. -1.
    10030    2    1    2    0    0  0.00000000000E+00  0.00000000000E+00  0.48627862336E+03  0.34100142966E+04  0.33751637891E+04 0.  0.
        1    1    3    3  502    0 -0.12595045407E+03  0.16797004389E+04  0.13874979831E+03  0.16901208797E+04  0.50400001928E-02 0. -1.
       -1    1    3    3    0  502  0.12595045407E+03 -0.16797004389E+04  0.34752882505E+03  0.17198934169E+04  0.50400001928E-02 0.  1.
</event>
<event>
 5   0  0.1630571E-08  0.3409819E+04  0.7818609E-02  0.8135501E-01
       -1   -1    0    0    0  501  0.00000000000E+00  0.00000000000E+00  0.11429408514E+04  0.11429408514E+04  0.50400001928E-02 0. -1.
        1   -1    0    0  501    0  0.00000000000E+00  0.00000000000E+00 -0.25431906722E+04  0.25431906722E+04  0.50400001928E-02 0.  1.
    10030    2    1    2    0    0  0.00000000000E+00  0.00000000000E+00 -0.14002498207E+04  0.36861315236E+04  0.34098190640E+04 0.  0.
        3    1    3    3  502    0 -0.81307274805E+03 -0.42891076341E+03 -0.22523279048E+04  0.24327007086E+04  0.10100000352E+00 0.  1.
       -3    1    3    3    0  502  0.81307274805E+03  0.42891076341E+03  0.85207808405E+03  0.12534308150E+04  0.10100000352E+00 0. -1.
</event>
<event>
 5   0  0.5001197E-08  0.3399707E+04  0.7818609E-02  0.8137978E-01
       -2   -1    0    0    0  501  0.00000000000E+00  0.00000000000E+00  0.17456894462E+04  0.17456894462E+04  0.25500000920E-02 0.  1.
        2   -1    0    0  501    0  0.00000000000E+00  0.00000000000E+00 -0.16552209424E+04  0.16552209424E+04  0.25500000920E-02 0. -1.
    10030    2    1    2    0    0  0.00000000000E+00  0.00000000000E+00  0.90468503868E+02  0.34009103886E+04  0.33997068876E+04 0.  0.
        5    1    3    3  502    0  0.39522604193E+03 -0.15797591788E+04  0.53288702842E+03  0.17134273730E+04  0.46999998093E+01 0. -1.
       -5    1    3    3    0  502 -0.39522604193E+03  0.15797591788E+04 -0.44241852455E+03  0.16874830157E+04  0.46999998093E+01 0.  1.
</event>
<event>
 5   0  0.4764953E-08  0.3399422E+04  0.7818609E-02  0.8138048E-01
       -2   -1    0    0    0  501  0.00000000000E+00  0.00000000000E+00  0.88457108578E+03  0.88457108578E+03  0.25500000920E-02 0. -1.
        2   -1    0    0  501    0  0.00000000000E+00  0.00000000000E+00 -0.32660100437E+04  0.32660100437E+04  0.25500000920E-02 0.  1.
    10030    2    1    2    0    0  0.00000000000E+00  0.00000000000E+00 -0.23814389579E+04  0.41505811295E+04  0.33994223336E+04 0.  0.
        2    1    3    3  502    0 -0.90804659328E+03  0.13978112969E+04 -0.15967583669E+04  0.23082595867E+04  0.25500000920E-02 0.  1.
       -2    1    3    3    0  502  0.90804659328E+03 -0.13978112969E+04 -0.78468059103E+03  0.18423215428E+04  0.25500000920E-02 0. -1.
</event>
<event>
 5   0  0.1579536E-08  0.3399037E+04  0.7818609E-02  0.8138143E-01
       -1   -1    0    0    0  501  0.00000000000E+00  0.00000000000E+00  0.14319595924E+04  0.14319595925E+04  0.50400001928E-02 0.  1.
        1   -1    0    0  501    0  0.00000000000E+00  0.00000000000E+00 -0.20170708468E+04  0.20170708468E+04  0.50400001928E-02 0. -1.
    10030    2    1    2    0    0  0.00000000000E+00  0.00000000000E+00 -0.58511125432E+03  0.34490304392E+04  0.33990374801E+04 0.  0.
        5    1    3    3  502    0 -0.24897053920E+03  0.70291078103E+03  0.12570838427E+04  0.14616264136E+04  0.46999998093E+01 0.  1.
       -5    1    3    3    0  502  0.24897053920E+03 -0.70291078103E+03 -0.18421950970E+04  0.19874040256E+04  0.46999998093E+01 0. -1.
</event>
<event>
 5   0  0.4973409E-08  0.3399970E+04  0.7818609E-02  0.8137914E-01
        2   -1    0    0  501    0  0.00000000000E+00  0.00000000000E+00  0.17297279121E+04  0.17297279121E+04  0.25500000920E-02 0. -1.
       -2   -1    0    0    0  501  0.00000000000E+00  0.00000000000E+00 -0.16707534493E+04  0.16707534493E+04  0.25500000920E-02 0.  1.
    10030    2    1    2    0    0  0.00000000000E+00  0.00000000000E+00  0.58974462793E+02  0.34004813615E+04  0.33999699267E+04 0.  0.
        1    1    3    3  502    0  0.21496390676E+03 -0.14931267074E+04  0.81338573095E+03  0.17138358127E+04  0.50400001928E-02 0.  1.
       -1    1    3    3    0  502 -0.21496390676E+03  0.14931267074E+04 -0.75441126815E+03  0.16866455488E+04  0.50400001928E-02 0. -1.
</event>
<event>
 5   0  0.4775023E-08  0.3400360E+04  0.7818609E-02  0.8137818E-01
        2   -1    0    0  501    0  0.00000000000E+00  0.00000000000E+00  0.27100093303E+04  0.27100093303E+04  0.25500000920E-02 0.  1.
       -2   -1    0    0    0  501  0.00000000000E+00  0.00000000000E+00 -0.10666425485E+04  0.10666425485E+04  0.25500000920E-02 0. -1.
    10030    2    1    2    0    0  0.00000000000E+00  0.00000000000E+00  0.16433667817E+04  0.37766518788E+04  0.34003595448E+04 0.  0.
        4    1    3    3  502    0  0.42941583205E+03 -0.16394044087E+04  0.67035231795E+03  0.18224759574E+04  0.12699999809E+01 0. -1.
       -4    1    3    3    0  502 -0.42941583205E+03  0.16394044087E+04  0.97301446380E+03  0.19541759214E+04  0.12699999809E+01 0.  1.
</event>
<event>
 5   0  0.4973409E-08  0.3399783E+04  0.7818609E-02  0.8137960E-01
       -2   -1    0    0    0  501  0.00000000000E+00  0.00000000000E+00  0.12415895639E+04  0.12415895639E+04  0.25500000920E-02 0.  1.
        2   -1    0    0  501    0  0.00000000000E+00  0.00000000000E+00 -0.23273638489E+04  0.23273638489E+04  0.25500000920E-02 0. -1.
    10030    2    1    2    0    0  0.00000000000E+00  0.00000000000E+00 -0.10857742851E+04  0.35689534128E+04  0.33997827379E+04 0.  0.
        1    1    3    3  502    0 -0.26637191972E+03 -0.15538054013E+04 -0.12104262759E+04  0.19875605636E+04  0.50400001928E-02 0. -1.
       -1    1    3    3    0  502  0.26637191972E+03  0.15538054013E+04  0.12465199079E+03  0.15813928492E+04  0.50400001928E-02 0.  1.
</event>
<event>
 5   0  0.4764953E-08  0.3388063E+04  0.7818609E-02  0.8140842E-01
        2   -1    0    0  501    0  0.00000000000E+00  0.00000000000E+00  0.19360230333E+04  0.19360230333E+04  0.25500000920E-02 0.  1.
       -2   -1    0    0    0  501  0.00000000000E+00  0.00000000000E+00 -0.14822877137E+04  0.14822877137E+04  0.25500000920E-02 0. -1.
    10030    2    1    2    0    0  0.00000000000E+00  0.00000000000E+00  0.45373531965E+03  0.34183107470E+04  0.33880632554E+04 0.  0.
        2    1    3    3  502    0 -0.12887592260E+04  0.21127844821E+03  0.13154834186E+04  0.18536546469E+04  0.25500000920E-02 0.  1.
       -2    1    3    3    0  502  0.12887592260E+04 -0.21127844821E+03 -0.86174809895E+03  0.15646561001E+04  0.25500000920E-02 0. -1.
</event>
<event>
 5   0  0.1595851E-08  0.3401925E+04  0.7818609E-02  0.8137434E-01
       -1   -1    0    0    0  501  0.00000000000E+00  0.00000000000E+00  0.12125344133E+04  0.12125344133E+04  0.50400001928E-02 0.  1.
        1   -1    0    0  501    0  0.00000000000E+00  0.00000000000E+00 -0.23861376846E+04  0.23861376846E+04  0.50400001928E-02 0. -1.
    10030    2    1    2    0    0  0.00000000000E+00  0.00000000000E+00 -0.11736032712E+04  0.35986720979E+04  0.34019253710E+04 0.  0.
        2    1    3    3  502    0 -0.13134084167E+03  0.37615893211E+02  0.12067209959E+04  0.12144302920E+04  0.25500000920E-02 0.  1.
       -2    1    3    3    0  502  0.13134084167E+03 -0.37615893211E+02 -0.23803242672E+04  0.23842418059E+04  0.25500000920E-02 0. -1.
</event>
<event>
 5   0  0.1595851E-08  0.3400831E+04  0.7818609E-02  0.8137702E-01
        1   -1    0    0  501    0  0.00000000000E+00  0.00000000000E+00  0.19984037084E+04  0.19984037085E+04  0.50400001928E-02 0. -1.
       -1   -1    0    0    0  501  0.00000000000E+00  0.00000000000E+00 -0.14468612629E+04  0.14468612629E+04  0.50400001928E-02 0.  1.
    10030    2    1    2    0    0  0.00000000000E+00  0.00000000000E+00  0.55154244553E+03  0.34452649714E+04  0.34008310240E+04 0.  0.
        2    1    3    3  502    0  0.52174669812E+03 -0.16040382195E+04  0.49365026001E+03  0.17575121069E+04  0.25500000920E-02 0. -1.
       -2    1    3    3    0  502 -0.52174669812E+03  0.16040382195E+04  0.57892185515E+02  0.16877528645E+04  0.25500000920E-02 0.  1.
</event>
<event>
 5   0  0.4973409E-08  0.3398846E+04  0.7818609E-02  0.8138189E-01
        2   -1    0    0  501    0  0.00000000000E+00  0.00000000000E+00  0.20851597707E+04  0.20851597707E+04  0.25500000920E-02 0.  1.
       -2   -1    0    0    0  501  0.00000000000E+00  0.00000000000E+00 -0.13850446025E+04  0.13850446025E+04  0.25500000920E-02 0. -1.
    10030    2    1    2    0    0  0.00000000000E+00  0.00000000000E+00  0.70011516816E+03  0.34702043732E+04  0.33988464430E+04 0.  0.
        1    1    3    3  502    0 -0.10736086305E+04  0.12695911941E+04  0.70892234316E+03  0.18075033002E+04  0.50400001928E-02 0. -1.
       -1    1    3    3    0  502  0.10736086305E+04 -0.12695911941E+04 -0.88071749963E+01  0.16627010730E+04  0.50400001928E-02 0.  1.
</event>
<event>
 5   0  0.1625282E-08  0.3398906E+04  0.7818609E-02  0.8138175E-01
       -1   -1    0    0    0  501  0.00000000000E+00  0.00000000000E+00  0.13083674261E+04  0.13083674261E+04  0.50400001928E-02 0.  1.
        1   -1    0    0  501    0  0.00000000000E+00  0.00000000000E+00 -0.22074379067E+04  0.22074379067E+04  0.50400001928E-02 0. -1.
    10030    2    1    2    0    0  0.00000000000E+00  0.00000000000E+00 -0.89907048053E+03  0.35158053328E+04  0.33989056193E+04 0.  0.
        1    1    3    3  502    0  0.18953612393E+02  0.76874333787E+03 -0.20171836143E+04  0.21587856060E+04  0.50400001928E-02 0. -1.
       -1    1    3    3    0  502 -0.18953612393E+02 -0.76874333787E+03  0.11181131338E+04  0.13570197268E+04  0.50400001928E-02 0.  1.
</event>
<event>
 5   0  0.1579536E-08  0.3399383E+04  0.7818609E-02  0.8138058E-01
        1   -1    0    0  501    0  0.00000000000E+00  0.00000000000E+00  0.18352176892E+04  0.18352176892E+04  0.50400001928E-02 0.  1.
       -1   -1    0    0    0  501  0.00000000000E+00  0.00000000000E+00 -0.15741737895E+04  0.15741737895E+04  0.50400001928E-02 0. -1.
    10030    2    1    2    0    0  0.00000000000E+00  0.00000000000E+00  0.26104389971E+03  0.34093914787E+04  0.33993832289E+04 0.  0.
        5    1    3    3  502    0 -0.35891415523E+03 -0.20299468750E+03 -0.15232423909E+04  0.15780734094E+04  0.46999998093E+01 0. -1.
       -5    1    3    3    0  502  0.35891415523E+03  0.20299468750E+03  0.17842862906E+04  0.18313180693E+04  0.46999998093E+01 0.  1.
</event>
<event>
 5   0  0.4973409E-08  0.3401605E+04  0.7818609E-02  0.8137513E-01
       -2   -1    0    0    0  501  0.00000000000E+00  0.00000000000E+00  0.17263827876E+04  0.17263827876E+04  0.25500000920E-02 0.  1.
        2   -1    0    0  501    0  0.00000000000E+00  0.00000000000E+00 -0.16756008230E+04  0.16756008230E+04  0.25500000920E-02 0. -1.
    10030    2    1    2    0    0  0.00000000000E+00  0.00000000000E+00  0.50781964637E+02  0.34019836106E+04  0.34016045741E+04 0.  0.
        1    1    3    3  502    0  0.69999256423E+03  0.97726424560E+03 -0.11779444120E+04  0.16830294214E+04  0.50400001928E-02 0.  1.
       -1    1    3    3    0  502 -0.69999256423E+03 -0.97726424560E+03  0.12287263766E+04  0.17189541891E+04  0.50400001928E-02 0. -1.
</event>
<event>
 5   0  0.1645631E-08  0.3399882E+04  0.7818609E-02  0.8137935E-01
       -1   -1    0    0    0  501  0.00000000000E+00  0.00000000000E+00  0.18661954462E+04  0.18661954462E+04  0.50400001928E-02 0. -1.
        1   -1    0    0  501    0  0.00000000000E+00  0.00000000000E+00 -0.15484975244E+04  0.15484975244E+04  0.50400001928E-02 0.  1.
    10030    2    1    2    0    0  0.00000000000E+00  0.00000000000E+00  0.31769792179E+03  0.34146929706E+04  0.33998817794E+04 0.  0.
        4    1    3    3  502    0 -0.67532480248E+03  0.12899912953E+04 -0.72227346430E+03  0.16253681740E+04  0.12699999809E+01 0.  1.
       -4    1    3    3    0  502  0.67532480248E+03 -0.12899912953E+04  0.10399713861E+04  0.17893247966E+04  0.12699999809E+01 0. -1.
</event>
<event>
 5   0  0.4764953E-08  0.3399492E+04  0.7818609E-02  0.8138031E-01
        2   -1    0    0  501    0  0.00000000000E+00  0.00000000000E+00  0.25979412650E+04  0.25979412650E+04  0.25500000920E-02 0.  1.
       -2   -1    0    0    0  501  0.00000000000E+00  0.00000000000E+00 -0.11120866952E+04  0.11120866952E+04  0.25500000920E-02 0. -1.
    10030    2    1    2    0    0  0.00000000000E+00  0.00000000000E+00  0.14858545698E+04  0.37100279602E+04  0.33994916771E+04 0.  0.
        2    1    3    3  502    0 -0.61525106805E+03 -0.15755951695E+04  0.55997786050E+03  0.17817433090E+04  0.25500000920E-02 0.  1.
       -2    1    3    3    0  502  0.61525106805E+03  0.15755951695E+04  0.92587670935E+03  0.19282846511E+04  0.25500000920E-02 0. -1.
</event>
<event>
 5   0  0.1645631E-08  0.3401146E+04  0.7818609E-02  0.8137625E-01
       -1   -1    0    0    0  501  0.00000000000E+00  0.00000000000E+00  0.13112787371E+04  0.13112787371E+04  0.50400001928E-02 0.  1.
        1   -1    0    0  501    0  0.00000000000E+00  0.00000000000E+00 -0.22054410023E+04  0.22054410023E+04  0.50400001928E-02 0. -1.
    10030    2    1    2    0    0  0.00000000000E+00  0.00000000000E+00 -0.89416226517E+03  0.35167197394E+04  0.34011456260E+04 0.  0.
        4    1    3    3  502    0  0.14001980961E+04 -0.97981466767E+02 -0.14398057952E+04  0.20107703541E+04  0.12699999809E+01 0. -1.
       -4    1    3    3    0  502 -0.14001980961E+04  0.97981466767E+02  0.54564353007E+03  0.15059493853E+04  0.12699999809E+01 0.  1.
</event>
<event>
 5   0  0.1625282E-08  0.3400352E+04  0.7818609E-02  0.8137820E-01
       -1   -1    0    0    0  501  0.00000000000E+00  0.00000000000E+00  0.10757810110E+04  0.10757810110E+04  0.50400001928E-02 0.  1.
        1   -1    0    0  501    0  0.00000000000E+00  0.00000000000E+00 -0.26869759638E+04  0.26869759638E+04  0.50400001928E-02 0. -1.
    10030    2    1    2    0    0  0.00000000000E+00  0.00000000000E+00 -0.16111949528E+04  0.37627569748E+04  0.34003515811E+04 0.  0.
        1    1    3    3  502    0  0.91482326920E+02 -0.76789938058E+03 -0.24810905225E+04  0.25988167800E+04  0.50400001928E-02 0. -1.
       -1    1    3    3    0  502 -0.91482326920E+02  0.76789938058E+03  0.86989556971E+03  0.11639401948E+04  0.50400001928E-02 0.  1.
</event>
<event>
 5   0  0.5001197E-08  0.3399232E+04  0.7818609E-02  0.8138095E-01
        2   -1    0    0  501    0  0.00000000000E+00  0.00000000000E+00  0.14023819570E+04  0.14023819570E+04  0.25500000920E-02 0. -1.
       -2   -1    0    0    0  501  0.00000000000E+00  0.00000000000E+00 -0.20598485412E+04  0.20598485412E+04  0.25500000920E-02 0.  1.
    10030    2    1    2    0    0  0.00000000000E+00  0.00000000000E+00 -0.65746658416E+03  0.34622304982E+04  0.33992319300E+04 0.  0.
        5    1    3    3  502    0  0.99635066175E+03 -0.82194967406E+03  0.79643769996E+03  0.15174488485E+04  0.46999998093E+01 0. -1.
       -5    1    3    3    0  502 -0.99635066175E+03  0.82194967406E+03 -0.14539042841E+04  0.19447816498E+04  0.46999998093E+01 0.  1.
</event>
<event>
 5   0  0.1630571E-08  0.3398048E+04  0.7818609E-02  0.8138385E-01
        1   -1    0    0  501    0  0.00000000000E+00  0.00000000000E+00  0.97191092516E+03  0.97191092517E+03  0.50400001928E-02 0. -1.
       -1   -1    0    0    0  501  0.00000000000E+00  0.00000000000E+00 -0.29701107098E+04  0.29701107098E+04  0.50400001928E-02 0.  1.
    10030    2    1    2    0    0  0.00000000000E+00  0.00000000000E+00 -0.19981997846E+04  0.39420216350E+04  0.33980482915E+04 0.  0.
        3    1    3    3  502    0  0.51300928322E+03  0.15805746518E+04 -0.14097242295E+04  0.21791551501E+04  0.10100000352E+00 0. -1.
       -3    1    3    3    0  502 -0.51300928322E+03 -0.15805746518E+04 -0.58847555508E+03  0.17628664849E+04  0.10100000352E+00 0.  1.
</event>
<event>
 5   0  0.1630571E-08  0.3402606E+04  0.7818609E-02  0.8137267E-01
       -1   -1    0    0    0  501  0.00000000000E+00  0.00000000000E+00  0.13201910220E+04  0.13201910220E+04  0.50400001928E-02 0.  1.
        1   -1    0    0  501    0  0.00000000000E+00  0.00000000000E+00 -0.21924335403E+04  0.21924335403E+04  0.50400001928E-02 0. -1.
    10030    2    1    2    0    0  0.00000000000E+00  0.00000000000E+00 -0.87224251826E+03  0.35126245624E+04  0.34026055172E+04 0.  0.
        3    1    3    3  502    0  0.80410288510E+03 -0.14247870113E+04  0.45694012659E+02  0.16366696155E+04  0.10100000352E+00 0.  1.
       -3    1    3    3    0  502 -0.80410288510E+03  0.14247870113E+04 -0.91793653092E+03  0.18759549468E+04  0.10100000352E+00 0. -1.
</event>
<event>
 5   0  0.4764953E-08  0.3400202E+04  0.7818609E-02  0.8137857E-01
       -2   -1    0    0    0  501  0.00000000000E+00  0.00000000000E+00  0.11256901728E+04  0.11256901728E+04  0.25500000920E-02 0. -1.
        2   -1    0    0  501    0  0.00000000000E+00  0.00000000000E+00 -0.25676185234E+04  0.25676185234E+04  0.25500000920E-02 0.  1.
    10030    2    1    2    0    0  0.00000000000E+00  0.00000000000E+00 -0.14419283506E+04  0.36933086961E+04  0.34002017229E+04 0.  0.
        2    1    3    3  502    0  0.13062451714E+04  0.41057550799E+02 -0.19020721565E+04  0.23077782950E+04  0.25500000920E-02 0.  1.
       -2    1    3    3    0  502 -0.13062451714E+04 -0.41057550799E+02  0.46014380588E+03  0.13855304011E+04  0.25500000920E-02 0. -1.
</event>
<event>
 5   0  0.4775023E-08  0.3396282E+04  0.7818609E-02  0.8138820E-01
        2   -1    0    0  501    0  0.00000000000E+00  0.00000000000E+00  0.23719660059E+04  0.23719660059E+04  0.25500000920E-02 0. -1.
       -2   -1    0    0    0  501  0.00000000000E+00  0.00000000000E+00 -0.12157350643E+04  0.12157350643E+04  0.25500000920E-02 0.  1.
    10030    2    1    2    0    0  0.00000000000E+00  0.00000000000E+00  0.11562309416E+04  0.35877010703E+04  0.33962816401E+04 0.  0.
        4    1    3    3  502    0  0.10246392691E+04  0.11103559313E+04  0.13969862149E+04  0.20577531494E+04  0.12699999809E+01 0. -1.
       -4    1    3    3    0  502 -0.10246392691E+04 -0.11103559313E+04 -0.24075527335E+03  0.15299479209E+04  0.12699999809E+01 0.  1.
</event>
<event>
 5   0  0.1630571E-08  0.3400718E+04  0.7818609E-02  0.8137730E-01
        1   -1    0    0  501    0  0.00000000000E+00  0.00000000000E+00  0.21023987803E+04  0.21023987803E+04  0.50400001928E-02 0.  1.
       -1   -1    0    0    0  501  0.00000000000E+00  0.00000000000E+00 -0.13752010741E+04  0.13752010741E+04  0.50400001928E-02 0. -1.
    10030    2    1    2    0    0  0.00000000000E+00  0.00000000000E+00  0.72719770616E+03  0.34775998544E+04  0.34007181952E+04 0.  0.
        3    1    3    3  502    0  0.10421920398E+04 -0.50901135202E+03 -0.90787866878E+03  0.14729224324E+04  0.10100000352E+00 0. -1.
       -3    1    3    3    0  502 -0.10421920398E+04  0.50901135202E+03  0.16350763749E+04  0.20046774220E+04  0.10100000352E+00 0.  1.
</event>
<event>
 5   0  0.4764953E-08  0.3399952E+04  0.7818609E-02  0.8137918E-01
       -2   -1    0    0    0  501  0.00000000000E+00  0.00000000000E+00  0.15766358664E+04  0.15766358664E+04  0.25500000920E-02 0. -1.
        2   -1    0    0  501    0  0.00000000000E+00  0.00000000000E+00 -0.18329650638E+04  0.18329650638E+04  0.25500000920E-02 0.  1.
    10030    2    1    2    0    0  0.00000000000E+00  0.00000000000E+00 -0.25632919741E+03  0.34096009302E+04  0.33999520358E+04 0.  0.
        2    1    3    3  502    0 -0.12313752344E+04 -0.10652710522E+04  0.36192578433E+03  0.16679561314E+04  0.25500000920E-02 0.  1.
       -2    1    3    3    0  502  0.12313752344E+04  0.10652710522E+04 -0.61825498174E+03  0.17416447988E+04  0.25500000920E-02 0. -1.
</event>
<event>
 5   0  0.4775023E-08  0.3402035E+04  0.7818609E-02  0.8137407E-01
       -2   -1    0    0    0  501  0.00000000000E+00  0.00000000000E+00  0.15643090401E+04  0.15643090401E+04  0.25500000920E-02 0.  1.
        2   -1    0    0  501    0  0.00000000000E+00  0.00000000000E+00 -0.18496727897E+04  0.18496727897E+04  0.25500000920E-02 0. -1.
    10030    2    1    2    0    0  0.00000000000E+00  0.00000000000E+00 -0.28536374958E+03  0.34139818298E+04  0.34020346066E+04 0.  0.
        4    1    3    3  502    0 -0.14678774313E+04 -0.72809791086E+03  0.31572372899E+03  0.16686742663E+04  0.12699999809E+01 0.  1.
       -4    1    3    3    0  502  0.14678774313E+04  0.72809791086E+03 -0.60108747857E+03  0.17453075634E+04  0.12699999809E+01 0. -1.
</event>
<event>
 5   0  0.4946315E-08  0.3398023E+04  0.7818609E-02  0.8138392E-01
        2   -1    0    0  501    0  0.00000000000E+00  0.00000000000E+00  0.10707627162E+04  0.10707627162E+04  0.25500000920E-02 0. -1.
       -2   -1    0    0    0  501  0.00000000000E+00  0.00000000000E+00 -0.26958728366E+04  0.26958728366E+04  0.25500000920E-02 0.  1.
    10030    2    1    2    0    0  0.00000000000E+00  0.00000000000E+00 -0.16251101204E+04  0.37666355528E+04  0.33980230258E+04 0.  0.
        3    1    3    3  502    0  0.53881361050E+03  0.15878655536E+04 -0.50897966749E+03  0.17523405592E+04  0.10100000352E+00 0. -1.
       -3    1    3    3    0  502 -0.53881361050E+03 -0.15878655536E+04 -0.11161304529E+04  0.20142949936E+04  0.10100000352E+00 0.  1.
</event>
<event>
 5   0  0.1579536E-08  0.3400293E+04  0.7818609E-02  0.8137834E-01
       -1   -1    0    0    0  501  0.00000000000E+00  0.00000000000E+00  0.16031395098E+04  0.16031395098E+04  0.50400001928E-02 0.  1.
        1   -1    0    0  501    0  0.00000000000E+00  0.00000000000E+00 -0.18030237657E+04  0.18030237657E+04  0.50400001928E-02 0. -1.
    10030    2    1    2    0    0  0.00000000000E+00  0.00000000000E+00 -0.19988425589E+03  0.34061632756E+04  0.34002933026E+04 0.  0.
        5    1    3    3  502    0 -0.97342356626E+03 -0.11606085864E+04  0.67334310391E+03  0.16577028551E+04  0.46999998093E+01 0.  1.
       -5    1    3    3    0  502  0.97342356626E+03  0.11606085864E+04 -0.87322735980E+03  0.17484604205E+04  0.46999998093E+01 0. -1.
</event>
<event>
 5   0  0.4764953E-08  0.3399765E+04  0.7818609E-02  0.8137964E-01
       -2   -1    0    0    0  501  0.00000000000E+00  0.00000000000E+00  0.11300849416E+04  0.11300849416E+04  0.25500000920E-02 0. -1.
        2   -1    0    0  501    0  0.00000000000E+00  0.00000000000E+00 -0.25569756382E+04  0.25569756382E+04  0.25500000920E-02 0.  1.
    10030    2    1    2    0    0  0.00000000000E+00  0.00000000000E+00 -0.14268906965E+04  0.36870605798E+04  0.33997645006E+04 0.  0.
        2    1    3    3  502    0  0.79492031184E+03  0.10153684443E+04 -0.19146185320E+04  0.23083837426E+04  0.25500000920E-02 0.  1.
       -2    1    3    3    0  502 -0.79492031184E+03 -0.10153684443E+04  0.48772783550E+03  0.13786768372E+04  0.25500000920E-02 0. -1.
</event>
<event>
 5   0  0.1573625E-08  0.3401070E+04  0.7818609E-02  0.8137644E-01
        3   -1    0    0  501    0  0.00000000000E+00  0.00000000000E+00  0.18878255049E+04  0.18878255076E+04  0.10100000352E+00 0. -1.
       -3   -1    0    0    0  501  0.00000000000E+00  0.00000000000E+00 -0.15318258568E+04  0.15318258601E+04  0.10100000352E+00 0.  1.
    10030    2    1    2    0    0  0.00000000000E+00  0.00000000000E+00  0.35599964814E+03  0.34196513677E+04  0.34010703796E+04 0.  0.
        4    1    3    3  502    0  0.13230953080E+04 -0.70858246477E+03 -0.62583521938E+03  0.16261431789E+04  0.12699999809E+01 0. -1.
       -4    1    3    3    0  502 -0.13230953080E+04  0.70858246477E+03  0.98183486752E+03  0.17935081888E+04  0.12699999809E+01 0.  1.
</event>
<event>
 5   0  0.1645631E-08  0.3399396E+04  0.7818609E-02  0.8138055E-01
        1   -1    0    0  501    0  0.00000000000E+00  0.00000000000E+00  0.15316297714E+04  0.15316297714E+04  0.50400001928E-02 0.  1.
       -1   -1    0    0    0  501  0.00000000000E+00  0.00000000000E+00 -0.18862086518E+04  0.18862086518E+04  0.50400001928E-02 0. -1.
    10030    2    1    2    0    0  0.00000000000E+00  0.00000000000E+00 -0.35457888039E+03  0.34178384233E+04  0.33993960206E+04 0.  0.
        4    1    3    3  502    0  0.25357148489E+03  0.13211571405E+04 -0.12217791366E+04  0.18172783385E+04  0.12699999809E+01 0. -1.
       -4    1    3    3    0  502 -0.25357148489E+03 -0.13211571405E+04  0.86720025623E+03  0.16005600848E+04  0.12699999809E+01 0.  1.
</event>
<event>
 5   0  0.4764953E-08  0.3400025E+04  0.7818609E-02  0.8137900E-01
       -2   -1    0    0    0  501  0.00000000000E+00  0.00000000000E+00  0.12523452047E+04  0.12523452047E+04  0.25500000920E-02 0.  1.
        2   -1    0    0  501    0  0.00000000000E+00  0.00000000000E+00 -0.23077041657E+04  0.23077041657E+04  0.25500000920E-02 0. -1.
    10030    2    1    2    0    0  0.00000000000E+00  0.00000000000E+00 -0.10553589610E+04  0.35600493704E+04  0.34000248504E+04 0.  0.
        2    1    3    3  502    0  0.56961761908E+03 -0.11524746243E+03 -0.22004618884E+04  0.22759127250E+04  0.25500000920E-02 0. -1.
       -2    1    3    3    0  502 -0.56961761908E+03  0.11524746243E+03  0.11451029274E+04  0.12841366454E+04  0.25500000920E-02 0.  1.
</event>
<event>
 5   0  0.1579536E-08  0.3400264E+04  0.7818609E-02  0.8137842E-01
        1   -1    0    0  501    0  0.00000000000E+00  0.00000000000E+00  0.20392582155E+04  0.20392582155E+04  0.50400001928E-02 0.  1.
       -1   -1    0    0    0  501  0.00000000000E+00  0.00000000000E+00 -0.14174016668E+04  0.14174016668E+04  0.50400001928E-02 0. -1.
    10030    2    1    2    0    0  0.00000000000E+00  0.00000000000E+00  0.62185654875E+03  0.34566598823E+04  0.34002635155E+04 0.  0.
        5    1    3    3  502    0  0.28626180018E+03  0.12235812898E+03 -0.13881722662E+04  0.14226600650E+04  0.46999998093E+01 0. -1.
       -5    1    3    3    0  502 -0.28626180018E+03 -0.12235812898E+03  0.20100288149E+04  0.20339998173E+04  0.46999998093E+01 0.  1.
</event>
<event>
 5   0  0.1579536E-08  0.3400289E+04  0.7818609E-02  0.8137835E-01
        1   -1    0    0  501    0  0.00000000000E+00  0.00000000000E+00  0.25958938865E+04  0.25958938865E+04  0.50400001928E-02 0. -1.
       -1   -1    0    0    0  501  0.00000000000E+00  0.00000000000E+00 -0.11134862039E+04  0.11134862039E+04  0.50400001928E-02 0.  1.
    10030    2    1    2    0    0  0.00000000000E+00  0.00000000000E+00  0.14824076826E+04  0.37093800904E+04  0.34002894167E+04 0.  0.
        5    1    3    3  502    0  0.92832058417E+03  0.27152835468E+02 -0.81230759674E+03  0.12338484936E+04  0.46999998093E+01 0.  1.
       -5    1    3    3    0  502 -0.92832058417E+03 -0.27152835468E+02  0.22947152793E+04  0.24755315968E+04  0.46999998093E+01 0. -1.
</event>
<event>
 5   0  0.1630571E-08  0.3411278E+04  0.7818609E-02  0.8135144E-01
        1   -1    0    0  501    0  0.00000000000E+00  0.00000000000E+00  0.14081151597E+04  0.14081151597E+04  0.50400001928E-02 0. -1.
       -1   -1    0    0    0  501  0.00000000000E+00  0.00000000000E+00 -0.20660276640E+04  0.20660276640E+04  0.50400001928E-02 0.  1.
    10030    2    1    2    0    0  0.00000000000E+00  0.00000000000E+00 -0.65791250435E+03  0.34741428237E+04  0.34112782789E+04 0.  0.
        3    1    3    3  502    0 -0.15701675047E+04 -0.25515458841E+03  0.29774973067E+03  0.16183895604E+04  0.10100000352E+00 0.  1.
       -3    1    3    3    0  502  0.15701675047E+04  0.25515458841E+03 -0.95566223502E+03  0.18557532633E+04  0.10100000352E+00 0. -1.
</event>
<event>
 5   0  0.1595851E-08  0.3399890E+04  0.7818609E-02  0.8137933E-01
        1   -1    0    0  501    0  0.00000000000E+00  0.00000000000E+00  0.22228866916E+04  0.22228866916E+04  0.50400001928E-02 0.  1.
       -1   -1    0    0    0  501  0.00000000000E+00  0.00000000000E+00 -0.13000273416E+04  0.13000273416E+04  0.50400001928E-02 0. -1.
    10030    2    1    2    0    0  0.00000000000E+00  0.00000000000E+00  0.92285934992E+03  0.35229140332E+04  0.33998902785E+04 0.  0.
        2    1    3    3  502    0 -0.12147348663E+04 -0.84355617071E+03 -0.40714133583E+03  0.15339269461E+04  0.25500000920E-02 0. -1.
       -2    1    3    3    0  502  0.12147348663E+04  0.84355617071E+03  0.13300006858E+04  0.19889870871E+04  0.25500000920E-02 0.  1.
</event>
<event>
 5   0  0.5001197E-08  0.3402052E+04  0.7818609E-02  0.8137403E-01
        2   -1    0    0  501    0  0.00000000000E+00  0.00000000000E+00  0.22640539671E+04  0.22640539671E+04  0.25500000920E-02 0. -1.
       -2   -1    0    0    0  501  0.00000000000E+00  0.00000000000E+00 -0.12780126470E+04  0.12780126470E+04  0.25500000920E-02 0.  1.
    10030    2    1    2    0    0  0.00000000000E+00  0.00000000000E+00  0.98604132013E+03  0.35420666141E+04  0.34020520886E+04 0.  0.
        5    1    3    3  502    0 -0.21175295926E+03  0.10528522810E+04  0.18664510312E+04  0.21533691702E+04  0.46999998093E+01 0. -1.
       -5    1    3    3    0  502  0.21175295926E+03 -0.10528522810E+04 -0.88040971105E+03  0.13886974439E+04  0.46999998093E+01 0.  1.
</event>
<event>
 5   0  0.1645631E-08  0.3403304E+04  0.7818609E-02  0.8137096E-01
       -1   -1    0    0    0  501  0.00000000000E+00  0.00000000000E+00  0.12231350115E+04  0.12231350115E+04  0.50400001928E-02 0. -1.
        1   -1    0    0  501    0  0.00000000000E+00  0.00000000000E+00 -0.23673750346E+04  0.23673750346E+04  0.50400001928E-02 0.  1.
    10030    2    1    2    0    0  0.00000000000E+00  0.00000000000E+00 -0.11442400231E+04  0.35905100461E+04  0.34033038596E+04 0.  0.
        4    1    3    3  502    0 -0.21172570440E+03 -0.13258919473E+04  0.53075387058E+03  0.14437861732E+04  0.12699999809E+01 0. -1.
       -4    1    3    3    0  502  0.21172570440E+03  0.13258919473E+04 -0.16749938937E+04  0.21467238730E+04  0.12699999809E+01 0.  1.
</event>
<event>
 5   0  0.1579536E-08  0.3402055E+04  0.7818609E-02  0.8137402E-01
       -1   -1    0    0    0  501  0.00000000000E+00  0.00000000000E+00  0.15739641256E+04  0.15739641256E+04  0.50400001928E-02 0.  1.
        1   -1    0    0  501    0  0.00000000000E+00  0.00000000000E+00 -0.18383485687E+04  0.18383485687E+04  0.50400001928E-02 0. -1.
    10030    2    1    2    0    0  0.00000000000E+00  0.00000000000E+00 -0.26438444306E+03  0.34123126943E+04  0.34020550833E+04 0.  0.
        5    1    3    3  502    0  0.10425840763E+03 -0.14803046091E+04  0.70175984838E+03  0.16415421183E+04  0.46999998093E+01 0.  1.
       -5    1    3    3    0  502 -0.10425840763E+03  0.14803046091E+04 -0.96614429144E+03  0.17707705761E+04  0.46999998093E+01 0. -1.
</event>
<event>
 5   0  0.4764953E-08  0.3400111E+04  0.7818609E-02  0.8137879E-01
       -2   -1    0    0    0  501  0.00000000000E+00  0.00000000000E+00  0.16883777935E+04  0.16883777935E+04  0.25500000920E-02 0.  1.
        2   -1    0    0  501    0  0.00000000000E+00  0.00000000000E+00 -0.17118138661E+04  0.17118138661E+04  0.25500000920E-02 0. -1.
    10030    2    1    2    0    0  0.00000000000E+00  0.00000000000E+00 -0.23436072642E+02  0.34001916596E+04  0.34001108912E+04 0.  0.
        2    1    3    3  502    0  0.25605478370E+03  0.15310453326E+04 -0.70493335999E+03  0.17048738677E+04  0.25500000920E-02 0. -1.
       -2    1    3    3    0  502 -0.25605478370E+03 -0.15310453326E+04  0.68149728735E+03  0.16953177919E+04  0.25500000920E-02 0.  1.
</event>
<event>
 5   0  0.1595851E-08  0.3399989E+04  0.7818609E-02  0.8137909E-01
        1   -1    0    0  501    0  0.00000000000E+00  0.00000000000E+00  0.20800658914E+04  0.20800658914E+04  0.50400001928E-02 0. -1.
       -1   -1    0    0    0  501  0.00000000000E+00  0.00000000000E+00 -0.13893696740E+04  0.13893696740E+04  0.50400001928E-02 0.  1.
    10030    2    1    2    0    0  0.00000000000E+00  0.00000000000E+00  0.69069621738E+03  0.34694355654E+04  0.33999885115E+04 0.  0.
        2    1    3    3  502    0 -0.13756632520E+03 -0.95254456017E+03 -0.10846010195E+04  0.14500431043E+04  0.25500000920E-02 0.  1.
       -2    1    3    3    0  502  0.13756632520E+03  0.95254456017E+03  0.17752972368E+04  0.20193924611E+04  0.25500000920E-02 0. -1.
</event>
<event>
 5   0  0.5001197E-08  0.3400056E+04  0.7818609E-02  0.8137893E-01
       -2   -1    0    0    0  501  0.00000000000E+00  0.00000000000E+00  0.15509040091E+04  0.15509040091E+04  0.25500000920E-02 0. -1.
        2   -1    0    0  501    0  0.00000000000E+00  0.00000000000E+00 -0.18634901571E+04  0.18634901571E+04  0.25500000920E-02 0.  1.
    10030    2    1    2    0    0  0.00000000000E+00  0.00000000000E+00 -0.31258614797E+03  0.34143941662E+04  0.34000555028E+04 0.  0.
        5    1    3    3  502    0  0.24543175350E+03  0.12641978703E+04 -0.12707657163E+04  0.18092265189E+04  0.46999998093E+01 0.  1.
       -5    1    3    3    0  502 -0.24543175350E+03 -0.12641978703E+04  0.95817956829E+03  0.16051676473E+04  0.46999998093E+01 0. -1.
</event>
<event>
 5   0  0.1625282E-08  0.3399438E+04  0.7818609E-02  0.8138044E-01
       -1   -1    0    0    0  501  0.00000000000E+00  0.00000000000E+00  0.11305763392E+04  0.11305763392E+04  0.50400001928E-02 0. -1.
        1   -1    0    0  501    0  0.00000000000E+00  0.00000000000E+00 -0.25553734622E+04  0.25553734622E+04  0.50400001928E-02 0.  1.
    10030    2    1    2    0    0  0.00000000000E+00  0.00000000000E+00 -0.14247971230E+04  0.36859498014E+04  0.33994380560E+04 0.  0.
        1    1    3    3  502    0  0.86783991714E+03 -0.85357757076E+03  0.57388358819E+03  0.13457648992E+04  0.50400001928E-02 0. -1.
       -1    1    3    3    0  502 -0.86783991714E+03  0.85357757076E+03 -0.19986807112E+04  0.23401849022E+04  0.50400001928E-02 0.  1.
</event>
<event>
 5   0  0.4946315E-08  0.3403497E+04  0.7818609E-02  0.8137048E-01
       -2   -1    0    0    0  501  0.00000000000E+00  0.00000000000E+00  0.13316622809E+04  0.13316622809E+04  0.25500000920E-02 0.  1.
        2   -1    0    0  501    0  0.00000000000E+00  0.00000000000E+00 -0.21746870385E+04  0.21746870385E+04  0.25500000920E-02 0. -1.
    10030    2    1    2    0    0  0.00000000000E+00  0.00000000000E+00 -0.84302475763E+03  0.35063493194E+04  0.34034974376E+04 0.  0.
        3    1    3    3  502    0  0.39378795755E+03  0.63163986286E+03  0.11550636862E+04  0.13741215380E+04  0.10100000352E+00 0.  1.
       -3    1    3    3    0  502 -0.39378795755E+03 -0.63163986286E+03 -0.19980884439E+04  0.21322277813E+04  0.10100000352E+00 0. -1.
</event>
<event>
 5   0  0.5001197E-08  0.3398242E+04  0.7818609E-02  0.8138338E-01
        2   -1    0    0  501    0  0.00000000000E+00  0.00000000000E+00  0.20849133349E+04  0.20849133349E+04  0.25500000920E-02 0.  1.
       -2   -1    0    0    0  501  0.00000000000E+00  0.00000000000E+00 -0.13847160474E+04  0.13847160474E+04  0.25500000920E-02 0. -1.
    10030    2    1    2    0    0  0.00000000000E+00  0.00000000000E+00  0.70019728750E+03  0.34696293822E+04  0.33982424588E+04 0.  0.
        5    1    3    3  502    0  0.15778574251E+04  0.28894477532E+03 -0.22190929323E+03  0.16193791902E+04  0.46999998093E+01 0. -1.
       -5    1    3    3    0  502 -0.15778574251E+04 -0.28894477532E+03  0.92210658073E+03  0.18502501921E+04  0.46999998093E+01 0.  1.
</event>
<event>
 5   0  0.1625282E-08  0.3411728E+04  0.7818609E-02  0.8135034E-01
       -1   -1    0    0    0  501  0.00000000000E+00  0.00000000000E+00  0.16696874718E+04  0.16696874718E+04  0.50400001928E-02 0. -1.
        1   -1    0    0  501    0  0.00000000000E+00  0.00000000000E+00 -0.17428247093E+04  0.17428247093E+04  0.50400001928E-02 0.  1.
    10030    2    1    2    0    0  0.00000000000E+00  0.00000000000E+00 -0.73137237513E+02  0.34125121811E+04  0.34117283495E+04 0.  0.
        1    1    3    3  502    0 -0.16159436992E+03 -0.85717020702E+03 -0.15028928311E+04  0.17376824698E+04  0.50400001928E-02 0.  1.
       -1    1    3    3    0  502  0.16159436992E+03  0.85717020702E+03  0.14297555936E+04  0.16748297112E+04  0.50400001928E-02 0. -1.
</event>
<event>
 5   0  0.4764953E-08  0.3403622E+04  0.7818609E-02  0.8137018E-01
       -2   -1    0    0    0  501  0.00000000000E+00  0.00000000000E+00  0.95899431415E+03  0.95899431416E+03  0.25500000920E-02 0. -1.
        2   -1    0    0  501    0  0.00000000000E+00  0.00000000000E+00 -0.30199985216E+04  0.30199985216E+04  0.25500000920E-02 0.  1.
    10030    2    1    2    0    0  0.00000000000E+00  0.00000000000E+00 -0.20610042074E+04  0.39789928358E+04  0.34036224297E+04 0.  0.
        2    1    3    3  502    0 -0.98693839518E+03  0.45212354802E+03  0.50166179341E+03  0.11958794477E+04  0.25500000920E-02 0. -1.
       -2    1    3    3    0  502  0.98693839518E+03 -0.45212354802E+03 -0.25626660009E+04  0.27831133880E+04  0.25500000920E-02 0.  1.
</event>
<event>
 5   0  0.5001197E-08  0.3400075E+04  0.7818609E-02  0.8137888E-01
       -2   -1    0    0    0  501  0.00000000000E+00  0.00000000000E+00  0.32499130189E+04  0.32499130189E+04  0.25500000920E-02 0.  1.
        2   -1    0    0  501    0  0.00000000000E+00  0.00000000000E+00 -0.88929403203E+03  0.88929403204E+03  0.25500000920E-02 0. -1.
    10030    2    1    2    0    0  0.00000000000E+00  0.00000000000E+00  0.23606189868E+04  0.41392070509E+04  0.34000754417E+04 0.  0.
        5    1    3    3  502    0 -0.60479489281E+02 -0.33068059460E+03  0.32090395258E+04  0.32266025773E+04  0.46999998093E+01 0.  1.
       -5    1    3    3    0  502  0.60479489281E+02  0.33068059460E+03 -0.84842053893E+03  0.91260447355E+03  0.46999998093E+01 0. -1.
</event>
<event>
 5   0  0.1595851E-08  0.3398275E+04  0.7818609E-02  0.8138330E-01
       -1   -1    0    0    0  501  0.00000000000E+00  0.00000000000E+00  0.15564314300E+04  0.15564314300E+04  0.50400001928E-02 0.  1.
        1   -1    0    0  501    0  0.00000000000E+00  0.00000000000E+00 -0.18549278938E+04  0.18549278938E+04  0.50400001928E-02 0. -1.
    10030    2    1    2    0    0  0.00000000000E+00  0.00000000000E+00 -0.29849646371E+03  0.34113593238E+04  0.33982749002E+04 0.  0.
        2    1    3    3  502    0 -0.82941825422E+02 -0.16449799363E+04 -0.56826374251E+03  0.17423438290E+04  0.25500000920E-02 0. -1.
       -2    1    3    3    0  502  0.82941825422E+02  0.16449799363E+04  0.26976727880E+03  0.16690154948E+04  0.25500000920E-02 0.  1.
</event>
<event>
 5   0  0.5001197E-08  0.3400834E+04  0.7818609E-02  0.8137702E-01
       -2   -1    0    0    0  501  0.00000000000E+00  0.00000000000E+00  0.24230076949E+04  0.24230076949E+04  0.25500000920E-02 0.  1.
        2   -1    0    0  501    0  0.00000000000E+00  0.00000000000E+00 -0.11933178653E+04  0.11933178653E+04  0.25500000920E-02 0. -1.
    10030    2    1    2    0    0  0.00000000000E+00  0.00000000000E+00  0.12296898296E+04  0.36163255602E+04  0.34008342330E+04 0.  0.
        5    1    3    3  502    0 -0.55133883386E+03 -0.34967282356E+02 -0.10952217143E+04  0.12266743309E+04  0.46999998093E+01 0. -1.
       -5    1    3    3    0  502  0.55133883386E+03  0.34967282356E+02  0.23249115439E+04  0.23896512293E+04  0.46999998093E+01 0.  1.
</event>
<event>
 5   0  0.1645631E-08  0.3399734E+04  0.7818609E-02  0.8137972E-01
        1   -1    0    0  501    0  0.00000000000E+00  0.00000000000E+00  0.30481430929E+04  0.30481430929E+04  0.50400001928E-02 0.  1.
       -1   -1    0    0    0  501  0.00000000000E+00  0.00000000000E+00 -0.94796983933E+03  0.94796983934E+03  0.50400001928E-02 0. -1.
    10030    2    1    2    0    0  0.00000000000E+00  0.00000000000E+00  0.21001732536E+04  0.39961129323E+04  0.33997339414E+04 0.  0.
        4    1    3    3  502    0 -0.24684162703E+03  0.30481243398E+03 -0.89405289971E+03  0.97630610422E+03  0.12699999809E+01 0. -1.
       -4    1    3    3    0  502  0.24684162703E+03 -0.30481243398E+03  0.29942261533E+04  0.30198068281E+04  0.12699999809E+01 0.  1.
</event>
<event>
 5   0  0.1579536E-08  0.3399630E+04  0.7818609E-02  0.8137997E-01
        1   -1    0    0  501    0  0.00000000000E+00  0.00000000000E+00  0.19689518786E+04  0.19689518786E+04  0.50400001928E-02 0. -1.
       -1   -1    0    0    0  501  0.00000000000E+00  0.00000000000E+00 -0.14674667086E+04  0.14674667086E+04  0.50400001928E-02 0.  1.
    10030    2    1    2    0    0  0.00000000000E+00  0.00000000000E+00  0.50148516993E+03  0.34364185872E+04  0.33996301756E+04 0.  0.
        5    1    3    3  502    0 -0.73484898442E+03 -0.26247092284E+03  0.17772016383E+04  0.19409692858E+04  0.46999998093E+01 0. -1.
       -5    1    3    3    0  502  0.73484898442E+03  0.26247092284E+03 -0.12757164684E+04  0.14954493014E+04  0.46999998093E+01 0.  1.
</event>
<event>
 5   0  0.1579536E-08  0.3402426E+04  0.7818609E-02  0.8137311E-01
       -1   -1    0    0    0  501  0.00000000000E+00  0.00000000000E+00  0.18368277768E+04  0.18368277768E+04  0.50400001928E-02 0.  1.
        1   -1    0    0  501    0  0.00000000000E+00  0.00000000000E+00 -0.15756109893E+04  0.15756109893E+04  0.50400001928E-02 0. -1.
    10030    2    1    2    0    0  0.00000000000E+00  0.00000000000E+00  0.26121678750E+03  0.34124387662E+04  0.34024262112E+04 0.  0.
        5    1    3    3  502    0 -0.11970980220E+04 -0.11714090771E+04 -0.16836452307E+03  0.16833334794E+04  0.46999998093E+01 0. -1.
       -5    1    3    3    0  502  0.11970980220E+04  0.11714090771E+04  0.42958131057E+03  0.17291052867E+04  0.46999998093E+01 0.  1.
</event>
<event>
 5   0  0.1573625E-08  0.3400375E+04  0.7818609E-02  0.8137814E-01
       -3   -1    0    0    0  501  0.00000000000E+00  0.00000000000E+00  0.20764602072E+04  0.20764602097E+04  0.10100000352E+00 0.  1.
        3   -1    0    0  501    0  0.00000000000E+00  0.00000000000E+00 -0.13920988621E+04  0.13920988657E+04  0.10100000352E+00 0. -1.
    10030    2    1    2    0    0  0.00000000000E+00  0.00000000000E+00  0.68436134519E+03  0.34685590754E+04  0.34003752159E+04 0.  0.
        1    1    3    3  502    0 -0.93129375704E+03 -0.38168774108E+03  0.17399287905E+04  0.20100611408E+04  0.50400001928E-02 0.  1.
       -1    1    3    3    0  502  0.93129375704E+03  0.38168774108E+03 -0.10555674454E+04  0.14584979346E+04  0.50400001928E-02 0. -1.
</event>
<event>
 5   0  0.4946315E-08  0.3399946E+04  0.7818609E-02  0.8137920E-01
       -2   -1    0    0    0  501  0.00000000000E+00  0.00000000000E+00  0.17264174339E+04  0.17264174339E+04  0.25500000920E-02 0. -1.
        2   -1    0    0  501    0  0.00000000000E+00  0.00000000000E+00 -0.16739338923E+04  0.16739338923E+04  0.25500000920E-02 0.  1.
    10030    2    1    2    0    0  0.00000000000E+00  0.00000000000E+00  0.52483541655E+02  0.34003513262E+04  0.33999462671E+04 0.  0.
        3    1    3    3  502    0  0.28930656388E+03  0.11373007641E+04 -0.12038467628E+04  0.16811895653E+04  0.10100000352E+00 0.  1.
       -3    1    3    3    0  502 -0.28930656388E+03 -0.11373007641E+04  0.12563303045E+04  0.17191617609E+04  0.10100000352E+00 0. -1.
</event>
<event>
 5   0  0.1579536E-08  0.3399034E+04  0.7818609E-02  0.8138143E-01
       -1   -1    0    0    0  501  0.00000000000E+00  0.00000000000E+00  0.28177005428E+04  0.28177005428E+04  0.50400001928E-02 0.  1.
        1   -1    0    0  501    0  0.00000000000E+00  0.00000000000E+00 -0.10250764196E+04  0.10250764197E+04  0.50400001928E-02 0. -1.
    10030    2    1    2    0    0  0.00000000000E+00  0.00000000000E+00  0.17926241232E+04  0.38427769625E+04  0.33990342064E+04 0.  0.
        5    1    3    3  502    0 -0.47300559583E+03  0.13009438649E+04 -0.21838184478E+03  0.14013928619E+04  0.46999998093E+01 0. -1.
       -5    1    3    3    0  502  0.47300559583E+03 -0.13009438649E+04  0.20110059680E+04  0.24413841006E+04  0.46999998093E+01 0.  1.
</event>
<event>
 5   0  0.1579536E-08  0.3398298E+04  0.7818609E-02  0.8138324E-01
        1   -1    0    0  501    0  0.00000000000E+00  0.00000000000E+00  0.23881478265E+04  0.23881478265E+04  0.50400001928E-02 0.  1.
       -1   -1    0    0    0  501  0.00000000000E+00  0.00000000000E+00 -0.12089312461E+04  0.12089312461E+04  0.50400001928E-02 0. -1.
    10030    2    1    2    0    0  0.00000000000E+00  0.00000000000E+00  0.11792165804E+04  0.35970790725E+04  0.33982975312E+04 0.  0.
        5    1    3    3  502    0  0.59874791151E+03 -0.14995811995E+04  0.29664124100E+02  0.16149751966E+04  0.46999998093E+01 0. -1.
       -5    1    3    3    0  502 -0.59874791151E+03  0.14995811995E+04  0.11495524563E+04  0.19821038760E+04  0.46999998093E+01 0.  1.
</event>
<event>
 5   0  0.4946315E-08  0.3399690E+04  0.7818609E-02  0.8137982E-01
        2   -1    0    0  501    0  0.00000000000E+00  0.00000000000E+00  0.19068047933E+04  0.19068047933E+04  0.25500000920E-02 0. -1.
       -2   -1    0    0    0  501  0.00000000000E+00  0.00000000000E+00 -0.15153478363E+04  0.15153478363E+04  0.25500000920E-02 0.  1.
    10030    2    1    2    0    0  0.00000000000E+00  0.00000000000E+00  0.39145695700E+03  0.34221526295E+04  0.33996897021E+04 0.  0.
        3    1    3    3  502    0  0.12052784014E+04 -0.11349340084E+04 -0.19243748166E+03  0.16666743602E+04  0.10100000352E+00 0. -1.
       -3    1    3    3    0  502 -0.12052784014E+04  0.11349340084E+04  0.58389443866E+03  0.17554782693E+04  0.10100000352E+00 0.  1.
</event>
<event>
 5   0  0.4973409E-08  0.3400840E+04  0.7818609E-02  0.8137700E-01
        2   -1    0    0  501    0  0.00000000000E+00  0.00000000000E+00  0.19757996609E+04  0.19757996609E+04  0.25500000920E-02 0. -1.
       -2   -1    0    0    0  501  0.00000000000E+00  0.00000000000E+00 -0.14634216407E+04  0.14634216407E+04  0.25500000920E-02 0.  1.
    10030    2    1    2    0    0  0.00000000000E+00  0.00000000000E+00  0.51237802025E+03  0.34392213016E+04  0.34008398854E+04 0.  0.
        1    1    3    3  502    0  0.66022806608E+03 -0.63946914277E+03 -0.11905529196E+04  0.15040738474E+04  0.50400001928E-02 0.  1.
       -1    1    3    3    0  502 -0.66022806608E+03  0.63946914277E+03  0.17029309399E+04  0.19351474543E+04  0.50400001928E-02 0. -1.
</event>
<event>
 5   0  0.4775023E-08  0.3400341E+04  0.7818609E-02  0.8137823E-01
       -2   -1    0    0    0  501  0.00000000000E+00  0.00000000000E+00  0.22355389952E+04  0.22355389952E+04  0.25500000920E-02 0.  1.
        2   -1    0    0  501    0  0.00000000000E+00  0.00000000000E+00 -0.12930127213E+04  0.12930127213E+04  0.25500000920E-02 0. -1.
    10030    2    1    2    0    0  0.00000000000E+00  0.00000000000E+00  0.94252627395E+03  0.35285517165E+04  0.34003413710E+04 0.  0.
        4    1    3    3  502    0 -0.91724736974E+02 -0.11062533173E+04 -0.86506939869E+03  0.14073224602E+04  0.12699999809E+01 0. -1.
       -4    1    3    3    0  502  0.91724736974E+02  0.11062533173E+04  0.18075956726E+04  0.21212292564E+04  0.12699999809E+01 0.  1.
</event>
<event>
 5   0  0.1595851E-08  0.3399851E+04  0.7818609E-02  0.8137943E-01
       -1   -1    0    0    0  501  0.00000000000E+00  0.00000000000E+00  0.12390017382E+04  0.12390017382E+04  0.50400001928E-02 0.  1.
        1   -1    0    0  501    0  0.00000000000E+00  0.00000000000E+00 -0.23323190261E+04  0.23323190261E+04  0.50400001928E-02 0. -1.
    10030    2    1    2    0    0  0.00000000000E+00  0.00000000000E+00 -0.10933172879E+04  0.35713207642E+04  0.33998513657E+04 0.  0.
        2    1    3    3  502    0  0.57509298013E+03  0.15989269934E+04 -0.49468749359E+03  0.17697500338E+04  0.25500000920E-02 0. -1.
       -2    1    3    3    0  502 -0.57509298013E+03 -0.15989269934E+04 -0.59862979433E+03  0.18015707304E+04  0.25500000920E-02 0.  1.
</event>
<event>
 5   0  0.5001197E-08  0.3398196E+04  0.7818609E-02  0.8138349E-01
       -2   -1    0    0    0  501  0.00000000000E+00  0.00000000000E+00  0.11901229148E+04  0.11901229148E+04  0.25500000920E-02 0. -1.
        2   -1    0    0  501    0  0.00000000000E+00  0.00000000000E+00 -0.24257446026E+04  0.24257446026E+04  0.25500000920E-02 0.  1.
    10030    2    1    2    0    0  0.00000000000E+00  0.00000000000E+00 -0.12356216878E+04  0.36158675174E+04  0.33981961315E+04 0.  0.
        5    1    3    3  502    0 -0.16077932806E+04  0.44556079312E+03 -0.95994794584E+03  0.19248495531E+04  0.46999998093E+01 0.  1.
       -5    1    3    3    0  502  0.16077932806E+04 -0.44556079312E+03 -0.27567374195E+03  0.16910179643E+04  0.46999998093E+01 0. -1.
</event>
<event>
 5   0  0.1645631E-08  0.3399375E+04  0.7818609E-02  0.8138060E-01
       -1   -1    0    0    0  501  0.00000000000E+00  0.00000000000E+00  0.15059295310E+04  0.15059295310E+04  0.50400001928E-02 0.  1.
        1   -1    0    0  501    0  0.00000000000E+00  0.00000000000E+00 -0.19183747055E+04  0.19183747055E+04  0.50400001928E-02 0. -1.
    10030    2    1    2    0    0  0.00000000000E+00  0.00000000000E+00 -0.41244517454E+03  0.34243042365E+04  0.33993747193E+04 0.  0.
        4    1    3    3  502    0  0.86470324253E+03  0.12826291276E+04 -0.91572182500E+03  0.17976087590E+04  0.12699999809E+01 0.  1.
       -4    1    3    3    0  502 -0.86470324253E+03 -0.12826291276E+04  0.50327665045E+03  0.16266954775E+04  0.12699999809E+01 0. -1.
</event>
<event>
 5   0  0.4973409E-08  0.3399695E+04  0.7818609E-02  0.8137981E-01
       -2   -1    0    0    0  501  0.00000000000E+00  0.00000000000E+00  0.13516716698E+04  0.13516716698E+04  0.25500000920E-02 0. -1.
        2   -1    0    0  501    0  0.00000000000E+00  0.00000000000E+00 -0.21377091264E+04  0.21377091264E+04  0.25500000920E-02 0.  1.
    10030    2    1    2    0    0  0.00000000000E+00  0.00000000000E+00 -0.78603745656E+03  0.34893807962E+04  0.33996946124E+04 0.  0.
        1    1    3    3  502    0  0.46500270876E+03 -0.78108097990E+03  0.10812461851E+04  0.14125892287E+04  0.50400001928E-02 0. -1.
       -1    1    3    3    0  502 -0.46500270876E+03  0.78108097990E+03 -0.18672836417E+04  0.20767915675E+04  0.50400001928E-02 0.  1.
</event>
<event>
 5   0  0.5001197E-08  0.3399434E+04  0.7818609E-02  0.8138045E-01
       -2   -1    0    0    0  501  0.00000000000E+00  0.00000000000E+00  0.25221537888E+04  0.25221537888E+04  0.25500000920E-02 0.  1.
        2   -1    0    0  501    0  0.00000000000E+00  0.00000000000E+00 -0.11454647573E+04  0.11454647573E+04  0.25500000920E-02 0. -1.
    10030    2    1    2    0    0  0.00000000000E+00  0.00000000000E+00  0.13766890315E+04  0.36676185461E+04  0.33994342339E+04 0.  0.
        5    1    3    3  502    0  0.28426163044E+03  0.95060468026E+03  0.21772773360E+04  0.23926998601E+04  0.46999998093E+01 0.  1.
       -5    1    3    3    0  502 -0.28426163044E+03 -0.95060468026E+03 -0.80058830452E+03  0.12749186860E+04  0.46999998093E+01 0. -1.
</event>
<event>
 5   0  0.4764953E-08  0.3399297E+04  0.7818609E-02  0.8138079E-01
       -2   -1    0    0    0  501  0.00000000000E+00  0.00000000000E+00  0.20575422279E+04  0.20575422279E+04  0.25500000920E-02 0.  1.
        2   -1    0    0  501    0  0.00000000000E+00  0.00000000000E+00 -0.14040076861E+04  0.14040076861E+04  0.25500000920E-02 0. -1.
    10030    2    1    2    0    0  0.00000000000E+00  0.00000000000E+00  0.65353454185E+03  0.34615499140E+04  0.33992970464E+04 0.  0.
        2    1    3    3  502    0  0.13690174709E+04  0.92802499742E+03 -0.72024184170E+02  0.16554838309E+04  0.25500000920E-02 0.  1.
       -2    1    3    3    0  502 -0.13690174709E+04 -0.92802499742E+03  0.72555872602E+03  0.18060660830E+04  0.25500000920E-02 0. -1.
</event>
<event>
 5   0  0.1625282E-08  0.3400349E+04  0.7818609E-02  0.8137821E-01
       -1   -1    0    0    0  501  0.00000000000E+00  0.00000000000E+00  0.16733456204E+04  0.16733456204E+04  0.50400001928E-02 0. -1.
        1   -1    0    0  501    0  0.00000000000E+00  0.00000000000E+00 -0.17274336005E+04  0.17274336005E+04  0.50400001928E-02 0.  1.
    10030    2    1    2    0    0  0.00000000000E+00  0.00000000000E+00 -0.54087980097E+02  0.34007792209E+04  0.34003490702E+04 0.  0.
        1    1    3    3  502    0 -0.16242112698E+04 -0.18205209779E+03 -0.49549222006E+03  0.17078400848E+04  0.50400001928E-02 0.  1.
       -1    1    3    3    0  502  0.16242112698E+04  0.18205209779E+03  0.44140423996E+03  0.16929391360E+04  0.50400001928E-02 0. -1.
</event>
<event>
 5   0  0.1645631E-08  0.3398109E+04  0.7818609E-02  0.8138370E-01
        1   -1    0    0  501    0  0.00000000000E+00  0.00000000000E+00  0.27738536431E+04  0.27738536431E+04  0.50400001928E-02 0. -1.
       -1   -1    0    0    0  501  0.00000000000E+00  0.00000000000E+00 -0.10407134451E+04  0.10407134451E+04  0.50400001928E-02 0.  1.
    10030    2    1    2    0    0  0.00000000000E+00  0.00000000000E+00  0.17331401980E+04  0.38145670882E+04  0.33981093455E+04 0.  0.
        4    1    3    3  502    0  0.52156708657E+03 -0.14026863268E+04  0.17696688009E+04  0.23176044604E+04  0.12699999809E+01 0. -1.
       -4    1    3    3    0  502 -0.52156708657E+03  0.14026863268E+04 -0.36528602933E+02  0.14969626277E+04  0.12699999809E+01 0.  1.
</event>
<event>
 5   0  0.4764953E-08  0.3403581E+04  0.7818609E-02  0.8137028E-01
        2   -1    0    0  501    0  0.00000000000E+00  0.00000000000E+00  0.19790537613E+04  0.19790537613E+04  0.25500000920E-02 0. -1.
       -2   -1    0    0    0  501  0.00000000000E+00  0.00000000000E+00 -0.14633718470E+04  0.14633718470E+04  0.25500000920E-02 0.  1.
    10030    2    1    2    0    0  0.00000000000E+00  0.00000000000E+00  0.51568191434E+03  0.34424256083E+04  0.34035813832E+04 0.  0.
        2    1    3    3  502    0  0.62614352643E+03  0.19861742586E+03  0.18456581403E+04  0.19590708431E+04  0.25500000920E-02 0. -1.
       -2    1    3    3    0  502 -0.62614352643E+03 -0.19861742586E+03 -0.13299762260E+04  0.14833547651E+04  0.25500000920E-02 0.  1.
</event>
<event>
 5   0  0.5001197E-08  0.3402255E+04  0.7818609E-02  0.8137353E-01
       -2   -1    0    0    0  501  0.00000000000E+00  0.00000000000E+00  0.12350937134E+04  0.12350937134E+04  0.25500000920E-02 0. -1.
        2   -1    0    0  501    0  0.00000000000E+00  0.00000000000E+00 -0.23430082000E+04  0.23430082000E+04  0.25500000920E-02 0.  1.
    10030    2    1    2    0    0  0.00000000000E+00  0.00000000000E+00 -0.11079144867E+04  0.35781019134E+04  0.34022549571E+04 0.  0.
        5    1    3    3  502    0 -0.86046513258E+02 -0.16917340534E+04 -0.38952900034E+03  0.17381378087E+04  0.46999998093E+01 0. -1.
       -5    1    3    3    0  502  0.86046513258E+02  0.16917340534E+04 -0.71838548633E+03  0.18399641047E+04  0.46999998093E+01 0.  1.
</event>
<event>
 5   0  0.1645631E-08  0.3399580E+04  0.7818609E-02  0.8138009E-01
       -1   -1    0    0    0  501  0.00000000000E+00  0.00000000000E+00  0.19670992728E+04  0.19670992728E+04  0.50400001928E-02 0.  1.
        1   -1    0    0  501    0  0.00000000000E+00  0.00000000000E+00 -0.14688052302E+04  0.14688052303E+04  0.50400001928E-02 0. -1.
    10030    2    1    2    0    0  0.00000000000E+00  0.00000000000E+00  0.49829404256E+03  0.34359045031E+04  0.33995797978E+04 0.  0.
        4    1    3    3  502    0  0.11297581733E+04 -0.11759206072E+04  0.73400339570E+03  0.17882688283E+04  0.12699999809E+01 0.  1.
       -4    1    3    3    0  502 -0.11297581733E+04  0.11759206072E+04 -0.23570935314E+03  0.16476356747E+04  0.12699999809E+01 0. -1.
</event>
<event>
 5   0  0.1595851E-08  0.3399353E+04  0.7818609E-02  0.8138065E-01
        1   -1    0    0  501    0  0.00000000000E+00  0.00000000000E+00  0.12046947190E+04  0.12046947190E+04  0.50400001928E-02 0. -1.
       -1   -1    0    0    0  501  0.00000000000E+00  0.00000000000E+00 -0.23980356616E+04  0.23980356616E+04  0.50400001928E-02 0.  1.
    10030    2    1    2    0    0  0.00000000000E+00  0.00000000000E+00 -0.11933409426E+04  0.36027303807E+04  0.33993534077E+04 0.  0.
        2    1    3    3  502    0 -0.14844278393E+04  0.82056379441E+03 -0.71301018973E+03  0.18399006716E+04  0.25500000920E-02 0.  1.
       -2    1    3    3    0  502  0.14844278393E+04 -0.82056379441E+03 -0.48033075283E+03  0.17628297090E+04  0.25500000920E-02 0. -1.
</event>
<event>
 5   0  0.4775023E-08  0.3401028E+04  0.7818609E-02  0.8137654E-01
        2   -1    0    0  501    0  0.00000000000E+00  0.00000000000E+00  0.11716144245E+04  0.11716144245E+04  0.25500000920E-02 0.  1.
       -2   -1    0    0    0  501  0.00000000000E+00  0.00000000000E+00 -0.24681735850E+04  0.24681735850E+04  0.25500000920E-02 0. -1.
    10030    2    1    2    0    0  0.00000000000E+00  0.00000000000E+00 -0.12965591606E+04  0.36397880095E+04  0.34010279472E+04 0.  0.
        4    1    3    3  502    0 -0.64463989797E+02 -0.63414406606E+01  0.11702931376E+04  0.11720850911E+04  0.12699999809E+01 0.  1.
       -4    1    3    3    0  502  0.64463989797E+02  0.63414406606E+01 -0.24668522982E+04  0.24677029185E+04  0.12699999809E+01 0. -1.
</event>
<event>
 5   0  0.1573625E-08  0.3400232E+04  0.7818609E-02  0.8137850E-01
       -3   -1    0    0    0  501  0.00000000000E+00  0.00000000000E+00  0.20559800548E+04  0.20559800573E+04  0.10100000352E+00 0. -1.
        3   -1    0    0  501    0  0.00000000000E+00  0.00000000000E+00 -0.14058470803E+04  0.14058470839E+04  0.10100000352E+00 0.  1.
    10030    2    1    2    0    0  0.00000000000E+00  0.00000000000E+00  0.65013297452E+03  0.34618271411E+04  0.34002315025E+04 0.  0.
        2    1    3    3  502    0  0.72238653285E+03  0.10943833936E+04  0.14267386881E+04  0.19378081946E+04  0.25500000920E-02 0. -1.
       -2    1    3    3    0  502 -0.72238653285E+03 -0.10943833936E+04 -0.77660571356E+03  0.15240189465E+04  0.25500000920E-02 0.  1.
</event>
<event>
 5   0  0.4775023E-08  0.3400325E+04  0.7818609E-02  0.8137827E-01
        2   -1    0    0  501    0  0.00000000000E+00  0.00000000000E+00  0.28858588621E+04  0.28858588621E+04  0.25500000920E-02 0.  1.
       -2   -1    0    0    0  501  0.00000000000E+00  0.00000000000E+00 -0.10016265145E+04  0.10016265145E+04  0.25500000920E-02 0. -1.
    10030    2    1    2    0    0  0.00000000000E+00  0.00000000000E+00  0.18842323476E+04  0.38874853765E+04  0.34003251334E+04 0.  0.
        4    1    3    3  502    0 -0.62407064993E+03 -0.11725686510E+04 -0.27113367657E+03  0.13556904148E+04  0.12699999809E+01 0. -1.
       -4    1    3    3    0  502  0.62407064993E+03  0.11725686510E+04  0.21553660242E+04  0.25317949617E+04  0.12699999809E+01 0.  1.
</event>
<event>
 5   0  0.4775023E-08  0.3402865E+04  0.7818609E-02  0.8137203E-01
        2   -1    0    0  501    0  0.00000000000E+00  0.00000000000E+00  0.21970257003E+04  0.21970257003E+04  0.25500000920E-02 0.  1.
       -2   -1    0    0    0  501  0.00000000000E+00  0.00000000000E+00 -0.13176325784E+04  0.13176325784E+04  0.25500000920E-02 0. -1.
    10030    2    1    2    0    0  0.00000000000E+00  0.00000000000E+00  0.87939312193E+03  0.35146582787E+04  0.34028650506E+04 0.  0.
        4    1    3    3  502    0 -0.14537537680E+04 -0.11112747590E+03  0.13455040554E+04  0.19839687775E+04  0.12699999809E+01 0.  1.
       -4    1    3    3    0  502  0.14537537680E+04  0.11112747590E+03 -0.46611093347E+03  0.15306895012E+04  0.12699999809E+01 0. -1.
</event>
<event>
 5   0  0.4946315E-08  0.3399619E+04  0.7818609E-02  0.8138000E-01
        2   -1    0    0  501    0  0.00000000000E+00  0.00000000000E+00  0.20451680890E+04  0.20451680890E+04  0.25500000920E-02 0.  1.
       -2   -1    0    0    0  501  0.00000000000E+00  0.00000000000E+00 -0.14127697160E+04  0.14127697160E+04  0.25500000920E-02 0. -1.
    10030    2    1    2    0    0  0.00000000000E+00  0.00000000000E+00  0.63239837300E+03  0.34579378051E+04  0.33996185318E+04 0.  0.
        3    1    3    3  502    0  0.28653684106E+03 -0.12922556552E+04 -0.76854915391E+03  0.15305867672E+04  0.10100000352E+00 0. -1.
       -3    1    3    3    0  502 -0.28653684106E+03  0.12922556552E+04  0.14009475269E+04  0.19273510379E+04  0.10100000352E+00 0.  1.
</event>
<event>
 5   0  0.1595851E-08  0.3403149E+04  0.7818609E-02  0.8137134E-01
        1   -1    0    0  501    0  0.00000000000E+00  0.00000000000E+00  0.12674514901E+04  0.12674514901E+04  0.50400001928E-02 0.  1.
       -1   -1    0    0    0  501  0.00000000000E+00  0.00000000000E+00 -0.22843922204E+04  0.22843922204E+04  0.50400001928E-02 0. -1.
    10030    2    1    2    0    0  0.00000000000E+00  0.00000000000E+00 -0.10169407303E+04  0.35518437105E+04  0.34031493201E+04 0.  0.
        2    1    3    3  502    0  0.91168696341E+03  0.53746073541E+03 -0.18990986639E+04  0.21740774817E+04  0.25500000920E-02 0. -1.
       -2    1    3    3    0  502 -0.91168696341E+03 -0.53746073541E+03  0.88215793355E+03  0.13777662288E+04  0.25500000920E-02 0.  1.
</event>
<event>
 5   0  0.1625282E-08  0.3400103E+04  0.7818609E-02  0.8137881E-01
       -1   -1    0    0    0  501  0.00000000000E+00  0.00000000000E+00  0.13756341904E+04  0.13756341904E+04  0.50400001928E-02 0. -1.
        1   -1    0    0  501    0  0.00000000000E+00  0.00000000000E+00 -0.21009761938E+04  0.21009761938E+04  0.50400001928E-02 0.  1.
    10030    2    1    2    0    0  0.00000000000E+00  0.00000000000E+00 -0.72534200334E+03  0.34766103842E+04  0.34001027546E+04 0.  0.
        1    1    3    3  502    0  0.10205624221E+04  0.13253406981E+03 -0.17462866847E+04  0.20269756097E+04  0.50400001928E-02 0.  1.
       -1    1    3    3    0  502 -0.10205624221E+04 -0.13253406981E+03  0.10209446813E+04  0.14496347745E+04  0.50400001928E-02 0. -1.
</event>
<event>
 5   0  0.1579536E-08  0.3398123E+04  0.7818609E-02  0.8138367E-01
       -1   -1    0    0    0  501  0.00000000000E+00  0.00000000000E+00  0.10928919055E+04  0.10928919056E+04  0.50400001928E-02 0.  1.
        1   -1    0    0  501    0  0.00000000000E+00  0.00000000000E+00 -0.26414412397E+04  0.26414412397E+04  0.50400001928E-02 0. -1.
    10030    2    1    2    0    0  0.00000000000E+00  0.00000000000E+00 -0.15485493341E+04  0.37343331452E+04  0.33981228641E+04 0.  0.
        5    1    3    3  502    0 -0.15972292637E+04  0.56101845252E+03 -0.61538513824E+03  0.18012784302E+04  0.46999998093E+01 0.  1.
       -5    1    3    3    0  502  0.15972292637E+04 -0.56101845252E+03 -0.93316419588E+03  0.19330547150E+04  0.46999998093E+01 0. -1.
</event>
<event>
 5   0  0.4973409E-08  0.3402251E+04  0.7818609E-02  0.8137354E-01
       -2   -1    0    0    0  501  0.00000000000E+00  0.00000000000E+00  0.11617130437E+04  0.11617130437E+04  0.25500000920E-02 0. -1.
        2   -1    0    0  501    0  0.00000000000E+00  0.00000000000E+00 -0.24910002956E+04  0.24910002956E+04  0.25500000920E-02 0.  1.
    10030    2    1    2    0    0  0.00000000000E+00  0.00000000000E+00 -0.13292872519E+04  0.36527133393E+04  0.34022507463E+04 0.  0.
        1    1    3    3  502    0 -0.10094447709E+04 -0.46274077902E+03 -0.20482018791E+04  0.23298580883E+04  0.50400001928E-02 0.  1.
       -1    1    3    3    0  502  0.10094447709E+04  0.46274077902E+03  0.71891462717E+03  0.13228552510E+04  0.50400001928E-02 0. -1.
</event>
<event>
 5   0  0.5001197E-08  0.3396470E+04  0.7818609E-02  0.8138773E-01
       -2   -1    0    0    0  501  0.00000000000E+00  0.00000000000E+00  0.10077858358E+04  0.10077858358E+04  0.25500000920E-02 0.  1.
        2   -1    0    0  501    0  0.00000000000E+00  0.00000000000E+00 -0.28617211415E+04  0.28617211415E+04  0.25500000920E-02 0. -1.
    10030    2    1    2    0    0  0.00000000000E+00  0.00000000000E+00 -0.18539353056E+04  0.38695069773E+04  0.33964699513E+04 0.  0.
        5    1    3    3  502    0  0.85629741973E+03 -0.55879756010E+03  0.61777915813E+03  0.11946435294E+04  0.46999998093E+01 0.  1.
       -5    1    3    3    0  502 -0.85629741973E+03  0.55879756010E+03 -0.24717144638E+04  0.26748634478E+04  0.46999998093E+01 0. -1.
</event>
<event>
 5   0  0.4775023E-08  0.3396830E+04  0.7818609E-02  0.8138685E-01
       -2   -1    0    0    0  501  0.00000000000E+00  0.00000000000E+00  0.11803686715E+04  0.11803686715E+04  0.25500000920E-02 0.  1.
        2   -1    0    0  501    0  0.00000000000E+00  0.00000000000E+00 -0.24438241498E+04  0.24438241498E+04  0.25500000920E-02 0. -1.
    10030    2    1    2    0    0  0.00000000000E+00  0.00000000000E+00 -0.12634554783E+04  0.36241928214E+04  0.33968299723E+04 0.  0.
        4    1    3    3  502    0 -0.64976460763E+03 -0.10884855264E+04 -0.18377014455E+04  0.22325194293E+04  0.12699999809E+01 0. -1.
       -4    1    3    3    0  502  0.64976460763E+03  0.10884855264E+04  0.57424596719E+03  0.13916733921E+04  0.12699999809E+01 0.  1.
</event>
<event>
 5   0  0.1579536E-08  0.3399384E+04  0.7818609E-02  0.8138058E-01
       -1   -1    0    0    0  501  0.00000000000E+00  0.00000000000E+00  0.10195752783E+04  0.10195752783E+04  0.50400001928E-02 0.  1.
        1   -1    0    0  501    0  0.00000000000E+00  0.00000000000E+00 -0.28334866329E+04  0.28334866329E+04  0.50400001928E-02 0. -1.
    10030    2    1    2    0    0  0.00000000000E+00  0.00000000000E+00 -0.18139113546E+04  0.38530619113E+04  0.33993840162E+04 0.  0.
        5    1    3    3  502    0  0.46313895211E+03 -0.94050213965E+03 -0.24233731955E+04  0.26404169554E+04  0.46999998093E+01 0. -1.
       -5    1    3    3    0  502 -0.46313895211E+03  0.94050213965E+03  0.60946184088E+03  0.12126449559E+04  0.46999998093E+01 0.  1.
</event>
<event>
 5   0  0.1625282E-08  0.3399946E+04  0.7818609E-02  0.8137920E-01
       -1   -1    0    0    0  501  0.00000000000E+00  0.00000000000E+00  0.14535244706E+04  0.14535244707E+04  0.50400001928E-02 0.  1.
        1   -1    0    0  501    0  0.00000000000E+00  0.00000000000E+00 -0.19882074357E+04  0.19882074357E+04  0.50400001928E-02 0. -1.
    10030    2    1    2    0    0  0.00000000000E+00  0.00000000000E+00 -0.53468296505E+03  0.34417319063E+04  0.33999459763E+04 0.  0.
        1    1    3    3  502    0 -0.88366488298E+03 -0.13642236194E+04 -0.77139536433E+03  0.17991721756E+04  0.50400001928E-02 0.  1.
       -1    1    3    3    0  502  0.88366488298E+03  0.13642236194E+04  0.23671239929E+03  0.16425597308E+04  0.50400001928E-02 0. -1.
</event>
<event>
 5   0  0.1595851E-08  0.3400110E+04  0.7818609E-02  0.8137879E-01
        1   -1    0    0  501    0  0.00000000000E+00  0.00000000000E+00  0.16279602062E+04  0.16279602062E+04  0.50400001928E-02 0. -1.
       -1   -1    0    0    0  501  0.00000000000E+00  0.00000000000E+00 -0.17753430084E+04  0.17753430084E+04  0.50400001928E-02 0.  1.
    10030    2    1    2    0    0  0.00000000000E+00  0.00000000000E+00 -0.14738280215E+03  0.34033032146E+04  0.34001104512E+04 0.  0.
        2    1    3    3  502    0 -0.34556300007E+03 -0.73952749745E+03  0.14189745147E+04  0.16370105009E+04  0.25500000920E-02 0. -1.
       -2    1    3    3    0  502  0.34556300007E+03  0.73952749745E+03 -0.15663573169E+04  0.17662927138E+04  0.25500000920E-02 0.  1.
</event>
<event>
 5   0  0.1595851E-08  0.3398976E+04  0.7818609E-02  0.8138158E-01
       -1   -1    0    0    0  501  0.00000000000E+00  0.00000000000E+00  0.22250988940E+04  0.22250988940E+04  0.50400001928E-02 0. -1.
        1   -1    0    0  501    0  0.00000000000E+00  0.00000000000E+00 -0.12980365968E+04  0.12980365968E+04  0.50400001928E-02 0.  1.
    10030    2    1    2    0    0  0.00000000000E+00  0.00000000000E+00  0.92706229727E+03  0.35231354908E+04  0.33989761964E+04 0.  0.
        2    1    3    3  502    0 -0.60240030627E+03  0.12558988528E+04 -0.54573661807E+03  0.14959934872E+04  0.25500000920E-02 0.  1.
       -2    1    3    3    0  502  0.60240030627E+03 -0.12558988528E+04  0.14727989153E+04  0.20271420036E+04  0.25500000920E-02 0. -1.
</event>
<event>
 5   0  0.1579536E-08  0.3401367E+04  0.7818609E-02  0.8137571E-01
       -1   -1    0    0    0  501  0.00000000000E+00  0.00000000000E+00  0.14017327701E+04  0.14017327701E+04  0.50400001928E-02 0.  1.
        1   -1    0    0  501    0  0.00000000000E+00  0.00000000000E+00 -0.20633918889E+04  0.20633918889E+04  0.50400001928E-02 0. -1.
    10030    2    1    2    0    0  0.00000000000E+00  0.00000000000E+00 -0.66165911876E+03  0.34651246590E+04  0.34013668007E+04 0.  0.
        5    1    3    3  502    0  0.16255974622E+04 -0.48950815428E+03 -0.22836289444E+03  0.17129965101E+04  0.46999998093E+01 0.  1.
       -5    1    3    3    0  502 -0.16255974622E+04  0.48950815428E+03 -0.43329622432E+03  0.17521281489E+04  0.46999998093E+01 0. -1.
</event>
<event>
 5   0  0.4973409E-08  0.3400000E+04  0.7818609E-02  0.8137906E-01
       -2   -1    0    0    0  501  0.00000000000E+00  0.00000000000E+00  0.12482239817E+04  0.12482239817E+04  0.25500000920E-02 0. -1.
        2   -1    0    0  501    0  0.00000000000E+00  0.00000000000E+00 -0.23152893091E+04  0.23152893091E+04  0.25500000920E-02 0.  1.
    10030    2    1    2    0    0  0.00000000000E+00  0.00000000000E+00 -0.10670653274E+04  0.35635132908E+04  0.33999997884E+04 0.  0.
        1    1    3    3  502    0 -0.18044687547E+03 -0.97634870064E+03  0.91275171557E+03  0.13486784474E+04  0.50400001928E-02 0. -1.
       -1    1    3    3    0  502  0.18044687547E+03  0.97634870064E+03 -0.19798170430E+04  0.22148348434E+04  0.50400001928E-02 0.  1.
</event>
<event>
 5   0  0.1645631E-08  0.3399522E+04  0.7818609E-02  0.8138024E-01
        1   -1    0    0  501    0  0.00000000000E+00  0.00000000000E+00  0.28134632467E+04  0.28134632467E+04  0.50400001928E-02 0. -1.
       -1   -1    0    0    0  501  0.00000000000E+00  0.00000000000E+00 -0.10269150722E+04  0.10269150722E+04  0.50400001928E-02 0.  1.
    10030    2    1    2    0    0  0.00000000000E+00  0.00000000000E+00  0.17865481745E+04  0.38403783189E+04  0.33995222095E+04 0.  0.
        4    1    3    3  502    0 -0.13351162535E+04  0.44248769352E+03  0.19714282212E+04  0.24217476362E+04  0.12699999809E+01 0. -1.
       -4    1    3    3    0  502  0.13351162535E+04 -0.44248769352E+03 -0.18488004668E+03  0.14186306827E+04  0.12699999809E+01 0.  1.
</event>
<event>
 5   0  0.1625282E-08  0.3400167E+04  0.7818609E-02  0.8137865E-01
       -1   -1    0    0    0  501  0.00000000000E+00  0.00000000000E+00  0.16722288121E+04  0.16722288121E+04  0.50400001928E-02 0.  1.
        1   -1    0    0  501    0  0.00000000000E+00  0.00000000000E+00 -0.17284022222E+04  0.17284022222E+04  0.50400001928E-02 0. -1.
    10030    2    1    2    0    0  0.00000000000E+00  0.00000000000E+00 -0.56173410043E+02  0.34006310343E+04  0.34001670517E+04 0.  0.
        1    1    3    3  502    0 -0.35723032444E+02  0.95387666697E+03  0.13789198121E+04  0.16770738443E+04  0.50400001928E-02 0.  1.
       -1    1    3    3    0  502  0.35723032444E+02 -0.95387666697E+03 -0.14350932222E+04  0.17235571900E+04  0.50400001928E-02 0. -1.
</event>
<event>
 5   0  0.4775023E-08  0.3414502E+04  0.7818609E-02  0.8134356E-01
       -2   -1    0    0    0  501  0.00000000000E+00  0.00000000000E+00  0.12885455176E+04  0.12885455176E+04  0.25500000920E-02 0. -1.
        2   -1    0    0  501    0  0.00000000000E+00  0.00000000000E+00 -0.22620130687E+04  0.22620130687E+04  0.25500000920E-02 0.  1.
    10030    2    1    2    0    0  0.00000000000E+00  0.00000000000E+00 -0.97346755115E+03  0.35505585863E+04  0.34145024823E+04 0.  0.
        4    1    3    3  502    0  0.20876975886E+03  0.61932024167E+03 -0.21267807161E+04  0.22249359993E+04  0.12699999809E+01 0.  1.
       -4    1    3    3    0  502 -0.20876975886E+03 -0.61932024167E+03  0.11533131649E+04  0.13256225870E+04  0.12699999809E+01 0. -1.
</event>
<event>
 5   0  0.1579536E-08  0.3389898E+04  0.7818609E-02  0.8140390E-01
        1   -1    0    0  501    0  0.00000000000E+00  0.00000000000E+00  0.18877636056E+04  0.18877636056E+04  0.50400001928E-02 0.  1.
       -1   -1    0    0    0  501  0.00000000000E+00  0.00000000000E+00 -0.15218281952E+04  0.15218281953E+04  0.50400001928E-02 0. -1.
    10030    2    1    2    0    0  0.00000000000E+00  0.00000000000E+00  0.36593541033E+03  0.34095918008E+04  0.33898978633E+04 0.  0.
        5    1    3    3  502    0  0.86966542582E+03  0.10188081103E+04 -0.86159443282E+03  0.15926879717E+04  0.46999998093E+01 0. -1.
       -5    1    3    3    0  502 -0.86966542582E+03 -0.10188081103E+04  0.12275298431E+04  0.18169038291E+04  0.46999998093E+01 0.  1.
</event>
<event>
 5   0  0.1579536E-08  0.3394432E+04  0.7818609E-02  0.8139274E-01
        1   -1    0    0  501    0  0.00000000000E+00  0.00000000000E+00  0.32139977926E+04  0.32139977926E+04  0.50400001928E-02 0. -1.
       -1   -1    0    0    0  501  0.00000000000E+00  0.00000000000E+00 -0.89624872878E+03  0.89624872879E+03  0.50400001928E-02 0.  1.
    10030    2    1    2    0    0  0.00000000000E+00  0.00000000000E+00  0.23177490638E+04  0.41102465214E+04  0.33944315789E+04 0.  0.
        5    1    3    3  502    0  0.10726893837E+04  0.56936646081E+02  0.27499785499E+04  0.29523394809E+04  0.46999998093E+01 0. -1.
       -5    1    3    3    0  502 -0.10726893837E+04 -0.56936646081E+02 -0.43222948616E+03  0.11579070404E+04  0.46999998093E+01 0.  1.
</event>
<event>
 5   0  0.1595851E-08  0.3401360E+04  0.7818609E-02  0.8137573E-01
        1   -1    0    0  501    0  0.00000000000E+00  0.00000000000E+00  0.27062035207E+04  0.27062035207E+04  0.50400001928E-02 0.  1.
       -1   -1    0    0    0  501  0.00000000000E+00  0.00000000000E+00 -0.10687714803E+04  0.10687714803E+04  0.50400001928E-02 0. -1.
    10030    2    1    2    0    0  0.00000000000E+00  0.00000000000E+00  0.16374320403E+04  0.37749750010E+04  0.34013604001E+04 0.  0.
        2    1    3    3  502    0  0.14366969840E+04  0.91006231383E+03  0.82007703855E+03  0.18880778554E+04  0.25500000920E-02 0. -1.
       -2    1    3    3    0  502 -0.14366969840E+04 -0.91006231383E+03  0.81735500179E+03  0.18868971456E+04  0.25500000920E-02 0.  1.
</event>
<event>
 5   0  0.4973409E-08  0.3399091E+04  0.7818609E-02  0.8138129E-01
       -2   -1    0    0    0  501  0.00000000000E+00  0.00000000000E+00  0.11417223649E+04  0.11417223649E+04  0.25500000920E-02 0. -1.
        2   -1    0    0  501    0  0.00000000000E+00  0.00000000000E+00 -0.25299104280E+04  0.25299104280E+04  0.25500000920E-02 0.  1.
    10030    2    1    2    0    0  0.00000000000E+00  0.00000000000E+00 -0.13881880630E+04  0.36716327929E+04  0.33990912414E+04 0.  0.
        1    1    3    3  502    0 -0.81078876148E+03 -0.46265052283E+03 -0.22281907700E+04  0.24158348515E+04  0.50400001928E-02 0.  1.
       -1    1    3    3    0  502  0.81078876148E+03  0.46265052283E+03  0.84000270696E+03  0.12557979414E+04  0.50400001928E-02 0. -1.
</event>
<event>
 5   0  0.1645631E-08  0.3391298E+04  0.7818609E-02  0.8140045E-01
        1   -1    0    0  501    0  0.00000000000E+00  0.00000000000E+00  0.16724813546E+04  0.16724813547E+04  0.50400001928E-02 0. -1.
       -1   -1    0    0    0  501  0.00000000000E+00  0.00000000000E+00 -0.17191375543E+04  0.17191375543E+04  0.50400001928E-02 0.  1.
    10030    2    1    2    0    0  0.00000000000E+00  0.00000000000E+00 -0.46656199682E+02  0.33916189090E+04  0.33912979850E+04 0.  0.
        4    1    3    3  502    0  0.17999417473E+03 -0.14302389314E+04 -0.91629701571E+03  0.17080934219E+04  0.12699999809E+01 0.  1.
       -4    1    3    3    0  502 -0.17999417473E+03  0.14302389314E+04  0.86964081603E+03  0.16835254871E+04  0.12699999809E+01 0. -1.
</event>
<event>
 5   0  0.4973409E-08  0.3398938E+04  0.7818609E-02  0.8138167E-01
        2   -1    0    0  501    0  0.00000000000E+00  0.00000000000E+00  0.19363235673E+04  0.19363235673E+04  0.25500000920E-02 0. -1.
       -2   -1    0    0    0  501  0.00000000000E+00  0.00000000000E+00 -0.14915868161E+04  0.14915868161E+04  0.25500000920E-02 0.  1.
    10030    2    1    2    0    0  0.00000000000E+00  0.00000000000E+00  0.44473675111E+03  0.34279103834E+04  0.33989378957E+04 0.  0.
        1    1    3    3  502    0 -0.65842561138E+02 -0.42281206609E+03 -0.14363667559E+04  0.14987510612E+04  0.50400001928E-02 0.  1.
       -1    1    3    3    0  502  0.65842561138E+02  0.42281206609E+03  0.18811035070E+04  0.19291593221E+04  0.50400001928E-02 0. -1.
</event>
<event>
 5   0  0.4946315E-08  0.3400704E+04  0.7818609E-02  0.8137734E-01
        2   -1    0    0  501    0  0.00000000000E+00  0.00000000000E+00  0.10867386412E+04  0.10867386412E+04  0.25500000920E-02 0. -1.
       -2   -1    0    0    0  501  0.00000000000E+00  0.00000000000E+00 -0.26604339752E+04  0.26604339752E+04  0.25500000920E-02 0.  1.
    10030    2    1    2    0    0  0.00000000000E+00  0.00000000000E+00 -0.15736953340E+04  0.37471726164E+04  0.34007036937E+04 0.  0.
        3    1    3    3  502    0  0.10646866046E+04 -0.10822687540E+04 -0.16305847533E+04  0.22279295029E+04  0.10100000352E+00 0.  1.
       -3    1    3    3    0  502 -0.10646866046E+04  0.10822687540E+04  0.56889419354E+02  0.15192431135E+04  0.10100000352E+00 0. -1.
</event>
<event>
 5   0  0.4946315E-08  0.3397780E+04  0.7818609E-02  0.8138451E-01
       -2   -1    0    0    0  501  0.00000000000E+00  0.00000000000E+00  0.11473270433E+04  0.11473270433E+04  0.25500000920E-02 0. -1.
        2   -1    0    0  501    0  0.00000000000E+00  0.00000000000E+00 -0.25156097445E+04  0.25156097445E+04  0.25500000920E-02 0.  1.
    10030    2    1    2    0    0  0.00000000000E+00  0.00000000000E+00 -0.13682827011E+04  0.36629367878E+04  0.33977799165E+04 0.  0.
        3    1    3    3  502    0 -0.59178699231E+03  0.52792014148E+02  0.10316771227E+04  0.11905278396E+04  0.10100000352E+00 0. -1.
       -3    1    3    3    0  502  0.59178699231E+03 -0.52792014148E+02 -0.23999598239E+04  0.24724089483E+04  0.10100000352E+00 0.  1.
</event>
<event>
 5   0  0.1625282E-08  0.3398678E+04  0.7818609E-02  0.8138231E-01
       -1   -1    0    0    0  501  0.00000000000E+00  0.00000000000E+00  0.11018450126E+04  0.11018450126E+04  0.50400001928E-02 0. -1.
        1   -1    0    0  501    0  0.00000000000E+00  0.00000000000E+00 -0.26208334221E+04  0.26208334221E+04  0.50400001928E-02 0.  1.
    10030    2    1    2    0    0  0.00000000000E+00  0.00000000000E+00 -0.15189884095E+04  0.37226784347E+04  0.33986775281E+04 0.  0.
        1    1    3    3  502    0  0.11833525428E+04 -0.11794249674E+04 -0.41943701758E+03  0.17225834976E+04  0.50400001928E-02 0. -1.
       -1    1    3    3    0  502 -0.11833525428E+04  0.11794249674E+04 -0.10995513919E+04  0.20000949372E+04  0.50400001928E-02 0.  1.
</event>
<event>
 5   0  0.1579536E-08  0.3403162E+04  0.7818609E-02  0.8137131E-01
       -1   -1    0    0    0  501  0.00000000000E+00  0.00000000000E+00  0.17382211021E+04  0.17382211022E+04  0.50400001928E-02 0. -1.
        1   -1    0    0  501    0  0.00000000000E+00  0.00000000000E+00 -0.16657135887E+04  0.16657135887E+04  0.50400001928E-02 0.  1.
    10030    2    1    2    0    0  0.00000000000E+00  0.00000000000E+00  0.72507513444E+02  0.34039346909E+04  0.34031623588E+04 0.  0.
        5    1    3    3  502    0 -0.11793572653E+04  0.79601373840E+02 -0.11880078778E+04  0.16758892402E+04  0.46999998093E+01 0.  1.
       -5    1    3    3    0  502  0.11793572653E+04 -0.79601373840E+02  0.12605153912E+04  0.17280454506E+04  0.46999998093E+01 0. -1.
</event>
<event>
 5   0  0.4946315E-08  0.3400767E+04  0.7818609E-02  0.8137718E-01
       -2   -1    0    0    0  501  0.00000000000E+00  0.00000000000E+00  0.17320137178E+04  0.17320137178E+04  0.25500000920E-02 0. -1.
        2   -1    0    0  501    0  0.00000000000E+00  0.00000000000E+00 -0.16693313238E+04  0.16693313238E+04  0.25500000920E-02 0.  1.
    10030    2    1    2    0    0  0.00000000000E+00  0.00000000000E+00  0.62682394014E+02  0.34013450416E+04  0.34007674148E+04 0.  0.
        3    1    3    3  502    0  0.55454253112E+03 -0.12836032795E+03  0.16338963907E+04  0.17302055422E+04  0.10100000352E+00 0. -1.
       -3    1    3    3    0  502 -0.55454253112E+03  0.12836032795E+03 -0.15712139967E+04  0.16711394993E+04  0.10100000352E+00 0.  1.
</event>
<event>
 5   0  0.1579536E-08  0.3399774E+04  0.7818609E-02  0.8137962E-01
        1   -1    0    0  501    0  0.00000000000E+00  0.00000000000E+00  0.15382646179E+04  0.15382646179E+04  0.50400001928E-02 0.  1.
       -1   -1    0    0    0  501  0.00000000000E+00  0.00000000000E+00 -0.18784910217E+04  0.18784910217E+04  0.50400001928E-02 0. -1.
    10030    2    1    2    0    0  0.00000000000E+00  0.00000000000E+00 -0.34022640383E+03  0.34167556396E+04  0.33997742712E+04 0.  0.
        5    1    3    3  502    0 -0.10999357685E+04  0.88895998372E+03 -0.11179494353E+04  0.18027594341E+04  0.46999998093E+01 0. -1.
       -5    1    3    3    0  502  0.10999357685E+04 -0.88895998372E+03  0.77772303148E+03  0.16139962054E+04  0.46999998093E+01 0.  1.
</event>
<event>
 5   0  0.4764953E-08  0.3398959E+04  0.7818609E-02  0.8138162E-01
        2   -1    0    0  501    0  0.00000000000E+00  0.00000000000E+00  0.10393470325E+04  0.10393470325E+04  0.25500000920E-02 0. -1.
       -2   -1    0    0    0  501  0.00000000000E+00  0.00000000000E+00 -0.27788893154E+04  0.27788893154E+04  0.25500000920E-02 0.  1.
    10030    2    1    2    0    0  0.00000000000E+00  0.00000000000E+00 -0.17395422830E+04  0.38182363479E+04  0.33989588780E+04 0.  0.
        2    1    3    3  502    0 -0.64814224172E+03 -0.34763630813E+03  0.85130610734E+03  0.11250162028E+04  0.25500000920E-02 0. -1.
       -2    1    3    3    0  502  0.64814224172E+03  0.34763630813E+03 -0.25908483903E+04  0.26932201451E+04  0.25500000920E-02 0.  1.
</event>
<event>
 5   0  0.1630571E-08  0.3403259E+04  0.7818609E-02  0.8137107E-01
        1   -1    0    0  501    0  0.00000000000E+00  0.00000000000E+00  0.17053100661E+04  0.17053100661E+04  0.50400001928E-02 0. -1.
       -1   -1    0    0    0  501  0.00000000000E+00  0.00000000000E+00 -0.16979573330E+04  0.16979573330E+04  0.50400001928E-02 0.  1.
    10030    2    1    2    0    0  0.00000000000E+00  0.00000000000E+00  0.73527330917E+01  0.34032673992E+04  0.34032594564E+04 0.  0.
        3    1    3    3  502    0  0.69724232449E+03 -0.24619351959E+02  0.15557079364E+04  0.17049868519E+04  0.10100000352E+00 0. -1.
       -3    1    3    3    0  502 -0.69724232449E+03  0.24619351959E+02 -0.15483552033E+04  0.16982805473E+04  0.10100000352E+00 0.  1.
</event>
<event>
 5   0  0.1625282E-08  0.3393556E+04  0.7818609E-02  0.8139490E-01
        1   -1    0    0  501    0  0.00000000000E+00  0.00000000000E+00  0.23194040195E+04  0.23194040195E+04  0.50400001928E-02 0.  1.
       -1   -1    0    0    0  501  0.00000000000E+00  0.00000000000E+00 -0.12412912429E+04  0.12412912429E+04  0.50400001928E-02 0. -1.
    10030    2    1    2    0    0  0.00000000000E+00  0.00000000000E+00  0.10781127766E+04  0.35606952625E+04  0.33935561868E+04 0.  0.
        1    1    3    3  502    0 -0.37344491844E+03 -0.12851190033E+04 -0.55542144707E+03  0.14489599524E+04  0.50400001928E-02 0. -1.
       -1    1    3    3    0  502  0.37344491844E+03  0.12851190033E+04  0.16335342237E+04  0.21117353101E+04  0.50400001928E-02 0.  1.
</event>
<event>
 5   0  0.1645631E-08  0.3399538E+04  0.7818609E-02  0.8138020E-01
       -1   -1    0    0    0  501  0.00000000000E+00  0.00000000000E+00  0.14605677606E+04  0.14605677606E+04  0.50400001928E-02 0. -1.
        1   -1    0    0  501    0  0.00000000000E+00  0.00000000000E+00 -0.19781443743E+04  0.19781443743E+04  0.50400001928E-02 0.  1.
    10030    2    1    2    0    0  0.00000000000E+00  0.00000000000E+00 -0.51757661366E+03  0.34387121349E+04  0.33995375562E+04 0.  0.
        4    1    3    3  502    0 -0.15140236114E+02  0.12742079100E+04  0.87906425296E+03  0.15480925677E+04  0.12699999809E+01 0.  1.
       -4    1    3    3    0  502  0.15140236114E+02 -0.12742079100E+04 -0.13966408666E+04  0.18906195672E+04  0.12699999809E+01 0. -1.
</event>
<event>
 5   0  0.4775023E-08  0.3399894E+04  0.7818609E-02  0.8137932E-01
        2   -1    0    0  501    0  0.00000000000E+00  0.00000000000E+00  0.19813365857E+04  0.19813365857E+04  0.25500000920E-02 0. -1.
       -2   -1    0    0    0  501  0.00000000000E+00  0.00000000000E+00 -0.14585202615E+04  0.14585202615E+04  0.25500000920E-02 0.  1.
    10030    2    1    2    0    0  0.00000000000E+00  0.00000000000E+00  0.52281632422E+03  0.34398568473E+04  0.33998938543E+04 0.  0.
        4    1    3    3  502    0  0.65252334073E+03 -0.11457598241E+04 -0.82417421816E+03  0.15549331303E+04  0.12699999809E+01 0.  1.
       -4    1    3    3    0  502 -0.65252334073E+03  0.11457598241E+04  0.13469905424E+04  0.18849237170E+04  0.12699999809E+01 0. -1.
</event>
<event>
 5   0  0.1630571E-08  0.3394597E+04  0.7818609E-02  0.8139234E-01
        1   -1    0    0  501    0  0.00000000000E+00  0.00000000000E+00  0.26947255954E+04  0.26947255954E+04  0.50400001928E-02 0. -1.
       -1   -1    0    0    0  501  0.00000000000E+00  0.00000000000E+00 -0.10690593690E+04  0.10690593690E+04  0.50400001928E-02 0.  1.
    10030    2    1    2    0    0  0.00000000000E+00  0.00000000000E+00  0.16256662264E+04  0.37637849644E+04  0.33945966739E+04 0.  0.
        3    1    3    3  502    0  0.11707194301E+04  0.33917687719E+03 -0.49681415468E+03  0.13162253806E+04  0.10100000352E+00 0.  1.
       -3    1    3    3    0  502 -0.11707194301E+04 -0.33917687719E+03  0.21224803810E+04  0.24475595838E+04  0.10100000352E+00 0. -1.
</event>
<event>
 5   0  0.1579536E-08  0.3420499E+04  0.7818609E-02  0.8132894E-01
       -1   -1    0    0    0  501  0.00000000000E+00  0.00000000000E+00  0.13392003900E+04  0.13392003901E+04  0.50400001928E-02 0.  1.
        1   -1    0    0  501    0  0.00000000000E+00  0.00000000000E+00 -0.21841038863E+04  0.21841038863E+04  0.50400001928E-02 0. -1.
    10030    2    1    2    0    0  0.00000000000E+00  0.00000000000E+00 -0.84490349624E+03  0.35233042763E+04  0.34204986633E+04 0.  0.
        5    1    3    3  502    0  0.25729364869E+02  0.31419029251E+03  0.13090082644E+04  0.13464405914E+04  0.46999998093E+01 0.  1.
       -5    1    3    3    0  502 -0.25729364869E+02 -0.31419029251E+03 -0.21539117606E+04  0.21768636849E+04  0.46999998093E+01 0. -1.
</event>
<event>
 5   0  0.1645631E-08  0.3399598E+04  0.7818609E-02  0.8138005E-01
       -1   -1    0    0    0  501  0.00000000000E+00  0.00000000000E+00  0.15336416676E+04  0.15336416676E+04  0.50400001928E-02 0. -1.
        1   -1    0    0  501    0  0.00000000000E+00  0.00000000000E+00 -0.18839583977E+04  0.18839583977E+04  0.50400001928E-02 0.  1.
    10030    2    1    2    0    0  0.00000000000E+00  0.00000000000E+00 -0.35031673006E+03  0.34176000653E+04  0.33995982697E+04 0.  0.
        4    1    3    3  502    0 -0.11939962113E+04 -0.97975385128E+02 -0.13873999768E+04  0.18330593109E+04  0.12699999809E+01 0.  1.
       -4    1    3    3    0  502  0.11939962113E+04  0.97975385128E+02  0.10370832468E+04  0.15845407544E+04  0.12699999809E+01 0. -1.
</event>
<event>
 5   0  0.4764953E-08  0.3398872E+04  0.7818609E-02  0.8138183E-01
        2   -1    0    0  501    0  0.00000000000E+00  0.00000000000E+00  0.17966227411E+04  0.17966227411E+04  0.25500000920E-02 0. -1.
       -2   -1    0    0    0  501  0.00000000000E+00  0.00000000000E+00 -0.16075064060E+04  0.16075064060E+04  0.25500000920E-02 0.  1.
    10030    2    1    2    0    0  0.00000000000E+00  0.00000000000E+00  0.18911633511E+03  0.34041291470E+04  0.33988719101E+04 0.  0.
        2    1    3    3  502    0  0.16197289324E+04 -0.25179874184E+03  0.54375847064E+03  0.17270198885E+04  0.25500000920E-02 0. -1.
       -2    1    3    3    0  502 -0.16197289324E+04  0.25179874184E+03 -0.35464213552E+03  0.16771092586E+04  0.25500000920E-02 0.  1.
</event>
<event>
 5   0  0.4775023E-08  0.3400108E+04  0.7818609E-02  0.8137880E-01
       -2   -1    0    0    0  501  0.00000000000E+00  0.00000000000E+00  0.12348149930E+04  0.12348149930E+04  0.25500000920E-02 0. -1.
        2   -1    0    0  501    0  0.00000000000E+00  0.00000000000E+00 -0.23405796432E+04  0.23405796432E+04  0.25500000920E-02 0.  1.
    10030    2    1    2    0    0  0.00000000000E+00  0.00000000000E+00 -0.11057646502E+04  0.35753946363E+04  0.34001075488E+04 0.  0.
        4    1    3    3  502    0  0.14655670034E+04  0.81345916530E+03 -0.25438417721E+03  0.16953805997E+04  0.12699999809E+01 0. -1.
       -4    1    3    3    0  502 -0.14655670034E+04 -0.81345916530E+03 -0.85138047297E+03  0.18800140366E+04  0.12699999809E+01 0.  1.
</event>
<event>
 5   0  0.4775023E-08  0.3399672E+04  0.7818609E-02  0.8137987E-01
        2   -1    0    0  501    0  0.00000000000E+00  0.00000000000E+00  0.19819372651E+04  0.19819372651E+04  0.25500000920E-02 0.  1.
       -2   -1    0    0    0  501  0.00000000000E+00  0.00000000000E+00 -0.14578875216E+04  0.14578875216E+04  0.25500000920E-02 0. -1.
    10030    2    1    2    0    0  0.00000000000E+00  0.00000000000E+00  0.52404974352E+03  0.34398247867E+04  0.33996715179E+04 0.  0.
        4    1    3    3  502    0  0.97337342971E+03 -0.38671750882E+03  0.16166555869E+04  0.19262874045E+04  0.12699999809E+01 0.  1.
       -4    1    3    3    0  502 -0.97337342971E+03  0.38671750882E+03 -0.10926058434E+04  0.15135373822E+04  0.12699999809E+01 0. -1.
</event>
<event>
 5   0  0.1645631E-08  0.3399549E+04  0.7818609E-02  0.8138017E-01
        1   -1    0    0  501    0  0.00000000000E+00  0.00000000000E+00  0.14607332298E+04  0.14607332298E+04  0.50400001928E-02 0. -1.
       -1   -1    0    0    0  501  0.00000000000E+00  0.00000000000E+00 -0.19779332572E+04  0.19779332572E+04  0.50400001928E-02 0.  1.
    10030    2    1    2    0    0  0.00000000000E+00  0.00000000000E+00 -0.51720002745E+03  0.34386664870E+04  0.33995486966E+04 0.  0.
        4    1    3    3  502    0 -0.26077639467E+03 -0.16410632407E+04 -0.62068317348E+03  0.17737931398E+04  0.12699999809E+01 0.  1.
       -4    1    3    3    0  502  0.26077639467E+03  0.16410632407E+04  0.10348314604E+03  0.16648733472E+04  0.12699999809E+01 0. -1.
</event>
<event>
 5   0  0.4764953E-08  0.3387391E+04  0.7818609E-02  0.8141008E-01
       -2   -1    0    0    0  501  0.00000000000E+00  0.00000000000E+00  0.12826022106E+04  0.12826022106E+04  0.25500000920E-02 0.  1.
        2   -1    0    0  501    0  0.00000000000E+00  0.00000000000E+00 -0.22365509682E+04  0.22365509682E+04  0.25500000920E-02 0. -1.
    10030    2    1    2    0    0  0.00000000000E+00  0.00000000000E+00 -0.95394875754E+03  0.35191531788E+04  0.33873914542E+04 0.  0.
        2    1    3    3  502    0  0.16046501683E+04 -0.45985766657E+03 -0.77489354093E+03  0.18403345446E+04  0.25500000920E-02 0. -1.
       -2    1    3    3    0  502 -0.16046501683E+04  0.45985766657E+03 -0.17905521662E+03  0.16788186343E+04  0.25500000920E-02 0.  1.
</event>
<event>
 5   0  0.4775023E-08  0.3399389E+04  0.7818609E-02  0.8138056E-01
       -2   -1    0    0    0  501  0.00000000000E+00  0.00000000000E+00  0.11998435462E+04  0.11998435462E+04  0.25500000920E-02 0. -1.
        2   -1    0    0  501    0  0.00000000000E+00  0.00000000000E+00 -0.24077820576E+04  0.24077820576E+04  0.25500000920E-02 0.  1.
    10030    2    1    2    0    0  0.00000000000E+00  0.00000000000E+00 -0.12079385115E+04  0.36076256038E+04  0.33993892172E+04 0.  0.
        4    1    3    3  502    0 -0.38884942433E+03 -0.11211592073E+04 -0.18953748304E+04  0.22362131391E+04  0.12699999809E+01 0.  1.
       -4    1    3    3    0  502  0.38884942433E+03  0.11211592073E+04  0.68743631894E+03  0.13714124647E+04  0.12699999809E+01 0. -1.
</event>
<event>
 5   0  0.5001197E-08  0.3399956E+04  0.7818609E-02  0.8137917E-01
        2   -1    0    0  501    0  0.00000000000E+00  0.00000000000E+00  0.19543040827E+04  0.19543040827E+04  0.25500000920E-02 0. -1.
       -2   -1    0    0    0  501  0.00000000000E+00  0.00000000000E+00 -0.14787488009E+04  0.14787488009E+04  0.25500000920E-02 0.  1.
    10030    2    1    2    0    0  0.00000000000E+00  0.00000000000E+00  0.47555528181E+03  0.34330528835E+04  0.33999557754E+04 0.  0.
        5    1    3    3  502    0 -0.30659440216E+02  0.87388419629E+03  0.17098062031E+04  0.19204356099E+04  0.46999998093E+01 0. -1.
       -5    1    3    3    0  502  0.30659440216E+02 -0.87388419629E+03 -0.12342509212E+04  0.15126172736E+04  0.46999998093E+01 0.  1.
</event>
<event>
 5   0  0.1595851E-08  0.3401404E+04  0.7818609E-02  0.8137562E-01
       -1   -1    0    0    0  501  0.00000000000E+00  0.00000000000E+00  0.13390001997E+04  0.13390001997E+04  0.50400001928E-02 0.  1.
        1   -1    0    0  501    0  0.00000000000E+00  0.00000000000E+00 -0.21601097667E+04  0.21601097667E+04  0.50400001928E-02 0. -1.
    10030    2    1    2    0    0  0.00000000000E+00  0.00000000000E+00 -0.82110956702E+03  0.34991099664E+04  0.34014040683E+04 0.  0.
        2    1    3    3  502    0 -0.93605838419E+03 -0.35738509795E+03 -0.18242410203E+04  0.20812939983E+04  0.25500000920E-02 0. -1.
       -2    1    3    3    0  502  0.93605838419E+03  0.35738509795E+03  0.10031314533E+04  0.14178159681E+04  0.25500000920E-02 0.  1.
</event>
<event>
 5   0  0.4946315E-08  0.3400166E+04  0.7818609E-02  0.8137866E-01
       -2   -1    0    0    0  501  0.00000000000E+00  0.00000000000E+00  0.12980497697E+04  0.12980497697E+04  0.25500000920E-02 0.  1.
        2   -1    0    0  501    0  0.00000000000E+00  0.00000000000E+00 -0.22266339376E+04  0.22266339376E+04  0.25500000920E-02 0. -1.
    10030    2    1    2    0    0  0.00000000000E+00  0.00000000000E+00 -0.92858416785E+03  0.35246837073E+04  0.34001656841E+04 0.  0.
        3    1    3    3  502    0  0.13291781457E+04 -0.10457723543E+04 -0.28496171683E+03  0.17150969507E+04  0.10100000352E+00 0. -1.
       -3    1    3    3    0  502 -0.13291781457E+04  0.10457723543E+04 -0.64362245101E+03  0.18095867566E+04  0.10100000352E+00 0.  1.
</event>
<event>
 5   0  0.1579536E-08  0.3400654E+04  0.7818609E-02  0.8137746E-01
       -1   -1    0    0    0  501  0.00000000000E+00  0.00000000000E+00  0.99806357762E+03  0.99806357763E+03  0.50400001928E-02 0.  1.
        1   -1    0    0  501    0  0.00000000000E+00  0.00000000000E+00 -0.28967208404E+04  0.28967208404E+04  0.50400001928E-02 0. -1.
    10030    2    1    2    0    0  0.00000000000E+00  0.00000000000E+00 -0.18986572627E+04  0.38947844180E+04  0.34006537991E+04 0.  0.
        5    1    3    3  502    0  0.16798824420E+04  0.84717566093E+02 -0.12342941098E+04  0.20863092111E+04  0.46999998093E+01 0.  1.
       -5    1    3    3    0  502 -0.16798824420E+04 -0.84717566093E+02 -0.66436315292E+03  0.18084752069E+04  0.46999998093E+01 0. -1.
</event>
<event>
 5   0  0.1595851E-08  0.3397844E+04  0.7818609E-02  0.8138436E-01
        1   -1    0    0  501    0  0.00000000000E+00  0.00000000000E+00  0.18883911987E+04  0.18883911987E+04  0.50400001928E-02 0. -1.
       -1   -1    0    0    0  501  0.00000000000E+00  0.00000000000E+00 -0.15284628253E+04  0.15284628253E+04  0.50400001928E-02 0.  1.
    10030    2    1    2    0    0  0.00000000000E+00  0.00000000000E+00  0.35992837339E+03  0.34168540240E+04  0.33978438734E+04 0.  0.
        2    1    3    3  502    0  0.43637260664E+03  0.74721124805E+03 -0.12902655911E+04  0.15535543108E+04  0.25500000920E-02 0.  1.
       -2    1    3    3    0  502 -0.43637260664E+03 -0.74721124805E+03  0.16501939645E+04  0.18632997133E+04  0.25500000920E-02 0. -1.
</event>
<event>
 5   0  0.4973409E-08  0.3400413E+04  0.7818609E-02  0.8137805E-01
        2   -1    0    0  501    0  0.00000000000E+00  0.00000000000E+00  0.19349548931E+04  0.19349548931E+04  0.25500000920E-02 0. -1.
       -2   -1    0    0    0  501  0.00000000000E+00  0.00000000000E+00 -0.14939374042E+04  0.14939374042E+04  0.25500000920E-02 0.  1.
    10030    2    1    2    0    0  0.00000000000E+00  0.00000000000E+00  0.44101748887E+03  0.34288922973E+04  0.34004126163E+04 0.  0.
        1    1    3    3  502    0  0.26407025877E+03  0.14941811166E+04  0.99399981063E+03  0.18139310721E+04  0.50400001928E-02 0. -1.
       -1    1    3    3    0  502 -0.26407025877E+03 -0.14941811166E+04 -0.55298232176E+03  0.16149612252E+04  0.50400001928E-02 0.  1.
</event>
<event>
 5   0  0.1645631E-08  0.3404197E+04  0.7818609E-02  0.8136877E-01
        1   -1    0    0  501    0  0.00000000000E+00  0.00000000000E+00  0.22764641061E+04  0.22764641061E+04  0.50400001928E-02 0. -1.
       -1   -1    0    0    0  501  0.00000000000E+00  0.00000000000E+00 -0.12726491093E+04  0.12726491094E+04  0.50400001928E-02 0.  1.
    10030    2    1    2    0    0  0.00000000000E+00  0.00000000000E+00  0.10038149968E+04  0.35491132155E+04  0.34041974191E+04 0.  0.
        4    1    3    3  502    0 -0.26603161399E+03 -0.10718695518E+04  0.18522109052E+04  0.21564702655E+04  0.12699999809E+01 0. -1.
       -4    1    3    3    0  502  0.26603161399E+03  0.10718695518E+04 -0.84839590841E+03  0.13926429500E+04  0.12699999809E+01 0.  1.
</event>
<event>
 5   0  0.4946315E-08  0.3405322E+04  0.7818609E-02  0.8136601E-01
        2   -1    0    0  501    0  0.00000000000E+00  0.00000000000E+00  0.22890163658E+04  0.22890163658E+04  0.25500000920E-02 0. -1.
       -2   -1    0    0    0  501  0.00000000000E+00  0.00000000000E+00 -0.12665064474E+04  0.12665064474E+04  0.25500000920E-02 0.  1.
    10030    2    1    2    0    0  0.00000000000E+00  0.00000000000E+00  0.10225099184E+04  0.35555228132E+04  0.34053217090E+04 0.  0.
        3    1    3    3  502    0 -0.62565012557E+02  0.84177175965E+03 -0.10326693740E+04  0.13337541461E+04  0.10100000352E+00 0.  1.
       -3    1    3    3    0  502  0.62565012557E+02 -0.84177175965E+03  0.20551792924E+04  0.22217686671E+04  0.10100000352E+00 0. -1.
</event>
<event>
 5   0  0.1579536E-08  0.3405422E+04  0.7818609E-02  0.8136577E-01
        1   -1    0    0  501    0  0.00000000000E+00  0.00000000000E+00  0.10274833271E+04  0.10274833271E+04  0.50400001928E-02 0.  1.
       -1   -1    0    0    0  501  0.00000000000E+00  0.00000000000E+00 -0.28216756622E+04  0.28216756622E+04  0.50400001928E-02 0. -1.
    10030    2    1    2    0    0  0.00000000000E+00  0.00000000000E+00 -0.17941923352E+04  0.38491589893E+04  0.34054219694E+04 0.  0.
        5    1    3    3  502    0  0.68884419539E+03 -0.52288500697E+02  0.86195550194E+03  0.11046401179E+04  0.46999998093E+01 0.  1.
       -5    1    3    3    0  502 -0.68884419539E+03  0.52288500697E+02 -0.26561478371E+04  0.27445188714E+04  0.46999998093E+01 0. -1.
</event>
<event>
 5   0  0.1630571E-08  0.3399999E+04  0.7818609E-02  0.8137907E-01
       -1   -1    0    0    0  501  0.00000000000E+00  0.00000000000E+00  0.14566650344E+04  0.14566650344E+04  0.50400001928E-02 0.  1.
        1   -1    0    0  501    0  0.00000000000E+00  0.00000000000E+00 -0.19839825931E+04  0.19839825931E+04  0.50400001928E-02 0. -1.
    10030    2    1    2    0    0  0.00000000000E+00  0.00000000000E+00 -0.52731755866E+03  0.34406476275E+04  0.33999988660E+04 0.  0.
        3    1    3    3  502    0  0.13699760059E+04  0.51599922794E+03  0.61091238740E+03  0.15862860446E+04  0.10100000352E+00 0.  1.
       -3    1    3    3    0  502 -0.13699760059E+04 -0.51599922794E+03 -0.11382299461E+04  0.18543615829E+04  0.10100000352E+00 0. -1.
</event>
<event>
 5   0  0.1573625E-08  0.3400905E+04  0.7818609E-02  0.8137684E-01
        3   -1    0    0  501    0  0.00000000000E+00  0.00000000000E+00  0.14317803179E+04  0.14317803215E+04  0.10100000352E+00 0. -1.
       -3   -1    0    0    0  501  0.00000000000E+00  0.00000000000E+00 -0.20195402907E+04  0.20195402932E+04  0.10100000352E+00 0.  1.
    10030    2    1    2    0    0  0.00000000000E+00  0.00000000000E+00 -0.58775997277E+03  0.34513206147E+04  0.34009046149E+04 0.  0.
        1    1    3    3  502    0  0.87816892774E+02 -0.16623458459E+04  0.58298451209E+02  0.16656843121E+04  0.50400001928E-02 0.  1.
       -1    1    3    3    0  502 -0.87816892774E+02  0.16623458459E+04 -0.64605842398E+03  0.17856363026E+04  0.50400001928E-02 0. -1.
</event>
<event>
 5   0  0.4764953E-08  0.3399367E+04  0.7818609E-02  0.8138062E-01
        2   -1    0    0  501    0  0.00000000000E+00  0.00000000000E+00  0.30881853026E+04  0.30881853026E+04  0.25500000920E-02 0.  1.
       -2   -1    0    0    0  501  0.00000000000E+00  0.00000000000E+00 -0.93547609917E+03  0.93547609917E+03  0.25500000920E-02 0. -1.
    10030    2    1    2    0    0  0.00000000000E+00  0.00000000000E+00  0.21527092034E+04  0.40236614017E+04  0.33993667295E+04 0.  0.
        2    1    3    3  502    0 -0.22071284562E+03  0.16788582258E+04  0.12504938081E+04  0.21049973555E+04  0.25500000920E-02 0. -1.
       -2    1    3    3    0  502  0.22071284562E+03 -0.16788582258E+04  0.90221539534E+03  0.19186640462E+04  0.25500000920E-02 0.  1.
</event>
<event>
 5   0  0.5001197E-08  0.3397664E+04  0.7818609E-02  0.8138480E-01
       -2   -1    0    0    0  501  0.00000000000E+00  0.00000000000E+00  0.15934655265E+04  0.15934655265E+04  0.25500000920E-02 0.  1.
        2   -1    0    0  501    0  0.00000000000E+00  0.00000000000E+00 -0.18111661064E+04  0.18111661064E+04  0.25500000920E-02 0. -1.
    10030    2    1    2    0    0  0.00000000000E+00  0.00000000000E+00 -0.21770057996E+03  0.34046316329E+04  0.33976643468E+04 0.  0.
        5    1    3    3  502    0  0.14371245529E+04 -0.21973764423E+03  0.77181313567E+03  0.16460040156E+04  0.46999998093E+01 0.  1.
       -5    1    3    3    0  502 -0.14371245529E+04  0.21973764423E+03 -0.98951371563E+03  0.17586276173E+04  0.46999998093E+01 0. -1.
</event>
<event>
 5   0  0.1645631E-08  0.3399666E+04  0.7818609E-02  0.8137988E-01
        1   -1    0    0  501    0  0.00000000000E+00  0.00000000000E+00  0.20489994958E+04  0.20489994958E+04  0.50400001928E-02 0. -1.
       -1   -1    0    0    0  501  0.00000000000E+00  0.00000000000E+00 -0.14101673870E+04  0.14101673870E+04  0.50400001928E-02 0.  1.
    10030    2    1    2    0    0  0.00000000000E+00  0.00000000000E+00  0.63883210885E+03  0.34591668828E+04  0.33996660218E+04 0.  0.
        4    1    3    3  502    0 -0.10991401844E+04 -0.12914087001E+04  0.43801103231E+03  0.17514853277E+04  0.12699999809E+01 0. -1.
       -4    1    3    3    0  502  0.10991401844E+04  0.12914087001E+04  0.20082107654E+03  0.17076815551E+04  0.12699999809E+01 0.  1.
</event>
<event>
 5   0  0.4775023E-08  0.3398109E+04  0.7818609E-02  0.8138371E-01
        2   -1    0    0  501    0  0.00000000000E+00  0.00000000000E+00  0.20761454584E+04  0.20761454584E+04  0.25500000920E-02 0. -1.
       -2   -1    0    0    0  501  0.00000000000E+00  0.00000000000E+00 -0.13904546620E+04  0.13904546620E+04  0.25500000920E-02 0.  1.
    10030    2    1    2    0    0  0.00000000000E+00  0.00000000000E+00  0.68569079636E+03  0.34666001204E+04  0.33981089633E+04 0.  0.
        4    1    3    3  502    0  0.64348449767E+02 -0.93894407174E+03  0.17859340481E+04  0.20187418681E+04  0.12699999809E+01 0. -1.
       -4    1    3    3    0  502 -0.64348449767E+02  0.93894407174E+03 -0.11002432517E+04  0.14478582523E+04  0.12699999809E+01 0.  1.
</event>
<event>
 5   0  0.1579536E-08  0.3399608E+04  0.7818609E-02  0.8138002E-01
       -1   -1    0    0    0  501  0.00000000000E+00  0.00000000000E+00  0.14497399505E+04  0.14497399506E+04  0.50400001928E-02 0. -1.
        1   -1    0    0  501    0  0.00000000000E+00  0.00000000000E+00 -0.19930015107E+04  0.19930015107E+04  0.50400001928E-02 0.  1.
    10030    2    1    2    0    0  0.00000000000E+00  0.00000000000E+00 -0.54326156011E+03  0.34427414612E+04  0.33996081607E+04 0.  0.
        5    1    3    3  502    0  0.13080662617E+04  0.87191760851E+03  0.38312815392E+03  0.16180503495E+04  0.46999998093E+01 0. -1.
       -5    1    3    3    0  502 -0.13080662617E+04 -0.87191760851E+03 -0.92638971403E+03  0.18246911118E+04  0.46999998093E+01 0.  1.
</event>
<event>
 5   0  0.4764953E-08  0.3404994E+04  0.7818609E-02  0.8136682E-01
       -2   -1    0    0    0  501  0.00000000000E+00  0.00000000000E+00  0.10817356386E+04  0.10817356386E+04  0.25500000920E-02 0.  1.
        2   -1    0    0  501    0  0.00000000000E+00  0.00000000000E+00 -0.26794870465E+04  0.26794870465E+04  0.25500000920E-02 0. -1.
    10030    2    1    2    0    0  0.00000000000E+00  0.00000000000E+00 -0.15977514079E+04  0.37612226850E+04  0.34049943502E+04 0.  0.
        2    1    3    3  502    0  0.51665941722E+03  0.24566192289E+03  0.97238063192E+03  0.11281891805E+04  0.25500000920E-02 0.  1.
       -2    1    3    3    0  502 -0.51665941722E+03 -0.24566192289E+03 -0.25701320398E+04  0.26330335045E+04  0.25500000920E-02 0. -1.
</event>
<event>
 5   0  0.4946315E-08  0.3401706E+04  0.7818609E-02  0.8137488E-01
        2   -1    0    0  501    0  0.00000000000E+00  0.00000000000E+00  0.21762362360E+04  0.21762362360E+04  0.25500000920E-02 0.  1.
       -2   -1    0    0    0  501  0.00000000000E+00  0.00000000000E+00 -0.13293135244E+04  0.13293135244E+04  0.25500000920E-02 0. -1.
    10030    2    1    2    0    0  0.00000000000E+00  0.00000000000E+00  0.84692271160E+03  0.35055497604E+04  0.34017056080E+04 0.  0.
        3    1    3    3  502    0  0.82424072697E+03 -0.68879850182E+02  0.19550281426E+04  0.21227935035E+04  0.10100000352E+00 0.  1.
       -3    1    3    3    0  502 -0.82424072697E+03  0.68879850182E+02 -0.11081054310E+04  0.13827562570E+04  0.10100000352E+00 0. -1.
</event>
<event>
 5   0  0.1595851E-08  0.3399171E+04  0.7818609E-02  0.8138110E-01
       -1   -1    0    0    0  501  0.00000000000E+00  0.00000000000E+00  0.25356397349E+04  0.25356397349E+04  0.50400001928E-02 0. -1.
        1   -1    0    0  501    0  0.00000000000E+00  0.00000000000E+00 -0.11391960433E+04  0.11391960434E+04  0.50400001928E-02 0.  1.
    10030    2    1    2    0    0  0.00000000000E+00  0.00000000000E+00  0.13964436916E+04  0.36748357783E+04  0.33991709303E+04 0.  0.
        2    1    3    3  502    0  0.42942653742E+03 -0.12345749316E+04  0.18725986658E+04  0.22836830288E+04  0.25500000920E-02 0. -1.
       -2    1    3    3    0  502 -0.42942653742E+03  0.12345749316E+04 -0.47615497424E+03  0.13911527495E+04  0.25500000920E-02 0.  1.
</event>
<event>
 5   0  0.1579536E-08  0.3399973E+04  0.7818609E-02  0.8137913E-01
       -1   -1    0    0    0  501  0.00000000000E+00  0.00000000000E+00  0.13028938582E+04  0.13028938582E+04  0.50400001928E-02 0.  1.
        1   -1    0    0  501    0  0.00000000000E+00  0.00000000000E+00 -0.22181043868E+04  0.22181043868E+04  0.50400001928E-02 0. -1.
    10030    2    1    2    0    0  0.00000000000E+00  0.00000000000E+00 -0.91521052862E+03  0.35209982451E+04  0.33999732837E+04 0.  0.
        5    1    3    3  502    0  0.83667476369E+02 -0.83645986474E+03  0.10725790416E+04  0.13627594220E+04  0.46999998093E+01 0.  1.
       -5    1    3    3    0  502 -0.83667476369E+02  0.83645986474E+03 -0.19877895702E+04  0.21582388230E+04  0.46999998093E+01 0. -1.
</event>
<event>
 5   0  0.4946315E-08  0.3383448E+04  0.7818609E-02  0.8141981E-01
        2   -1    0    0  501    0  0.00000000000E+00  0.00000000000E+00  0.23768516592E+04  0.23768516592E+04  0.25500000920E-02 0. -1.
       -2   -1    0    0    0  501  0.00000000000E+00  0.00000000000E+00 -0.12040841025E+04  0.12040841025E+04  0.25500000920E-02 0.  1.
    10030    2    1    2    0    0  0.00000000000E+00  0.00000000000E+00  0.11727675567E+04  0.35809357617E+04  0.33834475298E+04 0.  0.
        3    1    3    3  502    0  0.32651984240E+03 -0.12952078576E+04 -0.51235951737E+03  0.14306260473E+04  0.10100000352E+00 0.  1.
       -3    1    3    3    0  502 -0.32651984240E+03  0.12952078576E+04  0.16851270741E+04  0.21503097144E+04  0.10100000352E+00 0. -1.
</event>
<event>
 5   0  0.4946315E-08  0.3397808E+04  0.7818609E-02  0.8138445E-01
        2   -1    0    0  501    0  0.00000000000E+00  0.00000000000E+00  0.20755608297E+04  0.20755608297E+04  0.25500000920E-02 0.  1.
       -2   -1    0    0    0  501  0.00000000000E+00  0.00000000000E+00 -0.13905996427E+04  0.13905996427E+04  0.25500000920E-02 0. -1.
    10030    2    1    2    0    0  0.00000000000E+00  0.00000000000E+00  0.68496118694E+03  0.34661604724E+04  0.33978076156E+04 0.  0.
        3    1    3    3  502    0 -0.76621852907E+03 -0.55185408094E+03  0.17832092117E+04  0.20177881118E+04  0.10100000352E+00 0.  1.
       -3    1    3    3    0  502  0.76621852907E+03  0.55185408094E+03 -0.10982480248E+04  0.14483723607E+04  0.10100000352E+00 0. -1.
</event>
<event>
 5   0  0.4764953E-08  0.3398646E+04  0.7818609E-02  0.8138239E-01
        2   -1    0    0  501    0  0.00000000000E+00  0.00000000000E+00  0.21252956719E+04  0.21252956719E+04  0.25500000920E-02 0.  1.
       -2   -1    0    0    0  501  0.00000000000E+00  0.00000000000E+00 -0.13587282140E+04  0.13587282140E+04  0.25500000920E-02 0. -1.
    10030    2    1    2    0    0  0.00000000000E+00  0.00000000000E+00  0.76656745788E+03  0.34840238858E+04  0.33986463143E+04 0.  0.
        2    1    3    3  502    0 -0.14748849664E+04  0.82736618905E+03  0.55444738247E+03  0.17796719852E+04  0.25500000920E-02 0. -1.
       -2    1    3    3    0  502  0.14748849664E+04 -0.82736618905E+03  0.21212007541E+03  0.17043519007E+04  0.25500000920E-02 0.  1.
</event>
<event>
 5   0  0.1625282E-08  0.3402063E+04  0.7818609E-02  0.8137400E-01
        1   -1    0    0  501    0  0.00000000000E+00  0.00000000000E+00  0.21193082729E+04  0.21193082729E+04  0.50400001928E-02 0.  1.
       -1   -1    0    0    0  501  0.00000000000E+00  0.00000000000E+00 -0.13653074227E+04  0.13653074227E+04  0.50400001928E-02 0. -1.
    10030    2    1    2    0    0  0.00000000000E+00  0.00000000000E+00  0.75400085022E+03  0.34846156956E+04  0.34020625015E+04 0.  0.
        1    1    3    3  502    0  0.32144758088E+03 -0.11607991617E+04 -0.85328035655E+03  0.14760997961E+04  0.50400001928E-02 0. -1.
       -1    1    3    3    0  502 -0.32144758088E+03  0.11607991617E+04  0.16072812068E+04  0.20085158996E+04  0.50400001928E-02 0.  1.
</event>
<event>
 5   0  0.4775023E-08  0.3397605E+04  0.7818609E-02  0.8138494E-01
       -2   -1    0    0    0  501  0.00000000000E+00  0.00000000000E+00  0.17695515522E+04  0.17695515522E+04  0.25500000920E-02 0. -1.
        2   -1    0    0  501    0  0.00000000000E+00  0.00000000000E+00 -0.16308825288E+04  0.16308825288E+04  0.25500000920E-02 0.  1.
    10030    2    1    2    0    0  0.00000000000E+00  0.00000000000E+00  0.13866902339E+03  0.34004340810E+04  0.33976054569E+04 0.  0.
        4    1    3    3  502    0 -0.10085092726E+04  0.11649685231E+04 -0.64658366283E+03  0.16710220402E+04  0.12699999809E+01 0.  1.
       -4    1    3    3    0  502  0.10085092726E+04 -0.11649685231E+04  0.78525268622E+03  0.17294120408E+04  0.12699999809E+01 0. -1.
</event>
<event>
 5   0  0.4946315E-08  0.3404829E+04  0.7818609E-02  0.8136722E-01
       -2   -1    0    0    0  501  0.00000000000E+00  0.00000000000E+00  0.11283244628E+04  0.11283244628E+04  0.25500000920E-02 0.  1.
        2   -1    0    0  501    0  0.00000000000E+00  0.00000000000E+00 -0.25686013336E+04  0.25686013336E+04  0.25500000920E-02 0. -1.
    10030    2    1    2    0    0  0.00000000000E+00  0.00000000000E+00 -0.14402768708E+04  0.36969257964E+04  0.34048293466E+04 0.  0.
        3    1    3    3  502    0 -0.16043980226E+03  0.10563295076E+04 -0.21592256277E+04  0.24091135881E+04  0.10100000352E+00 0. -1.
       -3    1    3    3    0  502  0.16043980226E+03 -0.10563295076E+04  0.71894875689E+03  0.12878122083E+04  0.10100000352E+00 0.  1.
</event>
<event>
 5   0  0.1595851E-08  0.3393075E+04  0.7818609E-02  0.8139608E-01
       -1   -1    0    0    0  501  0.00000000000E+00  0.00000000000E+00  0.96313002775E+03  0.96313002776E+03  0.50400001928E-02 0.  1.
        1   -1    0    0  501    0  0.00000000000E+00  0.00000000000E+00 -0.29884233657E+04  0.29884233657E+04  0.50400001928E-02 0. -1.
    10030    2    1    2    0    0  0.00000000000E+00  0.00000000000E+00 -0.20252933379E+04  0.39515533934E+04  0.33930754658E+04 0.  0.
        2    1    3    3  502    0 -0.32333477782E+03 -0.18789256828E+03 -0.29398258145E+04  0.29635156176E+04  0.25500000920E-02 0. -1.
       -2    1    3    3    0  502  0.32333477782E+03  0.18789256828E+03  0.91453247661E+03  0.98803777587E+03  0.25500000920E-02 0.  1.
</event>
<event>
 5   0  0.1625282E-08  0.3397310E+04  0.7818609E-02  0.8138567E-01
        1   -1    0    0  501    0  0.00000000000E+00  0.00000000000E+00  0.18515787659E+04  0.18515787659E+04  0.50400001928E-02 0. -1.
       -1   -1    0    0    0  501  0.00000000000E+00  0.00000000000E+00 -0.15583617885E+04  0.15583617885E+04  0.50400001928E-02 0.  1.
    10030    2    1    2    0    0  0.00000000000E+00  0.00000000000E+00  0.29321697733E+03  0.34099405544E+04  0.33973104640E+04 0.  0.
        1    1    3    3  502    0 -0.54963392098E+03 -0.42533065706E+03 -0.14091299393E+04  0.15711940685E+04  0.50400001928E-02 0.  1.
       -1    1    3    3    0  502  0.54963392098E+03  0.42533065706E+03  0.17023469166E+04  0.18387464859E+04  0.50400001928E-02 0. -1.
</event>
<event>
 5   0  0.4973409E-08  0.3401497E+04  0.7818609E-02  0.8137539E-01
        2   -1    0    0  501    0  0.00000000000E+00  0.00000000000E+00  0.18629609405E+04  0.18629609405E+04  0.25500000920E-02 0.  1.
       -2   -1    0    0    0  501  0.00000000000E+00  0.00000000000E+00 -0.15526606938E+04  0.15526606938E+04  0.25500000920E-02 0. -1.
    10030    2    1    2    0    0  0.00000000000E+00  0.00000000000E+00  0.31030024662E+03  0.34156216343E+04  0.34014974505E+04 0.  0.
        1    1    3    3  502    0 -0.58271177081E+03 -0.50203450062E+03 -0.13680382946E+04  0.15694331535E+04  0.50400001928E-02 0. -1.
       -1    1    3    3    0  502  0.58271177081E+03  0.50203450062E+03  0.16783385412E+04  0.18461884808E+04  0.50400001928E-02 0.  1.
</event>
<event>
 5   0  0.1579536E-08  0.3394065E+04  0.7818609E-02  0.8139365E-01
       -1   -1    0    0    0  501  0.00000000000E+00  0.00000000000E+00  0.26060518282E+04  0.26060518282E+04  0.50400001928E-02 0.  1.
        1   -1    0    0  501    0  0.00000000000E+00  0.00000000000E+00 -0.11050887560E+04  0.11050887560E+04  0.50400001928E-02 0. -1.
    10030    2    1    2    0    0  0.00000000000E+00  0.00000000000E+00  0.15009630722E+04  0.37111405842E+04  0.33940645680E+04 0.  0.
        5    1    3    3  502    0 -0.22885155144E+03  0.49341300804E+03  0.25081590465E+04  0.25664592967E+04  0.46999998093E+01 0.  1.
       -5    1    3    3    0  502  0.22885155144E+03 -0.49341300804E+03 -0.10071959743E+04  0.11446812874E+04  0.46999998093E+01 0. -1.
</event>
<event>
 5   0  0.1625282E-08  0.3401184E+04  0.7818609E-02  0.8137616E-01
       -1   -1    0    0    0  501  0.00000000000E+00  0.00000000000E+00  0.14651337986E+04  0.14651337986E+04  0.50400001928E-02 0.  1.
        1   -1    0    0  501    0  0.00000000000E+00  0.00000000000E+00 -0.19738903818E+04  0.19738903818E+04  0.50400001928E-02 0. -1.
    10030    2    1    2    0    0  0.00000000000E+00  0.00000000000E+00 -0.50875658323E+03  0.34390241804E+04  0.34011842133E+04 0.  0.
        1    1    3    3  502    0 -0.43184804413E+03 -0.11627682908E+04 -0.14307178718E+04  0.18935354393E+04  0.50400001928E-02 0. -1.
       -1    1    3    3    0  502  0.43184804413E+03  0.11627682908E+04  0.92196128858E+03  0.15454887411E+04  0.50400001928E-02 0.  1.
</event>
<event>
 5   0  0.4946315E-08  0.3400103E+04  0.7818609E-02  0.8137881E-01
        2   -1    0    0  501    0  0.00000000000E+00  0.00000000000E+00  0.15224658106E+04  0.15224658106E+04  0.25500000920E-02 0. -1.
       -2   -1    0    0    0  501  0.00000000000E+00  0.00000000000E+00 -0.18983511478E+04  0.18983511478E+04  0.25500000920E-02 0.  1.
    10030    2    1    2    0    0  0.00000000000E+00  0.00000000000E+00 -0.37588533719E+03  0.34208169584E+04  0.34001027743E+04 0.  0.
        3    1    3    3  502    0 -0.11966053666E+04  0.23691526885E+03  0.10034087939E+04  0.15795007014E+04  0.10100000352E+00 0. -1.
       -3    1    3    3    0  502  0.11966053666E+04 -0.23691526885E+03 -0.13792941310E+04  0.18413162570E+04  0.10100000352E+00 0.  1.
</event>
<event>
 5   0  0.1625282E-08  0.3402376E+04  0.7818609E-02  0.8137323E-01
        1   -1    0    0  501    0  0.00000000000E+00  0.00000000000E+00  0.10071053501E+04  0.10071053502E+04  0.50400001928E-02 0.  1.
       -1   -1    0    0    0  501  0.00000000000E+00  0.00000000000E+00 -0.28736226837E+04  0.28736226837E+04  0.50400001928E-02 0. -1.
    10030    2    1    2    0    0  0.00000000000E+00  0.00000000000E+00 -0.18665173335E+04  0.38807280338E+04  0.34023760986E+04 0.  0.
        1    1    3    3  502    0  0.48651098201E+03  0.86883347558E+03  0.63996513848E+03  0.11836891156E+04  0.50400001928E-02 0.  1.
       -1    1    3    3    0  502 -0.48651098201E+03 -0.86883347558E+03 -0.25064824720E+04  0.26970389182E+04  0.50400001928E-02 0. -1.
</event>
<event>
 5   0  0.1625282E-08  0.3400317E+04  0.7818609E-02  0.8137828E-01
       -1   -1    0    0    0  501  0.00000000000E+00  0.00000000000E+00  0.18701506140E+04  0.18701506140E+04  0.50400001928E-02 0. -1.
        1   -1    0    0  501    0  0.00000000000E+00  0.00000000000E+00 -0.15456185181E+04  0.15456185182E+04  0.50400001928E-02 0.  1.
    10030    2    1    2    0    0  0.00000000000E+00  0.00000000000E+00  0.32453209586E+03  0.34157691322E+04  0.34003172915E+04 0.  0.
        1    1    3    3  502    0  0.10022802848E+04 -0.66652524233E+03 -0.10439058025E+04  0.15932862243E+04  0.50400001928E-02 0.  1.
       -1    1    3    3    0  502 -0.10022802848E+04  0.66652524233E+03  0.13684378984E+04  0.18224829079E+04  0.50400001928E-02 0. -1.
</event>
<event>
 5   0  0.1595851E-08  0.3399964E+04  0.7818609E-02  0.8137915E-01
       -1   -1    0    0    0  501  0.00000000000E+00  0.00000000000E+00  0.14463014060E+04  0.14463014060E+04  0.50400001928E-02 0.  1.
        1   -1    0    0  501    0  0.00000000000E+00  0.00000000000E+00 -0.19981585023E+04  0.19981585023E+04  0.50400001928E-02 0. -1.
    10030    2    1    2    0    0  0.00000000000E+00  0.00000000000E+00 -0.55185709631E+03  0.34444599082E+04  0.33999643829E+04 0.  0.
        2    1    3    3  502    0 -0.84149316506E+03 -0.56827656843E+03  0.11053258195E+04  0.15009311018E+04  0.25500000920E-02 0.  1.
       -2    1    3    3    0  502  0.84149316506E+03  0.56827656843E+03 -0.16571829158E+04  0.19435288065E+04  0.25500000920E-02 0. -1.
</event>
<event>
 5   0  0.4973409E-08  0.3399218E+04  0.7818609E-02  0.8138098E-01
       -2   -1    0    0    0  501  0.00000000000E+00  0.00000000000E+00  0.20698609424E+04  0.20698609424E+04  0.25500000920E-02 0.  1.
        2   -1    0    0  501    0  0.00000000000E+00  0.00000000000E+00 -0.13955871261E+04  0.13955871261E+04  0.25500000920E-02 0. -1.
    10030    2    1    2    0    0  0.00000000000E+00  0.00000000000E+00  0.67427381630E+03  0.34654480686E+04  0.33992183126E+04 0.  0.
        1    1    3    3  502    0 -0.70814881417E+03  0.13683773534E+04  0.10685694518E+04  0.18750391990E+04  0.50400001928E-02 0.  1.
       -1    1    3    3    0  502  0.70814881417E+03 -0.13683773534E+04 -0.39429563551E+03  0.15904088696E+04  0.50400001928E-02 0. -1.
</event>
<event>
 5   0  0.1573625E-08  0.3406382E+04  0.7818609E-02  0.8136342E-01
        3   -1    0    0  501    0  0.00000000000E+00  0.00000000000E+00  0.12743429492E+04  0.12743429532E+04  0.10100000352E+00 0. -1.
       -3   -1    0    0    0  501  0.00000000000E+00  0.00000000000E+00 -0.22763569580E+04  0.22763569602E+04  0.10100000352E+00 0.  1.
    10030    2    1    2    0    0  0.00000000000E+00  0.00000000000E+00 -0.10020140088E+04  0.35506999135E+04  0.34063819224E+04 0.  0.
        1    1    3    3  502    0 -0.82761097248E+03  0.95020438038E+02 -0.20495063890E+04  0.22123393148E+04  0.50400001928E-02 0.  1.
       -1    1    3    3    0  502  0.82761097248E+03 -0.95020438038E+02  0.10474923802E+04  0.13383605986E+04  0.50400001928E-02 0. -1.
</event>
<event>
 5   0  0.4946315E-08  0.3399727E+04  0.7818609E-02  0.8137973E-01
        2   -1    0    0  501    0  0.00000000000E+00  0.00000000000E+00  0.15501145477E+04  0.15501145477E+04  0.25500000920E-02 0.  1.
       -2   -1    0    0    0  501  0.00000000000E+00  0.00000000000E+00 -0.18640785843E+04  0.18640785843E+04  0.25500000920E-02 0. -1.
    10030    2    1    2    0    0  0.00000000000E+00  0.00000000000E+00 -0.31396403653E+03  0.34141931320E+04  0.33997266547E+04 0.  0.
        3    1    3    3  502    0 -0.11726759024E+03  0.70301227468E+03  0.13928142418E+04  0.15645796460E+04  0.10100000352E+00 0.  1.
       -3    1    3    3    0  502  0.11726759024E+03 -0.70301227468E+03 -0.17067782784E+04  0.18496134861E+04  0.10100000352E+00 0. -1.
</event>
<event>
 5   0  0.4764953E-08  0.3401291E+04  0.7818609E-02  0.8137590E-01
       -2   -1    0    0    0  501  0.00000000000E+00  0.00000000000E+00  0.14257245252E+04  0.14257245252E+04  0.25500000920E-02 0.  1.
        2   -1    0    0  501    0  0.00000000000E+00  0.00000000000E+00 -0.20285790154E+04  0.20285790154E+04  0.25500000920E-02 0. -1.
    10030    2    1    2    0    0  0.00000000000E+00  0.00000000000E+00 -0.60285449016E+03  0.34543035406E+04  0.34012908453E+04 0.  0.
        2    1    3    3  502    0  0.10025283432E+04  0.13376122082E+04 -0.61923486472E+03  0.17826164243E+04  0.25500000920E-02 0.  1.
       -2    1    3    3    0  502 -0.10025283432E+04 -0.13376122082E+04  0.16380374559E+02  0.16716871164E+04  0.25500000920E-02 0. -1.
</event>
<event>
 5   0  0.4775023E-08  0.3399653E+04  0.7818609E-02  0.8137991E-01
        2   -1    0    0  501    0  0.00000000000E+00  0.00000000000E+00  0.25411307484E+04  0.25411307484E+04  0.25500000920E-02 0. -1.
       -2   -1    0    0    0  501  0.00000000000E+00  0.00000000000E+00 -0.11370570733E+04  0.11370570733E+04  0.25500000920E-02 0.  1.
    10030    2    1    2    0    0  0.00000000000E+00  0.00000000000E+00  0.14040736751E+04  0.36781878217E+04  0.33996533304E+04 0.  0.
        4    1    3    3  502    0  0.73851252213E+03 -0.15275679191E+04  0.81313683129E+03  0.18815040824E+04  0.12699999809E+01 0. -1.
       -4    1    3    3    0  502 -0.73851252213E+03  0.15275679191E+04  0.59093684379E+03  0.17966837393E+04  0.12699999809E+01 0.  1.
</event>
<event>
 5   0  0.4946315E-08  0.3398951E+04  0.7818609E-02  0.8138164E-01
        2   -1    0    0  501    0  0.00000000000E+00  0.00000000000E+00  0.21853372550E+04  0.21853372550E+04  0.25500000920E-02 0. -1.
       -2   -1    0    0    0  501  0.00000000000E+00  0.00000000000E+00 -0.13216342527E+04  0.13216342527E+04  0.25500000920E-02 0.  1.
    10030    2    1    2    0    0  0.00000000000E+00  0.00000000000E+00  0.86370300231E+03  0.35069715077E+04  0.33989507615E+04 0.  0.
        3    1    3    3  502    0  0.10913691162E+04 -0.12921593583E+04  0.26089256866E+03  0.17113816925E+04  0.10100000352E+00 0.  1.
       -3    1    3    3    0  502 -0.10913691162E+04  0.12921593583E+04  0.60281043365E+03  0.17955898151E+04  0.10100000352E+00 0. -1.
</event>
<event>
 5   0  0.1625282E-08  0.3400998E+04  0.7818609E-02  0.8137661E-01
        1   -1    0    0  501    0  0.00000000000E+00  0.00000000000E+00  0.22955680847E+04  0.22955680847E+04  0.50400001928E-02 0.  1.
       -1   -1    0    0    0  501  0.00000000000E+00  0.00000000000E+00 -0.12596867704E+04  0.12596867704E+04  0.50400001928E-02 0. -1.
    10030    2    1    2    0    0  0.00000000000E+00  0.00000000000E+00  0.10358813143E+04  0.35552548550E+04  0.34009979399E+04 0.  0.
        1    1    3    3  502    0  0.53967624530E+03 -0.79856441185E+03  0.19824626105E+04  0.22043397133E+04  0.50400001928E-02 0.  1.
       -1    1    3    3    0  502 -0.53967624530E+03  0.79856441185E+03 -0.94658129625E+03  0.13509151417E+04  0.50400001928E-02 0. -1.
</event>
<event>
 5   0  0.1573625E-08  0.3396677E+04  0.7818609E-02  0.8138722E-01
       -3   -1    0    0    0  501  0.00000000000E+00  0.00000000000E+00  0.21632807400E+04  0.21632807424E+04  0.10100000352E+00 0.  1.
        3   -1    0    0  501    0  0.00000000000E+00  0.00000000000E+00 -0.13333234003E+04  0.13333234041E+04  0.10100000352E+00 0. -1.
    10030    2    1    2    0    0  0.00000000000E+00  0.00000000000E+00  0.82995733973E+03  0.34966041465E+04  0.33966765186E+04 0.  0.
        4    1    3    3  502    0 -0.11850881658E+04 -0.57460825855E+02  0.16658884676E+04  0.20452192319E+04  0.12699999809E+01 0.  1.
       -4    1    3    3    0  502  0.11850881658E+04  0.57460825855E+02 -0.83593112782E+03  0.14513849147E+04  0.12699999809E+01 0. -1.
</event>
<event>
 5   0  0.4775023E-08  0.3399053E+04  0.7818609E-02  0.8138139E-01
        2   -1    0    0  501    0  0.00000000000E+00  0.00000000000E+00  0.15513122586E+04  0.15513122586E+04  0.25500000920E-02 0.  1.
       -2   -1    0    0    0  501  0.00000000000E+00  0.00000000000E+00 -0.18619014692E+04  0.18619014692E+04  0.25500000920E-02 0. -1.
    10030    2    1    2    0    0  0.00000000000E+00  0.00000000000E+00 -0.31058921062E+03  0.34132137278E+04  0.33990531467E+04 0.  0.
        4    1    3    3  502    0 -0.20702451307E+03 -0.12674410566E+04  0.96250186551E+03  0.16048917206E+04  0.12699999809E+01 0.  1.
       -4    1    3    3    0  502  0.20702451307E+03  0.12674410566E+04 -0.12730910761E+04  0.18083220072E+04  0.12699999809E+01 0. -1.
</event>
<event>
 5   0  0.4764953E-08  0.3400172E+04  0.7818609E-02  0.8137864E-01
        2   -1    0    0  501    0  0.00000000000E+00  0.00000000000E+00  0.30176625977E+04  0.30176625977E+04  0.25500000920E-02 0.  1.
       -2   -1    0    0    0  501  0.00000000000E+00  0.00000000000E+00 -0.95779204705E+03  0.95779204705E+03  0.25500000920E-02 0. -1.
    10030    2    1    2    0    0  0.00000000000E+00  0.00000000000E+00  0.20598705507E+04  0.39754546448E+04  0.34001724878E+04 0.  0.
        2    1    3    3  502    0 -0.70477695619E+03 -0.75933982421E+03 -0.54608430903E+03  0.11711172440E+04  0.25500000920E-02 0. -1.
       -2    1    3    3    0  502  0.70477695619E+03  0.75933982421E+03  0.26059548597E+04  0.28043374008E+04  0.25500000920E-02 0.  1.
</event>
<event>
 5   0  0.1595851E-08  0.3399862E+04  0.7818609E-02  0.8137940E-01
       -1   -1    0    0    0  501  0.00000000000E+00  0.00000000000E+00  0.10170643311E+04  0.10170643311E+04  0.50400001928E-02 0. -1.
        1   -1    0    0  501    0  0.00000000000E+00  0.00000000000E+00 -0.28412801102E+04  0.28412801102E+04  0.50400001928E-02 0.  1.
    10030    2    1    2    0    0  0.00000000000E+00  0.00000000000E+00 -0.18242157790E+04  0.38583444413E+04  0.33998615589E+04 0.  0.
        2    1    3    3  502    0 -0.92059364055E+03 -0.61040134051E+03 -0.23785221380E+04  0.26224892771E+04  0.25500000920E-02 0.  1.
       -2    1    3    3    0  502  0.92059364055E+03  0.61040134051E+03  0.55430635892E+03  0.12358551643E+04  0.25500000920E-02 0. -1.
</event>
<event>
 5   0  0.1595851E-08  0.3400488E+04  0.7818609E-02  0.8137787E-01
       -1   -1    0    0    0  501  0.00000000000E+00  0.00000000000E+00  0.11112857747E+04  0.11112857747E+04  0.50400001928E-02 0.  1.
        1   -1    0    0  501    0  0.00000000000E+00  0.00000000000E+00 -0.26013374948E+04  0.26013374948E+04  0.50400001928E-02 0. -1.
    10030    2    1    2    0    0  0.00000000000E+00  0.00000000000E+00 -0.14900517201E+04  0.37126232695E+04  0.34004878198E+04 0.  0.
        2    1    3    3  502    0  0.83066830208E+03  0.34789057589E+03  0.82949919632E+03  0.12243800871E+04  0.25500000920E-02 0.  1.
       -2    1    3    3    0  502 -0.83066830208E+03 -0.34789057589E+03 -0.23195509164E+04  0.24882431824E+04  0.25500000920E-02 0. -1.
</event>
<event>
 5   0  0.4973409E-08  0.3399162E+04  0.7818609E-02  0.8138112E-01
       -2   -1    0    0    0  501  0.00000000000E+00  0.00000000000E+00  0.11324945949E+04  0.11324945949E+04  0.25500000920E-02 0.  1.
        2   -1    0    0  501    0  0.00000000000E+00  0.00000000000E+00 -0.25506311724E+04  0.25506311724E+04  0.25500000920E-02 0. -1.
    10030    2    1    2    0    0  0.00000000000E+00  0.00000000000E+00 -0.14181365775E+04  0.36831257673E+04  0.33991622594E+04 0.  0.
        1    1    3    3  502    0  0.72931736953E+03 -0.15163254496E+03 -0.23643247154E+04  0.24788964509E+04  0.50400001928E-02 0. -1.
       -1    1    3    3    0  502 -0.72931736953E+03  0.15163254496E+03  0.94618813792E+03  0.12042293164E+04  0.50400001928E-02 0.  1.
</event>
<event>
 5   0  0.1625282E-08  0.3399000E+04  0.7818609E-02  0.8138152E-01
       -1   -1    0    0    0  501  0.00000000000E+00  0.00000000000E+00  0.14522544422E+04  0.14522544422E+04  0.50400001928E-02 0.  1.
        1   -1    0    0  501    0  0.00000000000E+00  0.00000000000E+00 -0.19888391470E+04  0.19888391471E+04  0.50400001928E-02 0. -1.
    10030    2    1    2    0    0  0.00000000000E+00  0.00000000000E+00 -0.53658470485E+03  0.34410935893E+04  0.33990001389E+04 0.  0.
        1    1    3    3  502    0 -0.56448469212E+03  0.37809532101E+03  0.13087867489E+04  0.14746259842E+04  0.50400001928E-02 0.  1.
       -1    1    3    3    0  502  0.56448469212E+03 -0.37809532101E+03 -0.18453714537E+04  0.19664676050E+04  0.50400001928E-02 0. -1.
</event>
<event>
 5   0  0.1579536E-08  0.3399679E+04  0.7818609E-02  0.8137985E-01
       -1   -1    0    0    0  501  0.00000000000E+00  0.00000000000E+00  0.14835890143E+04  0.14835890143E+04  0.50400001928E-02 0.  1.
        1   -1    0    0  501    0  0.00000000000E+00  0.00000000000E+00 -0.19476105587E+04  0.19476105587E+04  0.50400001928E-02 0. -1.
    10030    2    1    2    0    0  0.00000000000E+00  0.00000000000E+00 -0.46402154439E+03  0.34311995730E+04  0.33996785901E+04 0.  0.
        5    1    3    3  502    0  0.20058064018E+03  0.13271908118E+04  0.82061829617E+03  0.15732464912E+04  0.46999998093E+01 0. -1.
       -5    1    3    3    0  502 -0.20058064018E+03 -0.13271908118E+04 -0.12846398406E+04  0.18579530818E+04  0.46999998093E+01 0.  1.
</event>
<event>
 5   0  0.1625282E-08  0.3399782E+04  0.7818609E-02  0.8137960E-01
        1   -1    0    0  501    0  0.00000000000E+00  0.00000000000E+00  0.28948467535E+04  0.28948467535E+04  0.50400001928E-02 0.  1.
       -1   -1    0    0    0  501  0.00000000000E+00  0.00000000000E+00 -0.99819777972E+03  0.99819777973E+03  0.50400001928E-02 0. -1.
    10030    2    1    2    0    0  0.00000000000E+00  0.00000000000E+00  0.18966489738E+04  0.38930445332E+04  0.33997821118E+04 0.  0.
        1    1    3    3  502    0 -0.11760358917E+04  0.10749729190E+04  0.16267361951E+04  0.22770370756E+04  0.50400001928E-02 0. -1.
       -1    1    3    3    0  502  0.11760358917E+04 -0.10749729190E+04  0.26991277870E+03  0.16160074577E+04  0.50400001928E-02 0.  1.
</event>
<event>
 5   0  0.1630571E-08  0.3401673E+04  0.7818609E-02  0.8137496E-01
       -1   -1    0    0    0  501  0.00000000000E+00  0.00000000000E+00  0.13838275281E+04  0.13838275282E+04  0.50400001928E-02 0.  1.
        1   -1    0    0  501    0  0.00000000000E+00  0.00000000000E+00 -0.20904667906E+04  0.20904667906E+04  0.50400001928E-02 0. -1.
    10030    2    1    2    0    0  0.00000000000E+00  0.00000000000E+00 -0.70663926247E+03  0.34742943188E+04  0.34016734068E+04 0.  0.
        3    1    3    3  502    0  0.11949963792E+04  0.37785387318E+03  0.82103387562E+03  0.14982945408E+04  0.10100000352E+00 0.  1.
       -3    1    3    3    0  502 -0.11949963792E+04 -0.37785387318E+03 -0.15276731381E+04  0.19759997780E+04  0.10100000352E+00 0. -1.
</event>
<event>
 5   0  0.4973409E-08  0.3399749E+04  0.7818609E-02  0.8137968E-01
        2   -1    0    0  501    0  0.00000000000E+00  0.00000000000E+00  0.19117550891E+04  0.19117550891E+04  0.25500000920E-02 0.  1.
       -2   -1    0    0    0  501  0.00000000000E+00  0.00000000000E+00 -0.15114764569E+04  0.15114764569E+04  0.25500000920E-02 0. -1.
    10030    2    1    2    0    0  0.00000000000E+00  0.00000000000E+00  0.40027863217E+03  0.34232315460E+04  0.33997487016E+04 0.  0.
        1    1    3    3  502    0  0.14711587615E+04 -0.50208802906E+03 -0.49248721577E+03  0.16306269187E+04  0.50400001928E-02 0. -1.
       -1    1    3    3    0  502 -0.14711587615E+04  0.50208802906E+03  0.89276584794E+03  0.17926046272E+04  0.50400001928E-02 0.  1.
</event>
<event>
 5   0  0.4973409E-08  0.3400300E+04  0.7818609E-02  0.8137833E-01
       -2   -1    0    0    0  501  0.00000000000E+00  0.00000000000E+00  0.11102519051E+04  0.11102519051E+04  0.25500000920E-02 0.  1.
        2   -1    0    0  501    0  0.00000000000E+00  0.00000000000E+00 -0.26034718799E+04  0.26034718799E+04  0.25500000920E-02 0. -1.
    10030    2    1    2    0    0  0.00000000000E+00  0.00000000000E+00 -0.14932199748E+04  0.37137237851E+04  0.34002997601E+04 0.  0.
        1    1    3    3  502    0  0.15365952358E+04 -0.50049184972E+03 -0.13233909177E+04  0.20887748877E+04  0.50400001928E-02 0. -1.
       -1    1    3    3    0  502 -0.15365952358E+04  0.50049184972E+03 -0.16982905712E+03  0.16249488974E+04  0.50400001928E-02 0.  1.
</event>
<event>
 5   0  0.1573625E-08  0.3400587E+04  0.7818609E-02  0.8137762E-01
        3   -1    0    0  501    0  0.00000000000E+00  0.00000000000E+00  0.13667446638E+04  0.13667446675E+04  0.10100000352E+00 0.  1.
       -3   -1    0    0    0  501  0.00000000000E+00  0.00000000000E+00 -0.21152431301E+04  0.21152431325E+04  0.10100000352E+00 0. -1.
    10030    2    1    2    0    0  0.00000000000E+00  0.00000000000E+00 -0.74849846635E+03  0.34819878000E+04  0.34005865796E+04 0.  0.
        3    1    3    3  502    0 -0.11633717502E+04  0.65703077091E+03 -0.14510273776E+04  0.19724613364E+04  0.10100000352E+00 0. -1.
       -3    1    3    3    0  502  0.11633717502E+04 -0.65703077091E+03  0.70252891125E+03  0.15095264636E+04  0.10100000352E+00 0.  1.
</event>
<event>
 5   0  0.4775023E-08  0.3400022E+04  0.7818609E-02  0.8137901E-01
       -2   -1    0    0    0  501  0.00000000000E+00  0.00000000000E+00  0.12851591255E+04  0.12851591255E+04  0.25500000920E-02 0. -1.
        2   -1    0    0  501    0  0.00000000000E+00  0.00000000000E+00 -0.22487777498E+04  0.22487777498E+04  0.25500000920E-02 0.  1.
    10030    2    1    2    0    0  0.00000000000E+00  0.00000000000E+00 -0.96361862430E+03  0.35339368754E+04  0.34000219096E+04 0.  0.
        4    1    3    3  502    0  0.48398124498E+02  0.13819515068E+04 -0.15096481532E+04  0.20472350879E+04  0.12699999809E+01 0. -1.
       -4    1    3    3    0  502 -0.48398124498E+02 -0.13819515068E+04  0.54602952890E+03  0.14867017875E+04  0.12699999809E+01 0.  1.
</event>
<event>
 5   0  0.1595851E-08  0.3398672E+04  0.7818609E-02  0.8138232E-01
       -1   -1    0    0    0  501  0.00000000000E+00  0.00000000000E+00  0.18290887533E+04  0.18290887533E+04  0.50400001928E-02 0.  1.
        1   -1    0    0  501    0  0.00000000000E+00  0.00000000000E+00 -0.15787875615E+04  0.15787875615E+04  0.50400001928E-02 0. -1.
    10030    2    1    2    0    0  0.00000000000E+00  0.00000000000E+00  0.25030119183E+03  0.34078763148E+04  0.33986718421E+04 0.  0.
        2    1    3    3  502    0 -0.49428726537E+03 -0.16257980181E+04  0.13945373818E+03  0.17049886925E+04  0.25500000920E-02 0.  1.
       -2    1    3    3    0  502  0.49428726537E+03  0.16257980181E+04  0.11084745365E+03  0.17028876223E+04  0.25500000920E-02 0. -1.
</event>
<event>
 5   0  0.5001197E-08  0.3397694E+04  0.7818609E-02  0.8138473E-01
       -2   -1    0    0    0  501  0.00000000000E+00  0.00000000000E+00  0.29273340574E+04  0.29273340574E+04  0.25500000920E-02 0. -1.
        2   -1    0    0  501    0  0.00000000000E+00  0.00000000000E+00 -0.98590759963E+03  0.98590759964E+03  0.25500000920E-02 0.  1.
    10030    2    1    2    0    0  0.00000000000E+00  0.00000000000E+00  0.19414264578E+04  0.39132416570E+04  0.33976938614E+04 0.  0.
        5    1    3    3  502    0 -0.13283734951E+04 -0.91585555063E+02 -0.24440486865E+03  0.13537798515E+04  0.46999998093E+01 0.  1.
       -5    1    3    3    0  502  0.13283734951E+04  0.91585555063E+02  0.21858313264E+04  0.25594618056E+04  0.46999998093E+01 0. -1.
</event>
<event>
 5   0  0.5001197E-08  0.3399040E+04  0.7818609E-02  0.8138142E-01
       -2   -1    0    0    0  501  0.00000000000E+00  0.00000000000E+00  0.15379537461E+04  0.15379537461E+04  0.25500000920E-02 0.  1.
        2   -1    0    0  501    0  0.00000000000E+00  0.00000000000E+00 -0.18780590964E+04  0.18780590964E+04  0.25500000920E-02 0. -1.
    10030    2    1    2    0    0  0.00000000000E+00  0.00000000000E+00 -0.34010535033E+03  0.34160128425E+04  0.33990398777E+04 0.  0.
        5    1    3    3  502    0  0.13887643281E+04  0.71554068615E+03  0.50237815168E+03  0.16410578082E+04  0.46999998093E+01 0.  1.
       -5    1    3    3    0  502 -0.13887643281E+04 -0.71554068615E+03 -0.84248350201E+03  0.17749550343E+04  0.46999998093E+01 0. -1.
</event>
<event>
 5   0  0.4946315E-08  0.3400465E+04  0.7818609E-02  0.8137792E-01
       -2   -1    0    0    0  501  0.00000000000E+00  0.00000000000E+00  0.15424767118E+04  0.15424767118E+04  0.25500000920E-02 0. -1.
        2   -1    0    0  501    0  0.00000000000E+00  0.00000000000E+00 -0.18741221631E+04  0.18741221631E+04  0.25500000920E-02 0.  1.
    10030    2    1    2    0    0  0.00000000000E+00  0.00000000000E+00 -0.33164545138E+03  0.34165988749E+04  0.34004645516E+04 0.  0.
        3    1    3    3  502    0 -0.97874988437E+03  0.72650145268E+03 -0.13567882000E+04  0.18239051309E+04  0.10100000352E+00 0.  1.
       -3    1    3    3    0  502  0.97874988437E+03 -0.72650145268E+03  0.10251427486E+04  0.15926937440E+04  0.10100000352E+00 0. -1.
</event>
<event>
 5   0  0.5001197E-08  0.3399165E+04  0.7818609E-02  0.8138111E-01
        2   -1    0    0  501    0  0.00000000000E+00  0.00000000000E+00  0.16799842052E+04  0.16799842052E+04  0.25500000920E-02 0. -1.
       -2   -1    0    0    0  501  0.00000000000E+00  0.00000000000E+00 -0.17194094652E+04  0.17194094652E+04  0.25500000920E-02 0.  1.
    10030    2    1    2    0    0  0.00000000000E+00  0.00000000000E+00 -0.39425260019E+02  0.33993936704E+04  0.33991650409E+04 0.  0.
        5    1    3    3  502    0 -0.13108902631E+04  0.89581655777E+03 -0.62608505967E+03  0.17067293807E+04  0.46999998093E+01 0. -1.
       -5    1    3    3    0  502  0.13108902631E+04 -0.89581655777E+03  0.58665979966E+03  0.16926642897E+04  0.46999998093E+01 0.  1.
</event>
<event>
 5   0  0.4764953E-08  0.3403481E+04  0.7818609E-02  0.8137052E-01
        2   -1    0    0  501    0  0.00000000000E+00  0.00000000000E+00  0.10965585982E+04  0.10965585982E+04  0.25500000920E-02 0. -1.
       -2   -1    0    0    0  501  0.00000000000E+00  0.00000000000E+00 -0.26409176305E+04  0.26409176305E+04  0.25500000920E-02 0.  1.
    10030    2    1    2    0    0  0.00000000000E+00  0.00000000000E+00 -0.15443590322E+04  0.37374762287E+04  0.34034811208E+04 0.  0.
        2    1    3    3  502    0  0.90710763530E+03  0.22826848445E+03 -0.23332950495E+04  0.25138051935E+04  0.25500000920E-02 0.  1.
       -2    1    3    3    0  502 -0.90710763530E+03 -0.22826848445E+03  0.78893601725E+03  0.12236710352E+04  0.25500000920E-02 0. -1.
</event>
<event>
 5   0  0.5001197E-08  0.3385142E+04  0.7818609E-02  0.8141563E-01
       -2   -1    0    0    0  501  0.00000000000E+00  0.00000000000E+00  0.11165553705E+04  0.11165553705E+04  0.25500000920E-02 0. -1.
        2   -1    0    0  501    0  0.00000000000E+00  0.00000000000E+00 -0.25657455496E+04  0.25657455496E+04  0.25500000920E-02 0.  1.
    10030    2    1    2    0    0  0.00000000000E+00  0.00000000000E+00 -0.14491901791E+04  0.36823009201E+04  0.33851422262E+04 0.  0.
        5    1    3    3  502    0  0.96108087645E+03 -0.13209562995E+03  0.78411325256E+03  0.12473898305E+04  0.46999998093E+01 0. -1.
       -5    1    3    3    0  502 -0.96108087645E+03  0.13209562995E+03 -0.22333034316E+04  0.24349110896E+04  0.46999998093E+01 0.  1.
</event>
<event>
 5   0  0.4764953E-08  0.3398000E+04  0.7818609E-02  0.8138397E-01
        2   -1    0    0  501    0  0.00000000000E+00  0.00000000000E+00  0.15837347478E+04  0.15837347478E+04  0.25500000920E-02 0. -1.
       -2   -1    0    0    0  501  0.00000000000E+00  0.00000000000E+00 -0.18226542109E+04  0.18226542109E+04  0.25500000920E-02 0.  1.
    10030    2    1    2    0    0  0.00000000000E+00  0.00000000000E+00 -0.23891946314E+03  0.34063889587E+04  0.33979998865E+04 0.  0.
        2    1    3    3  502    0  0.15036348774E+04 -0.29498091599E+03 -0.85521258859E+03  0.17547991786E+04  0.25500000920E-02 0.  1.
       -2    1    3    3    0  502 -0.15036348774E+04  0.29498091599E+03  0.61629312545E+03  0.16515897802E+04  0.25500000920E-02 0. -1.
</event>
<event>
 5   0  0.4775023E-08  0.3377946E+04  0.7818609E-02  0.8143340E-01
        2   -1    0    0  501    0  0.00000000000E+00  0.00000000000E+00  0.18581702152E+04  0.18581702152E+04  0.25500000920E-02 0. -1.
       -2   -1    0    0    0  501  0.00000000000E+00  0.00000000000E+00 -0.15351826032E+04  0.15351826032E+04  0.25500000920E-02 0.  1.
    10030    2    1    2    0    0  0.00000000000E+00  0.00000000000E+00  0.32298761196E+03  0.33933528184E+04  0.33779464698E+04 0.  0.
        4    1    3    3  502    0  0.71315534701E+02  0.97353855513E+03  0.15461000349E+04  0.18284666130E+04  0.12699999809E+01 0. -1.
       -4    1    3    3    0  502 -0.71315534701E+02 -0.97353855513E+03 -0.12231124230E+04  0.15648862054E+04  0.12699999809E+01 0.  1.
</event>
<event>
 5   0  0.4973409E-08  0.3400488E+04  0.7818609E-02  0.8137787E-01
        2   -1    0    0  501    0  0.00000000000E+00  0.00000000000E+00  0.25405991025E+04  0.25405991025E+04  0.25500000920E-02 0.  1.
       -2   -1    0    0    0  501  0.00000000000E+00  0.00000000000E+00 -0.11378535145E+04  0.11378535145E+04  0.25500000920E-02 0. -1.
    10030    2    1    2    0    0  0.00000000000E+00  0.00000000000E+00  0.14027455880E+04  0.36784526170E+04  0.34004879755E+04 0.  0.
        1    1    3    3  502    0  0.27560582631E+03 -0.16545707052E+04  0.10020638179E+04  0.19538921887E+04  0.50400001928E-02 0.  1.
       -1    1    3    3    0  502 -0.27560582631E+03  0.16545707052E+04  0.40068177012E+03  0.17245604283E+04  0.50400001928E-02 0. -1.
</event>
<event>
 5   0  0.1625282E-08  0.3400397E+04  0.7818609E-02  0.8137809E-01
       -1   -1    0    0    0  501  0.00000000000E+00  0.00000000000E+00  0.15812222288E+04  0.15812222288E+04  0.50400001928E-02 0. -1.
        1   -1    0    0  501    0  0.00000000000E+00  0.00000000000E+00 -0.18281269363E+04  0.18281269363E+04  0.50400001928E-02 0.  1.
    10030    2    1    2    0    0  0.00000000000E+00  0.00000000000E+00 -0.24690470749E+03  0.34093491650E+04  0.34003970054E+04 0.  0.
        1    1    3    3  502    0  0.99891824976E+03  0.13751769379E+04 -0.16510288355E+03  0.17076909095E+04  0.50400001928E-02 0. -1.
       -1    1    3    3    0  502 -0.99891824976E+03 -0.13751769379E+04 -0.81801823938E+02  0.17016582555E+04  0.50400001928E-02 0.  1.
</event>
<event>
 5   0  0.1579536E-08  0.3401218E+04  0.7818609E-02  0.8137607E-01
       -1   -1    0    0    0  501  0.00000000000E+00  0.00000000000E+00  0.15819949294E+04  0.15819949294E+04  0.50400001928E-02 0. -1.
        1   -1    0    0  501    0  0.00000000000E+00  0.00000000000E+00 -0.18281166561E+04  0.18281166561E+04  0.50400001928E-02 0.  1.
    10030    2    1    2    0    0  0.00000000000E+00  0.00000000000E+00 -0.24612172671E+03  0.34101115855E+04  0.34012181820E+04 0.  0.
        5    1    3    3  502    0 -0.65053754127E+03  0.59024371458E+03 -0.15830492182E+04  0.18104291349E+04  0.46999998093E+01 0.  1.
       -5    1    3    3    0  502  0.65053754127E+03 -0.59024371458E+03  0.13369274915E+04  0.15996824506E+04  0.46999998093E+01 0. -1.
</event>
<event>
 5   0  0.1595851E-08  0.3400657E+04  0.7818609E-02  0.8137745E-01
       -1   -1    0    0    0  501  0.00000000000E+00  0.00000000000E+00  0.15381564812E+04  0.15381564812E+04  0.50400001928E-02 0. -1.
        1   -1    0    0  501    0  0.00000000000E+00  0.00000000000E+00 -0.18795983273E+04  0.18795983273E+04  0.50400001928E-02 0.  1.
    10030    2    1    2    0    0  0.00000000000E+00  0.00000000000E+00 -0.34144184610E+03  0.34177548086E+04  0.34006566127E+04 0.  0.
        2    1    3    3  502    0  0.16171098142E+04  0.76368035480E+02 -0.69318091091E+03  0.17610724015E+04  0.25500000920E-02 0. -1.
       -2    1    3    3    0  502 -0.16171098142E+04 -0.76368035480E+02  0.35173906481E+03  0.16566824071E+04  0.25500000920E-02 0.  1.
</event>
<event>
 5   0  0.1579536E-08  0.3402706E+04  0.7818609E-02  0.8137243E-01
        1   -1    0    0  501    0  0.00000000000E+00  0.00000000000E+00  0.18410282696E+04  0.18410282696E+04  0.50400001928E-02 0.  1.
       -1   -1    0    0    0  501  0.00000000000E+00  0.00000000000E+00 -0.15722741906E+04  0.15722741906E+04  0.50400001928E-02 0. -1.
    10030    2    1    2    0    0  0.00000000000E+00  0.00000000000E+00  0.26875407907E+03  0.34133024602E+04  0.34027055309E+04 0.  0.
        5    1    3    3  502    0  0.14026689425E+04  0.23524047413E+03 -0.80221206185E+03  0.16329067717E+04  0.46999998093E+01 0. -1.
       -5    1    3    3    0  502 -0.14026689425E+04 -0.23524047413E+03  0.10709661409E+04  0.17803956885E+04  0.46999998093E+01 0.  1.
</event>
<event>
 5   0  0.4973409E-08  0.3399798E+04  0.7818609E-02  0.8137956E-01
        2   -1    0    0  501    0  0.00000000000E+00  0.00000000000E+00  0.22117159318E+04  0.22117159318E+04  0.25500000920E-02 0.  1.
       -2   -1    0    0    0  501  0.00000000000E+00  0.00000000000E+00 -0.13065223356E+04  0.13065223356E+04  0.25500000920E-02 0. -1.
    10030    2    1    2    0    0  0.00000000000E+00  0.00000000000E+00  0.90519359629E+03  0.35182382674E+04  0.33997977968E+04 0.  0.
        1    1    3    3  502    0 -0.15936082023E+04  0.12593524064E+03 -0.14565159485E+03  0.16051981729E+04  0.50400001928E-02 0. -1.
       -1    1    3    3    0  502  0.15936082023E+04 -0.12593524064E+03  0.10508451911E+04  0.19130400945E+04  0.50400001928E-02 0.  1.
</event>
<event>
 5   0  0.4775023E-08  0.3400385E+04  0.7818609E-02  0.8137812E-01
       -2   -1    0    0    0  501  0.00000000000E+00  0.00000000000E+00  0.14711741447E+04  0.14711741447E+04  0.25500000920E-02 0.  1.
        2   -1    0    0  501    0  0.00000000000E+00  0.00000000000E+00 -0.19648626439E+04  0.19648626439E+04  0.25500000920E-02 0. -1.
    10030    2    1    2    0    0  0.00000000000E+00  0.00000000000E+00 -0.49368849922E+03  0.34360367887E+04  0.34003853427E+04 0.  0.
        4    1    3    3  502    0 -0.10970177153E+04 -0.85383127983E+03  0.74228425694E+03  0.15759007751E+04  0.12699999809E+01 0.  1.
       -4    1    3    3    0  502  0.10970177153E+04  0.85383127983E+03 -0.12359727562E+04  0.18601360135E+04  0.12699999809E+01 0. -1.
</event>
<event>
 5   0  0.1645631E-08  0.3400787E+04  0.7818609E-02  0.8137713E-01
       -1   -1    0    0    0  501  0.00000000000E+00  0.00000000000E+00  0.18664450892E+04  0.18664450892E+04  0.50400001928E-02 0.  1.
        1   -1    0    0  501    0  0.00000000000E+00  0.00000000000E+00 -0.15491153564E+04  0.15491153564E+04  0.50400001928E-02 0. -1.
    10030    2    1    2    0    0  0.00000000000E+00  0.00000000000E+00  0.31732973285E+03  0.34155604456E+04  0.34007874086E+04 0.  0.
        4    1    3    3  502    0  0.11257363724E+04  0.56366962752E+03  0.13065783552E+04  0.18144295082E+04  0.12699999809E+01 0.  1.
       -4    1    3    3    0  502 -0.11257363724E+04 -0.56366962752E+03 -0.98924862230E+03  0.16011309374E+04  0.12699999809E+01 0. -1.
</event>
<event>
 5   0  0.1595851E-08  0.3396031E+04  0.7818609E-02  0.8138881E-01
        1   -1    0    0  501    0  0.00000000000E+00  0.00000000000E+00  0.15621261791E+04  0.15621261791E+04  0.50400001928E-02 0.  1.
       -1   -1    0    0    0  501  0.00000000000E+00  0.00000000000E+00 -0.18457261446E+04  0.18457261446E+04  0.50400001928E-02 0. -1.
    10030    2    1    2    0    0  0.00000000000E+00  0.00000000000E+00 -0.28359996550E+03  0.34078523237E+04  0.33960312896E+04 0.  0.
        2    1    3    3  502    0  0.10210433577E+04  0.94914323372E+03 -0.11146355622E+04  0.17848851092E+04  0.25500000920E-02 0. -1.
       -2    1    3    3    0  502 -0.10210433577E+04 -0.94914323372E+03  0.83103559673E+03  0.16229672145E+04  0.25500000920E-02 0.  1.
</event>
<event>
 5   0  0.1595851E-08  0.3412334E+04  0.7818609E-02  0.8134886E-01
        1   -1    0    0  501    0  0.00000000000E+00  0.00000000000E+00  0.20105741293E+04  0.20105741293E+04  0.50400001928E-02 0.  1.
       -1   -1    0    0    0  501  0.00000000000E+00  0.00000000000E+00 -0.14478479718E+04  0.14478479718E+04  0.50400001928E-02 0. -1.
    10030    2    1    2    0    0  0.00000000000E+00  0.00000000000E+00  0.56272615750E+03  0.34584221011E+04  0.34123339082E+04 0.  0.
        2    1    3    3  502    0  0.10975902414E+04  0.87150283233E+03  0.12675334849E+04  0.18896726331E+04  0.25500000920E-02 0.  1.
       -2    1    3    3    0  502 -0.10975902414E+04 -0.87150283233E+03 -0.70480732745E+03  0.15687494681E+04  0.25500000920E-02 0. -1.
</event>
<event>
 5   0  0.4764953E-08  0.3400173E+04  0.7818609E-02  0.8137864E-01
       -2   -1    0    0    0  501  0.00000000000E+00  0.00000000000E+00  0.18056009451E+04  0.18056009451E+04  0.25500000920E-02 0. -1.
        2   -1    0    0  501    0  0.00000000000E+00  0.00000000000E+00 -0.16007377899E+04  0.16007377899E+04  0.25500000920E-02 0.  1.
    10030    2    1    2    0    0  0.00000000000E+00  0.00000000000E+00  0.20486315519E+03  0.34063387350E+04  0.34001727405E+04 0.  0.
        2    1    3    3  502    0 -0.82040936945E+03  0.14655383135E+04  0.36638534029E+03  0.17190440074E+04  0.25500000920E-02 0. -1.
       -2    1    3    3    0  502  0.82040936945E+03 -0.14655383135E+04 -0.16152218510E+03  0.16872947277E+04  0.25500000920E-02 0.  1.
</event>
<event>
 5   0  0.1625282E-08  0.3399829E+04  0.7818609E-02  0.8137948E-01
       -1   -1    0    0    0  501  0.00000000000E+00  0.00000000000E+00  0.19026315833E+04  0.19026315833E+04  0.50400001928E-02 0.  1.
        1   -1    0    0  501    0  0.00000000000E+00  0.00000000000E+00 -0.15187961438E+04  0.15187961438E+04  0.50400001928E-02 0. -1.
    10030    2    1    2    0    0  0.00000000000E+00  0.00000000000E+00  0.38383543947E+03  0.34214277272E+04  0.33998291203E+04 0.  0.
        1    1    3    3  502    0  0.11327413249E+04 -0.17505256586E+03  0.14552666516E+04  0.18524436124E+04  0.50400001928E-02 0.  1.
       -1    1    3    3    0  502 -0.11327413249E+04  0.17505256586E+03 -0.10714312122E+04  0.15689841147E+04  0.50400001928E-02 0. -1.
</event>
<event>
 5   0  0.1645631E-08  0.3399512E+04  0.7818609E-02  0.8138026E-01
       -1   -1    0    0    0  501  0.00000000000E+00  0.00000000000E+00  0.15771373690E+04  0.15771373690E+04  0.50400001928E-02 0.  1.
        1   -1    0    0  501    0  0.00000000000E+00  0.00000000000E+00 -0.18319075562E+04  0.18319075563E+04  0.50400001928E-02 0. -1.
    10030    2    1    2    0    0  0.00000000000E+00  0.00000000000E+00 -0.25477018725E+03  0.34090449253E+04  0.33995116494E+04 0.  0.
        4    1    3    3  502    0 -0.69926010530E+03  0.32145025227E+03  0.13924088503E+04  0.15909427956E+04  0.12699999809E+01 0.  1.
       -4    1    3    3    0  502  0.69926010530E+03 -0.32145025227E+03 -0.16471790375E+04  0.18181021297E+04  0.12699999809E+01 0. -1.
</event>
<event>
 5   0  0.1630571E-08  0.3400144E+04  0.7818609E-02  0.8137871E-01
        1   -1    0    0  501    0  0.00000000000E+00  0.00000000000E+00  0.14527531778E+04  0.14527531778E+04  0.50400001928E-02 0.  1.
       -1   -1    0    0    0  501  0.00000000000E+00  0.00000000000E+00 -0.19894942771E+04  0.19894942771E+04  0.50400001928E-02 0. -1.
    10030    2    1    2    0    0  0.00000000000E+00  0.00000000000E+00 -0.53674109934E+03  0.34422474549E+04  0.34001436048E+04 0.  0.
        3    1    3    3  502    0  0.37623950623E+03  0.12353697622E+04  0.85101077037E+03  0.15465813774E+04  0.10100000352E+00 0.  1.
       -3    1    3    3    0  502 -0.37623950623E+03 -0.12353697622E+04 -0.13877518697E+04  0.18956660775E+04  0.10100000352E+00 0. -1.
</event>
<event>
 5   0  0.1645631E-08  0.3399207E+04  0.7818609E-02  0.8138101E-01
        1   -1    0    0  501    0  0.00000000000E+00  0.00000000000E+00  0.16280441226E+04  0.16280441226E+04  0.50400001928E-02 0. -1.
       -1   -1    0    0    0  501  0.00000000000E+00  0.00000000000E+00 -0.17743081105E+04  0.17743081105E+04  0.50400001928E-02 0.  1.
    10030    2    1    2    0    0  0.00000000000E+00  0.00000000000E+00 -0.14626398794E+03  0.34023522331E+04  0.33992069022E+04 0.  0.
        4    1    3    3  502    0 -0.42560933084E+03  0.13394669183E+04 -0.10297021036E+04  0.17422981843E+04  0.12699999809E+01 0.  1.
       -4    1    3    3    0  502  0.42560933084E+03 -0.13394669183E+04  0.88343811571E+03  0.16600540488E+04  0.12699999809E+01 0. -1.
</event>
<event>
 5   0  0.4775023E-08  0.3400862E+04  0.7818609E-02  0.8137695E-01
        2   -1    0    0  501    0  0.00000000000E+00  0.00000000000E+00  0.21843795321E+04  0.21843795321E+04  0.25500000920E-02 0.  1.
       -2   -1    0    0    0  501  0.00000000000E+00  0.00000000000E+00 -0.13237009680E+04  0.13237009680E+04  0.25500000920E-02 0. -1.
    10030    2    1    2    0    0  0.00000000000E+00  0.00000000000E+00  0.86067856411E+03  0.35080805001E+04  0.34008618326E+04 0.  0.
        4    1    3    3  502    0 -0.25600553463E+03  0.99558922100E+03 -0.96688551134E+03  0.14112426920E+04  0.12699999809E+01 0. -1.
       -4    1    3    3    0  502  0.25600553463E+03 -0.99558922100E+03  0.18275640755E+04  0.20968378081E+04  0.12699999809E+01 0.  1.
</event>
<event>
 5   0  0.4764953E-08  0.3400315E+04  0.7818609E-02  0.8137829E-01
        2   -1    0    0  501    0  0.00000000000E+00  0.00000000000E+00  0.17065461415E+04  0.17065461415E+04  0.25500000920E-02 0.  1.
       -2   -1    0    0    0  501  0.00000000000E+00  0.00000000000E+00 -0.16937923810E+04  0.16937923810E+04  0.25500000920E-02 0. -1.
    10030    2    1    2    0    0  0.00000000000E+00  0.00000000000E+00  0.12753760494E+02  0.34003385225E+04  0.34003146045E+04 0.  0.
        2    1    3    3  502    0  0.90934144551E+03  0.10085406066E+04  0.10293595559E+04  0.17040061957E+04  0.25500000920E-02 0.  1.
       -2    1    3    3    0  502 -0.90934144551E+03 -0.10085406066E+04 -0.10166057954E+04  0.16963323268E+04  0.25500000920E-02 0. -1.
</event>
<event>
 5   0  0.5001197E-08  0.3392272E+04  0.7818609E-02  0.8139806E-01
       -2   -1    0    0    0  501  0.00000000000E+00  0.00000000000E+00  0.16139296490E+04  0.16139296490E+04  0.25500000920E-02 0. -1.
        2   -1    0    0  501    0  0.00000000000E+00  0.00000000000E+00 -0.17825298485E+04  0.17825298485E+04  0.25500000920E-02 0.  1.
    10030    2    1    2    0    0  0.00000000000E+00  0.00000000000E+00 -0.16860019949E+03  0.33964594975E+04  0.33922722608E+04 0.  0.
        5    1    3    3  502    0 -0.25811495621E+03 -0.42756152080E+03 -0.17072338012E+04  0.17787921538E+04  0.46999998093E+01 0.  1.
       -5    1    3    3    0  502  0.25811495621E+03  0.42756152080E+03  0.15386336017E+04  0.16176673437E+04  0.46999998093E+01 0. -1.
</event>
<event>
 5   0  0.4946315E-08  0.3400570E+04  0.7818609E-02  0.8137766E-01
        2   -1    0    0  501    0  0.00000000000E+00  0.00000000000E+00  0.16334491502E+04  0.16334491502E+04  0.25500000920E-02 0. -1.
       -2   -1    0    0    0  501  0.00000000000E+00  0.00000000000E+00 -0.17698556463E+04  0.17698556463E+04  0.25500000920E-02 0.  1.
    10030    2    1    2    0    0  0.00000000000E+00  0.00000000000E+00 -0.13640649616E+03  0.34033047965E+04  0.34005700707E+04 0.  0.
        3    1    3    3  502    0 -0.77049813216E+03  0.93389137599E+03  0.11265527261E+04  0.16537658627E+04  0.10100000352E+00 0. -1.
       -3    1    3    3    0  502  0.77049813216E+03 -0.93389137599E+03 -0.12629592222E+04  0.17495389338E+04  0.10100000352E+00 0.  1.
</event>
<event>
 5   0  0.4973409E-08  0.3400691E+04  0.7818609E-02  0.8137737E-01
       -2   -1    0    0    0  501  0.00000000000E+00  0.00000000000E+00  0.20244768456E+04  0.20244768456E+04  0.25500000920E-02 0.  1.
        2   -1    0    0  501    0  0.00000000000E+00  0.00000000000E+00 -0.14281095347E+04  0.14281095347E+04  0.25500000920E-02 0. -1.
    10030    2    1    2    0    0  0.00000000000E+00  0.00000000000E+00  0.59636731086E+03  0.34525863803E+04  0.34006909215E+04 0.  0.
        1    1    3    3  502    0  0.32517570644E+03 -0.76118908289E+03  0.18061191568E+04  0.19867597914E+04  0.50400001928E-02 0.  1.
       -1    1    3    3    0  502 -0.32517570644E+03  0.76118908289E+03 -0.12097518459E+04  0.14658265889E+04  0.50400001928E-02 0. -1.
</event>
<event>
 5   0  0.1630571E-08  0.3399526E+04  0.7818609E-02  0.8138023E-01
        1   -1    0    0  501    0  0.00000000000E+00  0.00000000000E+00  0.23770037917E+04  0.23770037917E+04  0.50400001928E-02 0.  1.
       -1   -1    0    0    0  501  0.00000000000E+00  0.00000000000E+00 -0.12154771288E+04  0.12154771288E+04  0.50400001928E-02 0. -1.
    10030    2    1    2    0    0  0.00000000000E+00  0.00000000000E+00  0.11615266629E+04  0.35924809205E+04  0.33995256986E+04 0.  0.
        3    1    3    3  502    0 -0.58681206193E+03  0.71678815483E+03  0.20868068686E+04  0.22831768595E+04  0.10100000352E+00 0.  1.
       -3    1    3    3    0  502  0.58681206193E+03 -0.71678815483E+03 -0.92528020568E+03  0.13093040610E+04  0.10100000352E+00 0. -1.
</event>
<event>
 5   0  0.1630571E-08  0.3399166E+04  0.7818609E-02  0.8138111E-01
       -1   -1    0    0    0  501  0.00000000000E+00  0.00000000000E+00  0.17459935313E+04  0.17459935313E+04  0.50400001928E-02 0. -1.
        1   -1    0    0  501    0  0.00000000000E+00  0.00000000000E+00 -0.16544059294E+04  0.16544059294E+04  0.50400001928E-02 0.  1.
    10030    2    1    2    0    0  0.00000000000E+00  0.00000000000E+00  0.91587601907E+02  0.34003994608E+04  0.33991658100E+04 0.  0.
        3    1    3    3  502    0 -0.27771997629E+03 -0.10356766633E+04 -0.12733308597E+04  0.16646699446E+04  0.10100000352E+00 0.  1.
       -3    1    3    3    0  502  0.27771997629E+03  0.10356766633E+04  0.13649184616E+04  0.17357295161E+04  0.10100000352E+00 0. -1.
</event>
<event>
 5   0  0.4946315E-08  0.3399371E+04  0.7818609E-02  0.8138061E-01
       -2   -1    0    0    0  501  0.00000000000E+00  0.00000000000E+00  0.13222396104E+04  0.13222396104E+04  0.25500000920E-02 0.  1.
        2   -1    0    0  501    0  0.00000000000E+00  0.00000000000E+00 -0.21848763972E+04  0.21848763972E+04  0.25500000920E-02 0. -1.
    10030    2    1    2    0    0  0.00000000000E+00  0.00000000000E+00 -0.86263678683E+03  0.35071160076E+04  0.33993705983E+04 0.  0.
        3    1    3    3  502    0  0.14437382322E+04  0.84636040756E+03 -0.73775821103E+03  0.18289322598E+04  0.10100000352E+00 0. -1.
       -3    1    3    3    0  502 -0.14437382322E+04 -0.84636040756E+03 -0.12487857580E+03  0.16781837479E+04  0.10100000352E+00 0.  1.
</event>
<event>
 5   0  0.1645631E-08  0.3400068E+04  0.7818609E-02  0.8137890E-01
       -1   -1    0    0    0  501  0.00000000000E+00  0.00000000000E+00  0.14835883692E+04  0.14835883692E+04  0.50400001928E-02 0. -1.
        1   -1    0    0  501    0  0.00000000000E+00  0.00000000000E+00 -0.19480578130E+04  0.19480578130E+04  0.50400001928E-02 0.  1.
    10030    2    1    2    0    0  0.00000000000E+00  0.00000000000E+00 -0.46446944386E+03  0.34316461822E+04  0.34000681840E+04 0.  0.
        4    1    3    3  502    0  0.71817789913E+03 -0.54513099237E+03  0.12223887309E+04  0.15189414459E+04  0.12699999809E+01 0. -1.
       -4    1    3    3    0  502 -0.71817789913E+03  0.54513099237E+03 -0.16868581748E+04  0.19127047363E+04  0.12699999809E+01 0.  1.
</event>
<event>
 5   0  0.4973409E-08  0.3400792E+04  0.7818609E-02  0.8137712E-01
       -2   -1    0    0    0  501  0.00000000000E+00  0.00000000000E+00  0.17014428640E+04  0.17014428640E+04  0.25500000920E-02 0.  1.
        2   -1    0    0  501    0  0.00000000000E+00  0.00000000000E+00 -0.16993494765E+04  0.16993494765E+04  0.25500000920E-02 0. -1.
    10030    2    1    2    0    0  0.00000000000E+00  0.00000000000E+00  0.20933875581E+01  0.34007923405E+04  0.34007916962E+04 0.  0.
        1    1    3    3  502    0  0.62872943850E+03 -0.19055590596E+03 -0.15673074474E+04  0.16994307561E+04  0.50400001928E-02 0. -1.
       -1    1    3    3    0  502 -0.62872943850E+03  0.19055590596E+03  0.15694008349E+04  0.17013615844E+04  0.50400001928E-02 0.  1.
</event>
<event>
 5   0  0.4946315E-08  0.3400592E+04  0.7818609E-02  0.8137761E-01
       -2   -1    0    0    0  501  0.00000000000E+00  0.00000000000E+00  0.12118991052E+04  0.12118991052E+04  0.25500000920E-02 0. -1.
        2   -1    0    0  501    0  0.00000000000E+00  0.00000000000E+00 -0.23855177184E+04  0.23855177184E+04  0.25500000920E-02 0.  1.
    10030    2    1    2    0    0  0.00000000000E+00  0.00000000000E+00 -0.11736186132E+04  0.35974168237E+04  0.34005921770E+04 0.  0.
        3    1    3    3  502    0  0.47241706627E+03  0.53058253005E+03  0.10473701180E+04  0.12655749208E+04  0.10100000352E+00 0. -1.
       -3    1    3    3    0  502 -0.47241706627E+03 -0.53058253005E+03 -0.22209887312E+04  0.23318419029E+04  0.10100000352E+00 0.  1.
</event>
<event>
 5   0  0.1630571E-08  0.3399569E+04  0.7818609E-02  0.8138012E-01
        1   -1    0    0  501    0  0.00000000000E+00  0.00000000000E+00  0.17645048044E+04  0.17645048044E+04  0.50400001928E-02 0. -1.
       -1   -1    0    0    0  501  0.00000000000E+00  0.00000000000E+00 -0.16374381347E+04  0.16374381347E+04  0.50400001928E-02 0.  1.
    10030    2    1    2    0    0  0.00000000000E+00  0.00000000000E+00  0.12706666970E+03  0.34019429392E+04  0.33995690643E+04 0.  0.
        3    1    3    3  502    0 -0.13965337914E+04  0.60068617859E+03 -0.69735077109E+03  0.16725515310E+04  0.10100000352E+00 0.  1.
       -3    1    3    3    0  502  0.13965337914E+04 -0.60068617859E+03  0.82441744080E+03  0.17293914082E+04  0.10100000352E+00 0. -1.
</event>
<event>
 5   0  0.4946315E-08  0.3400577E+04  0.7818609E-02  0.8137765E-01
       -2   -1    0    0    0  501  0.00000000000E+00  0.00000000000E+00  0.12545975124E+04  0.12545975124E+04  0.25500000920E-02 0.  1.
        2   -1    0    0  501    0  0.00000000000E+00  0.00000000000E+00 -0.23043094062E+04  0.23043094062E+04  0.25500000920E-02 0. -1.
    10030    2    1    2    0    0  0.00000000000E+00  0.00000000000E+00 -0.10497118938E+04  0.35589069186E+04  0.34005769209E+04 0.  0.
        3    1    3    3  502    0  0.44046068461E+03  0.50424121153E+03  0.11108322397E+04  0.12970015764E+04  0.10100000352E+00 0.  1.
       -3    1    3    3    0  502 -0.44046068461E+03 -0.50424121153E+03 -0.21605441335E+04  0.22619053422E+04  0.10100000352E+00 0. -1.
</event>
<event>
 5   0  0.4973409E-08  0.3399676E+04  0.7818609E-02  0.8137986E-01
       -2   -1    0    0    0  501  0.00000000000E+00  0.00000000000E+00  0.15453347766E+04  0.15453347766E+04  0.25500000920E-02 0. -1.
        2   -1    0    0  501    0  0.00000000000E+00  0.00000000000E+00 -0.18697883514E+04  0.18697883514E+04  0.25500000920E-02 0.  1.
    10030    2    1    2    0    0  0.00000000000E+00  0.00000000000E+00 -0.32445357478E+03  0.34151231280E+04  0.33996758459E+04 0.  0.
        1    1    3    3  502    0 -0.29480348880E+03  0.15154118546E+04 -0.87684284501E+03  0.17754536211E+04  0.50400001928E-02 0.  1.
       -1    1    3    3    0  502  0.29480348880E+03 -0.15154118546E+04  0.55238927023E+03  0.16396695069E+04  0.50400001928E-02 0. -1.
</event>
<event>
 5   0  0.1595851E-08  0.3399005E+04  0.7818609E-02  0.8138151E-01
       -1   -1    0    0    0  501  0.00000000000E+00  0.00000000000E+00  0.20452827005E+04  0.20452827005E+04  0.50400001928E-02 0.  1.
        1   -1    0    0  501    0  0.00000000000E+00  0.00000000000E+00 -0.14121803956E+04  0.14121803957E+04  0.50400001928E-02 0. -1.
    10030    2    1    2    0    0  0.00000000000E+00  0.00000000000E+00  0.63310230484E+03  0.34574630961E+04  0.33990046385E+04 0.  0.
        2    1    3    3  502    0  0.13805640094E+03  0.10605946306E+02  0.20395356473E+04  0.20442303472E+04  0.25500000920E-02 0.  1.
       -2    1    3    3    0  502 -0.13805640094E+03 -0.10605946306E+02 -0.14064333424E+04  0.14132327489E+04  0.25500000920E-02 0. -1.
</event>
<event>
 5   0  0.4775023E-08  0.3405952E+04  0.7818609E-02  0.8136447E-01
       -2   -1    0    0    0  501  0.00000000000E+00  0.00000000000E+00  0.10768786926E+04  0.10768786926E+04  0.25500000920E-02 0. -1.
        2   -1    0    0  501    0  0.00000000000E+00  0.00000000000E+00 -0.26930855976E+04  0.26930855976E+04  0.25500000920E-02 0.  1.
    10030    2    1    2    0    0  0.00000000000E+00  0.00000000000E+00 -0.16162069050E+04  0.37699642903E+04  0.34059515543E+04 0.  0.
        4    1    3    3  502    0 -0.77961305569E+03  0.95409958019E+03  0.49313325129E+03  0.13271339578E+04  0.12699999809E+01 0. -1.
       -4    1    3    3    0  502  0.77961305569E+03 -0.95409958019E+03 -0.21093401563E+04  0.24428303325E+04  0.12699999809E+01 0.  1.
</event>
<event>
 5   0  0.4764953E-08  0.3403771E+04  0.7818609E-02  0.8136981E-01
        2   -1    0    0  501    0  0.00000000000E+00  0.00000000000E+00  0.12401707710E+04  0.12401707710E+04  0.25500000920E-02 0. -1.
       -2   -1    0    0    0  501  0.00000000000E+00  0.00000000000E+00 -0.23354966829E+04  0.23354966829E+04  0.25500000920E-02 0.  1.
    10030    2    1    2    0    0  0.00000000000E+00  0.00000000000E+00 -0.10953259120E+04  0.35756674539E+04  0.34037712743E+04 0.  0.
        2    1    3    3  502    0  0.63773666484E+03 -0.15257140007E+04 -0.97035571925E+03  0.19173162200E+04  0.25500000920E-02 0.  1.
       -2    1    3    3    0  502 -0.63773666484E+03  0.15257140007E+04 -0.12497019270E+03  0.16583512339E+04  0.25500000920E-02 0. -1.
</event>
<event>
 5   0  0.1630571E-08  0.3399856E+04  0.7818609E-02  0.8137942E-01
       -1   -1    0    0    0  501  0.00000000000E+00  0.00000000000E+00  0.24539401543E+04  0.24539401543E+04  0.50400001928E-02 0. -1.
        1   -1    0    0  501    0  0.00000000000E+00  0.00000000000E+00 -0.11775980500E+04  0.11775980500E+04  0.50400001928E-02 0.  1.
    10030    2    1    2    0    0  0.00000000000E+00  0.00000000000E+00  0.12763421043E+04  0.36315382043E+04  0.33998559620E+04 0.  0.
        3    1    3    3  502    0 -0.80759815964E+03  0.15962568558E+03  0.22268222293E+04  0.23741171829E+04  0.10100000352E+00 0. -1.
       -3    1    3    3    0  502  0.80759815964E+03 -0.15962568558E+03 -0.95048012502E+03  0.12574210215E+04  0.10100000352E+00 0.  1.
</event>
<event>
 5   0  0.1645631E-08  0.3399718E+04  0.7818609E-02  0.8137976E-01
        1   -1    0    0  501    0  0.00000000000E+00  0.00000000000E+00  0.12141152711E+04  0.12141152711E+04  0.50400001928E-02 0. -1.
       -1   -1    0    0    0  501  0.00000000000E+00  0.00000000000E+00 -0.23799393640E+04  0.23799393640E+04  0.50400001928E-02 0.  1.
    10030    2    1    2    0    0  0.00000000000E+00  0.00000000000E+00 -0.11658240929E+04  0.35940546351E+04  0.33997180625E+04 0.  0.
        4    1    3    3  502    0  0.53036374639E+03  0.11130286343E+04 -0.18200184074E+04  0.21983145954E+04  0.12699999809E+01 0.  1.
       -4    1    3    3    0  502 -0.53036374639E+03 -0.11130286343E+04  0.65419431453E+03  0.13957400396E+04  0.12699999809E+01 0. -1.
</event>
<event>
 5   0  0.1579536E-08  0.3394499E+04  0.7818609E-02  0.8139258E-01
       -1   -1    0    0    0  501  0.00000000000E+00  0.00000000000E+00  0.26892701896E+04  0.26892701896E+04  0.50400001928E-02 0.  1.
        1   -1    0    0  501    0  0.00000000000E+00  0.00000000000E+00 -0.10711661961E+04  0.10711661962E+04  0.50400001928E-02 0. -1.
    10030    2    1    2    0    0  0.00000000000E+00  0.00000000000E+00  0.16181039934E+04  0.37604363857E+04  0.33944986784E+04 0.  0.
        5    1    3    3  502    0  0.13633215795E+04 -0.78566830439E+03  0.10430038002E+03  0.15769657805E+04  0.46999998093E+01 0. -1.
       -5    1    3    3    0  502 -0.13633215795E+04  0.78566830439E+03  0.15138036134E+04  0.21834706052E+04  0.46999998093E+01 0.  1.
</event>
<event>
 5   0  0.1645631E-08  0.3400979E+04  0.7818609E-02  0.8137666E-01
       -1   -1    0    0    0  501  0.00000000000E+00  0.00000000000E+00  0.14067006572E+04  0.14067006572E+04  0.50400001928E-02 0. -1.
        1   -1    0    0  501    0  0.00000000000E+00  0.00000000000E+00 -0.20556363057E+04  0.20556363057E+04  0.50400001928E-02 0.  1.
    10030    2    1    2    0    0  0.00000000000E+00  0.00000000000E+00 -0.64893564846E+03  0.34623369629E+04  0.34009792368E+04 0.  0.
        4    1    3    3  502    0  0.15880691669E+04  0.27142440889E+02 -0.94284965952E+03  0.18470699727E+04  0.12699999809E+01 0.  1.
       -4    1    3    3    0  502 -0.15880691669E+04 -0.27142440889E+02  0.29391401107E+03  0.16152669902E+04  0.12699999809E+01 0. -1.
</event>
<event>
 5   0  0.1625282E-08  0.3400624E+04  0.7818609E-02  0.8137753E-01
        1   -1    0    0  501    0  0.00000000000E+00  0.00000000000E+00  0.23276643181E+04  0.23276643181E+04  0.50400001928E-02 0. -1.
       -1   -1    0    0    0  501  0.00000000000E+00  0.00000000000E+00 -0.12420438336E+04  0.12420438336E+04  0.50400001928E-02 0.  1.
    10030    2    1    2    0    0  0.00000000000E+00  0.00000000000E+00  0.10856204845E+04  0.35697081517E+04  0.34006241269E+04 0.  0.
        1    1    3    3  502    0  0.15383193126E+04 -0.69589414161E+03  0.75371323384E+03  0.18489939434E+04  0.50400001928E-02 0.  1.
       -1    1    3    3    0  502 -0.15383193126E+04  0.69589414161E+03  0.33190725067E+03  0.17207142084E+04  0.50400001928E-02 0. -1.
</event>
<event>
 5   0  0.5001197E-08  0.3400118E+04  0.7818609E-02  0.8137877E-01
        2   -1    0    0  501    0  0.00000000000E+00  0.00000000000E+00  0.19145887461E+04  0.19145887461E+04  0.25500000920E-02 0. -1.
       -2   -1    0    0    0  501  0.00000000000E+00  0.00000000000E+00 -0.15095672011E+04  0.15095672011E+04  0.25500000920E-02 0.  1.
    10030    2    1    2    0    0  0.00000000000E+00  0.00000000000E+00  0.40502154501E+03  0.34241559472E+04  0.34001178654E+04 0.  0.
        5    1    3    3  502    0 -0.47176759847E+03 -0.14159411120E+04 -0.61732344186E+03  0.16151050187E+04  0.46999998093E+01 0.  1.
       -5    1    3    3    0  502  0.47176759847E+03  0.14159411120E+04  0.10223449869E+04  0.18090509285E+04  0.46999998093E+01 0. -1.
</event>
<event>
 5   0  0.1645631E-08  0.3400386E+04  0.7818609E-02  0.8137811E-01
        1   -1    0    0  501    0  0.00000000000E+00  0.00000000000E+00  0.24295041218E+04  0.24295041218E+04  0.50400001928E-02 0. -1.
       -1   -1    0    0    0  501  0.00000000000E+00  0.00000000000E+00 -0.11898135507E+04  0.11898135507E+04  0.50400001928E-02 0.  1.
    10030    2    1    2    0    0  0.00000000000E+00  0.00000000000E+00  0.12396905712E+04  0.36193176725E+04  0.34003864049E+04 0.  0.
        4    1    3    3  502    0  0.14132828564E+04 -0.35044677256E+03 -0.31443548286E+03  0.14896485017E+04  0.12699999809E+01 0.  1.
       -4    1    3    3    0  502 -0.14132828564E+04  0.35044677256E+03  0.15541260540E+04  0.21296691709E+04  0.12699999809E+01 0. -1.
</event>
<event>
 5   0  0.5001197E-08  0.3401545E+04  0.7818609E-02  0.8137527E-01
        2   -1    0    0  501    0  0.00000000000E+00  0.00000000000E+00  0.21751379295E+04  0.21751379295E+04  0.25500000920E-02 0. -1.
       -2   -1    0    0    0  501  0.00000000000E+00  0.00000000000E+00 -0.13298594081E+04  0.13298594081E+04  0.25500000920E-02 0.  1.
    10030    2    1    2    0    0  0.00000000000E+00  0.00000000000E+00  0.84527852139E+03  0.35049973376E+04  0.34015453191E+04 0.  0.
        5    1    3    3  502    0 -0.81907795992E+03 -0.42734243505E+03  0.18940373627E+04  0.21073466451E+04  0.46999998093E+01 0. -1.
       -5    1    3    3    0  502  0.81907795992E+03  0.42734243505E+03 -0.10487588413E+04  0.13976506926E+04  0.46999998093E+01 0.  1.
</event>
<event>
 5   0  0.4946315E-08  0.3398634E+04  0.7818609E-02  0.8138242E-01
        2   -1    0    0  501    0  0.00000000000E+00  0.00000000000E+00  0.14422668851E+04  0.14422668851E+04  0.25500000920E-02 0. -1.
       -2   -1    0    0    0  501  0.00000000000E+00  0.00000000000E+00 -0.20021803770E+04  0.20021803770E+04  0.25500000920E-02 0.  1.
    10030    2    1    2    0    0  0.00000000000E+00  0.00000000000E+00 -0.55991349192E+03  0.34444472622E+04  0.33986341114E+04 0.  0.
        3    1    3    3  502    0 -0.12303228590E+04  0.12588120035E+03  0.90114437869E+03  0.15302292689E+04  0.10100000352E+00 0. -1.
       -3    1    3    3    0  502  0.12303228590E+04 -0.12588120035E+03 -0.14610578706E+04  0.19142179932E+04  0.10100000352E+00 0.  1.
</event>
<event>
 5   0  0.4946315E-08  0.3400148E+04  0.7818609E-02  0.8137870E-01
       -2   -1    0    0    0  501  0.00000000000E+00  0.00000000000E+00  0.24559770554E+04  0.24559770554E+04  0.25500000920E-02 0. -1.
        2   -1    0    0  501    0  0.00000000000E+00  0.00000000000E+00 -0.11768236046E+04  0.11768236046E+04  0.25500000920E-02 0.  1.
    10030    2    1    2    0    0  0.00000000000E+00  0.00000000000E+00  0.12791534508E+04  0.36328006600E+04  0.34001480974E+04 0.  0.
        3    1    3    3  502    0  0.10385505921E+04 -0.34565125393E+03 -0.75027429402E+03  0.13270168229E+04  0.10100000352E+00 0.  1.
       -3    1    3    3    0  502 -0.10385505921E+04  0.34565125393E+03  0.20294277448E+04  0.23057838371E+04  0.10100000352E+00 0. -1.
</event>
<event>
 5   0  0.1579536E-08  0.3402283E+04  0.7818609E-02  0.8137346E-01
        1   -1    0    0  501    0  0.00000000000E+00  0.00000000000E+00  0.21298204013E+04  0.21298204013E+04  0.50400001928E-02 0. -1.
       -1   -1    0    0    0  501  0.00000000000E+00  0.00000000000E+00 -0.13587451895E+04  0.13587451895E+04  0.50400001928E-02 0.  1.
    10030    2    1    2    0    0  0.00000000000E+00  0.00000000000E+00  0.77107521179E+03  0.34885655908E+04  0.34022834831E+04 0.  0.
        5    1    3    3  502    0  0.61669965716E+03  0.10153451269E+04  0.16340442997E+04  0.20202393564E+04  0.46999998093E+01 0. -1.
       -5    1    3    3    0  502 -0.61669965716E+03 -0.10153451269E+04 -0.86296908792E+03  0.14683262344E+04  0.46999998093E+01 0.  1.
</event>
<event>
 5   0  0.5001197E-08  0.3402050E+04  0.7818609E-02  0.8137403E-01
        2   -1    0    0  501    0  0.00000000000E+00  0.00000000000E+00  0.23044981009E+04  0.23044981009E+04  0.25500000920E-02 0.  1.
       -2   -1    0    0    0  501  0.00000000000E+00  0.00000000000E+00 -0.12555818092E+04  0.12555818092E+04  0.25500000920E-02 0. -1.
    10030    2    1    2    0    0  0.00000000000E+00  0.00000000000E+00  0.10489162917E+04  0.35600799101E+04  0.34020499084E+04 0.  0.
        5    1    3    3  502    0 -0.13725224970E+04 -0.79992546858E+03  0.11607875507E+04  0.19675234657E+04  0.46999998093E+01 0.  1.
       -5    1    3    3    0  502  0.13725224970E+04  0.79992546858E+03 -0.11187125905E+03  0.15925564444E+04  0.46999998093E+01 0. -1.
</event>
<event>
 5   0  0.4946315E-08  0.3397581E+04  0.7818609E-02  0.8138500E-01
        2   -1    0    0  501    0  0.00000000000E+00  0.00000000000E+00  0.19501221175E+04  0.19501221175E+04  0.25500000920E-02 0. -1.
       -2   -1    0    0    0  501  0.00000000000E+00  0.00000000000E+00 -0.14798509006E+04  0.14798509006E+04  0.25500000920E-02 0.  1.
    10030    2    1    2    0    0  0.00000000000E+00  0.00000000000E+00  0.47027121693E+03  0.34299730181E+04  0.33975814762E+04 0.  0.
        3    1    3    3  502    0  0.14633436688E+03  0.28948224657E+03 -0.14482981685E+04  0.14841769818E+04  0.10100000352E+00 0.  1.
       -3    1    3    3    0  502 -0.14633436688E+03 -0.28948224657E+03  0.19185693855E+04  0.19457960363E+04  0.10100000352E+00 0. -1.
</event>
<event>
 5   0  0.1630571E-08  0.3399082E+04  0.7818609E-02  0.8138132E-01
        1   -1    0    0  501    0  0.00000000000E+00  0.00000000000E+00  0.95733997066E+03  0.95733997067E+03  0.50400001928E-02 0. -1.
       -1   -1    0    0    0  501  0.00000000000E+00  0.00000000000E+00 -0.30171517323E+04  0.30171517323E+04  0.50400001928E-02 0.  1.
    10030    2    1    2    0    0  0.00000000000E+00  0.00000000000E+00 -0.20598117617E+04  0.39744917030E+04  0.33990822002E+04 0.  0.
        3    1    3    3  502    0 -0.77749801863E+03 -0.48580152386E+03 -0.27032215142E+04  0.28544549137E+04  0.10100000352E+00 0.  1.
       -3    1    3    3    0  502  0.77749801863E+03  0.48580152386E+03  0.64340975250E+03  0.11200367893E+04  0.10100000352E+00 0. -1.
</event>
<event>
 5   0  0.1630571E-08  0.3397826E+04  0.7818609E-02  0.8138440E-01
       -1   -1    0    0    0  501  0.00000000000E+00  0.00000000000E+00  0.19551079754E+04  0.19551079754E+04  0.50400001928E-02 0. -1.
        1   -1    0    0  501    0  0.00000000000E+00  0.00000000000E+00 -0.14762899310E+04  0.14762899310E+04  0.50400001928E-02 0.  1.
    10030    2    1    2    0    0  0.00000000000E+00  0.00000000000E+00  0.47881804446E+03  0.34313979064E+04  0.33978264924E+04 0.  0.
        3    1    3    3  502    0 -0.79688947570E+03  0.14724603811E+04  0.53058711243E+03  0.17563300101E+04  0.10100000352E+00 0.  1.
       -3    1    3    3    0  502  0.79688947570E+03 -0.14724603811E+04 -0.51769067975E+02  0.16750678962E+04  0.10100000352E+00 0. -1.
</event>
<event>
 5   0  0.1645631E-08  0.3401649E+04  0.7818609E-02  0.8137502E-01
       -1   -1    0    0    0  501  0.00000000000E+00  0.00000000000E+00  0.15591305367E+04  0.15591305367E+04  0.50400001928E-02 0.  1.
        1   -1    0    0  501    0  0.00000000000E+00  0.00000000000E+00 -0.18553961065E+04  0.18553961065E+04  0.50400001928E-02 0. -1.
    10030    2    1    2    0    0  0.00000000000E+00  0.00000000000E+00 -0.29626556978E+03  0.34145266432E+04  0.34016494395E+04 0.  0.
        4    1    3    3  502    0 -0.60671252360E+03  0.13187667543E+04  0.74153912503E+03  0.16300698529E+04  0.12699999809E+01 0. -1.
       -4    1    3    3    0  502  0.60671252360E+03 -0.13187667543E+04 -0.10378046948E+04  0.17844567902E+04  0.12699999809E+01 0.  1.
</event>
<event>
 5   0  0.4973409E-08  0.3400089E+04  0.7818609E-02  0.8137884E-01
        2   -1    0    0  501    0  0.00000000000E+00  0.00000000000E+00  0.18768636067E+04  0.18768636067E+04  0.25500000920E-02 0. -1.
       -2   -1    0    0    0  501  0.00000000000E+00  0.00000000000E+00 -0.15398838948E+04  0.15398838948E+04  0.25500000920E-02 0.  1.
    10030    2    1    2    0    0  0.00000000000E+00  0.00000000000E+00  0.33697971190E+03  0.34167475015E+04  0.34000894345E+04 0.  0.
        1    1    3    3  502    0  0.33505289394E+03  0.10580416777E+04  0.14626033008E+04  0.18360068216E+04  0.50400001928E-02 0. -1.
       -1    1    3    3    0  502 -0.33505289394E+03 -0.10580416777E+04 -0.11256235888E+04  0.15807406799E+04  0.50400001928E-02 0.  1.
</event>
<event>
 5   0  0.5001197E-08  0.3399095E+04  0.7818609E-02  0.8138128E-01
       -2   -1    0    0    0  501  0.00000000000E+00  0.00000000000E+00  0.10821519642E+04  0.10821519642E+04  0.25500000920E-02 0.  1.
        2   -1    0    0  501    0  0.00000000000E+00  0.00000000000E+00 -0.26691834011E+04  0.26691834011E+04  0.25500000920E-02 0. -1.
    10030    2    1    2    0    0  0.00000000000E+00  0.00000000000E+00 -0.15870314369E+04  0.37513353653E+04  0.33990952092E+04 0.  0.
        5    1    3    3  502    0  0.27888958744E+03 -0.14486536840E+04  0.13776753570E+03  0.14816811000E+04  0.46999998093E+01 0.  1.
       -5    1    3    3    0  502 -0.27888958744E+03  0.14486536840E+04 -0.17247989726E+04  0.22696542653E+04  0.46999998093E+01 0. -1.
</event>
<event>
 5   0  0.4764953E-08  0.3400859E+04  0.7818609E-02  0.8137696E-01
        2   -1    0    0  501    0  0.00000000000E+00  0.00000000000E+00  0.18564541855E+04  0.18564541855E+04  0.25500000920E-02 0. -1.
       -2   -1    0    0    0  501  0.00000000000E+00  0.00000000000E+00 -0.15575177677E+04  0.15575177677E+04  0.25500000920E-02 0.  1.
    10030    2    1    2    0    0  0.00000000000E+00  0.00000000000E+00  0.29893641779E+03  0.34139719532E+04  0.34008589379E+04 0.  0.
        2    1    3    3  502    0 -0.11340228624E+04  0.12670631677E+04  0.14760213421E+03  0.17068225782E+04  0.25500000920E-02 0.  1.
       -2    1    3    3    0  502  0.11340228624E+04 -0.12670631677E+04  0.15133428358E+03  0.17071493750E+04  0.25500000920E-02 0. -1.
</event>
<event>
 5   0  0.4946315E-08  0.3399258E+04  0.7818609E-02  0.8138089E-01
       -2   -1    0    0    0  501  0.00000000000E+00  0.00000000000E+00  0.17850971534E+04  0.17850971534E+04  0.25500000920E-02 0.  1.
        2   -1    0    0  501    0  0.00000000000E+00  0.00000000000E+00 -0.16182525610E+04  0.16182525610E+04  0.25500000920E-02 0. -1.
    10030    2    1    2    0    0  0.00000000000E+00  0.00000000000E+00  0.16684459235E+03  0.34033497144E+04  0.33992575896E+04 0.  0.
        3    1    3    3  502    0 -0.17624352026E+03  0.69185021739E+03  0.16276861471E+04  0.17773802928E+04  0.10100000352E+00 0.  1.
       -3    1    3    3    0  502  0.17624352026E+03 -0.69185021739E+03 -0.14608415547E+04  0.16259694216E+04  0.10100000352E+00 0. -1.
</event>
<event>
 5   0  0.1595851E-08  0.3394194E+04  0.7818609E-02  0.8139333E-01
       -1   -1    0    0    0  501  0.00000000000E+00  0.00000000000E+00  0.15353027749E+04  0.15353027749E+04  0.50400001928E-02 0. -1.
        1   -1    0    0  501    0  0.00000000000E+00  0.00000000000E+00 -0.18759411777E+04  0.18759411777E+04  0.50400001928E-02 0.  1.
    10030    2    1    2    0    0  0.00000000000E+00  0.00000000000E+00 -0.34063840278E+03  0.34112439527E+04  0.33941936867E+04 0.  0.
        2    1    3    3  502    0  0.16953558724E+04 -0.76851386137E+02 -0.17015712934E+03  0.17056057922E+04  0.25500000920E-02 0. -1.
       -2    1    3    3    0  502 -0.16953558724E+04  0.76851386137E+02 -0.17048127344E+03  0.17056381604E+04  0.25500000920E-02 0.  1.
</event>
<event>
 5   0  0.1625282E-08  0.3401289E+04  0.7818609E-02  0.8137590E-01
       -1   -1    0    0    0  501  0.00000000000E+00  0.00000000000E+00  0.21052639227E+04  0.21052639227E+04  0.50400001928E-02 0. -1.
        1   -1    0    0  501    0  0.00000000000E+00  0.00000000000E+00 -0.13737909553E+04  0.13737909553E+04  0.50400001928E-02 0.  1.
    10030    2    1    2    0    0  0.00000000000E+00  0.00000000000E+00  0.73147296742E+03  0.34790548780E+04  0.34012894823E+04 0.  0.
        1    1    3    3  502    0 -0.10373236511E+04  0.29830007936E+03 -0.97852925744E+03  0.14568949181E+04  0.50400001928E-02 0.  1.
       -1    1    3    3    0  502  0.10373236511E+04 -0.29830007936E+03  0.17100022249E+04  0.20221599599E+04  0.50400001928E-02 0. -1.
</event>
<event>
 5   0  0.4946315E-08  0.3401481E+04  0.7818609E-02  0.8137543E-01
       -2   -1    0    0    0  501  0.00000000000E+00  0.00000000000E+00  0.10337763855E+04  0.10337763855E+04  0.25500000920E-02 0. -1.
        2   -1    0    0  501    0  0.00000000000E+00  0.00000000000E+00 -0.27980109222E+04  0.27980109222E+04  0.25500000920E-02 0.  1.
    10030    2    1    2    0    0  0.00000000000E+00  0.00000000000E+00 -0.17642345368E+04  0.38317873077E+04  0.34014806292E+04 0.  0.
        3    1    3    3  502    0 -0.19373819304E+03 -0.12363540404E+04 -0.21795133502E+04  0.25132417819E+04  0.10100000352E+00 0.  1.
       -3    1    3    3    0  502  0.19373819304E+03  0.12363540404E+04  0.41527881340E+03  0.13185455258E+04  0.10100000352E+00 0. -1.
</event>
<event>
 5   0  0.5001197E-08  0.3396792E+04  0.7818609E-02  0.8138694E-01
        2   -1    0    0  501    0  0.00000000000E+00  0.00000000000E+00  0.16184712618E+04  0.16184712618E+04  0.25500000920E-02 0. -1.
       -2   -1    0    0    0  501  0.00000000000E+00  0.00000000000E+00 -0.17822675845E+04  0.17822675845E+04  0.25500000920E-02 0.  1.
    10030    2    1    2    0    0  0.00000000000E+00  0.00000000000E+00 -0.16379632278E+03  0.34007388463E+04  0.33967919373E+04 0.  0.
        5    1    3    3  502    0  0.12240860994E+04  0.10839245998E+04 -0.54204885807E+03  0.17225325458E+04  0.46999998093E+01 0.  1.
       -5    1    3    3    0  502 -0.12240860994E+04 -0.10839245998E+04  0.37825253529E+03  0.16782063005E+04  0.46999998093E+01 0. -1.
</event>
<event>
 5   0  0.1630571E-08  0.3399736E+04  0.7818609E-02  0.8137971E-01
       -1   -1    0    0    0  501  0.00000000000E+00  0.00000000000E+00  0.14927924851E+04  0.14927924851E+04  0.50400001928E-02 0.  1.
        1   -1    0    0  501    0  0.00000000000E+00  0.00000000000E+00 -0.19356684608E+04  0.19356684608E+04  0.50400001928E-02 0. -1.
    10030    2    1    2    0    0  0.00000000000E+00  0.00000000000E+00 -0.44287597562E+03  0.34284609459E+04  0.33997360674E+04 0.  0.
        3    1    3    3  502    0  0.11864227567E+03 -0.76771919041E+03 -0.17461926183E+04  0.19111926683E+04  0.10100000352E+00 0. -1.
       -3    1    3    3    0  502 -0.11864227567E+03  0.76771919041E+03  0.13033166427E+04  0.15172682776E+04  0.10100000352E+00 0.  1.
</event>
<event>
 5   0  0.1645631E-08  0.3402595E+04  0.7818609E-02  0.8137270E-01
        1   -1    0    0  501    0  0.00000000000E+00  0.00000000000E+00  0.17743416923E+04  0.17743416923E+04  0.50400001928E-02 0.  1.
       -1   -1    0    0    0  501  0.00000000000E+00  0.00000000000E+00 -0.16312602622E+04  0.16312602622E+04  0.50400001928E-02 0. -1.
    10030    2    1    2    0    0  0.00000000000E+00  0.00000000000E+00  0.14308143013E+03  0.34056019545E+04  0.34025949475E+04 0.  0.
        4    1    3    3  502    0 -0.61701591649E+03 -0.53921440024E+03  0.15638146258E+04  0.17654967028E+04  0.12699999809E+01 0.  1.
       -4    1    3    3    0  502  0.61701591649E+03  0.53921440024E+03 -0.14207331957E+04  0.16401052518E+04  0.12699999809E+01 0. -1.
</event>
<event>
 5   0  0.1595851E-08  0.3395973E+04  0.7818609E-02  0.8138895E-01
        1   -1    0    0  501    0  0.00000000000E+00  0.00000000000E+00  0.22278656444E+04  0.22278656444E+04  0.50400001928E-02 0. -1.
       -1   -1    0    0    0  501  0.00000000000E+00  0.00000000000E+00 -0.12941345661E+04  0.12941345661E+04  0.50400001928E-02 0.  1.
    10030    2    1    2    0    0  0.00000000000E+00  0.00000000000E+00  0.93373107826E+03  0.35220002105E+04  0.33959728733E+04 0.  0.
        2    1    3    3  502    0  0.37465690225E+03  0.15987386698E+04  0.18592685017E+02  0.16421567576E+04  0.25500000920E-02 0.  1.
       -2    1    3    3    0  502 -0.37465690225E+03 -0.15987386698E+04  0.91513839324E+03  0.18798434529E+04  0.25500000920E-02 0. -1.
</event>
<event>
 5   0  0.4775023E-08  0.3399875E+04  0.7818609E-02  0.8137937E-01
        2   -1    0    0  501    0  0.00000000000E+00  0.00000000000E+00  0.20025962692E+04  0.20025962692E+04  0.25500000920E-02 0.  1.
       -2   -1    0    0    0  501  0.00000000000E+00  0.00000000000E+00 -0.14430208203E+04  0.14430208203E+04  0.25500000920E-02 0. -1.
    10030    2    1    2    0    0  0.00000000000E+00  0.00000000000E+00  0.55957544891E+03  0.34456170896E+04  0.33998753573E+04 0.  0.
        4    1    3    3  502    0  0.31135156329E+03 -0.11225892075E+03 -0.14100520301E+04  0.14483750211E+04  0.12699999809E+01 0. -1.
       -4    1    3    3    0  502 -0.31135156329E+03  0.11225892075E+03  0.19696274790E+04  0.19972420685E+04  0.12699999809E+01 0.  1.
</event>
<event>
 5   0  0.1579536E-08  0.3400388E+04  0.7818609E-02  0.8137811E-01
        1   -1    0    0  501    0  0.00000000000E+00  0.00000000000E+00  0.21406702915E+04  0.21406702916E+04  0.50400001928E-02 0.  1.
       -1   -1    0    0    0  501  0.00000000000E+00  0.00000000000E+00 -0.13503527559E+04  0.13503527559E+04  0.50400001928E-02 0. -1.
    10030    2    1    2    0    0  0.00000000000E+00  0.00000000000E+00  0.79031753565E+03  0.34910230475E+04  0.34003882294E+04 0.  0.
        5    1    3    3  502    0  0.11971206660E+04  0.12046580709E+04  0.31341889964E+03  0.17270067902E+04  0.46999998093E+01 0. -1.
       -5    1    3    3    0  502 -0.11971206660E+04 -0.12046580709E+04  0.47689863601E+03  0.17640162572E+04  0.46999998093E+01 0.  1.
</event>
<event>
 5   0  0.5001197E-08  0.3389409E+04  0.7818609E-02  0.8140511E-01
        2   -1    0    0  501    0  0.00000000000E+00  0.00000000000E+00  0.22475585801E+04  0.22475585801E+04  0.25500000920E-02 0.  1.
       -2   -1    0    0    0  501  0.00000000000E+00  0.00000000000E+00 -0.12778413178E+04  0.12778413178E+04  0.25500000920E-02 0. -1.
    10030    2    1    2    0    0  0.00000000000E+00  0.00000000000E+00  0.96971726222E+03  0.35253998979E+04  0.33894089266E+04 0.  0.
        5    1    3    3  502    0  0.60043077606E+03  0.14092451506E+04 -0.26914907696E+03  0.15552981473E+04  0.46999998093E+01 0. -1.
       -5    1    3    3    0  502 -0.60043077606E+03 -0.14092451506E+04  0.12388663392E+04  0.19701017506E+04  0.46999998093E+01 0.  1.
</event>
<event>
 5   0  0.1595851E-08  0.3399236E+04  0.7818609E-02  0.8138094E-01
        1   -1    0    0  501    0  0.00000000000E+00  0.00000000000E+00  0.16170398430E+04  0.16170398430E+04  0.50400001928E-02 0. -1.
       -1   -1    0    0    0  501  0.00000000000E+00  0.00000000000E+00 -0.17864129762E+04  0.17864129762E+04  0.50400001928E-02 0.  1.
    10030    2    1    2    0    0  0.00000000000E+00  0.00000000000E+00 -0.16937313325E+03  0.34034528192E+04  0.33992357721E+04 0.  0.
        2    1    3    3  502    0  0.84625725182E+03 -0.62556051955E+03 -0.14209671978E+04  0.17682265345E+04  0.25500000920E-02 0.  1.
       -2    1    3    3    0  502 -0.84625725182E+03  0.62556051955E+03  0.12515940646E+04  0.16352262847E+04  0.25500000920E-02 0. -1.
</event>
<event>
 5   0  0.4973409E-08  0.3406205E+04  0.7818609E-02  0.8136385E-01
        2   -1    0    0  501    0  0.00000000000E+00  0.00000000000E+00  0.19896818878E+04  0.19896818878E+04  0.25500000920E-02 0.  1.
       -2   -1    0    0    0  501  0.00000000000E+00  0.00000000000E+00 -0.14578002803E+04  0.14578002803E+04  0.25500000920E-02 0. -1.
    10030    2    1    2    0    0  0.00000000000E+00  0.00000000000E+00  0.53188160748E+03  0.34474821681E+04  0.34062054041E+04 0.  0.
        1    1    3    3  502    0 -0.14136219440E+04  0.91852207888E+03  0.51084202470E+03  0.17615247327E+04  0.50400001928E-02 0. -1.
       -1    1    3    3    0  502  0.14136219440E+04 -0.91852207888E+03  0.21039582782E+02  0.16859574354E+04  0.50400001928E-02 0.  1.
</event>
<event>
 5   0  0.1579536E-08  0.3401249E+04  0.7818609E-02  0.8137600E-01
       -1   -1    0    0    0  501  0.00000000000E+00  0.00000000000E+00  0.14694420344E+04  0.14694420344E+04  0.50400001928E-02 0.  1.
        1   -1    0    0  501    0  0.00000000000E+00  0.00000000000E+00 -0.19681776899E+04  0.19681776899E+04  0.50400001928E-02 0. -1.
    10030    2    1    2    0    0  0.00000000000E+00  0.00000000000E+00 -0.49873565551E+03  0.34376197243E+04  0.34012486111E+04 0.  0.
        5    1    3    3  502    0  0.52302459820E+02 -0.45951964566E+03  0.14046551274E+04  0.14788414279E+04  0.46999998093E+01 0.  1.
       -5    1    3    3    0  502 -0.52302459820E+02  0.45951964566E+03 -0.19033907829E+04  0.19587782964E+04  0.46999998093E+01 0. -1.
</event>
<event>
 5   0  0.1595851E-08  0.3398746E+04  0.7818609E-02  0.8138214E-01
        1   -1    0    0  501    0  0.00000000000E+00  0.00000000000E+00  0.25877862316E+04  0.25877862316E+04  0.50400001928E-02 0.  1.
       -1   -1    0    0    0  501  0.00000000000E+00  0.00000000000E+00 -0.11159608553E+04  0.11159608553E+04  0.50400001928E-02 0. -1.
    10030    2    1    2    0    0  0.00000000000E+00  0.00000000000E+00  0.14718253763E+04  0.37037470869E+04  0.33987457313E+04 0.  0.
        2    1    3    3  502    0 -0.46898812477E+03 -0.14987890143E+04  0.14434462964E+04  0.21330390482E+04  0.25500000920E-02 0. -1.
       -2    1    3    3    0  502  0.46898812477E+03  0.14987890143E+04  0.28379079880E+02  0.15707080387E+04  0.25500000920E-02 0.  1.
</event>
<event>
 5   0  0.4764953E-08  0.3398045E+04  0.7818609E-02  0.8138386E-01
       -2   -1    0    0    0  501  0.00000000000E+00  0.00000000000E+00  0.13898636737E+04  0.13898636737E+04  0.25500000920E-02 0. -1.
        2   -1    0    0  501    0  0.00000000000E+00  0.00000000000E+00 -0.20769495848E+04  0.20769495848E+04  0.25500000920E-02 0.  1.
    10030    2    1    2    0    0  0.00000000000E+00  0.00000000000E+00 -0.68708591110E+03  0.34668132585E+04  0.33980446024E+04 0.  0.
        2    1    3    3  502    0 -0.62436226887E+03  0.12359518319E+04  0.66089732137E+03  0.15343371347E+04  0.25500000920E-02 0. -1.
       -2    1    3    3    0  502  0.62436226887E+03 -0.12359518319E+04 -0.13479832325E+04  0.19324761237E+04  0.25500000920E-02 0.  1.
</event>
<event>
 5   0  0.4764953E-08  0.3400590E+04  0.7818609E-02  0.8137761E-01
       -2   -1    0    0    0  501  0.00000000000E+00  0.00000000000E+00  0.15742948046E+04  0.15742948046E+04  0.25500000920E-02 0. -1.
        2   -1    0    0  501    0  0.00000000000E+00  0.00000000000E+00 -0.18363801661E+04  0.18363801661E+04  0.25500000920E-02 0.  1.
    10030    2    1    2    0    0  0.00000000000E+00  0.00000000000E+00 -0.26208536147E+03  0.34106749707E+04  0.34005903927E+04 0.  0.
        2    1    3    3  502    0  0.40299283572E+03 -0.30920667383E+02 -0.17874986242E+04  0.18326239780E+04  0.25500000920E-02 0.  1.
       -2    1    3    3    0  502 -0.40299283572E+03  0.30920667383E+02  0.15254132627E+04  0.15780509927E+04  0.25500000920E-02 0. -1.
</event>
<event>
 5   0  0.4775023E-08  0.3399879E+04  0.7818609E-02  0.8137936E-01
        2   -1    0    0  501    0  0.00000000000E+00  0.00000000000E+00  0.15930412840E+04  0.15930412840E+04  0.25500000920E-02 0. -1.
       -2   -1    0    0    0  501  0.00000000000E+00  0.00000000000E+00 -0.18140107456E+04  0.18140107456E+04  0.25500000920E-02 0.  1.
    10030    2    1    2    0    0  0.00000000000E+00  0.00000000000E+00 -0.22096946153E+03  0.34070520296E+04  0.33998788257E+04 0.  0.
        4    1    3    3  502    0 -0.16817549948E+04 -0.32550975928E+01  0.13799392828E+03  0.16874105593E+04  0.12699999809E+01 0. -1.
       -4    1    3    3    0  502  0.16817549948E+04  0.32550975928E+01 -0.35896338980E+03  0.17196414703E+04  0.12699999809E+01 0.  1.
</event>
<event>
 5   0  0.4764953E-08  0.3407584E+04  0.7818609E-02  0.8136048E-01
        2   -1    0    0  501    0  0.00000000000E+00  0.00000000000E+00  0.19152643006E+04  0.19152643006E+04  0.25500000920E-02 0. -1.
       -2   -1    0    0    0  501  0.00000000000E+00  0.00000000000E+00 -0.15156688117E+04  0.15156688117E+04  0.25500000920E-02 0.  1.
    10030    2    1    2    0    0  0.00000000000E+00  0.00000000000E+00  0.39959548890E+03  0.34309331124E+04  0.34075835231E+04 0.  0.
        2    1    3    3  502    0 -0.55297391840E+03 -0.14237414118E+04 -0.56041677488E+03  0.16269255434E+04  0.25500000920E-02 0.  1.
       -2    1    3    3    0  502  0.55297391840E+03  0.14237414118E+04  0.96001226378E+03  0.18040075689E+04  0.25500000920E-02 0. -1.
</event>
<event>
 5   0  0.4764953E-08  0.3399953E+04  0.7818609E-02  0.8137918E-01
        2   -1    0    0  501    0  0.00000000000E+00  0.00000000000E+00  0.21345290211E+04  0.21345290211E+04  0.25500000920E-02 0. -1.
       -2   -1    0    0    0  501  0.00000000000E+00  0.00000000000E+00 -0.13538910441E+04  0.13538910441E+04  0.25500000920E-02 0.  1.
    10030    2    1    2    0    0  0.00000000000E+00  0.00000000000E+00  0.78063797702E+03  0.34884200652E+04  0.33999527791E+04 0.  0.
        2    1    3    3  502    0 -0.56938920616E+03 -0.14976839295E+03  0.20265831292E+04  0.21103729100E+04  0.25500000920E-02 0. -1.
       -2    1    3    3    0  502  0.56938920616E+03  0.14976839295E+03 -0.12459451522E+04  0.13780471552E+04  0.25500000920E-02 0.  1.
</event>
<event>
 5   0  0.4946315E-08  0.3398996E+04  0.7818609E-02  0.8138153E-01
       -2   -1    0    0    0  501  0.00000000000E+00  0.00000000000E+00  0.10893573860E+04  0.10893573860E+04  0.25500000920E-02 0. -1.
        2   -1    0    0  501    0  0.00000000000E+00  0.00000000000E+00 -0.26513728723E+04  0.26513728723E+04  0.25500000920E-02 0.  1.
    10030    2    1    2    0    0  0.00000000000E+00  0.00000000000E+00 -0.15620154863E+04  0.37407302583E+04  0.33989955113E+04 0.  0.
        3    1    3    3  502    0 -0.16797907651E+04  0.21107915915E+03 -0.61761856994E+03  0.18021387666E+04  0.10100000352E+00 0.  1.
       -3    1    3    3    0  502  0.16797907651E+04 -0.21107915915E+03 -0.94439691637E+03  0.19385914917E+04  0.10100000352E+00 0. -1.
</event>
<event>
 5   0  0.1645631E-08  0.3400082E+04  0.7818609E-02  0.8137886E-01
        1   -1    0    0  501    0  0.00000000000E+00  0.00000000000E+00  0.18724354246E+04  0.18724354246E+04  0.50400001928E-02 0. -1.
       -1   -1    0    0    0  501  0.00000000000E+00  0.00000000000E+00 -0.15435189233E+04  0.15435189233E+04  0.50400001928E-02 0.  1.
    10030    2    1    2    0    0  0.00000000000E+00  0.00000000000E+00  0.32891650134E+03  0.34159543479E+04  0.34000820641E+04 0.  0.
        4    1    3    3  502    0  0.38352449506E+03 -0.10068905844E+04  0.14855943480E+04  0.18351871477E+04  0.12699999809E+01 0. -1.
       -4    1    3    3    0  502 -0.38352449506E+03  0.10068905844E+04 -0.11566778467E+04  0.15807672002E+04  0.12699999809E+01 0.  1.
</event>
<event>
 5   0  0.1625282E-08  0.3401233E+04  0.7818609E-02  0.8137604E-01
       -1   -1    0    0    0  501  0.00000000000E+00  0.00000000000E+00  0.14885164515E+04  0.14885164515E+04  0.50400001928E-02 0.  1.
        1   -1    0    0  501    0  0.00000000000E+00  0.00000000000E+00 -0.19429392735E+04  0.19429392735E+04  0.50400001928E-02 0. -1.
    10030    2    1    2    0    0  0.00000000000E+00  0.00000000000E+00 -0.45442282200E+03  0.34314557249E+04  0.34012333485E+04 0.  0.
        1    1    3    3  502    0  0.39732426258E+03  0.10250113160E+03  0.14378241814E+04  0.14952295570E+04  0.50400001928E-02 0.  1.
       -1    1    3    3    0  502 -0.39732426258E+03 -0.10250113160E+03 -0.18922470034E+04  0.19362261679E+04  0.50400001928E-02 0. -1.
</event>
<event>
 5   0  0.1630571E-08  0.3400301E+04  0.7818609E-02  0.8137832E-01
        1   -1    0    0  501    0  0.00000000000E+00  0.00000000000E+00  0.21602335545E+04  0.21602335545E+04  0.50400001928E-02 0.  1.
       -1   -1    0    0    0  501  0.00000000000E+00  0.00000000000E+00 -0.13380550954E+04  0.13380550954E+04  0.50400001928E-02 0. -1.
    10030    2    1    2    0    0  0.00000000000E+00  0.00000000000E+00  0.82217845915E+03  0.34982886499E+04  0.34003008778E+04 0.  0.
        3    1    3    3  502    0 -0.55548733404E+03  0.33949633683E+03 -0.12047396485E+04  0.13693872980E+04  0.10100000352E+00 0. -1.
       -3    1    3    3    0  502  0.55548733404E+03 -0.33949633683E+03  0.20269181076E+04  0.21289013519E+04  0.10100000352E+00 0.  1.
</event>
<event>
 5   0  0.1595851E-08  0.3399286E+04  0.7818609E-02  0.8138082E-01
       -1   -1    0    0    0  501  0.00000000000E+00  0.00000000000E+00  0.11163601462E+04  0.11163601462E+04  0.50400001928E-02 0. -1.
        1   -1    0    0  501    0  0.00000000000E+00  0.00000000000E+00 -0.25876834949E+04  0.25876834949E+04  0.50400001928E-02 0.  1.
    10030    2    1    2    0    0  0.00000000000E+00  0.00000000000E+00 -0.14713233487E+04  0.37040436411E+04  0.33992862337E+04 0.  0.
        2    1    3    3  502    0 -0.70668553707E+03  0.86466704854E+03  0.66051264677E+03  0.12974322756E+04  0.25500000920E-02 0. -1.
       -2    1    3    3    0  502  0.70668553707E+03 -0.86466704854E+03 -0.21318359955E+04  0.24066113656E+04  0.25500000920E-02 0.  1.
</event>
<event>
 5   0  0.1630571E-08  0.3400399E+04  0.7818609E-02  0.8137808E-01
       -1   -1    0    0    0  501  0.00000000000E+00  0.00000000000E+00  0.11555004832E+04  0.11555004832E+04  0.50400001928E-02 0. -1.
        1   -1    0    0  501    0  0.00000000000E+00  0.00000000000E+00 -0.25016680317E+04  0.25016680317E+04  0.50400001928E-02 0.  1.
    10030    2    1    2    0    0  0.00000000000E+00  0.00000000000E+00 -0.13461675485E+04  0.36571685150E+04  0.34003991646E+04 0.  0.
        3    1    3    3  502    0  0.10053793798E+04  0.10233985157E+04 -0.16544233023E+04  0.21898056290E+04  0.10100000352E+00 0.  1.
       -3    1    3    3    0  502 -0.10053793798E+04 -0.10233985157E+04  0.30825575382E+03  0.14673628860E+04  0.10100000352E+00 0. -1.
</event>
<event>
 5   0  0.4775023E-08  0.3399733E+04  0.7818609E-02  0.8137972E-01
       -2   -1    0    0    0  501  0.00000000000E+00  0.00000000000E+00  0.10781084001E+04  0.10781084001E+04  0.25500000920E-02 0.  1.
        2   -1    0    0  501    0  0.00000000000E+00  0.00000000000E+00 -0.26801998187E+04  0.26801998187E+04  0.25500000920E-02 0. -1.
    10030    2    1    2    0    0  0.00000000000E+00  0.00000000000E+00 -0.16020914186E+04  0.37583082188E+04  0.33997328945E+04 0.  0.
        4    1    3    3  502    0  0.31273200809E+03  0.13236631829E+04 -0.19282250291E+04  0.23596480472E+04  0.12699999809E+01 0. -1.
       -4    1    3    3    0  502 -0.31273200809E+03 -0.13236631829E+04  0.32613361054E+03  0.13986601716E+04  0.12699999809E+01 0.  1.
</event>
<event>
 5   0  0.4775023E-08  0.3399694E+04  0.7818609E-02  0.8137981E-01
       -2   -1    0    0    0  501  0.00000000000E+00  0.00000000000E+00  0.15435694168E+04  0.15435694168E+04  0.25500000920E-02 0. -1.
        2   -1    0    0  501    0  0.00000000000E+00  0.00000000000E+00 -0.18719470906E+04  0.18719470906E+04  0.25500000920E-02 0.  1.
    10030    2    1    2    0    0  0.00000000000E+00  0.00000000000E+00 -0.32837767387E+03  0.34155165074E+04  0.33996942679E+04 0.  0.
        4    1    3    3  502    0 -0.88994466405E+02 -0.38794145587E+03  0.14960942833E+04  0.15481338139E+04  0.12699999809E+01 0. -1.
       -4    1    3    3    0  502  0.88994466405E+02  0.38794145587E+03 -0.18244719572E+04  0.18673826935E+04  0.12699999809E+01 0.  1.
</event>
<event>
 5   0  0.4764953E-08  0.3400363E+04  0.7818609E-02  0.8137817E-01
        2   -1    0    0  501    0  0.00000000000E+00  0.00000000000E+00  0.18067404066E+04  0.18067404066E+04  0.25500000920E-02 0. -1.
       -2   -1    0    0    0  501  0.00000000000E+00  0.00000000000E+00 -0.15999071903E+04  0.15999071903E+04  0.25500000920E-02 0.  1.
    10030    2    1    2    0    0  0.00000000000E+00  0.00000000000E+00  0.20683321631E+03  0.34066475968E+04  0.34003629026E+04 0.  0.
        2    1    3    3  502    0 -0.59427796156E+03  0.14898775468E+04 -0.46128781298E+03  0.16690380003E+04  0.25500000920E-02 0.  1.
       -2    1    3    3    0  502  0.59427796156E+03 -0.14898775468E+04  0.66812102929E+03  0.17376095965E+04  0.25500000920E-02 0. -1.
</event>
<event>
 5   0  0.1573625E-08  0.3399305E+04  0.7818609E-02  0.8138077E-01
       -3   -1    0    0    0  501  0.00000000000E+00  0.00000000000E+00  0.96581475178E+03  0.96581475706E+03  0.10100000352E+00 0. -1.
        3   -1    0    0  501    0  0.00000000000E+00  0.00000000000E+00 -0.29910694113E+04  0.29910694131E+04  0.10100000352E+00 0.  1.
    10030    2    1    2    0    0  0.00000000000E+00  0.00000000000E+00 -0.20252546596E+04  0.39568841701E+04  0.33993052084E+04 0.  0.
        4    1    3    3  502    0 -0.56853705137E+03 -0.79526093827E+03  0.60580733121E+03  0.11500775948E+04  0.12699999809E+01 0. -1.
       -4    1    3    3    0  502  0.56853705137E+03  0.79526093827E+03 -0.26310619908E+04  0.28068065753E+04  0.12699999809E+01 0.  1.
</event>
<event>
 5   0  0.1645631E-08  0.3399341E+04  0.7818609E-02  0.8138068E-01
        1   -1    0    0  501    0  0.00000000000E+00  0.00000000000E+00  0.14505537408E+04  0.14505537408E+04  0.50400001928E-02 0. -1.
       -1   -1    0    0    0  501  0.00000000000E+00  0.00000000000E+00 -0.19915698322E+04  0.19915698322E+04  0.50400001928E-02 0.  1.
    10030    2    1    2    0    0  0.00000000000E+00  0.00000000000E+00 -0.54101609141E+03  0.34421235730E+04  0.33993405656E+04 0.  0.
        4    1    3    3  502    0 -0.12782539623E+04 -0.85410730242E+03  0.46349084694E+03  0.16056954426E+04  0.12699999809E+01 0. -1.
       -4    1    3    3    0  502  0.12782539623E+04  0.85410730242E+03 -0.10045069383E+04  0.18364281304E+04  0.12699999809E+01 0.  1.
</event>
<event>
 5   0  0.1630571E-08  0.3399679E+04  0.7818609E-02  0.8137985E-01
       -1   -1    0    0    0  501  0.00000000000E+00  0.00000000000E+00  0.24013146525E+04  0.24013146525E+04  0.50400001928E-02 0.  1.
        1   -1    0    0  501    0  0.00000000000E+00  0.00000000000E+00 -0.12032798814E+04  0.12032798814E+04  0.50400001928E-02 0. -1.
    10030    2    1    2    0    0  0.00000000000E+00  0.00000000000E+00  0.11980347712E+04  0.36045945339E+04  0.33996785791E+04 0.  0.
        3    1    3    3  502    0 -0.65901876570E+03 -0.13659498313E+04 -0.21493207481E+03  0.15317703751E+04  0.10100000352E+00 0. -1.
       -3    1    3    3    0  502  0.65901876570E+03  0.13659498313E+04  0.14129668460E+04  0.20728241588E+04  0.10100000352E+00 0.  1.
</event>
<event>
 5   0  0.1645631E-08  0.3414856E+04  0.7818609E-02  0.8134270E-01
       -1   -1    0    0    0  501  0.00000000000E+00  0.00000000000E+00  0.10980266497E+04  0.10980266498E+04  0.50400001928E-02 0. -1.
        1   -1    0    0  501    0  0.00000000000E+00  0.00000000000E+00 -0.26550445340E+04  0.26550445340E+04  0.50400001928E-02 0.  1.
    10030    2    1    2    0    0  0.00000000000E+00  0.00000000000E+00 -0.15570178843E+04  0.37530711838E+04  0.34148555780E+04 0.  0.
        4    1    3    3  502    0  0.79989791203E+03  0.97772749003E+03  0.48396523294E+03  0.13527792407E+04  0.12699999809E+01 0. -1.
       -4    1    3    3    0  502 -0.79989791203E+03 -0.97772749003E+03 -0.20409831172E+04  0.24002919431E+04  0.12699999809E+01 0.  1.
</event>
<event>
 5   0  0.1645631E-08  0.3377799E+04  0.7818609E-02  0.8143377E-01
       -1   -1    0    0    0  501  0.00000000000E+00  0.00000000000E+00  0.18679207035E+04  0.18679207035E+04  0.50400001928E-02 0.  1.
        1   -1    0    0  501    0  0.00000000000E+00  0.00000000000E+00 -0.15270352571E+04  0.15270352571E+04  0.50400001928E-02 0. -1.
    10030    2    1    2    0    0  0.00000000000E+00  0.00000000000E+00  0.34088544637E+03  0.33949559606E+04  0.33777985563E+04 0.  0.
        4    1    3    3  502    0 -0.81317502593E+03 -0.11855262201E+04  0.10613157672E+04  0.17869299964E+04  0.12699999809E+01 0.  1.
       -4    1    3    3    0  502  0.81317502593E+03  0.11855262201E+04 -0.72043032085E+03  0.16080259642E+04  0.12699999809E+01 0. -1.
</event>
<event>
 5   0  0.4973409E-08  0.3401458E+04  0.7818609E-02  0.8137548E-01
       -2   -1    0    0    0  501  0.00000000000E+00  0.00000000000E+00  0.19930337425E+04  0.19930337425E+04  0.25500000920E-02 0. -1.
        2   -1    0    0  501    0  0.00000000000E+00  0.00000000000E+00 -0.14512949376E+04  0.14512949376E+04  0.25500000920E-02 0.  1.
    10030    2    1    2    0    0  0.00000000000E+00  0.00000000000E+00  0.54173880486E+03  0.34443286801E+04  0.34014583819E+04 0.  0.
        1    1    3    3  502    0  0.49438725456E+03 -0.13471081334E+04  0.11952608834E+04  0.18675566015E+04  0.50400001928E-02 0. -1.
       -1    1    3    3    0  502 -0.49438725456E+03  0.13471081334E+04 -0.65352207855E+03  0.15767720785E+04  0.50400001928E-02 0.  1.
</event>
<event>
 5   0  0.4764953E-08  0.3398957E+04  0.7818609E-02  0.8138162E-01
       -2   -1    0    0    0  501  0.00000000000E+00  0.00000000000E+00  0.16473659574E+04  0.16473659574E+04  0.25500000920E-02 0.  1.
        2   -1    0    0  501    0  0.00000000000E+00  0.00000000000E+00 -0.17532396378E+04  0.17532396378E+04  0.25500000920E-02 0. -1.
    10030    2    1    2    0    0  0.00000000000E+00  0.00000000000E+00 -0.10587368038E+03  0.34006055953E+04  0.33989570722E+04 0.  0.
        2    1    3    3  502    0  0.14479045136E+04  0.28985443057E+03  0.78877032532E+03  0.16740972784E+04  0.25500000920E-02 0.  1.
       -2    1    3    3    0  502 -0.14479045136E+04 -0.28985443057E+03 -0.89464400570E+03  0.17265083169E+04  0.25500000920E-02 0. -1.
</event>
<event>
 5   0  0.4946315E-08  0.3401363E+04  0.7818609E-02  0.8137572E-01
       -2   -1    0    0    0  501  0.00000000000E+00  0.00000000000E+00  0.18137825916E+04  0.18137825916E+04  0.25500000920E-02 0.  1.
        2   -1    0    0  501    0  0.00000000000E+00  0.00000000000E+00 -0.15946329051E+04  0.15946329051E+04  0.25500000920E-02 0. -1.
    10030    2    1    2    0    0  0.00000000000E+00  0.00000000000E+00  0.21914968649E+03  0.34084154968E+04  0.34013629053E+04 0.  0.
        3    1    3    3  502    0  0.27257437150E+03  0.16129798835E+04 -0.35648789719E+03  0.16742414771E+04  0.10100000352E+00 0.  1.
       -3    1    3    3    0  502 -0.27257437150E+03 -0.16129798835E+04  0.57563758368E+03  0.17341740197E+04  0.10100000352E+00 0. -1.
</event>
<event>
 5   0  0.5001197E-08  0.3400508E+04  0.7818609E-02  0.8137782E-01
        2   -1    0    0  501    0  0.00000000000E+00  0.00000000000E+00  0.10573966975E+04  0.10573966975E+04  0.25500000920E-02 0.  1.
       -2   -1    0    0    0  501  0.00000000000E+00  0.00000000000E+00 -0.27339441287E+04  0.27339441287E+04  0.25500000920E-02 0. -1.
    10030    2    1    2    0    0  0.00000000000E+00  0.00000000000E+00 -0.16765474313E+04  0.37913408262E+04  0.34005078990E+04 0.  0.
        5    1    3    3  502    0  0.54259628792E+03  0.69901313001E+03 -0.24569682686E+04  0.26114641967E+04  0.46999998093E+01 0. -1.
       -5    1    3    3    0  502 -0.54259628792E+03 -0.69901313001E+03  0.78042083735E+03  0.11798766296E+04  0.46999998093E+01 0.  1.
</event>
<event>
 5   0  0.1579536E-08  0.3393536E+04  0.7818609E-02  0.8139495E-01
       -1   -1    0    0    0  501  0.00000000000E+00  0.00000000000E+00  0.17441190550E+04  0.17441190550E+04  0.50400001928E-02 0.  1.
        1   -1    0    0  501    0  0.00000000000E+00  0.00000000000E+00 -0.16507024292E+04  0.16507024292E+04  0.50400001928E-02 0. -1.
    10030    2    1    2    0    0  0.00000000000E+00  0.00000000000E+00  0.93416625833E+02  0.33948214842E+04  0.33935359499E+04 0.  0.
        5    1    3    3  502    0  0.14188646418E+04 -0.89050631412E+03 -0.22324776876E+03  0.16899822554E+04  0.46999998093E+01 0. -1.
       -5    1    3    3    0  502 -0.14188646418E+04  0.89050631412E+03  0.31666439459E+03  0.17048392288E+04  0.46999998093E+01 0.  1.
</event>
<event>
 5   0  0.1595851E-08  0.3402634E+04  0.7818609E-02  0.8137260E-01
        1   -1    0    0  501    0  0.00000000000E+00  0.00000000000E+00  0.25767143729E+04  0.25767143729E+04  0.50400001928E-02 0.  1.
       -1   -1    0    0    0  501  0.00000000000E+00  0.00000000000E+00 -0.11233218517E+04  0.11233218517E+04  0.50400001928E-02 0. -1.
    10030    2    1    2    0    0  0.00000000000E+00  0.00000000000E+00  0.14533925212E+04  0.37000362246E+04  0.34026340154E+04 0.  0.
        2    1    3    3  502    0 -0.13240799756E+04 -0.10194992517E+04  0.37955547143E+03  0.17136594941E+04  0.25500000920E-02 0. -1.
       -2    1    3    3    0  502  0.13240799756E+04  0.10194992517E+04  0.10738370498E+04  0.19863767305E+04  0.25500000920E-02 0.  1.
</event>
<event>
 5   0  0.1579536E-08  0.3399533E+04  0.7818609E-02  0.8138021E-01
       -1   -1    0    0    0  501  0.00000000000E+00  0.00000000000E+00  0.14047266847E+04  0.14047266848E+04  0.50400001928E-02 0. -1.
        1   -1    0    0  501    0  0.00000000000E+00  0.00000000000E+00 -0.20567751073E+04  0.20567751073E+04  0.50400001928E-02 0.  1.
    10030    2    1    2    0    0  0.00000000000E+00  0.00000000000E+00 -0.65204842255E+03  0.34615017921E+04  0.33995334255E+04 0.  0.
        5    1    3    3  502    0 -0.41528535647E+03 -0.11808756624E+04 -0.14968787430E+04  0.19513065670E+04  0.46999998093E+01 0.  1.
       -5    1    3    3    0  502  0.41528535647E+03  0.11808756624E+04  0.84483032048E+03  0.15101952250E+04  0.46999998093E+01 0. -1.
</event>
<event>
 5   0  0.4764953E-08  0.3399986E+04  0.7818609E-02  0.8137910E-01
        2   -1    0    0  501    0  0.00000000000E+00  0.00000000000E+00  0.21035673340E+04  0.21035673340E+04  0.25500000920E-02 0. -1.
       -2   -1    0    0    0  501  0.00000000000E+00  0.00000000000E+00 -0.13738453787E+04  0.13738453787E+04  0.25500000920E-02 0.  1.
    10030    2    1    2    0    0  0.00000000000E+00  0.00000000000E+00  0.72972195535E+03  0.34774127127E+04  0.33999860356E+04 0.  0.
        2    1    3    3  502    0  0.40765766062E+03 -0.11742214349E+04  0.15510107289E+04  0.19876154124E+04  0.25500000920E-02 0. -1.
       -2    1    3    3    0  502 -0.40765766062E+03  0.11742214349E+04 -0.82128877358E+03  0.14897973003E+04  0.25500000920E-02 0.  1.
</event>
<event>
 5   0  0.4973409E-08  0.3401177E+04  0.7818609E-02  0.8137617E-01
       -2   -1    0    0    0  501  0.00000000000E+00  0.00000000000E+00  0.99359084174E+03  0.99359084175E+03  0.25500000920E-02 0.  1.
        2   -1    0    0  501    0  0.00000000000E+00  0.00000000000E+00 -0.29106566695E+04  0.29106566695E+04  0.25500000920E-02 0. -1.
    10030    2    1    2    0    0  0.00000000000E+00  0.00000000000E+00 -0.19170658277E+04  0.39042475112E+04  0.34011773316E+04 0.  0.
        1    1    3    3  502    0 -0.10473746646E+04  0.68203471361E+03  0.36522093247E+03  0.13021333911E+04  0.50400001928E-02 0.  1.
       -1    1    3    3    0  502  0.10473746646E+04 -0.68203471361E+03 -0.22822867602E+04  0.26021141202E+04  0.50400001928E-02 0. -1.
</event>
<event>
 5   0  0.4973409E-08  0.3402641E+04  0.7818609E-02  0.8137258E-01
        2   -1    0    0  501    0  0.00000000000E+00  0.00000000000E+00  0.13566246815E+04  0.13566246815E+04  0.25500000920E-02 0.  1.
       -2   -1    0    0    0  501  0.00000000000E+00  0.00000000000E+00 -0.21335981295E+04  0.21335981295E+04  0.25500000920E-02 0. -1.
    10030    2    1    2    0    0  0.00000000000E+00  0.00000000000E+00 -0.77697344793E+03  0.34902228110E+04  0.34026412581E+04 0.  0.
        1    1    3    3  502    0  0.32993356468E+03 -0.63487513184E+03  0.11948006885E+04  0.13926490137E+04  0.50400001928E-02 0.  1.
       -1    1    3    3    0  502 -0.32993356468E+03  0.63487513184E+03 -0.19717741364E+04  0.20975737973E+04  0.50400001928E-02 0. -1.
</event>
<event>
 5   0  0.4946315E-08  0.3399459E+04  0.7818609E-02  0.8138039E-01
        2   -1    0    0  501    0  0.00000000000E+00  0.00000000000E+00  0.20797190078E+04  0.20797190078E+04  0.25500000920E-02 0.  1.
       -2   -1    0    0    0  501  0.00000000000E+00  0.00000000000E+00 -0.13891688896E+04  0.13891688896E+04  0.25500000920E-02 0. -1.
    10030    2    1    2    0    0  0.00000000000E+00  0.00000000000E+00  0.69055011819E+03  0.34688878974E+04  0.33994593363E+04 0.  0.
        3    1    3    3  502    0  0.71954884795E+01 -0.31007140164E+03  0.20505991700E+04  0.20739221334E+04  0.10100000352E+00 0.  1.
       -3    1    3    3    0  502 -0.71954884795E+01  0.31007140164E+03 -0.13600490518E+04  0.13949657640E+04  0.10100000352E+00 0. -1.
</event>
<event>
 5   0  0.1645631E-08  0.3400096E+04  0.7818609E-02  0.8137883E-01
        1   -1    0    0  501    0  0.00000000000E+00  0.00000000000E+00  0.14036650607E+04  0.14036650607E+04  0.50400001928E-02 0. -1.
       -1   -1    0    0    0  501  0.00000000000E+00  0.00000000000E+00 -0.20590114304E+04  0.20590114304E+04  0.50400001928E-02 0.  1.
    10030    2    1    2    0    0  0.00000000000E+00  0.00000000000E+00 -0.65534636969E+03  0.34626764911E+04  0.34000955307E+04 0.  0.
        4    1    3    3  502    0 -0.88162058802E+03  0.71901772781E+03 -0.16142220356E+04  0.19748305617E+04  0.12699999809E+01 0.  1.
       -4    1    3    3    0  502  0.88162058802E+03 -0.71901772781E+03  0.95887566594E+03  0.14878459294E+04  0.12699999809E+01 0. -1.
</event>
<event>
 5   0  0.4946315E-08  0.3406590E+04  0.7818609E-02  0.8136291E-01
        2   -1    0    0  501    0  0.00000000000E+00  0.00000000000E+00  0.26560500219E+04  0.26560500219E+04  0.25500000920E-02 0. -1.
       -2   -1    0    0    0  501  0.00000000000E+00  0.00000000000E+00 -0.10923038412E+04  0.10923038412E+04  0.25500000920E-02 0.  1.
    10030    2    1    2    0    0  0.00000000000E+00  0.00000000000E+00  0.15637461807E+04  0.37483538631E+04  0.34065898734E+04 0.  0.
        3    1    3    3  502    0 -0.92662232451E+03  0.14242033581E+04  0.65061821175E+03  0.18194197441E+04  0.10100000352E+00 0.  1.
       -3    1    3    3    0  502  0.92662232451E+03 -0.14242033581E+04  0.91312796899E+03  0.19289341190E+04  0.10100000352E+00 0. -1.
</event>
<event>
 5   0  0.1595851E-08  0.3400928E+04  0.7818609E-02  0.8137679E-01
        1   -1    0    0  501    0  0.00000000000E+00  0.00000000000E+00  0.24071966826E+04  0.24071966826E+04  0.50400001928E-02 0.  1.
       -1   -1    0    0    0  501  0.00000000000E+00  0.00000000000E+00 -0.12012221959E+04  0.12012221960E+04  0.50400001928E-02 0. -1.
    10030    2    1    2    0    0  0.00000000000E+00  0.00000000000E+00  0.12059744867E+04  0.36084188786E+04  0.34009281587E+04 0.  0.
        2    1    3    3  502    0 -0.10948150725E+04  0.37202478845E+03 -0.71989935856E+03  0.13620857435E+04  0.25500000920E-02 0. -1.
       -2    1    3    3    0  502  0.10948150725E+04 -0.37202478845E+03  0.19258738453E+04  0.22463331351E+04  0.25500000920E-02 0.  1.
</event>
<event>
 5   0  0.5001197E-08  0.3401179E+04  0.7818609E-02  0.8137617E-01
        2   -1    0    0  501    0  0.00000000000E+00  0.00000000000E+00  0.18392531564E+04  0.18392531564E+04  0.25500000920E-02 0.  1.
       -2   -1    0    0    0  501  0.00000000000E+00  0.00000000000E+00 -0.15723801402E+04  0.15723801402E+04  0.25500000920E-02 0. -1.
    10030    2    1    2    0    0  0.00000000000E+00  0.00000000000E+00  0.26687301624E+03  0.34116332965E+04  0.34011792871E+04 0.  0.
        5    1    3    3  502    0  0.26995568386E+03 -0.13287336793E+04  0.11630288332E+04  0.17863559048E+04  0.46999998093E+01 0.  1.
       -5    1    3    3    0  502 -0.26995568386E+03  0.13287336793E+04 -0.89615581701E+03  0.16252773917E+04  0.46999998093E+01 0. -1.
</event>
<event>
 5   0  0.4946315E-08  0.3399394E+04  0.7818609E-02  0.8138055E-01
       -2   -1    0    0    0  501  0.00000000000E+00  0.00000000000E+00  0.14423938328E+04  0.14423938328E+04  0.25500000920E-02 0.  1.
        2   -1    0    0  501    0  0.00000000000E+00  0.00000000000E+00 -0.20028998666E+04  0.20028998666E+04  0.25500000920E-02 0. -1.
    10030    2    1    2    0    0  0.00000000000E+00  0.00000000000E+00 -0.56050603375E+03  0.34452936994E+04  0.33993943080E+04 0.  0.
        3    1    3    3  502    0 -0.12953207530E+04  0.10091450302E+04  0.16469738506E+03  0.16502590051E+04  0.10100000352E+00 0. -1.
       -3    1    3    3    0  502  0.12953207530E+04 -0.10091450302E+04 -0.72520341882E+03  0.17950346943E+04  0.10100000352E+00 0.  1.
</event>
<event>
 5   0  0.1595851E-08  0.3399980E+04  0.7818609E-02  0.8137911E-01
       -1   -1    0    0    0  501  0.00000000000E+00  0.00000000000E+00  0.14016779526E+04  0.14016779526E+04  0.50400001928E-02 0. -1.
        1   -1    0    0  501    0  0.00000000000E+00  0.00000000000E+00 -0.20617903119E+04  0.20617903120E+04  0.50400001928E-02 0.  1.
    10030    2    1    2    0    0  0.00000000000E+00  0.00000000000E+00 -0.66011235936E+03  0.34634682646E+04  0.33999800136E+04 0.  0.
        2    1    3    3  502    0 -0.13011442313E+04 -0.72728544586E+03  0.50254668368E+03  0.15730459623E+04  0.25500000920E-02 0. -1.
       -2    1    3    3    0  502  0.13011442313E+04  0.72728544586E+03 -0.11626590430E+04  0.18904223022E+04  0.25500000920E-02 0.  1.
</event>
<event>
 5   0  0.1595851E-08  0.3394886E+04  0.7818609E-02  0.8139163E-01
        1   -1    0    0  501    0  0.00000000000E+00  0.00000000000E+00  0.16427735471E+04  0.16427735472E+04  0.50400001928E-02 0. -1.
       -1   -1    0    0    0  501  0.00000000000E+00  0.00000000000E+00 -0.17539318689E+04  0.17539318690E+04  0.50400001928E-02 0.  1.
    10030    2    1    2    0    0  0.00000000000E+00  0.00000000000E+00 -0.11115832180E+03  0.33967054161E+04  0.33948860822E+04 0.  0.
        2    1    3    3  502    0 -0.40284215436E+03  0.12136729481E+04 -0.11724340816E+04  0.17349021592E+04  0.25500000920E-02 0.  1.
       -2    1    3    3    0  502  0.40284215436E+03 -0.12136729481E+04  0.10612757598E+04  0.16618032569E+04  0.25500000920E-02 0. -1.
</event>
<event>
 5   0  0.1579536E-08  0.3400930E+04  0.7818609E-02  0.8137678E-01
        1   -1    0    0  501    0  0.00000000000E+00  0.00000000000E+00  0.18529977975E+04  0.18529977975E+04  0.50400001928E-02 0.  1.
       -1   -1    0    0    0  501  0.00000000000E+00  0.00000000000E+00 -0.15604878499E+04  0.15604878499E+04  0.50400001928E-02 0. -1.
    10030    2    1    2    0    0  0.00000000000E+00  0.00000000000E+00  0.29250994763E+03  0.34134856474E+04  0.34009296075E+04 0.  0.
        5    1    3    3  502    0  0.85432933947E+03  0.10070032695E+04 -0.92897236221E+03  0.16146039591E+04  0.46999998093E+01 0. -1.
       -5    1    3    3    0  502 -0.85432933947E+03 -0.10070032695E+04  0.12214823098E+04  0.17988816883E+04  0.46999998093E+01 0.  1.
</event>
<event>
 5   0  0.4764953E-08  0.3400644E+04  0.7818609E-02  0.8137748E-01
       -2   -1    0    0    0  501  0.00000000000E+00  0.00000000000E+00  0.14328067984E+04  0.14328067984E+04  0.25500000920E-02 0. -1.
        2   -1    0    0  501    0  0.00000000000E+00  0.00000000000E+00 -0.20177838029E+04  0.20177838029E+04  0.25500000920E-02 0.  1.
    10030    2    1    2    0    0  0.00000000000E+00  0.00000000000E+00 -0.58497700452E+03  0.34505906013E+04  0.34006436746E+04 0.  0.
        2    1    3    3  502    0  0.39995193626E+03 -0.76732049626E+03 -0.17776638339E+04  0.19770763773E+04  0.25500000920E-02 0.  1.
       -2    1    3    3    0  502 -0.39995193626E+03  0.76732049626E+03  0.11926868294E+04  0.14735142240E+04  0.25500000920E-02 0. -1.
</event>
<event>
 5   0  0.4764953E-08  0.3397702E+04  0.7818609E-02  0.8138470E-01
       -2   -1    0    0    0  501  0.00000000000E+00  0.00000000000E+00  0.19373527933E+04  0.19373527933E+04  0.25500000920E-02 0.  1.
        2   -1    0    0  501    0  0.00000000000E+00  0.00000000000E+00 -0.14897108496E+04  0.14897108496E+04  0.25500000920E-02 0. -1.
    10030    2    1    2    0    0  0.00000000000E+00  0.00000000000E+00  0.44764194375E+03  0.34270636429E+04  0.33977024447E+04 0.  0.
        2    1    3    3  502    0 -0.50661554884E+03  0.40414351282E+03 -0.13601329255E+04  0.15066362761E+04  0.25500000920E-02 0. -1.
       -2    1    3    3    0  502  0.50661554884E+03 -0.40414351282E+03  0.18077748693E+04  0.19204273668E+04  0.25500000920E-02 0.  1.
</event>
<event>
 5   0  0.1630571E-08  0.3399353E+04  0.7818609E-02  0.8138065E-01
       -1   -1    0    0    0  501  0.00000000000E+00  0.00000000000E+00  0.14075928954E+04  0.14075928954E+04  0.50400001928E-02 0. -1.
        1   -1    0    0  501    0  0.00000000000E+00  0.00000000000E+00 -0.20523688157E+04  0.20523688157E+04  0.50400001928E-02 0.  1.
    10030    2    1    2    0    0  0.00000000000E+00  0.00000000000E+00 -0.64477592025E+03  0.34599617111E+04  0.33993527406E+04 0.  0.
        3    1    3    3  502    0  0.39769598028E+03 -0.15908534058E+04 -0.77748766247E+03  0.18147902708E+04  0.10100000352E+00 0.  1.
       -3    1    3    3    0  502 -0.39769598028E+03  0.15908534058E+04  0.13271174222E+03  0.16451714403E+04  0.10100000352E+00 0. -1.
</event>
<event>
 5   0  0.4775023E-08  0.3399032E+04  0.7818609E-02  0.8138144E-01
       -2   -1    0    0    0  501  0.00000000000E+00  0.00000000000E+00  0.14418310309E+04  0.14418310309E+04  0.25500000920E-02 0. -1.
        2   -1    0    0  501    0  0.00000000000E+00  0.00000000000E+00 -0.20032547576E+04  0.20032547576E+04  0.25500000920E-02 0.  1.
    10030    2    1    2    0    0  0.00000000000E+00  0.00000000000E+00 -0.56142372667E+03  0.34450857885E+04  0.33990321401E+04 0.  0.
        4    1    3    3  502    0  0.11449456269E+02  0.80400347538E+03 -0.17982627353E+04  0.19698485111E+04  0.12699999809E+01 0.  1.
       -4    1    3    3    0  502 -0.11449456269E+02 -0.80400347538E+03  0.12368390087E+04  0.14752372774E+04  0.12699999809E+01 0. -1.
</event>
<event>
 5   0  0.1625282E-08  0.3401462E+04  0.7818609E-02  0.8137548E-01
        1   -1    0    0  501    0  0.00000000000E+00  0.00000000000E+00  0.18303867364E+04  0.18303867364E+04  0.50400001928E-02 0.  1.
       -1   -1    0    0    0  501  0.00000000000E+00  0.00000000000E+00 -0.15802592167E+04  0.15802592167E+04  0.50400001928E-02 0. -1.
    10030    2    1    2    0    0  0.00000000000E+00  0.00000000000E+00  0.25012751971E+03  0.34106459530E+04  0.34014617506E+04 0.  0.
        1    1    3    3  502    0  0.28444506509E+03 -0.11631843703E+04  0.13360409741E+04  0.17941327595E+04  0.50400001928E-02 0.  1.
       -1    1    3    3    0  502 -0.28444506509E+03  0.11631843703E+04 -0.10859134544E+04  0.16165131935E+04  0.50400001928E-02 0. -1.
</event>
<event>
 5   0  0.4764953E-08  0.3399544E+04  0.7818609E-02  0.8138018E-01
       -2   -1    0    0    0  501  0.00000000000E+00  0.00000000000E+00  0.21796347320E+04  0.21796347320E+04  0.25500000920E-02 0. -1.
        2   -1    0    0  501    0  0.00000000000E+00  0.00000000000E+00 -0.13255547984E+04  0.13255547984E+04  0.25500000920E-02 0.  1.
    10030    2    1    2    0    0  0.00000000000E+00  0.00000000000E+00  0.85407993364E+03  0.35051895304E+04  0.33995442505E+04 0.  0.
        2    1    3    3  502    0  0.38239242455E+03 -0.77739091105E+03  0.19349039095E+04  0.21200032391E+04  0.25500000920E-02 0. -1.
       -2    1    3    3    0  502 -0.38239242455E+03  0.77739091105E+03 -0.10808239758E+04  0.13851862913E+04  0.25500000920E-02 0.  1.
</event>
<event>
 5   0  0.1579536E-08  0.3399086E+04  0.7818609E-02  0.8138131E-01
        1   -1    0    0  501    0  0.00000000000E+00  0.00000000000E+00  0.21616602793E+04  0.21616602793E+04  0.50400001928E-02 0. -1.
       -1   -1    0    0    0  501  0.00000000000E+00  0.00000000000E+00 -0.13362167428E+04  0.13362167428E+04  0.50400001928E-02 0.  1.
    10030    2    1    2    0    0  0.00000000000E+00  0.00000000000E+00  0.82544353651E+03  0.34978770221E+04  0.33990861463E+04 0.  0.
        5    1    3    3  502    0 -0.10259126167E+04 -0.75952013226E+03  0.15674108725E+04  0.20214268380E+04  0.46999998093E+01 0. -1.
       -5    1    3    3    0  502  0.10259126167E+04  0.75952013226E+03 -0.74196733596E+03  0.14764501841E+04  0.46999998093E+01 0.  1.
</event>
<event>
 5   0  0.4973409E-08  0.3400142E+04  0.7818609E-02  0.8137871E-01
       -2   -1    0    0    0  501  0.00000000000E+00  0.00000000000E+00  0.12615413455E+04  0.12615413455E+04  0.25500000920E-02 0. -1.
        2   -1    0    0  501    0  0.00000000000E+00  0.00000000000E+00 -0.22910400784E+04  0.22910400784E+04  0.25500000920E-02 0.  1.
    10030    2    1    2    0    0  0.00000000000E+00  0.00000000000E+00 -0.10294987329E+04  0.35525814239E+04  0.34001422223E+04 0.  0.
        1    1    3    3  502    0  0.92271611522E+03 -0.75475014030E+03  0.75169404316E+03  0.14092894444E+04  0.50400001928E-02 0. -1.
       -1    1    3    3    0  502 -0.92271611522E+03  0.75475014030E+03 -0.17811927761E+04  0.21432919794E+04  0.50400001928E-02 0.  1.
</event>
<event>
 5   0  0.5001197E-08  0.3401716E+04  0.7818609E-02  0.8137485E-01
       -2   -1    0    0    0  501  0.00000000000E+00  0.00000000000E+00  0.95120434957E+03  0.95120434958E+03  0.25500000920E-02 0.  1.
        2   -1    0    0  501    0  0.00000000000E+00  0.00000000000E+00 -0.30413218601E+04  0.30413218601E+04  0.25500000920E-02 0. -1.
    10030    2    1    2    0    0  0.00000000000E+00  0.00000000000E+00 -0.20901175105E+04  0.39925262097E+04  0.34017163796E+04 0.  0.
        5    1    3    3  502    0 -0.95975166689E+03  0.13344819955E+04 -0.53221161729E+03  0.17277837694E+04  0.46999998093E+01 0.  1.
       -5    1    3    3    0  502  0.95975166689E+03 -0.13344819955E+04 -0.15579058932E+04  0.22647424402E+04  0.46999998093E+01 0. -1.
</event>
<event>
 5   0  0.1625282E-08  0.3399697E+04  0.7818609E-02  0.8137981E-01
        1   -1    0    0  501    0  0.00000000000E+00  0.00000000000E+00  0.11706644174E+04  0.11706644174E+04  0.50400001928E-02 0. -1.
       -1   -1    0    0    0  501  0.00000000000E+00  0.00000000000E+00 -0.24682436360E+04  0.24682436360E+04  0.50400001928E-02 0.  1.
    10030    2    1    2    0    0  0.00000000000E+00  0.00000000000E+00 -0.12975792185E+04  0.36389080534E+04  0.33996970443E+04 0.  0.
        1    1    3    3  502    0 -0.13238810344E+04 -0.96948639989E+03 -0.17380896059E+03  0.16500831578E+04  0.50400001928E-02 0. -1.
       -1    1    3    3    0  502  0.13238810344E+04  0.96948639989E+03 -0.11237702580E+04  0.19888248956E+04  0.50400001928E-02 0.  1.
</event>
<event>
 5   0  0.1645631E-08  0.3397970E+04  0.7818609E-02  0.8138405E-01
        1   -1    0    0  501    0  0.00000000000E+00  0.00000000000E+00  0.17671155177E+04  0.17671155178E+04  0.50400001928E-02 0.  1.
       -1   -1    0    0    0  501  0.00000000000E+00  0.00000000000E+00 -0.16334810576E+04  0.16334810576E+04  0.50400001928E-02 0. -1.
    10030    2    1    2    0    0  0.00000000000E+00  0.00000000000E+00  0.13363446013E+03  0.34005965754E+04  0.33979698203E+04 0.  0.
        4    1    3    3  502    0 -0.61642272904E+03 -0.15525303548E+04 -0.24361706264E+03  0.16880990402E+04  0.12699999809E+01 0. -1.
       -4    1    3    3    0  502  0.61642272904E+03  0.15525303548E+04  0.37725152277E+03  0.17124975351E+04  0.12699999809E+01 0.  1.
</event>
<event>
 5   0  0.1645631E-08  0.3400992E+04  0.7818609E-02  0.8137663E-01
        1   -1    0    0  501    0  0.00000000000E+00  0.00000000000E+00  0.29641552084E+04  0.29641552084E+04  0.50400001928E-02 0. -1.
       -1   -1    0    0    0  501  0.00000000000E+00  0.00000000000E+00 -0.97555165976E+03  0.97555165977E+03  0.50400001928E-02 0.  1.
    10030    2    1    2    0    0  0.00000000000E+00  0.00000000000E+00  0.19886035486E+04  0.39397068681E+04  0.34009919337E+04 0.  0.
        4    1    3    3  502    0  0.47960375115E+03  0.13227617592E+04 -0.11193412531E+03  0.14114706129E+04  0.12699999809E+01 0.  1.
       -4    1    3    3    0  502 -0.47960375115E+03 -0.13227617592E+04  0.21005376739E+04  0.25282362552E+04  0.12699999809E+01 0. -1.
</event>
<event>
 5   0  0.4764953E-08  0.3399961E+04  0.7818609E-02  0.8137916E-01
        2   -1    0    0  501    0  0.00000000000E+00  0.00000000000E+00  0.22297001767E+04  0.22297001767E+04  0.25500000920E-02 0. -1.
       -2   -1    0    0    0  501  0.00000000000E+00  0.00000000000E+00 -0.12961084904E+04  0.12961084904E+04  0.25500000920E-02 0.  1.
    10030    2    1    2    0    0  0.00000000000E+00  0.00000000000E+00  0.93359168635E+03  0.35258086671E+04  0.33999607821E+04 0.  0.
        2    1    3    3  502    0 -0.58984974249E+03 -0.12614746090E+04  0.14779208458E+04  0.20306380609E+04  0.25500000920E-02 0. -1.
       -2    1    3    3    0  502  0.58984974249E+03  0.12614746090E+04 -0.54432915948E+03  0.14951706062E+04  0.25500000920E-02 0.  1.
</event>
<event>
 5   0  0.4764953E-08  0.3401537E+04  0.7818609E-02  0.8137529E-01
        2   -1    0    0  501    0  0.00000000000E+00  0.00000000000E+00  0.21918470652E+04  0.21918470652E+04  0.25500000920E-02 0.  1.
       -2   -1    0    0    0  501  0.00000000000E+00  0.00000000000E+00 -0.13197150444E+04  0.13197150444E+04  0.25500000920E-02 0. -1.
    10030    2    1    2    0    0  0.00000000000E+00  0.00000000000E+00  0.87213202081E+03  0.35115621095E+04  0.34015370331E+04 0.  0.
        2    1    3    3  502    0 -0.16988284291E+04  0.66957740738E+02  0.48351098794E+03  0.17675644955E+04  0.25500000920E-02 0.  1.
       -2    1    3    3    0  502  0.16988284291E+04 -0.66957740738E+02  0.38862103287E+03  0.17439976140E+04  0.25500000920E-02 0. -1.
</event>
<event>
 5   0  0.4775023E-08  0.3399716E+04  0.7818609E-02  0.8137976E-01
        2   -1    0    0  501    0  0.00000000000E+00  0.00000000000E+00  0.19445289405E+04  0.19445289405E+04  0.25500000920E-02 0. -1.
       -2   -1    0    0    0  501  0.00000000000E+00  0.00000000000E+00 -0.14859726867E+04  0.14859726867E+04  0.25500000920E-02 0.  1.
    10030    2    1    2    0    0  0.00000000000E+00  0.00000000000E+00  0.45855625376E+03  0.34305016272E+04  0.33997158081E+04 0.  0.
        4    1    3    3  502    0  0.33379369887E+03 -0.49172581570E+02  0.19104017196E+04  0.19399671439E+04  0.12699999809E+01 0. -1.
       -4    1    3    3    0  502 -0.33379369887E+03  0.49172581570E+02 -0.14518454659E+04  0.14905344833E+04  0.12699999809E+01 0.  1.
</event>
<event>
 5   0  0.5001197E-08  0.3399247E+04  0.7818609E-02  0.8138091E-01
        2   -1    0    0  501    0  0.00000000000E+00  0.00000000000E+00  0.23515656807E+04  0.23515656807E+04  0.25500000920E-02 0. -1.
       -2   -1    0    0    0  501  0.00000000000E+00  0.00000000000E+00 -0.12284242242E+04  0.12284242242E+04  0.25500000920E-02 0.  1.
    10030    2    1    2    0    0  0.00000000000E+00  0.00000000000E+00  0.11231414565E+04  0.35799899049E+04  0.33992471208E+04 0.  0.
        5    1    3    3  502    0  0.23816650641E+03  0.61945921278E+02 -0.12095547460E+04  0.12343440994E+04  0.46999998093E+01 0.  1.
       -5    1    3    3    0  502 -0.23816650641E+03 -0.61945921278E+02  0.23326962025E+04  0.23456458056E+04  0.46999998093E+01 0. -1.
</event>
<event>
 5   0  0.4764953E-08  0.3398972E+04  0.7818609E-02  0.8138159E-01
        2   -1    0    0  501    0  0.00000000000E+00  0.00000000000E+00  0.21074999432E+04  0.21074999432E+04  0.25500000920E-02 0. -1.
       -2   -1    0    0    0  501  0.00000000000E+00  0.00000000000E+00 -0.13704640320E+04  0.13704640320E+04  0.25500000920E-02 0.  1.
    10030    2    1    2    0    0  0.00000000000E+00  0.00000000000E+00  0.73703591125E+03  0.34779639752E+04  0.33989721208E+04 0.  0.
        2    1    3    3  502    0 -0.12634632736E+04 -0.11360637516E+04  0.40502021060E+03  0.17467173963E+04  0.25500000920E-02 0.  1.
       -2    1    3    3    0  502  0.12634632736E+04  0.11360637516E+04  0.33201570065E+03  0.17312465789E+04  0.25500000920E-02 0. -1.
</event>
<event>
 5   0  0.4973409E-08  0.3399468E+04  0.7818609E-02  0.8138037E-01
       -2   -1    0    0    0  501  0.00000000000E+00  0.00000000000E+00  0.16621847670E+04  0.16621847670E+04  0.25500000920E-02 0. -1.
        2   -1    0    0  501    0  0.00000000000E+00  0.00000000000E+00 -0.17381318488E+04  0.17381318488E+04  0.25500000920E-02 0.  1.
    10030    2    1    2    0    0  0.00000000000E+00  0.00000000000E+00 -0.75947081804E+02  0.34003166158E+04  0.33994683597E+04 0.  0.
        1    1    3    3  502    0 -0.51219379558E+03  0.17290474119E+03 -0.16498525307E+04  0.17361601040E+04  0.50400001928E-02 0.  1.
       -1    1    3    3    0  502  0.51219379558E+03 -0.17290474119E+03  0.15739054489E+04  0.16641565118E+04  0.50400001928E-02 0. -1.
</event>
<event>
 5   0  0.4775023E-08  0.3400024E+04  0.7818609E-02  0.8137900E-01
        2   -1    0    0  501    0  0.00000000000E+00  0.00000000000E+00  0.24684877459E+04  0.24684877459E+04  0.25500000920E-02 0.  1.
       -2   -1    0    0    0  501  0.00000000000E+00  0.00000000000E+00 -0.11707738516E+04  0.11707738517E+04  0.25500000920E-02 0. -1.
    10030    2    1    2    0    0  0.00000000000E+00  0.00000000000E+00  0.12977138942E+04  0.36392615975E+04  0.34000240623E+04 0.  0.
        4    1    3    3  502    0 -0.77113276368E+03 -0.61423900927E+03 -0.83354971757E+03  0.12910236420E+04  0.12699999809E+01 0. -1.
       -4    1    3    3    0  502  0.77113276368E+03  0.61423900927E+03  0.21312636118E+04  0.23482379555E+04  0.12699999809E+01 0.  1.
</event>
<event>
 5   0  0.4775023E-08  0.3398646E+04  0.7818609E-02  0.8138239E-01
       -2   -1    0    0    0  501  0.00000000000E+00  0.00000000000E+00  0.16934997553E+04  0.16934997553E+04  0.25500000920E-02 0. -1.
        2   -1    0    0  501    0  0.00000000000E+00  0.00000000000E+00 -0.17051662687E+04  0.17051662687E+04  0.25500000920E-02 0.  1.
    10030    2    1    2    0    0  0.00000000000E+00  0.00000000000E+00 -0.11666513380E+02  0.33986660241E+04  0.33986460003E+04 0.  0.
        4    1    3    3  502    0 -0.45405785907E+03  0.99898281282E+03  0.12916958121E+04  0.16948790174E+04  0.12699999809E+01 0. -1.
       -4    1    3    3    0  502  0.45405785907E+03 -0.99898281282E+03 -0.13033623255E+04  0.17037870067E+04  0.12699999809E+01 0.  1.
</event>
<event>
 5   0  0.5001197E-08  0.3399133E+04  0.7818609E-02  0.8138119E-01
       -2   -1    0    0    0  501  0.00000000000E+00  0.00000000000E+00  0.13277858552E+04  0.13277858552E+04  0.25500000920E-02 0.  1.
        2   -1    0    0  501    0  0.00000000000E+00  0.00000000000E+00 -0.21754458241E+04  0.21754458241E+04  0.25500000920E-02 0. -1.
    10030    2    1    2    0    0  0.00000000000E+00  0.00000000000E+00 -0.84765996888E+03  0.35032316793E+04  0.33991329448E+04 0.  0.
        5    1    3    3  502    0 -0.11757574842E+04  0.33066248613E+03  0.79421049613E+03  0.14568924955E+04  0.46999998093E+01 0.  1.
       -5    1    3    3    0  502  0.11757574842E+04 -0.33066248613E+03 -0.16418704650E+04  0.20463391838E+04  0.46999998093E+01 0. -1.
</event>
<event>
 5   0  0.1645631E-08  0.3400466E+04  0.7818609E-02  0.8137792E-01
       -1   -1    0    0    0  501  0.00000000000E+00  0.00000000000E+00  0.25126557299E+04  0.25126557299E+04  0.50400001928E-02 0. -1.
        1   -1    0    0  501    0  0.00000000000E+00  0.00000000000E+00 -0.11504930753E+04  0.11504930754E+04  0.50400001928E-02 0.  1.
    10030    2    1    2    0    0  0.00000000000E+00  0.00000000000E+00  0.13621626545E+04  0.36631488052E+04  0.34004664492E+04 0.  0.
        4    1    3    3  502    0  0.11205584362E+04 -0.88770456484E+03 -0.31040958960E+03  0.14628828831E+04  0.12699999809E+01 0.  1.
       -4    1    3    3    0  502 -0.11205584362E+04  0.88770456484E+03  0.16725722441E+04  0.22002659222E+04  0.12699999809E+01 0. -1.
</event>
<event>
 5   0  0.5001197E-08  0.3399935E+04  0.7818609E-02  0.8137922E-01
       -2   -1    0    0    0  501  0.00000000000E+00  0.00000000000E+00  0.16766366110E+04  0.16766366110E+04  0.25500000920E-02 0.  1.
        2   -1    0    0  501    0  0.00000000000E+00  0.00000000000E+00 -0.17236235319E+04  0.17236235319E+04  0.25500000920E-02 0. -1.
    10030    2    1    2    0    0  0.00000000000E+00  0.00000000000E+00 -0.46986920957E+02  0.34002601429E+04  0.33999354801E+04 0.  0.
        5    1    3    3  502    0  0.40155117058E+03  0.61888317918E+02  0.16273593893E+04  0.16773175544E+04  0.46999998093E+01 0.  1.
       -5    1    3    3    0  502 -0.40155117058E+03 -0.61888317918E+02 -0.16743463103E+04  0.17229425885E+04  0.46999998093E+01 0. -1.
</event>
<event>
 5   0  0.4946315E-08  0.3399227E+04  0.7818609E-02  0.8138096E-01
       -2   -1    0    0    0  501  0.00000000000E+00  0.00000000000E+00  0.21755487353E+04  0.21755487353E+04  0.25500000920E-02 0.  1.
        2   -1    0    0  501    0  0.00000000000E+00  0.00000000000E+00 -0.13277968703E+04  0.13277968703E+04  0.25500000920E-02 0. -1.
    10030    2    1    2    0    0  0.00000000000E+00  0.00000000000E+00  0.84775186495E+03  0.35033456056E+04  0.33992274428E+04 0.  0.
        3    1    3    3  502    0 -0.25192635102E+03  0.15793896191E+04  0.10165986771E+04  0.18951019328E+04  0.10100000352E+00 0.  1.
       -3    1    3    3    0  502  0.25192635102E+03 -0.15793896191E+04 -0.16884681218E+03  0.16082436729E+04  0.10100000352E+00 0. -1.
</event>
<event>
 5   0  0.1573625E-08  0.3390660E+04  0.7818609E-02  0.8140202E-01
       -4   -1    0    0    0  501  0.00000000000E+00  0.00000000000E+00  0.17505608102E+04  0.17505612709E+04  0.12699999809E+01 0. -1.
        4   -1    0    0  501    0  0.00000000000E+00  0.00000000000E+00 -0.16418407346E+04  0.16418412258E+04  0.12699999809E+01 0.  1.
    10030    2    1    2    0    0  0.00000000000E+00  0.00000000000E+00  0.10872007558E+03  0.33924024967E+04  0.33906599129E+04 0.  0.
        2    1    3    3  502    0  0.43643055723E+03 -0.13831375700E+04 -0.82393078953E+03  0.16680536906E+04  0.25500000920E-02 0.  1.
       -2    1    3    3    0  502 -0.43643055723E+03  0.13831375700E+04  0.93265086511E+03  0.17243488061E+04  0.25500000920E-02 0. -1.
</event>
<event>
 5   0  0.1625282E-08  0.3410806E+04  0.7818609E-02  0.8135259E-01
       -1   -1    0    0    0  501  0.00000000000E+00  0.00000000000E+00  0.18805411634E+04  0.18805411634E+04  0.50400001928E-02 0. -1.
        1   -1    0    0  501    0  0.00000000000E+00  0.00000000000E+00 -0.15465756254E+04  0.15465756254E+04  0.50400001928E-02 0.  1.
    10030    2    1    2    0    0  0.00000000000E+00  0.00000000000E+00  0.33396553797E+03  0.34271167889E+04  0.34108058438E+04 0.  0.
        1    1    3    3  502    0 -0.96658898972E+03  0.73036835647E+03  0.13730005126E+04  0.18310823626E+04  0.50400001928E-02 0. -1.
       -1    1    3    3    0  502  0.96658898972E+03 -0.73036835647E+03 -0.10390349746E+04  0.15960344262E+04  0.50400001928E-02 0.  1.
</event>
<event>
 5   0  0.1579536E-08  0.3399073E+04  0.7818609E-02  0.8138134E-01
       -1   -1    0    0    0  501  0.00000000000E+00  0.00000000000E+00  0.10235369708E+04  0.10235369708E+04  0.50400001928E-02 0. -1.
        1   -1    0    0  501    0  0.00000000000E+00  0.00000000000E+00 -0.28220030415E+04  0.28220030415E+04  0.50400001928E-02 0.  1.
    10030    2    1    2    0    0  0.00000000000E+00  0.00000000000E+00 -0.17984660707E+04  0.38455400123E+04  0.33990730765E+04 0.  0.
        5    1    3    3  502    0  0.20240564782E+03  0.45678352673E+03  0.93856880225E+03  0.10632745286E+04  0.46999998093E+01 0. -1.
       -5    1    3    3    0  502 -0.20240564782E+03 -0.45678352673E+03 -0.27370348729E+04  0.27822654838E+04  0.46999998093E+01 0.  1.
</event>
<event>
 5   0  0.1579536E-08  0.3399752E+04  0.7818609E-02  0.8137967E-01
       -1   -1    0    0    0  501  0.00000000000E+00  0.00000000000E+00  0.15460322449E+04  0.15460322449E+04  0.50400001928E-02 0. -1.
        1   -1    0    0  501    0  0.00000000000E+00  0.00000000000E+00 -0.18690289515E+04  0.18690289515E+04  0.50400001928E-02 0.  1.
    10030    2    1    2    0    0  0.00000000000E+00  0.00000000000E+00 -0.32299670658E+03  0.34150611964E+04  0.33997523590E+04 0.  0.
        5    1    3    3  502    0 -0.36164171846E+03  0.70834614339E+03 -0.16706007631E+04  0.18502616007E+04  0.46999998093E+01 0.  1.
       -5    1    3    3    0  502  0.36164171846E+03 -0.70834614339E+03  0.13476040565E+04  0.15647995957E+04  0.46999998093E+01 0. -1.
</event>
<event>
 5   0  0.4973409E-08  0.3400274E+04  0.7818609E-02  0.8137839E-01
       -2   -1    0    0    0  501  0.00000000000E+00  0.00000000000E+00  0.17021982094E+04  0.17021982094E+04  0.25500000920E-02 0. -1.
        2   -1    0    0  501    0  0.00000000000E+00  0.00000000000E+00 -0.16980779457E+04  0.16980779457E+04  0.25500000920E-02 0.  1.
    10030    2    1    2    0    0  0.00000000000E+00  0.00000000000E+00  0.41202636625E+01  0.34002761551E+04  0.34002736588E+04 0.  0.
        1    1    3    3  502    0  0.52521017865E+03 -0.14241817316E+02  0.16189771106E+04  0.17020973667E+04  0.50400001928E-02 0. -1.
       -1    1    3    3    0  502 -0.52521017865E+03  0.14241817316E+02 -0.16148568470E+04  0.16981787884E+04  0.50400001928E-02 0.  1.
</event>
<event>
 5   0  0.4973409E-08  0.3399995E+04  0.7818609E-02  0.8137908E-01
        2   -1    0    0  501    0  0.00000000000E+00  0.00000000000E+00  0.12704456088E+04  0.12704456088E+04  0.25500000920E-02 0.  1.
       -2   -1    0    0    0  501  0.00000000000E+00  0.00000000000E+00 -0.22747851910E+04  0.22747851910E+04  0.25500000920E-02 0. -1.
    10030    2    1    2    0    0  0.00000000000E+00  0.00000000000E+00 -0.10043395822E+04  0.35452307998E+04  0.33999946216E+04 0.  0.
        1    1    3    3  502    0  0.10082642372E+04  0.22596595111E+03  0.90543329370E+03  0.13738510954E+04  0.50400001928E-02 0.  1.
       -1    1    3    3    0  502 -0.10082642372E+04 -0.22596595111E+03 -0.19097728759E+04  0.21713797044E+04  0.50400001928E-02 0. -1.
</event>
<event>
 5   0  0.1645631E-08  0.3399872E+04  0.7818609E-02  0.8137938E-01
       -1   -1    0    0    0  501  0.00000000000E+00  0.00000000000E+00  0.23989467969E+04  0.23989467969E+04  0.50400001928E-02 0.  1.
        1   -1    0    0  501    0  0.00000000000E+00  0.00000000000E+00 -0.12046045205E+04  0.12046045205E+04  0.50400001928E-02 0. -1.
    10030    2    1    2    0    0  0.00000000000E+00  0.00000000000E+00  0.11943422765E+04  0.36035513174E+04  0.33998718541E+04 0.  0.
        4    1    3    3  502    0 -0.71364060572E+03 -0.14336292728E+04 -0.72596729350E+01  0.16014462594E+04  0.12699999809E+01 0. -1.
       -4    1    3    3    0  502  0.71364060572E+03  0.14336292728E+04  0.12016019494E+04  0.20021050581E+04  0.12699999809E+01 0.  1.
</event>
<event>
 5   0  0.4764953E-08  0.3408996E+04  0.7818609E-02  0.8135702E-01
        2   -1    0    0  501    0  0.00000000000E+00  0.00000000000E+00  0.20425297303E+04  0.20425297303E+04  0.25500000920E-02 0. -1.
       -2   -1    0    0    0  501  0.00000000000E+00  0.00000000000E+00 -0.14224091426E+04  0.14224091426E+04  0.25500000920E-02 0.  1.
    10030    2    1    2    0    0  0.00000000000E+00  0.00000000000E+00  0.62012058770E+03  0.34649388728E+04  0.34089957244E+04 0.  0.
        2    1    3    3  502    0  0.15749182552E+04  0.49707083279E+03  0.73872293707E+03  0.18091872488E+04  0.25500000920E-02 0. -1.
       -2    1    3    3    0  502 -0.15749182552E+04 -0.49707083279E+03 -0.11860234937E+03  0.16557516241E+04  0.25500000920E-02 0.  1.
</event>
<event>
 5   0  0.1573625E-08  0.3400024E+04  0.7818609E-02  0.8137900E-01
        3   -1    0    0  501    0  0.00000000000E+00  0.00000000000E+00  0.20340134711E+04  0.20340134736E+04  0.10100000352E+00 0. -1.
       -3   -1    0    0    0  501  0.00000000000E+00  0.00000000000E+00 -0.14208561157E+04  0.14208561193E+04  0.10100000352E+00 0.  1.
    10030    2    1    2    0    0  0.00000000000E+00  0.00000000000E+00  0.61315735539E+03  0.34548695928E+04  0.34000238177E+04 0.  0.
        5    1    3    3  502    0  0.25408153257E+03 -0.11359302624E+04 -0.95240861791E+03  0.15039944320E+04  0.46999998093E+01 0.  1.
       -5    1    3    3    0  502 -0.25408153257E+03  0.11359302624E+04  0.15655659733E+04  0.19508751608E+04  0.46999998093E+01 0. -1.
</event>
<event>
 5   0  0.5001197E-08  0.3399884E+04  0.7818609E-02  0.8137935E-01
        2   -1    0    0  501    0  0.00000000000E+00  0.00000000000E+00  0.14904779491E+04  0.14904779491E+04  0.25500000920E-02 0.  1.
       -2   -1    0    0    0  501  0.00000000000E+00  0.00000000000E+00 -0.19388431983E+04  0.19388431983E+04  0.25500000920E-02 0. -1.
    10030    2    1    2    0    0  0.00000000000E+00  0.00000000000E+00 -0.44836524922E+03  0.34293211474E+04  0.33998841356E+04 0.  0.
        5    1    3    3  502    0 -0.11684503240E+04  0.12338189058E+04 -0.17691870360E+03  0.17084810709E+04  0.46999998093E+01 0. -1.
       -5    1    3    3    0  502  0.11684503240E+04 -0.12338189058E+04 -0.27144654561E+03  0.17208400765E+04  0.46999998093E+01 0.  1.
</event>
<event>
 5   0  0.5001197E-08  0.3402572E+04  0.7818609E-02  0.8137275E-01
       -2   -1    0    0    0  501  0.00000000000E+00  0.00000000000E+00  0.23449061074E+04  0.23449061074E+04  0.25500000920E-02 0.  1.
        2   -1    0    0  501    0  0.00000000000E+00  0.00000000000E+00 -0.12343237987E+04  0.12343237987E+04  0.25500000920E-02 0. -1.
    10030    2    1    2    0    0  0.00000000000E+00  0.00000000000E+00  0.11105823087E+04  0.35792299061E+04  0.34025716239E+04 0.  0.
        5    1    3    3  502    0 -0.46273769407E+03 -0.10619819634E+04  0.18659415372E+04  0.21962904576E+04  0.46999998093E+01 0.  1.
       -5    1    3    3    0  502  0.46273769407E+03  0.10619819634E+04 -0.75535922845E+03  0.13829394484E+04  0.46999998093E+01 0. -1.
</event>
<event>
 5   0  0.1625282E-08  0.3398101E+04  0.7818609E-02  0.8138373E-01
        1   -1    0    0  501    0  0.00000000000E+00  0.00000000000E+00  0.18689974707E+04  0.18689974708E+04  0.50400001928E-02 0. -1.
       -1   -1    0    0    0  501  0.00000000000E+00  0.00000000000E+00 -0.15445565229E+04  0.15445565229E+04  0.50400001928E-02 0.  1.
    10030    2    1    2    0    0  0.00000000000E+00  0.00000000000E+00  0.32444094783E+03  0.34135539937E+04  0.33981007841E+04 0.  0.
        1    1    3    3  502    0 -0.99159060536E+03  0.13769817924E+04  0.24887660354E+03  0.17150132213E+04  0.50400001928E-02 0. -1.
       -1    1    3    3    0  502  0.99159060536E+03 -0.13769817924E+04  0.75564344292E+02  0.16985407724E+04  0.50400001928E-02 0.  1.
</event>
<event>
 5   0  0.1645631E-08  0.3403457E+04  0.7818609E-02  0.8137058E-01
       -1   -1    0    0    0  501  0.00000000000E+00  0.00000000000E+00  0.12040492367E+04  0.12040492367E+04  0.50400001928E-02 0. -1.
        1   -1    0    0  501    0  0.00000000000E+00  0.00000000000E+00 -0.24051171414E+04  0.24051171414E+04  0.50400001928E-02 0.  1.
    10030    2    1    2    0    0  0.00000000000E+00  0.00000000000E+00 -0.12010679047E+04  0.36091663782E+04  0.34034567477E+04 0.  0.
        4    1    3    3  502    0  0.90040521581E+03 -0.46100320896E+02 -0.21310352613E+04  0.23139074506E+04  0.12699999809E+01 0.  1.
       -4    1    3    3    0  502 -0.90040521581E+03  0.46100320896E+02  0.92996735658E+03  0.12952589276E+04  0.12699999809E+01 0. -1.
</event>
<event>
 5   0  0.4946315E-08  0.3400122E+04  0.7818609E-02  0.8137876E-01
       -2   -1    0    0    0  501  0.00000000000E+00  0.00000000000E+00  0.10016294976E+04  0.10016294976E+04  0.25500000920E-02 0. -1.
        2   -1    0    0  501    0  0.00000000000E+00  0.00000000000E+00 -0.28855060127E+04  0.28855060127E+04  0.25500000920E-02 0.  1.
    10030    2    1    2    0    0  0.00000000000E+00  0.00000000000E+00 -0.18838765151E+04  0.38871355103E+04  0.34001223142E+04 0.  0.
        3    1    3    3  502    0 -0.35647202461E+03 -0.18873015850E+03  0.94613498625E+03  0.10285245741E+04  0.10100000352E+00 0. -1.
       -3    1    3    3    0  502  0.35647202461E+03  0.18873015850E+03 -0.28300115013E+04  0.28586109362E+04  0.10100000352E+00 0.  1.
</event>
<event>
 5   0  0.4973409E-08  0.3399100E+04  0.7818609E-02  0.8138127E-01
        2   -1    0    0  501    0  0.00000000000E+00  0.00000000000E+00  0.27059889325E+04  0.27059889325E+04  0.25500000920E-02 0. -1.
       -2   -1    0    0    0  501  0.00000000000E+00  0.00000000000E+00 -0.10674363853E+04  0.10674363853E+04  0.25500000920E-02 0.  1.
    10030    2    1    2    0    0  0.00000000000E+00  0.00000000000E+00  0.16385525472E+04  0.37734253178E+04  0.33991004956E+04 0.  0.
        1    1    3    3  502    0 -0.11520180302E+04  0.48310149576E+03 -0.45998934136E+03  0.13312110243E+04  0.50400001928E-02 0.  1.
       -1    1    3    3    0  502  0.11520180302E+04 -0.48310149576E+03  0.20985418885E+04  0.24422142934E+04  0.50400001928E-02 0. -1.
</event>
<event>
 5   0  0.5001197E-08  0.3399705E+04  0.7818609E-02  0.8137979E-01
       -2   -1    0    0    0  501  0.00000000000E+00  0.00000000000E+00  0.17521846288E+04  0.17521846288E+04  0.25500000920E-02 0. -1.
        2   -1    0    0  501    0  0.00000000000E+00  0.00000000000E+00 -0.16490838101E+04  0.16490838102E+04  0.25500000920E-02 0.  1.
    10030    2    1    2    0    0  0.00000000000E+00  0.00000000000E+00  0.10310081862E+03  0.34012684389E+04  0.33997054600E+04 0.  0.
        5    1    3    3  502    0 -0.30636118726E+03  0.11713794658E+03 -0.16171188879E+04  0.16500527456E+04  0.46999998093E+01 0.  1.
       -5    1    3    3    0  502  0.30636118726E+03 -0.11713794658E+03  0.17202197066E+04  0.17512156933E+04  0.46999998093E+01 0. -1.
</event>
<event>
 5   0  0.1573625E-08  0.3400331E+04  0.7818609E-02  0.8137825E-01
       -4   -1    0    0    0  501  0.00000000000E+00  0.00000000000E+00  0.20600978564E+04  0.20600982479E+04  0.12699999809E+01 0.  1.
        4   -1    0    0  501    0  0.00000000000E+00  0.00000000000E+00 -0.14031183056E+04  0.14031188803E+04  0.12699999809E+01 0. -1.
    10030    2    1    2    0    0  0.00000000000E+00  0.00000000000E+00  0.65697955085E+03  0.34632171282E+04  0.34003309761E+04 0.  0.
        5    1    3    3  502    0  0.61410114619E+03  0.47487252704E+03  0.18690497511E+04  0.20238560217E+04  0.46999998093E+01 0.  1.
       -5    1    3    3    0  502 -0.61410114619E+03 -0.47487252704E+03 -0.12120702002E+04  0.14393611065E+04  0.46999998093E+01 0. -1.
</event>
<event>
 5   0  0.4946315E-08  0.3400835E+04  0.7818609E-02  0.8137701E-01
       -2   -1    0    0    0  501  0.00000000000E+00  0.00000000000E+00  0.15033203002E+04  0.15033203002E+04  0.25500000920E-02 0.  1.
        2   -1    0    0  501    0  0.00000000000E+00  0.00000000000E+00 -0.19233561626E+04  0.19233561626E+04  0.25500000920E-02 0. -1.
    10030    2    1    2    0    0  0.00000000000E+00  0.00000000000E+00 -0.42003586240E+03  0.34266764628E+04  0.34008354054E+04 0.  0.
        3    1    3    3  502    0 -0.10224824580E+04  0.25634676338E+03 -0.15544111585E+04  0.18781315449E+04  0.10100000352E+00 0. -1.
       -3    1    3    3    0  502  0.10224824580E+04 -0.25634676338E+03  0.11343752961E+04  0.15485449179E+04  0.10100000352E+00 0.  1.
</event>
<event>
 5   0  0.4775023E-08  0.3408420E+04  0.7818609E-02  0.8135843E-01
       -2   -1    0    0    0  501  0.00000000000E+00  0.00000000000E+00  0.18827486416E+04  0.18827486416E+04  0.25500000920E-02 0. -1.
        2   -1    0    0  501    0  0.00000000000E+00  0.00000000000E+00 -0.15426023414E+04  0.15426023414E+04  0.25500000920E-02 0.  1.
    10030    2    1    2    0    0  0.00000000000E+00  0.00000000000E+00  0.34014630022E+03  0.34253509830E+04  0.34084204335E+04 0.  0.
        4    1    3    3  502    0 -0.83371987109E+02 -0.10555722281E+04  0.15120515339E+04  0.18459374505E+04  0.12699999809E+01 0. -1.
       -4    1    3    3    0  502  0.83371987109E+02  0.10555722281E+04 -0.11719052337E+04  0.15794135325E+04  0.12699999809E+01 0.  1.
</event>
<event>
 5   0  0.1573625E-08  0.3400541E+04  0.7818609E-02  0.8137773E-01
        3   -1    0    0  501    0  0.00000000000E+00  0.00000000000E+00  0.11307033360E+04  0.11307033405E+04  0.10100000352E+00 0.  1.
       -3   -1    0    0    0  501  0.00000000000E+00  0.00000000000E+00 -0.25567450266E+04  0.25567450286E+04  0.10100000352E+00 0. -1.
    10030    2    1    2    0    0  0.00000000000E+00  0.00000000000E+00 -0.14260416906E+04  0.36874483691E+04  0.34005412174E+04 0.  0.
        4    1    3    3  502    0  0.31734979223E+03 -0.63873782312E+03  0.96064589955E+03  0.11964694123E+04  0.12699999809E+01 0.  1.
       -4    1    3    3    0  502 -0.31734979223E+03  0.63873782312E+03 -0.23866875902E+04  0.24909789568E+04  0.12699999809E+01 0. -1.
</event>
<event>
 5   0  0.4946315E-08  0.3398368E+04  0.7818609E-02  0.8138307E-01
        2   -1    0    0  501    0  0.00000000000E+00  0.00000000000E+00  0.16000997364E+04  0.16000997364E+04  0.25500000920E-02 0. -1.
       -2   -1    0    0    0  501  0.00000000000E+00  0.00000000000E+00 -0.18044040808E+04  0.18044040808E+04  0.25500000920E-02 0.  1.
    10030    2    1    2    0    0  0.00000000000E+00  0.00000000000E+00 -0.20430434438E+03  0.34045038172E+04  0.33983681343E+04 0.  0.
        3    1    3    3  502    0 -0.11407498478E+04  0.96125204853E+03  0.71289571445E+03  0.16533408681E+04  0.10100000352E+00 0. -1.
       -3    1    3    3    0  502  0.11407498478E+04 -0.96125204853E+03 -0.91720005883E+03  0.17511629491E+04  0.10100000352E+00 0.  1.
</event>
<event>
 5   0  0.4775023E-08  0.3396907E+04  0.7818609E-02  0.8138666E-01
        2   -1    0    0  501    0  0.00000000000E+00  0.00000000000E+00  0.14953356782E+04  0.14953356782E+04  0.25500000920E-02 0. -1.
       -2   -1    0    0    0  501  0.00000000000E+00  0.00000000000E+00 -0.19291617697E+04  0.19291617697E+04  0.25500000920E-02 0.  1.
    10030    2    1    2    0    0  0.00000000000E+00  0.00000000000E+00 -0.43382609148E+03  0.34244974479E+04  0.33969070775E+04 0.  0.
        4    1    3    3  502    0  0.51435080977E+03 -0.12720011075E+04 -0.12261431904E+04  0.18401011682E+04  0.12699999809E+01 0.  1.
       -4    1    3    3    0  502 -0.51435080977E+03  0.12720011075E+04  0.79231709890E+03  0.15843962797E+04  0.12699999809E+01 0. -1.
</event>
<event>
 5   0  0.4973409E-08  0.3398955E+04  0.7818609E-02  0.8138163E-01
       -2   -1    0    0    0  501  0.00000000000E+00  0.00000000000E+00  0.29545895257E+04  0.29545895257E+04  0.25500000920E-02 0. -1.
        2   -1    0    0  501    0  0.00000000000E+00  0.00000000000E+00 -0.97753835390E+03  0.97753835390E+03  0.25500000920E-02 0.  1.
    10030    2    1    2    0    0  0.00000000000E+00  0.00000000000E+00  0.19770511718E+04  0.39321278796E+04  0.33989554757E+04 0.  0.
        1    1    3    3  502    0 -0.10759665428E+04 -0.11958364551E+04  0.16226892098E+04  0.22849177447E+04  0.50400001928E-02 0. -1.
       -1    1    3    3    0  502  0.10759665428E+04  0.11958364551E+04  0.35436196202E+03  0.16472101349E+04  0.50400001928E-02 0.  1.
</event>
<event>
 5   0  0.1645631E-08  0.3399656E+04  0.7818609E-02  0.8137991E-01
        1   -1    0    0  501    0  0.00000000000E+00  0.00000000000E+00  0.10609459660E+04  0.10609459660E+04  0.50400001928E-02 0. -1.
       -1   -1    0    0    0  501  0.00000000000E+00  0.00000000000E+00 -0.27234332014E+04  0.27234332014E+04  0.50400001928E-02 0.  1.
    10030    2    1    2    0    0  0.00000000000E+00  0.00000000000E+00 -0.16624872354E+04  0.37843791675E+04  0.33996561407E+04 0.  0.
        4    1    3    3  502    0  0.91842123826E+03 -0.14112221890E+04 -0.10908002921E+04  0.20062134801E+04  0.12699999809E+01 0. -1.
       -4    1    3    3    0  502 -0.91842123826E+03  0.14112221890E+04 -0.57168694334E+03  0.17781656874E+04  0.12699999809E+01 0.  1.
</event>
<event>
 5   0  0.4946315E-08  0.3401152E+04  0.7818609E-02  0.8137624E-01
        2   -1    0    0  501    0  0.00000000000E+00  0.00000000000E+00  0.20383258994E+04  0.20383258994E+04  0.25500000920E-02 0.  1.
       -2   -1    0    0    0  501  0.00000000000E+00  0.00000000000E+00 -0.14187914155E+04  0.14187914155E+04  0.25500000920E-02 0. -1.
    10030    2    1    2    0    0  0.00000000000E+00  0.00000000000E+00  0.61953448385E+03  0.34571173149E+04  0.34011523272E+04 0.  0.
        3    1    3    3  502    0 -0.12552042310E+04 -0.63274676008E+03  0.12826228155E+04  0.19028997401E+04  0.10100000352E+00 0.  1.
       -3    1    3    3    0  502  0.12552042310E+04  0.63274676008E+03 -0.66308833166E+03  0.15542175748E+04  0.10100000352E+00 0. -1.
</event>
<event>
 5   0  0.5001197E-08  0.3404757E+04  0.7818609E-02  0.8136740E-01
       -2   -1    0    0    0  501  0.00000000000E+00  0.00000000000E+00  0.11870358557E+04  0.11870358557E+04  0.25500000920E-02 0. -1.
        2   -1    0    0  501    0  0.00000000000E+00  0.00000000000E+00 -0.24414530948E+04  0.24414530948E+04  0.25500000920E-02 0.  1.
    10030    2    1    2    0    0  0.00000000000E+00  0.00000000000E+00 -0.12544172392E+04  0.36284889505E+04  0.34047568861E+04 0.  0.
        5    1    3    3  502    0 -0.81921953357E+03  0.79238481229E+03 -0.19748497031E+04  0.22801420515E+04  0.46999998093E+01 0.  1.
       -5    1    3    3    0  502  0.81921953357E+03 -0.79238481229E+03  0.72043246396E+03  0.13483468990E+04  0.46999998093E+01 0. -1.
</event>
<event>
 5   0  0.1630571E-08  0.3399674E+04  0.7818609E-02  0.8137986E-01
        1   -1    0    0  501    0  0.00000000000E+00  0.00000000000E+00  0.20160380751E+04  0.20160380751E+04  0.50400001928E-02 0.  1.
       -1   -1    0    0    0  501  0.00000000000E+00  0.00000000000E+00 -0.14332300770E+04  0.14332300770E+04  0.50400001928E-02 0. -1.
    10030    2    1    2    0    0  0.00000000000E+00  0.00000000000E+00  0.58280799802E+03  0.34492681521E+04  0.33996743407E+04 0.  0.
        3    1    3    3  502    0  0.18787305551E+03  0.10542802894E+04 -0.10479453682E+04  0.14983299765E+04  0.10100000352E+00 0. -1.
       -3    1    3    3    0  502 -0.18787305551E+03 -0.10542802894E+04  0.16307533662E+04  0.19509381756E+04  0.10100000352E+00 0.  1.
</event>
<event>
 5   0  0.1645631E-08  0.3400986E+04  0.7818609E-02  0.8137664E-01
        1   -1    0    0  501    0  0.00000000000E+00  0.00000000000E+00  0.17546848484E+04  0.17546848484E+04  0.50400001928E-02 0. -1.
       -1   -1    0    0    0  501  0.00000000000E+00  0.00000000000E+00 -0.16479752872E+04  0.16479752872E+04  0.50400001928E-02 0.  1.
    10030    2    1    2    0    0  0.00000000000E+00  0.00000000000E+00  0.10670956124E+03  0.34026601357E+04  0.34009864846E+04 0.  0.
        4    1    3    3  502    0  0.90298887859E+03  0.14363049011E+04 -0.62092516187E+02  0.16977095680E+04  0.12699999809E+01 0. -1.
       -4    1    3    3    0  502 -0.90298887859E+03 -0.14363049011E+04  0.16880207743E+03  0.17049505676E+04  0.12699999809E+01 0.  1.
</event>
<event>
 5   0  0.4775023E-08  0.3399867E+04  0.7818609E-02  0.8137939E-01
       -2   -1    0    0    0  501  0.00000000000E+00  0.00000000000E+00  0.11367167224E+04  0.11367167224E+04  0.25500000920E-02 0.  1.
        2   -1    0    0  501    0  0.00000000000E+00  0.00000000000E+00 -0.25422109077E+04  0.25422109077E+04  0.25500000920E-02 0. -1.
    10030    2    1    2    0    0  0.00000000000E+00  0.00000000000E+00 -0.14054941853E+04  0.36789276302E+04  0.33998668508E+04 0.  0.
        4    1    3    3  502    0  0.40620662801E+03 -0.12656342657E+04 -0.18494139177E+04  0.22775353721E+04  0.12699999809E+01 0. -1.
       -4    1    3    3    0  502 -0.40620662801E+03  0.12656342657E+04  0.44391973242E+03  0.14013922581E+04  0.12699999809E+01 0.  1.
</event>
<event>
 5   0  0.1630571E-08  0.3400307E+04  0.7818609E-02  0.8137831E-01
        1   -1    0    0  501    0  0.00000000000E+00  0.00000000000E+00  0.24387930848E+04  0.24387930848E+04  0.50400001928E-02 0. -1.
       -1   -1    0    0    0  501  0.00000000000E+00  0.00000000000E+00 -0.11852265959E+04  0.11852265959E+04  0.50400001928E-02 0.  1.
    10030    2    1    2    0    0  0.00000000000E+00  0.00000000000E+00  0.12535664889E+04  0.36240196808E+04  0.34003072956E+04 0.  0.
        3    1    3    3  502    0  0.32169739023E+03 -0.30889401454E+03 -0.11217708297E+04  0.12071762620E+04  0.10100000352E+00 0.  1.
       -3    1    3    3    0  502 -0.32169739023E+03  0.30889401454E+03  0.23753373186E+04  0.24168434187E+04  0.10100000352E+00 0. -1.
</event>
<event>
 5   0  0.5001197E-08  0.3401371E+04  0.7818609E-02  0.8137570E-01
        2   -1    0    0  501    0  0.00000000000E+00  0.00000000000E+00  0.31693557672E+04  0.31693557672E+04  0.25500000920E-02 0.  1.
       -2   -1    0    0    0  501  0.00000000000E+00  0.00000000000E+00 -0.91259283069E+03  0.91259283069E+03  0.25500000920E-02 0. -1.
    10030    2    1    2    0    0  0.00000000000E+00  0.00000000000E+00  0.22567629366E+04  0.40819485979E+04  0.34013711065E+04 0.  0.
        5    1    3    3  502    0  0.33838724829E+03 -0.57289416556E+03  0.30066630961E+04  0.30794088261E+04  0.46999998093E+01 0.  1.
       -5    1    3    3    0  502 -0.33838724829E+03  0.57289416556E+03 -0.74990015957E+03  0.10025397718E+04  0.46999998093E+01 0. -1.
</event>
<event>
 5   0  0.4764953E-08  0.3399756E+04  0.7818609E-02  0.8137966E-01
        2   -1    0    0  501    0  0.00000000000E+00  0.00000000000E+00  0.16292653580E+04  0.16292653580E+04  0.25500000920E-02 0.  1.
       -2   -1    0    0    0  501  0.00000000000E+00  0.00000000000E+00 -0.17735514378E+04  0.17735514378E+04  0.25500000920E-02 0. -1.
    10030    2    1    2    0    0  0.00000000000E+00  0.00000000000E+00 -0.14428607979E+03  0.34028167958E+04  0.33997564137E+04 0.  0.
        2    1    3    3  502    0 -0.14276283110E+04  0.39037442176E+03 -0.90900042105E+03  0.17368927857E+04  0.25500000920E-02 0. -1.
       -2    1    3    3    0  502  0.14276283110E+04 -0.39037442176E+03  0.76471434126E+03  0.16659240101E+04  0.25500000920E-02 0.  1.
</event>
<event>
 5   0  0.5001197E-08  0.3399869E+04  0.7818609E-02  0.8137939E-01
       -2   -1    0    0    0  501  0.00000000000E+00  0.00000000000E+00  0.11877220117E+04  0.11877220117E+04  0.25500000920E-02 0. -1.
        2   -1    0    0  501    0  0.00000000000E+00  0.00000000000E+00 -0.24330414366E+04  0.24330414366E+04  0.25500000920E-02 0.  1.
    10030    2    1    2    0    0  0.00000000000E+00  0.00000000000E+00 -0.12453194249E+04  0.36207634482E+04  0.33998687442E+04 0.  0.
        5    1    3    3  502    0 -0.30114659901E+03 -0.14827832132E+04  0.20255198763E+03  0.15265597693E+04  0.46999998093E+01 0. -1.
       -5    1    3    3    0  502  0.30114659901E+03  0.14827832132E+04 -0.14478714125E+04  0.20942036789E+04  0.46999998093E+01 0.  1.
</event>
<event>
 5   0  0.1579536E-08  0.3401533E+04  0.7818609E-02  0.8137530E-01
        1   -1    0    0  501    0  0.00000000000E+00  0.00000000000E+00  0.14343611856E+04  0.14343611856E+04  0.50400001928E-02 0. -1.
       -1   -1    0    0    0  501  0.00000000000E+00  0.00000000000E+00 -0.20166510542E+04  0.20166510542E+04  0.50400001928E-02 0.  1.
    10030    2    1    2    0    0  0.00000000000E+00  0.00000000000E+00 -0.58228986869E+03  0.34510122398E+04  0.34015325940E+04 0.  0.
        5    1    3    3  502    0  0.60844529475E+02 -0.15249321847E+04  0.47041629708E+03  0.15970077668E+04  0.46999998093E+01 0. -1.
       -5    1    3    3    0  502 -0.60844529475E+02  0.15249321847E+04 -0.10527061658E+04  0.18540044730E+04  0.46999998093E+01 0.  1.
</event>
<event>
 5   0  0.1645631E-08  0.3404397E+04  0.7818609E-02  0.8136828E-01
        1   -1    0    0  501    0  0.00000000000E+00  0.00000000000E+00  0.21264573596E+04  0.21264573596E+04  0.50400001928E-02 0. -1.
       -1   -1    0    0    0  501  0.00000000000E+00  0.00000000000E+00 -0.13625850182E+04  0.13625850182E+04  0.50400001928E-02 0.  1.
    10030    2    1    2    0    0  0.00000000000E+00  0.00000000000E+00  0.76387234143E+03  0.34890423778E+04  0.34043965339E+04 0.  0.
        4    1    3    3  502    0  0.15262807307E+04 -0.25110588214E+03 -0.34628720533E+03  0.15850878444E+04  0.12699999809E+01 0.  1.
       -4    1    3    3    0  502 -0.15262807307E+04  0.25110588214E+03  0.11101595468E+04  0.19039545334E+04  0.12699999809E+01 0. -1.
</event>
<event>
 5   0  0.4946315E-08  0.3399360E+04  0.7818609E-02  0.8138063E-01
       -2   -1    0    0    0  501  0.00000000000E+00  0.00000000000E+00  0.10369373312E+04  0.10369373313E+04  0.25500000920E-02 0. -1.
        2   -1    0    0  501    0  0.00000000000E+00  0.00000000000E+00 -0.27860042328E+04  0.27860042328E+04  0.25500000920E-02 0.  1.
    10030    2    1    2    0    0  0.00000000000E+00  0.00000000000E+00 -0.17490669016E+04  0.38229415641E+04  0.33993598186E+04 0.  0.
        3    1    3    3  502    0  0.21372355336E+03  0.88808768484E+03  0.73743753309E+03  0.11739640619E+04  0.10100000352E+00 0. -1.
       -3    1    3    3    0  502 -0.21372355336E+03 -0.88808768484E+03 -0.24865044347E+04  0.26489775022E+04  0.10100000352E+00 0.  1.
</event>
<event>
 5   0  0.1595851E-08  0.3399088E+04  0.7818609E-02  0.8138130E-01
        1   -1    0    0  501    0  0.00000000000E+00  0.00000000000E+00  0.24074345738E+04  0.24074345738E+04  0.50400001928E-02 0. -1.
       -1   -1    0    0    0  501  0.00000000000E+00  0.00000000000E+00 -0.11998038971E+04  0.11998038971E+04  0.50400001928E-02 0.  1.
    10030    2    1    2    0    0  0.00000000000E+00  0.00000000000E+00  0.12076306767E+04  0.36072384709E+04  0.33990877503E+04 0.  0.
        2    1    3    3  502    0  0.26600672411E+03  0.64841954638E+02  0.23838760094E+04  0.23995476416E+04  0.25500000920E-02 0. -1.
       -2    1    3    3    0  502 -0.26600672411E+03 -0.64841954638E+02 -0.11762453327E+04  0.12076908292E+04  0.25500000920E-02 0.  1.
</event>
<event>
 5   0  0.4775023E-08  0.3400469E+04  0.7818609E-02  0.8137791E-01
       -2   -1    0    0    0  501  0.00000000000E+00  0.00000000000E+00  0.19548465646E+04  0.19548465646E+04  0.25500000920E-02 0.  1.
        2   -1    0    0  501    0  0.00000000000E+00  0.00000000000E+00 -0.14787845308E+04  0.14787845308E+04  0.25500000920E-02 0. -1.
    10030    2    1    2    0    0  0.00000000000E+00  0.00000000000E+00  0.47606203380E+03  0.34336310954E+04  0.34004687087E+04 0.  0.
        4    1    3    3  502    0 -0.62941223549E+03  0.57861941928E+02  0.18318051475E+04  0.19377872633E+04  0.12699999809E+01 0.  1.
       -4    1    3    3    0  502  0.62941223549E+03 -0.57861941928E+02 -0.13557431137E+04  0.14958438320E+04  0.12699999809E+01 0. -1.
</event>
<event>
 5   0  0.1645631E-08  0.3413881E+04  0.7818609E-02  0.8134508E-01
       -1   -1    0    0    0  501  0.00000000000E+00  0.00000000000E+00  0.12412926190E+04  0.12412926190E+04  0.50400001928E-02 0.  1.
        1   -1    0    0  501    0  0.00000000000E+00  0.00000000000E+00 -0.23472674133E+04  0.23472674133E+04  0.50400001928E-02 0. -1.
    10030    2    1    2    0    0  0.00000000000E+00  0.00000000000E+00 -0.11059747943E+04  0.35885600324E+04  0.34138809089E+04 0.  0.
        4    1    3    3  502    0  0.53050322842E+03 -0.10666364896E+04  0.73206068101E+03  0.13982351483E+04  0.12699999809E+01 0.  1.
       -4    1    3    3    0  502 -0.53050322842E+03  0.10666364896E+04 -0.18380354753E+04  0.21903248841E+04  0.12699999809E+01 0. -1.
</event>
<event>
 5   0  0.1625282E-08  0.3400366E+04  0.7818609E-02  0.8137817E-01
       -1   -1    0    0    0  501  0.00000000000E+00  0.00000000000E+00  0.15740539622E+04  0.15740539622E+04  0.50400001928E-02 0. -1.
        1   -1    0    0  501    0  0.00000000000E+00  0.00000000000E+00 -0.18364183874E+04  0.18364183874E+04  0.50400001928E-02 0.  1.
    10030    2    1    2    0    0  0.00000000000E+00  0.00000000000E+00 -0.26236442525E+03  0.34104723496E+04  0.34003656503E+04 0.  0.
        1    1    3    3  502    0  0.69773738312E+03  0.92147446342E+03  0.11193874281E+04  0.16090310304E+04  0.50400001928E-02 0. -1.
       -1    1    3    3    0  502 -0.69773738312E+03 -0.92147446342E+03 -0.13817518533E+04  0.18014413193E+04  0.50400001928E-02 0.  1.
</event>
<event>
 5   0  0.1579536E-08  0.3399900E+04  0.7818609E-02  0.8137931E-01
        1   -1    0    0  501    0  0.00000000000E+00  0.00000000000E+00  0.22304663905E+04  0.22304663905E+04  0.50400001928E-02 0. -1.
       -1   -1    0    0    0  501  0.00000000000E+00  0.00000000000E+00 -0.12956168535E+04  0.12956168535E+04  0.50400001928E-02 0.  1.
    10030    2    1    2    0    0  0.00000000000E+00  0.00000000000E+00  0.93484953701E+03  0.35260832440E+04  0.33998999083E+04 0.  0.
        5    1    3    3  502    0 -0.16300717789E+04 -0.30904314534E+03  0.85152962951E+03  0.18648770656E+04  0.46999998093E+01 0. -1.
       -5    1    3    3    0  502  0.16300717789E+04  0.30904314534E+03  0.83319907508E+02  0.16612061783E+04  0.46999998093E+01 0.  1.
</event>
<event>
 5   0  0.1630571E-08  0.3401143E+04  0.7818609E-02  0.8137626E-01
        1   -1    0    0  501    0  0.00000000000E+00  0.00000000000E+00  0.17933758482E+04  0.17933758482E+04  0.50400001928E-02 0.  1.
       -1   -1    0    0    0  501  0.00000000000E+00  0.00000000000E+00 -0.16125700033E+04  0.16125700033E+04  0.50400001928E-02 0. -1.
    10030    2    1    2    0    0  0.00000000000E+00  0.00000000000E+00  0.18080584486E+03  0.34059458515E+04  0.34011433945E+04 0.  0.
        3    1    3    3  502    0 -0.29014921746E+03  0.72723853111E+03 -0.14213251616E+04  0.16227223037E+04  0.10100000352E+00 0. -1.
       -3    1    3    3    0  502  0.29014921746E+03 -0.72723853111E+03  0.16021310065E+04  0.17832235479E+04  0.10100000352E+00 0.  1.
</event>
<event>
 5   0  0.4764953E-08  0.3399728E+04  0.7818609E-02  0.8137973E-01
       -2   -1    0    0    0  501  0.00000000000E+00  0.00000000000E+00  0.21169159514E+04  0.21169159514E+04  0.25500000920E-02 0.  1.
        2   -1    0    0  501    0  0.00000000000E+00  0.00000000000E+00 -0.13649753468E+04  0.13649753468E+04  0.25500000920E-02 0. -1.
    10030    2    1    2    0    0  0.00000000000E+00  0.00000000000E+00  0.75194060456E+03  0.34818912982E+04  0.33997282744E+04 0.  0.
        2    1    3    3  502    0  0.47492256135E+03 -0.84149396812E+03 -0.10563544564E+04  0.14316243485E+04  0.25500000920E-02 0. -1.
       -2    1    3    3    0  502 -0.47492256135E+03  0.84149396812E+03  0.18082950610E+04  0.20502669497E+04  0.25500000920E-02 0.  1.
</event>
<event>
 5   0  0.1645631E-08  0.3401184E+04  0.7818609E-02  0.8137616E-01
       -1   -1    0    0    0  501  0.00000000000E+00  0.00000000000E+00  0.14505558262E+04  0.14505558262E+04  0.50400001928E-02 0.  1.
        1   -1    0    0  501    0  0.00000000000E+00  0.00000000000E+00 -0.19937279884E+04  0.19937279884E+04  0.50400001928E-02 0. -1.
    10030    2    1    2    0    0  0.00000000000E+00  0.00000000000E+00 -0.54317216219E+03  0.34442838146E+04  0.34011843522E+04 0.  0.
        4    1    3    3  502    0 -0.78286427672E+03  0.14629046943E+04 -0.64919935534E+03  0.17816924640E+04  0.12699999809E+01 0. -1.
       -4    1    3    3    0  502  0.78286427672E+03 -0.14629046943E+04  0.10602719315E+03  0.16625913506E+04  0.12699999809E+01 0.  1.
</event>
<event>
 5   0  0.4946315E-08  0.3400039E+04  0.7818609E-02  0.8137897E-01
        2   -1    0    0  501    0  0.00000000000E+00  0.00000000000E+00  0.24271366822E+04  0.24271366822E+04  0.25500000920E-02 0.  1.
       -2   -1    0    0    0  501  0.00000000000E+00  0.00000000000E+00 -0.11907308766E+04  0.11907308766E+04  0.25500000920E-02 0. -1.
    10030    2    1    2    0    0  0.00000000000E+00  0.00000000000E+00  0.12364058056E+04  0.36178675588E+04  0.34000391699E+04 0.  0.
        3    1    3    3  502    0 -0.34707074900E+03  0.15723753305E+04  0.38072658376E+02  0.16106743378E+04  0.10100000352E+00 0. -1.
       -3    1    3    3    0  502  0.34707074900E+03 -0.15723753305E+04  0.11983331472E+04  0.20071932211E+04  0.10100000352E+00 0.  1.
</event>
<event>
 5   0  0.4775023E-08  0.3399298E+04  0.7818609E-02  0.8138079E-01
       -2   -1    0    0    0  501  0.00000000000E+00  0.00000000000E+00  0.11869557042E+04  0.11869557042E+04  0.25500000920E-02 0.  1.
        2   -1    0    0  501    0  0.00000000000E+00  0.00000000000E+00 -0.24337947921E+04  0.24337947921E+04  0.25500000920E-02 0. -1.
    10030    2    1    2    0    0  0.00000000000E+00  0.00000000000E+00 -0.12468390879E+04  0.36207504962E+04  0.33992979341E+04 0.  0.
        4    1    3    3  502    0  0.11742095516E+04  0.52639500599E+03  0.55929860187E+03  0.14030952614E+04  0.12699999809E+01 0.  1.
       -4    1    3    3    0  502 -0.11742095516E+04 -0.52639500599E+03 -0.18061376897E+04  0.22176552349E+04  0.12699999809E+01 0. -1.
</event>
<event>
 5   0  0.1625282E-08  0.3399893E+04  0.7818609E-02  0.8137933E-01
       -1   -1    0    0    0  501  0.00000000000E+00  0.00000000000E+00  0.17744393102E+04  0.17744393102E+04  0.50400001928E-02 0. -1.
        1   -1    0    0  501    0  0.00000000000E+00  0.00000000000E+00 -0.16285806747E+04  0.16285806747E+04  0.50400001928E-02 0.  1.
    10030    2    1    2    0    0  0.00000000000E+00  0.00000000000E+00  0.14585863553E+03  0.34030199849E+04  0.33998926859E+04 0.  0.
        1    1    3    3  502    0  0.12868535964E+04  0.99522247650E+03 -0.42083733798E+03  0.16803463992E+04  0.50400001928E-02 0.  1.
       -1    1    3    3    0  502 -0.12868535964E+04 -0.99522247650E+03  0.56669597351E+03  0.17226735857E+04  0.50400001928E-02 0. -1.
</event>
<event>
 5   0  0.5001197E-08  0.3400016E+04  0.7818609E-02  0.8137902E-01
       -2   -1    0    0    0  501  0.00000000000E+00  0.00000000000E+00  0.15299455389E+04  0.15299455389E+04  0.25500000920E-02 0.  1.
        2   -1    0    0  501    0  0.00000000000E+00  0.00000000000E+00 -0.18889736626E+04  0.18889736626E+04  0.25500000920E-02 0. -1.
    10030    2    1    2    0    0  0.00000000000E+00  0.00000000000E+00 -0.35902812374E+03  0.34189192015E+04  0.34000157813E+04 0.  0.
        5    1    3    3  502    0  0.98329113354E+03 -0.12684048047E+04  0.38422085922E+03  0.16502605735E+04  0.46999998093E+01 0.  1.
       -5    1    3    3    0  502 -0.98329113354E+03  0.12684048047E+04 -0.74324898296E+03  0.17686586280E+04  0.46999998093E+01 0. -1.
</event>
<event>
 5   0  0.4973409E-08  0.3403704E+04  0.7818609E-02  0.8136998E-01
        2   -1    0    0  501    0  0.00000000000E+00  0.00000000000E+00  0.25186712093E+04  0.25186712093E+04  0.25500000920E-02 0. -1.
       -2   -1    0    0    0  501  0.00000000000E+00  0.00000000000E+00 -0.11499316930E+04  0.11499316930E+04  0.25500000920E-02 0.  1.
    10030    2    1    2    0    0  0.00000000000E+00  0.00000000000E+00  0.13687395162E+04  0.36686029023E+04  0.34037037755E+04 0.  0.
        1    1    3    3  502    0  0.86447678255E+03 -0.13614331025E+04  0.98484278025E+02  0.16157101700E+04  0.50400001928E-02 0.  1.
       -1    1    3    3    0  502 -0.86447678255E+03  0.13614331025E+04  0.12702552382E+04  0.20528927323E+04  0.50400001928E-02 0. -1.
</event>
<event>
 5   0  0.4946315E-08  0.3400439E+04  0.7818609E-02  0.8137799E-01
       -2   -1    0    0    0  501  0.00000000000E+00  0.00000000000E+00  0.13956462041E+04  0.13956462041E+04  0.25500000920E-02 0.  1.
        2   -1    0    0  501    0  0.00000000000E+00  0.00000000000E+00 -0.20712602871E+04  0.20712602871E+04  0.25500000920E-02 0. -1.
    10030    2    1    2    0    0  0.00000000000E+00  0.00000000000E+00 -0.67561408303E+03  0.34669064912E+04  0.34004391231E+04 0.  0.
        3    1    3    3  502    0 -0.15233913595E+04  0.73923970791E+03 -0.18134741893E+03  0.17029631460E+04  0.10100000352E+00 0. -1.
       -3    1    3    3    0  502  0.15233913595E+04 -0.73923970791E+03 -0.49426666411E+03  0.17639433453E+04  0.10100000352E+00 0.  1.
</event>
<event>
 5   0  0.1625282E-08  0.3399631E+04  0.7818609E-02  0.8137997E-01
        1   -1    0    0  501    0  0.00000000000E+00  0.00000000000E+00  0.22077818794E+04  0.22077818794E+04  0.50400001928E-02 0.  1.
       -1   -1    0    0    0  501  0.00000000000E+00  0.00000000000E+00 -0.13087220675E+04  0.13087220676E+04  0.50400001928E-02 0. -1.
    10030    2    1    2    0    0  0.00000000000E+00  0.00000000000E+00  0.89905981184E+03  0.35165039469E+04  0.33996310776E+04 0.  0.
        1    1    3    3  502    0  0.37138862844E+03  0.42472914306E+03  0.21081023811E+04  0.21822969568E+04  0.50400001928E-02 0.  1.
       -1    1    3    3    0  502 -0.37138862844E+03 -0.42472914306E+03 -0.12090425693E+04  0.13342069902E+04  0.50400001928E-02 0. -1.
</event>
<event>
 5   0  0.1595851E-08  0.3399548E+04  0.7818609E-02  0.8138017E-01
        1   -1    0    0  501    0  0.00000000000E+00  0.00000000000E+00  0.19675162571E+04  0.19675162571E+04  0.50400001928E-02 0.  1.
       -1   -1    0    0    0  501  0.00000000000E+00  0.00000000000E+00 -0.14684662730E+04  0.14684662730E+04  0.50400001928E-02 0. -1.
    10030    2    1    2    0    0  0.00000000000E+00  0.00000000000E+00  0.49904998408E+03  0.34359825301E+04  0.33995477729E+04 0.  0.
        2    1    3    3  502    0  0.13130132594E+04 -0.93823309469E+03  0.78904948029E+03  0.17963530393E+04  0.25500000920E-02 0. -1.
       -2    1    3    3    0  502 -0.13130132594E+04  0.93823309469E+03 -0.28999949622E+03  0.16396294908E+04  0.25500000920E-02 0.  1.
</event>
<event>
 5   0  0.4973409E-08  0.3400996E+04  0.7818609E-02  0.8137662E-01
        2   -1    0    0  501    0  0.00000000000E+00  0.00000000000E+00  0.13127414539E+04  0.13127414540E+04  0.25500000920E-02 0.  1.
       -2   -1    0    0    0  501  0.00000000000E+00  0.00000000000E+00 -0.22027899836E+04  0.22027899836E+04  0.25500000920E-02 0. -1.
    10030    2    1    2    0    0  0.00000000000E+00  0.00000000000E+00 -0.89004852960E+03  0.35155314375E+04  0.34009961633E+04 0.  0.
        1    1    3    3  502    0 -0.61204365852E+03 -0.41068041480E+03  0.11390457844E+04  0.13567170457E+04  0.50400001928E-02 0.  1.
       -1    1    3    3    0  502  0.61204365852E+03  0.41068041480E+03 -0.20290943140E+04  0.21588143918E+04  0.50400001928E-02 0. -1.
</event>
<event>
 5   0  0.4946315E-08  0.3391442E+04  0.7818609E-02  0.8140010E-01
       -2   -1    0    0    0  501  0.00000000000E+00  0.00000000000E+00  0.15316519700E+04  0.15316519700E+04  0.25500000920E-02 0. -1.
        2   -1    0    0  501    0  0.00000000000E+00  0.00000000000E+00 -0.18773649142E+04  0.18773649143E+04  0.25500000920E-02 0.  1.
    10030    2    1    2    0    0  0.00000000000E+00  0.00000000000E+00 -0.34571294429E+03  0.34090168842E+04  0.33914419761E+04 0.  0.
        3    1    3    3  502    0  0.77593373433E+03  0.15056612419E+04 -0.92563094005E+02  0.16963657836E+04  0.10100000352E+00 0.  1.
       -3    1    3    3    0  502 -0.77593373433E+03 -0.15056612419E+04 -0.25314985029E+03  0.17126511006E+04  0.10100000352E+00 0. -1.
</event>
<event>
 5   0  0.1579536E-08  0.3385800E+04  0.7818609E-02  0.8141400E-01
       -1   -1    0    0    0  501  0.00000000000E+00  0.00000000000E+00  0.13412824117E+04  0.13412824117E+04  0.50400001928E-02 0. -1.
        1   -1    0    0  501    0  0.00000000000E+00  0.00000000000E+00 -0.21366945725E+04  0.21366945725E+04  0.50400001928E-02 0.  1.
    10030    2    1    2    0    0  0.00000000000E+00  0.00000000000E+00 -0.79541216076E+03  0.34779769842E+04  0.33858002595E+04 0.  0.
        5    1    3    3  502    0  0.16142167232E+04  0.50587253793E+03 -0.46495677658E+03  0.17543687036E+04  0.46999998093E+01 0.  1.
       -5    1    3    3    0  502 -0.16142167232E+04 -0.50587253793E+03 -0.33045538418E+03  0.17236082806E+04  0.46999998093E+01 0. -1.
</event>
<event>
 5   0  0.4946315E-08  0.3398581E+04  0.7818609E-02  0.8138255E-01
       -2   -1    0    0    0  501  0.00000000000E+00  0.00000000000E+00  0.13889387635E+04  0.13889387635E+04  0.25500000920E-02 0. -1.
        2   -1    0    0  501    0  0.00000000000E+00  0.00000000000E+00 -0.20789886243E+04  0.20789886243E+04  0.25500000920E-02 0.  1.
    10030    2    1    2    0    0  0.00000000000E+00  0.00000000000E+00 -0.69004986077E+03  0.34679273878E+04  0.33985808151E+04 0.  0.
        3    1    3    3  502    0  0.14847288170E+03 -0.11503312027E+04 -0.16122514758E+04  0.19861170418E+04  0.10100000352E+00 0.  1.
       -3    1    3    3    0  502 -0.14847288170E+03  0.11503312027E+04  0.92220161500E+03  0.14818103460E+04  0.10100000352E+00 0. -1.
</event>
<event>
 5   0  0.1645631E-08  0.3400362E+04  0.7818609E-02  0.8137818E-01
       -1   -1    0    0    0  501  0.00000000000E+00  0.00000000000E+00  0.13218690853E+04  0.13218690853E+04  0.50400001928E-02 0.  1.
        1   -1    0    0  501    0  0.00000000000E+00  0.00000000000E+00 -0.21867631756E+04  0.21867631756E+04  0.50400001928E-02 0. -1.
    10030    2    1    2    0    0  0.00000000000E+00  0.00000000000E+00 -0.86489409026E+03  0.35086322609E+04  0.34003615329E+04 0.  0.
        4    1    3    3  502    0 -0.91347390862E+03  0.67427882654E+03  0.87336245369E+03  0.14324280457E+04  0.12699999809E+01 0.  1.
       -4    1    3    3    0  502  0.91347390862E+03 -0.67427882654E+03 -0.17382565439E+04  0.20762042152E+04  0.12699999809E+01 0. -1.
</event>
<event>
 5   0  0.1645631E-08  0.3398081E+04  0.7818609E-02  0.8138377E-01
        1   -1    0    0  501    0  0.00000000000E+00  0.00000000000E+00  0.20482315448E+04  0.20482315448E+04  0.50400001928E-02 0.  1.
       -1   -1    0    0    0  501  0.00000000000E+00  0.00000000000E+00 -0.14093809038E+04  0.14093809038E+04  0.50400001928E-02 0. -1.
    10030    2    1    2    0    0  0.00000000000E+00  0.00000000000E+00  0.63885064101E+03  0.34576124486E+04  0.33980808853E+04 0.  0.
        4    1    3    3  502    0  0.45522591560E+03 -0.45245822846E+03 -0.12812806984E+04  0.14330495189E+04  0.12699999809E+01 0. -1.
       -4    1    3    3    0  502 -0.45522591560E+03  0.45245822846E+03  0.19201313394E+04  0.20245629297E+04  0.12699999809E+01 0.  1.
</event>
<event>
 5   0  0.4946315E-08  0.3398057E+04  0.7818609E-02  0.8138383E-01
       -2   -1    0    0    0  501  0.00000000000E+00  0.00000000000E+00  0.25350132706E+04  0.25350132706E+04  0.25500000920E-02 0. -1.
        2   -1    0    0  501    0  0.00000000000E+00  0.00000000000E+00 -0.11387307221E+04  0.11387307221E+04  0.25500000920E-02 0.  1.
    10030    2    1    2    0    0  0.00000000000E+00  0.00000000000E+00  0.13962825485E+04  0.36737439927E+04  0.33980567930E+04 0.  0.
        3    1    3    3  502    0  0.57060160177E+03  0.10848814452E+03 -0.10280633417E+04  0.11807921537E+04  0.10100000352E+00 0.  1.
       -3    1    3    3    0  502 -0.57060160177E+03 -0.10848814452E+03  0.24243458903E+04  0.24929518390E+04  0.10100000352E+00 0. -1.
</event>
<event>
 5   0  0.1630571E-08  0.3403760E+04  0.7818609E-02  0.8136984E-01
       -1   -1    0    0    0  501  0.00000000000E+00  0.00000000000E+00  0.15272314855E+04  0.15272314855E+04  0.50400001928E-02 0. -1.
        1   -1    0    0  501    0  0.00000000000E+00  0.00000000000E+00 -0.18965003884E+04  0.18965003884E+04  0.50400001928E-02 0.  1.
    10030    2    1    2    0    0  0.00000000000E+00  0.00000000000E+00 -0.36926890285E+03  0.34237318739E+04  0.34037597480E+04 0.  0.
        3    1    3    3  502    0 -0.20287693731E+03  0.10357242372E+04 -0.15275756572E+04  0.18567097635E+04  0.10100000352E+00 0.  1.
       -3    1    3    3    0  502  0.20287693731E+03 -0.10357242372E+04  0.11583067543E+04  0.15670221104E+04  0.10100000352E+00 0. -1.
</event>
<event>
 5   0  0.1625282E-08  0.3398908E+04  0.7818609E-02  0.8138174E-01
        1   -1    0    0  501    0  0.00000000000E+00  0.00000000000E+00  0.15576797515E+04  0.15576797515E+04  0.50400001928E-02 0. -1.
       -1   -1    0    0    0  501  0.00000000000E+00  0.00000000000E+00 -0.18541315833E+04  0.18541315833E+04  0.50400001928E-02 0.  1.
    10030    2    1    2    0    0  0.00000000000E+00  0.00000000000E+00 -0.29645183184E+03  0.34118113348E+04  0.33989076033E+04 0.  0.
        1    1    3    3  502    0  0.42239007766E+03 -0.15153325669E+04  0.49725270258E+03  0.16498201163E+04  0.50400001928E-02 0.  1.
       -1    1    3    3    0  502 -0.42239007766E+03  0.15153325669E+04 -0.79370453443E+03  0.17619912185E+04  0.50400001928E-02 0. -1.
</event>
<event>
 5   0  0.1645631E-08  0.3399632E+04  0.7818609E-02  0.8137997E-01
       -1   -1    0    0    0  501  0.00000000000E+00  0.00000000000E+00  0.12214398137E+04  0.12214398137E+04  0.50400001928E-02 0. -1.
        1   -1    0    0  501    0  0.00000000000E+00  0.00000000000E+00 -0.23655482859E+04  0.23655482859E+04  0.50400001928E-02 0.  1.
    10030    2    1    2    0    0  0.00000000000E+00  0.00000000000E+00 -0.11441084722E+04  0.35869880996E+04  0.33996322493E+04 0.  0.
        4    1    3    3  502    0 -0.99608540235E+03 -0.37510434325E+03  0.82630925166E+03  0.13474709605E+04  0.12699999809E+01 0. -1.
       -4    1    3    3    0  502  0.99608540235E+03  0.37510434325E+03 -0.19704177238E+04  0.22395171391E+04  0.12699999809E+01 0.  1.
</event>
<event>
 5   0  0.4764953E-08  0.3397786E+04  0.7818609E-02  0.8138450E-01
       -2   -1    0    0    0  501  0.00000000000E+00  0.00000000000E+00  0.15935360590E+04  0.15935360590E+04  0.25500000920E-02 0.  1.
        2   -1    0    0  501    0  0.00000000000E+00  0.00000000000E+00 -0.18112154249E+04  0.18112154250E+04  0.25500000920E-02 0. -1.
    10030    2    1    2    0    0  0.00000000000E+00  0.00000000000E+00 -0.21767936598E+03  0.34047514839E+04  0.33977858027E+04 0.  0.
        2    1    3    3  502    0 -0.31873851926E+03 -0.33657724075E+03  0.15289401409E+04  0.15976659341E+04  0.25500000920E-02 0.  1.
       -2    1    3    3    0  502  0.31873851926E+03  0.33657724075E+03 -0.17466195068E+04  0.18070855498E+04  0.25500000920E-02 0. -1.
</event>
<event>
 5   0  0.4764953E-08  0.3400363E+04  0.7818609E-02  0.8137817E-01
       -2   -1    0    0    0  501  0.00000000000E+00  0.00000000000E+00  0.13500256144E+04  0.13500256144E+04  0.25500000920E-02 0.  1.
        2   -1    0    0  501    0  0.00000000000E+00  0.00000000000E+00 -0.21411569885E+04  0.21411569885E+04  0.25500000920E-02 0. -1.
    10030    2    1    2    0    0  0.00000000000E+00  0.00000000000E+00 -0.79113137415E+03  0.34911826029E+04  0.34003627917E+04 0.  0.
        2    1    3    3  502    0  0.12969224826E+04  0.22836926741E+03  0.70854325805E+03  0.14953909177E+04  0.25500000920E-02 0.  1.
       -2    1    3    3    0  502 -0.12969224826E+04 -0.22836926741E+03 -0.14996746322E+04  0.19957916852E+04  0.25500000920E-02 0. -1.
</event>
<event>
 5   0  0.4764953E-08  0.3400409E+04  0.7818609E-02  0.8137806E-01
        2   -1    0    0  501    0  0.00000000000E+00  0.00000000000E+00  0.31598857370E+04  0.31598857370E+04  0.25500000920E-02 0. -1.
       -2   -1    0    0    0  501  0.00000000000E+00  0.00000000000E+00 -0.91481032228E+03  0.91481032228E+03  0.25500000920E-02 0.  1.
    10030    2    1    2    0    0  0.00000000000E+00  0.00000000000E+00  0.22450754147E+04  0.40746960593E+04  0.34004094397E+04 0.  0.
        2    1    3    3  502    0 -0.54844662130E+03 -0.46818927971E+03 -0.72248797206E+03  0.10207760615E+04  0.25500000920E-02 0.  1.
       -2    1    3    3    0  502  0.54844662130E+03  0.46818927971E+03  0.29675633868E+04  0.30539199978E+04  0.25500000920E-02 0. -1.
</event>
<event>
 5   0  0.1595851E-08  0.3401624E+04  0.7818609E-02  0.8137508E-01
       -1   -1    0    0    0  501  0.00000000000E+00  0.00000000000E+00  0.15722937313E+04  0.15722937313E+04  0.50400001928E-02 0.  1.
        1   -1    0    0  501    0  0.00000000000E+00  0.00000000000E+00 -0.18398351253E+04  0.18398351253E+04  0.50400001928E-02 0. -1.
    10030    2    1    2    0    0  0.00000000000E+00  0.00000000000E+00 -0.26754139402E+03  0.34121288566E+04  0.34016238676E+04 0.  0.
        2    1    3    3  502    0 -0.17006742775E+04 -0.18855953351E+02 -0.14441898125E+03  0.17068993489E+04  0.25500000920E-02 0.  1.
       -2    1    3    3    0  502  0.17006742775E+04  0.18855953351E+02 -0.12312241276E+03  0.17052295077E+04  0.25500000920E-02 0. -1.
</event>
<event>
 5   0  0.1645631E-08  0.3393923E+04  0.7818609E-02  0.8139400E-01
        1   -1    0    0  501    0  0.00000000000E+00  0.00000000000E+00  0.18186732409E+04  0.18186732409E+04  0.50400001928E-02 0.  1.
       -1   -1    0    0    0  501  0.00000000000E+00  0.00000000000E+00 -0.15833947367E+04  0.15833947367E+04  0.50400001928E-02 0. -1.
    10030    2    1    2    0    0  0.00000000000E+00  0.00000000000E+00  0.23527850417E+03  0.34020679777E+04  0.33939225905E+04 0.  0.
        4    1    3    3  502    0  0.75423352250E+03  0.10744479436E+04 -0.96028776317E+03  0.16264872551E+04  0.12699999809E+01 0. -1.
       -4    1    3    3    0  502 -0.75423352250E+03 -0.10744479436E+04  0.11955662673E+04  0.17755807226E+04  0.12699999809E+01 0.  1.
</event>
<event>
 5   0  0.1630571E-08  0.3400783E+04  0.7818609E-02  0.8137714E-01
        1   -1    0    0  501    0  0.00000000000E+00  0.00000000000E+00  0.17125552322E+04  0.17125552322E+04  0.50400001928E-02 0.  1.
       -1   -1    0    0    0  501  0.00000000000E+00  0.00000000000E+00 -0.16883143927E+04  0.16883143927E+04  0.50400001928E-02 0. -1.
    10030    2    1    2    0    0  0.00000000000E+00  0.00000000000E+00  0.24240839462E+02  0.34008696249E+04  0.34007832314E+04 0.  0.
        3    1    3    3  502    0  0.12755116749E+04 -0.40158486997E+03 -0.10382067886E+04  0.16929482528E+04  0.10100000352E+00 0. -1.
       -3    1    3    3    0  502 -0.12755116749E+04  0.40158486997E+03  0.10624476280E+04  0.17079213721E+04  0.10100000352E+00 0.  1.
</event>
<event>
 5   0  0.5001197E-08  0.3400892E+04  0.7818609E-02  0.8137687E-01
       -2   -1    0    0    0  501  0.00000000000E+00  0.00000000000E+00  0.19226045346E+04  0.19226045346E+04  0.25500000920E-02 0. -1.
        2   -1    0    0  501    0  0.00000000000E+00  0.00000000000E+00 -0.15039580296E+04  0.15039580296E+04  0.25500000920E-02 0.  1.
    10030    2    1    2    0    0  0.00000000000E+00  0.00000000000E+00  0.41864650507E+03  0.34265625642E+04  0.34008919580E+04 0.  0.
        5    1    3    3  502    0  0.85943999559E+03 -0.56937712037E+03  0.15718127010E+04  0.18797459052E+04  0.46999998093E+01 0. -1.
       -5    1    3    3    0  502 -0.85943999559E+03  0.56937712037E+03 -0.11531661959E+04  0.15468166590E+04  0.46999998093E+01 0.  1.
</event>
<event>
 5   0  0.1645631E-08  0.3407810E+04  0.7818609E-02  0.8135992E-01
        1   -1    0    0  501    0  0.00000000000E+00  0.00000000000E+00  0.22720069130E+04  0.22720069130E+04  0.50400001928E-02 0.  1.
       -1   -1    0    0    0  501  0.00000000000E+00  0.00000000000E+00 -0.12778533393E+04  0.12778533393E+04  0.50400001928E-02 0. -1.
    10030    2    1    2    0    0  0.00000000000E+00  0.00000000000E+00  0.99415357363E+03  0.35498602523E+04  0.34078096313E+04 0.  0.
        4    1    3    3  502    0  0.10957321790E+04  0.31010299083E+02 -0.86179145352E+03  0.13943732531E+04  0.12699999809E+01 0. -1.
       -4    1    3    3    0  502 -0.10957321790E+04 -0.31010299083E+02  0.18559450271E+04  0.21554869992E+04  0.12699999809E+01 0.  1.
</event>
<event>
 5   0  0.5001197E-08  0.3399376E+04  0.7818609E-02  0.8138060E-01
        2   -1    0    0  501    0  0.00000000000E+00  0.00000000000E+00  0.19095291335E+04  0.19095291335E+04  0.25500000920E-02 0. -1.
       -2   -1    0    0    0  501  0.00000000000E+00  0.00000000000E+00 -0.15129065042E+04  0.15129065042E+04  0.25500000920E-02 0.  1.
    10030    2    1    2    0    0  0.00000000000E+00  0.00000000000E+00  0.39662262927E+03  0.34224356377E+04  0.33993758521E+04 0.  0.
        5    1    3    3  502    0 -0.13338576242E+04  0.84153946349E+03 -0.43966869258E+03  0.16372829565E+04  0.46999998093E+01 0.  1.
       -5    1    3    3    0  502  0.13338576242E+04 -0.84153946349E+03  0.83629132185E+03  0.17851526812E+04  0.46999998093E+01 0. -1.
</event>
<event>
 5   0  0.1645631E-08  0.3400360E+04  0.7818609E-02  0.8137818E-01
        1   -1    0    0  501    0  0.00000000000E+00  0.00000000000E+00  0.28624191420E+04  0.28624191421E+04  0.50400001928E-02 0. -1.
       -1   -1    0    0    0  501  0.00000000000E+00  0.00000000000E+00 -0.10098490448E+04  0.10098490449E+04  0.50400001928E-02 0.  1.
    10030    2    1    2    0    0  0.00000000000E+00  0.00000000000E+00  0.18525700972E+04  0.38722681869E+04  0.34003595319E+04 0.  0.
        4    1    3    3  502    0 -0.55180418619E+03 -0.48704287562E+03  0.26716002455E+04  0.27711275877E+04  0.12699999809E+01 0. -1.
       -4    1    3    3    0  502  0.55180418619E+03  0.48704287562E+03 -0.81903014827E+03  0.11011405992E+04  0.12699999809E+01 0.  1.
</event>
<event>
 5   0  0.1579536E-08  0.3400989E+04  0.7818609E-02  0.8137664E-01
       -1   -1    0    0    0  501  0.00000000000E+00  0.00000000000E+00  0.16486992191E+04  0.16486992191E+04  0.50400001928E-02 0.  1.
        1   -1    0    0  501    0  0.00000000000E+00  0.00000000000E+00 -0.17539171200E+04  0.17539171200E+04  0.50400001928E-02 0. -1.
    10030    2    1    2    0    0  0.00000000000E+00  0.00000000000E+00 -0.10521790090E+03  0.34026163390E+04  0.34009891420E+04 0.  0.
        5    1    3    3  502    0 -0.70076601275E+03  0.16375395626E+03  0.14888330140E+04  0.16536427051E+04  0.46999998093E+01 0.  1.
       -5    1    3    3    0  502  0.70076601275E+03 -0.16375395626E+03 -0.15940509149E+04  0.17489736339E+04  0.46999998093E+01 0. -1.
</event>
<event>
 5   0  0.1630571E-08  0.3400747E+04  0.7818609E-02  0.8137723E-01
       -1   -1    0    0    0  501  0.00000000000E+00  0.00000000000E+00  0.14254131273E+04  0.14254131273E+04  0.50400001928E-02 0. -1.
        1   -1    0    0  501    0  0.00000000000E+00  0.00000000000E+00 -0.20283738509E+04  0.20283738509E+04  0.50400001928E-02 0.  1.
    10030    2    1    2    0    0  0.00000000000E+00  0.00000000000E+00 -0.60296072362E+03  0.34537869783E+04  0.34007473968E+04 0.  0.
        3    1    3    3  502    0 -0.83533125867E+03 -0.39629756532E+03 -0.17507762175E+04  0.19799109692E+04  0.10100000352E+00 0.  1.
       -3    1    3    3    0  502  0.83533125867E+03  0.39629756532E+03  0.11478154939E+04  0.14738760091E+04  0.10100000352E+00 0. -1.
</event>
<event>
 5   0  0.1630571E-08  0.3400586E+04  0.7818609E-02  0.8137762E-01
       -1   -1    0    0    0  501  0.00000000000E+00  0.00000000000E+00  0.29644834540E+04  0.29644834541E+04  0.50400001928E-02 0. -1.
        1   -1    0    0  501    0  0.00000000000E+00  0.00000000000E+00 -0.97521107533E+03  0.97521107535E+03  0.50400001928E-02 0.  1.
    10030    2    1    2    0    0  0.00000000000E+00  0.00000000000E+00  0.19892723787E+04  0.39396945294E+04  0.34005864771E+04 0.  0.
        3    1    3    3  502    0  0.56093437137E+02  0.14151350810E+04 -0.95397834513E+02  0.14194557155E+04  0.10100000352E+00 0.  1.
       -3    1    3    3    0  502 -0.56093437137E+02 -0.14151350810E+04  0.20846702132E+04  0.25202388139E+04  0.10100000352E+00 0. -1.
</event>
<event>
 5   0  0.4775023E-08  0.3399495E+04  0.7818609E-02  0.8138030E-01
        2   -1    0    0  501    0  0.00000000000E+00  0.00000000000E+00  0.20321504512E+04  0.20321504512E+04  0.25500000920E-02 0. -1.
       -2   -1    0    0    0  501  0.00000000000E+00  0.00000000000E+00 -0.14217166019E+04  0.14217166019E+04  0.25500000920E-02 0.  1.
    10030    2    1    2    0    0  0.00000000000E+00  0.00000000000E+00  0.61043384935E+03  0.34538670531E+04  0.33994952767E+04 0.  0.
        4    1    3    3  502    0  0.97284064725E+03  0.99468958274E+03  0.12972112542E+04  0.19022578537E+04  0.12699999809E+01 0. -1.
       -4    1    3    3    0  502 -0.97284064725E+03 -0.99468958274E+03 -0.68677740487E+03  0.15516091994E+04  0.12699999809E+01 0.  1.
</event>
<event>
 5   0  0.4764953E-08  0.3398517E+04  0.7818609E-02  0.8138270E-01
       -2   -1    0    0    0  501  0.00000000000E+00  0.00000000000E+00  0.11867184891E+04  0.11867184891E+04  0.25500000920E-02 0. -1.
        2   -1    0    0  501    0  0.00000000000E+00  0.00000000000E+00 -0.24331631300E+04  0.24331631300E+04  0.25500000920E-02 0.  1.
    10030    2    1    2    0    0  0.00000000000E+00  0.00000000000E+00 -0.12464446409E+04  0.36198816191E+04  0.33985171316E+04 0.  0.
        2    1    3    3  502    0  0.76273701013E+03  0.52176552005E+02 -0.22396299315E+04  0.23665232662E+04  0.25500000920E-02 0.  1.
       -2    1    3    3    0  502 -0.76273701013E+03 -0.52176552005E+02  0.99318529066E+03  0.12533583529E+04  0.25500000920E-02 0. -1.
</event>
<event>
 5   0  0.1630571E-08  0.3399814E+04  0.7818609E-02  0.8137952E-01
        1   -1    0    0  501    0  0.00000000000E+00  0.00000000000E+00  0.15572320144E+04  0.15572320144E+04  0.50400001928E-02 0.  1.
       -1   -1    0    0    0  501  0.00000000000E+00  0.00000000000E+00 -0.18556537503E+04  0.18556537503E+04  0.50400001928E-02 0. -1.
    10030    2    1    2    0    0  0.00000000000E+00  0.00000000000E+00 -0.29842173591E+03  0.34128857646E+04  0.33998137758E+04 0.  0.
        3    1    3    3  502    0 -0.59555442757E+03  0.23303848553E+03  0.14318660323E+04  0.15681939793E+04  0.10100000352E+00 0.  1.
       -3    1    3    3    0  502  0.59555442757E+03 -0.23303848553E+03 -0.17302877682E+04  0.18446917854E+04  0.10100000352E+00 0. -1.
</event>
<event>
 5   0  0.4946315E-08  0.3400496E+04  0.7818609E-02  0.8137785E-01
       -2   -1    0    0    0  501  0.00000000000E+00  0.00000000000E+00  0.12124410227E+04  0.12124410227E+04  0.25500000920E-02 0. -1.
        2   -1    0    0  501    0  0.00000000000E+00  0.00000000000E+00 -0.23843170023E+04  0.23843170023E+04  0.25500000920E-02 0.  1.
    10030    2    1    2    0    0  0.00000000000E+00  0.00000000000E+00 -0.11718759797E+04  0.35967580250E+04  0.34004962841E+04 0.  0.
        3    1    3    3  502    0 -0.10267817719E+04 -0.13335226936E+04 -0.33059187239E+03  0.17151835405E+04  0.10100000352E+00 0. -1.
       -3    1    3    3    0  502  0.10267817719E+04  0.13335226936E+04 -0.84128410727E+03  0.18815744845E+04  0.10100000352E+00 0.  1.
</event>
<event>
 5   0  0.1625282E-08  0.3399980E+04  0.7818609E-02  0.8137911E-01
       -1   -1    0    0    0  501  0.00000000000E+00  0.00000000000E+00  0.10901056690E+04  0.10901056690E+04  0.50400001928E-02 0. -1.
        1   -1    0    0  501    0  0.00000000000E+00  0.00000000000E+00 -0.26510872311E+04  0.26510872311E+04  0.50400001928E-02 0.  1.
    10030    2    1    2    0    0  0.00000000000E+00  0.00000000000E+00 -0.15609815622E+04  0.37411929001E+04  0.33999795409E+04 0.  0.
        1    1    3    3  502    0 -0.27147523196E+03  0.45716193432E+02  0.10654147018E+04  0.11004077693E+04  0.50400001928E-02 0. -1.
       -1    1    3    3    0  502  0.27147523196E+03 -0.45716193432E+02 -0.26263962639E+04  0.26407851308E+04  0.50400001928E-02 0.  1.
</event>
<event>
 5   0  0.1645631E-08  0.3400898E+04  0.7818609E-02  0.8137686E-01
       -1   -1    0    0    0  501  0.00000000000E+00  0.00000000000E+00  0.16018568971E+04  0.16018568971E+04  0.50400001928E-02 0. -1.
        1   -1    0    0  501    0  0.00000000000E+00  0.00000000000E+00 -0.18051090324E+04  0.18051090324E+04  0.50400001928E-02 0.  1.
    10030    2    1    2    0    0  0.00000000000E+00  0.00000000000E+00 -0.20325213532E+03  0.34069659295E+04  0.34008977365E+04 0.  0.
        4    1    3    3  502    0  0.13122802812E+04  0.10470239804E+04 -0.37263786063E+03  0.17196509355E+04  0.12699999809E+01 0. -1.
       -4    1    3    3    0  502 -0.13122802812E+04 -0.10470239804E+04  0.16938572531E+03  0.16873149940E+04  0.12699999809E+01 0.  1.
</event>
<event>
 5   0  0.1579536E-08  0.3401770E+04  0.7818609E-02  0.8137472E-01
       -1   -1    0    0    0  501  0.00000000000E+00  0.00000000000E+00  0.15020242031E+04  0.15020242032E+04  0.50400001928E-02 0.  1.
        1   -1    0    0  501    0  0.00000000000E+00  0.00000000000E+00 -0.19260738715E+04  0.19260738715E+04  0.50400001928E-02 0. -1.
    10030    2    1    2    0    0  0.00000000000E+00  0.00000000000E+00 -0.42404966832E+03  0.34280980746E+04  0.34017698758E+04 0.  0.
        5    1    3    3  502    0  0.10643157046E+03  0.13678687557E+04  0.80103909405E+03  0.15887348213E+04  0.46999998093E+01 0.  1.
       -5    1    3    3    0  502 -0.10643157046E+03 -0.13678687557E+04 -0.12250887624E+04  0.18393632534E+04  0.46999998093E+01 0. -1.
</event>
<event>
 5   0  0.4946315E-08  0.3399472E+04  0.7818609E-02  0.8138036E-01
       -2   -1    0    0    0  501  0.00000000000E+00  0.00000000000E+00  0.30814803167E+04  0.30814803167E+04  0.25500000920E-02 0. -1.
        2   -1    0    0  501    0  0.00000000000E+00  0.00000000000E+00 -0.93756972533E+03  0.93756972534E+03  0.25500000920E-02 0.  1.
    10030    2    1    2    0    0  0.00000000000E+00  0.00000000000E+00  0.21439105914E+04  0.40190500421E+04  0.33994721085E+04 0.  0.
        3    1    3    3  502    0  0.96731218882E+03  0.13568582954E+04  0.67568687692E+03  0.17981407259E+04  0.10100000352E+00 0. -1.
       -3    1    3    3    0  502 -0.96731218882E+03 -0.13568582954E+04  0.14682237145E+04  0.22209093161E+04  0.10100000352E+00 0.  1.
</event>
<event>
 5   0  0.1625282E-08  0.3399458E+04  0.7818609E-02  0.8138039E-01
       -1   -1    0    0    0  501  0.00000000000E+00  0.00000000000E+00  0.17799197597E+04  0.17799197597E+04  0.50400001928E-02 0. -1.
        1   -1    0    0  501    0  0.00000000000E+00  0.00000000000E+00 -0.16231512446E+04  0.16231512446E+04  0.50400001928E-02 0.  1.
    10030    2    1    2    0    0  0.00000000000E+00  0.00000000000E+00  0.15676851514E+03  0.34030710043E+04  0.33994581764E+04 0.  0.
        1    1    3    3  502    0 -0.70394853027E+03 -0.52594467937E+02  0.16262387785E+04  0.17728401721E+04  0.50400001928E-02 0. -1.
       -1    1    3    3    0  502  0.70394853027E+03  0.52594467937E+02 -0.14694702633E+04  0.16302308322E+04  0.50400001928E-02 0.  1.
</event>
<event>
 5   0  0.4973409E-08  0.3399579E+04  0.7818609E-02  0.8138010E-01
        2   -1    0    0  501    0  0.00000000000E+00  0.00000000000E+00  0.17077177217E+04  0.17077177217E+04  0.25500000920E-02 0.  1.
       -2   -1    0    0    0  501  0.00000000000E+00  0.00000000000E+00 -0.16918980912E+04  0.16918980912E+04  0.25500000920E-02 0. -1.
    10030    2    1    2    0    0  0.00000000000E+00  0.00000000000E+00  0.15819630536E+02  0.33996158129E+04  0.33995790055E+04 0.  0.
        1    1    3    3  502    0 -0.96250058211E+03 -0.13475562487E+04 -0.37545987864E+03  0.16980239499E+04  0.50400001928E-02 0.  1.
       -1    1    3    3    0  502  0.96250058211E+03  0.13475562487E+04  0.39127950917E+03  0.17015918630E+04  0.50400001928E-02 0. -1.
</event>
<event>
 5   0  0.1645631E-08  0.3400380E+04  0.7818609E-02  0.8137813E-01
       -1   -1    0    0    0  501  0.00000000000E+00  0.00000000000E+00  0.14272453059E+04  0.14272453059E+04  0.50400001928E-02 0. -1.
        1   -1    0    0  501    0  0.00000000000E+00  0.00000000000E+00 -0.20253328461E+04  0.20253328461E+04  0.50400001928E-02 0.  1.
    10030    2    1    2    0    0  0.00000000000E+00  0.00000000000E+00 -0.59808754025E+03  0.34525781520E+04  0.34003804478E+04 0.  0.
        4    1    3    3  502    0 -0.18278795046E+03  0.85002223130E+03  0.11844441742E+04  0.14693055650E+04  0.12699999809E+01 0. -1.
       -4    1    3    3    0  502  0.18278795046E+03 -0.85002223130E+03 -0.17825317144E+04  0.19832725870E+04  0.12699999809E+01 0.  1.
</event>
<event>
 5   0  0.1579536E-08  0.3403682E+04  0.7818609E-02  0.8137003E-01
       -1   -1    0    0    0  501  0.00000000000E+00  0.00000000000E+00  0.13211950726E+04  0.13211950727E+04  0.50400001928E-02 0.  1.
        1   -1    0    0  501    0  0.00000000000E+00  0.00000000000E+00 -0.21921541387E+04  0.21921541387E+04  0.50400001928E-02 0. -1.
    10030    2    1    2    0    0  0.00000000000E+00  0.00000000000E+00 -0.87095906610E+03  0.35133492114E+04  0.34036822687E+04 0.  0.
        5    1    3    3  502    0 -0.85978633437E+03  0.14587989265E+04 -0.25995868519E+03  0.17131629977E+04  0.46999998093E+01 0.  1.
       -5    1    3    3    0  502  0.85978633437E+03 -0.14587989265E+04 -0.61100038091E+03  0.18001862137E+04  0.46999998093E+01 0. -1.
</event>
<event>
 5   0  0.1595851E-08  0.3402336E+04  0.7818609E-02  0.8137333E-01
        1   -1    0    0  501    0  0.00000000000E+00  0.00000000000E+00  0.18409064039E+04  0.18409064039E+04  0.50400001928E-02 0. -1.
       -1   -1    0    0    0  501  0.00000000000E+00  0.00000000000E+00 -0.15720365821E+04  0.15720365821E+04  0.50400001928E-02 0.  1.
    10030    2    1    2    0    0  0.00000000000E+00  0.00000000000E+00  0.26886982175E+03  0.34129429860E+04  0.34023357925E+04 0.  0.
        2    1    3    3  502    0 -0.33470056380E+03 -0.28833945534E+03  0.17823615036E+04  0.18362942680E+04  0.25500000920E-02 0. -1.
       -2    1    3    3    0  502  0.33470056380E+03  0.28833945534E+03 -0.15134916819E+04  0.15766487180E+04  0.25500000920E-02 0.  1.
</event>
<event>
 5   0  0.1645631E-08  0.3400718E+04  0.7818609E-02  0.8137730E-01
        1   -1    0    0  501    0  0.00000000000E+00  0.00000000000E+00  0.99716494098E+03  0.99716494099E+03  0.50400001928E-02 0. -1.
       -1   -1    0    0    0  501  0.00000000000E+00  0.00000000000E+00 -0.28994404027E+04  0.28994404027E+04  0.50400001928E-02 0.  1.
    10030    2    1    2    0    0  0.00000000000E+00  0.00000000000E+00 -0.19022754617E+04  0.38966053437E+04  0.34007177584E+04 0.  0.
        4    1    3    3  502    0 -0.12693965228E+04 -0.45142146829E+03  0.23746318425E+03  0.13680421232E+04  0.12699999809E+01 0. -1.
       -4    1    3    3    0  502  0.12693965228E+04  0.45142146829E+03 -0.21397386460E+04  0.25285632205E+04  0.12699999809E+01 0.  1.
</event>
<event>
 5   0  0.1579536E-08  0.3399018E+04  0.7818609E-02  0.8138147E-01
       -1   -1    0    0    0  501  0.00000000000E+00  0.00000000000E+00  0.27709315096E+04  0.27709315096E+04  0.50400001928E-02 0. -1.
        1   -1    0    0  501    0  0.00000000000E+00  0.00000000000E+00 -0.10423681766E+04  0.10423681766E+04  0.50400001928E-02 0.  1.
    10030    2    1    2    0    0  0.00000000000E+00  0.00000000000E+00  0.17285633330E+04  0.38132996862E+04  0.33990179907E+04 0.  0.
        5    1    3    3  502    0  0.38961476834E+03 -0.15948475791E+04  0.13571066015E+04  0.21300466864E+04  0.46999998093E+01 0. -1.
       -5    1    3    3    0  502 -0.38961476834E+03  0.15948475791E+04  0.37145673146E+03  0.16832529999E+04  0.46999998093E+01 0.  1.
</event>
<event>
 5   0  0.4764953E-08  0.3400213E+04  0.7818609E-02  0.8137854E-01
        2   -1    0    0  501    0  0.00000000000E+00  0.00000000000E+00  0.25569426173E+04  0.25569426173E+04  0.25500000920E-02 0. -1.
       -2   -1    0    0    0  501  0.00000000000E+00  0.00000000000E+00 -0.11303976522E+04  0.11303976522E+04  0.25500000920E-02 0.  1.
    10030    2    1    2    0    0  0.00000000000E+00  0.00000000000E+00  0.14265449650E+04  0.36873402695E+04  0.34002128942E+04 0.  0.
        2    1    3    3  502    0 -0.15092178163E+04 -0.77467053191E+03  0.83456103554E+03  0.18905938147E+04  0.25500000920E-02 0.  1.
       -2    1    3    3    0  502  0.15092178163E+04  0.77467053191E+03  0.59198392949E+03  0.17967464548E+04  0.25500000920E-02 0. -1.
</event>
<event>
 5   0  0.1625282E-08  0.3389438E+04  0.7818609E-02  0.8140503E-01
       -1   -1    0    0    0  501  0.00000000000E+00  0.00000000000E+00  0.28704327656E+04  0.28704327656E+04  0.50400001928E-02 0. -1.
        1   -1    0    0  501    0  0.00000000000E+00  0.00000000000E+00 -0.10005711538E+04  0.10005711538E+04  0.50400001928E-02 0.  1.
    10030    2    1    2    0    0  0.00000000000E+00  0.00000000000E+00  0.18698616117E+04  0.38710039194E+04  0.33894378438E+04 0.  0.
        1    1    3    3  502    0  0.12779842594E+03 -0.62387493814E+03  0.27285830457E+04  0.28019132416E+04  0.50400001928E-02 0. -1.
       -1    1    3    3    0  502 -0.12779842594E+03  0.62387493814E+03 -0.85872143398E+03  0.10690906778E+04  0.50400001928E-02 0.  1.
</event>
<event>
 5   0  0.1625282E-08  0.3401922E+04  0.7818609E-02  0.8137435E-01
       -1   -1    0    0    0  501  0.00000000000E+00  0.00000000000E+00  0.22139501941E+04  0.22139501941E+04  0.50400001928E-02 0. -1.
        1   -1    0    0  501    0  0.00000000000E+00  0.00000000000E+00 -0.13068350290E+04  0.13068350290E+04  0.50400001928E-02 0.  1.
    10030    2    1    2    0    0  0.00000000000E+00  0.00000000000E+00  0.90711516509E+03  0.35207852231E+04  0.34019216135E+04 0.  0.
        1    1    3    3  502    0  0.44834889672E+03 -0.12825569525E+04  0.15126905614E+04  0.20332736668E+04  0.50400001928E-02 0. -1.
       -1    1    3    3    0  502 -0.44834889672E+03  0.12825569525E+04 -0.60557539632E+03  0.14875115563E+04  0.50400001928E-02 0.  1.
</event>
<event>
 5   0  0.1625282E-08  0.3400455E+04  0.7818609E-02  0.8137795E-01
       -1   -1    0    0    0  501  0.00000000000E+00  0.00000000000E+00  0.15320546414E+04  0.15320546414E+04  0.50400001928E-02 0.  1.
        1   -1    0    0  501    0  0.00000000000E+00  0.00000000000E+00 -0.18868602886E+04  0.18868602887E+04  0.50400001928E-02 0. -1.
    10030    2    1    2    0    0  0.00000000000E+00  0.00000000000E+00 -0.35480564723E+03  0.34189149301E+04  0.34004547125E+04 0.  0.
        1    1    3    3  502    0  0.77673795623E+03 -0.22338699898E+03  0.13265618018E+04  0.15533801267E+04  0.50400001928E-02 0.  1.
       -1    1    3    3    0  502 -0.77673795623E+03  0.22338699898E+03 -0.16813674490E+04  0.18655348034E+04  0.50400001928E-02 0. -1.
</event>
<event>
 5   0  0.4775023E-08  0.3400460E+04  0.7818609E-02  0.8137793E-01
       -2   -1    0    0    0  501  0.00000000000E+00  0.00000000000E+00  0.15001080169E+04  0.15001080169E+04  0.25500000920E-02 0. -1.
        2   -1    0    0  501    0  0.00000000000E+00  0.00000000000E+00 -0.19270491811E+04  0.19270491811E+04  0.25500000920E-02 0.  1.
    10030    2    1    2    0    0  0.00000000000E+00  0.00000000000E+00 -0.42694116421E+03  0.34271571980E+04  0.34004599251E+04 0.  0.
        4    1    3    3  502    0 -0.12933757643E+04 -0.66624252604E+02  0.89677729243E+03  0.15752684800E+04  0.12699999809E+01 0. -1.
       -4    1    3    3    0  502  0.12933757643E+04  0.66624252604E+02 -0.13237184566E+04  0.18518887181E+04  0.12699999809E+01 0.  1.
</event>
<event>
 5   0  0.1630571E-08  0.3399267E+04  0.7818609E-02  0.8138086E-01
        1   -1    0    0  501    0  0.00000000000E+00  0.00000000000E+00  0.12031251643E+04  0.12031251643E+04  0.50400001928E-02 0. -1.
       -1   -1    0    0    0  501  0.00000000000E+00  0.00000000000E+00 -0.24010418562E+04  0.24010418562E+04  0.50400001928E-02 0.  1.
    10030    2    1    2    0    0  0.00000000000E+00  0.00000000000E+00 -0.11979166919E+04  0.36041670205E+04  0.33992669078E+04 0.  0.
        3    1    3    3  502    0  0.12706212141E+04 -0.43513959638E+03  0.50542621560E+03  0.14350193057E+04  0.10100000352E+00 0. -1.
       -3    1    3    3    0  502 -0.12706212141E+04  0.43513959638E+03 -0.17033429075E+04  0.21691477148E+04  0.10100000352E+00 0.  1.
</event>
<event>
 5   0  0.4775023E-08  0.3400776E+04  0.7818609E-02  0.8137716E-01
       -2   -1    0    0    0  501  0.00000000000E+00  0.00000000000E+00  0.13121455702E+04  0.13121455702E+04  0.25500000920E-02 0.  1.
        2   -1    0    0  501    0  0.00000000000E+00  0.00000000000E+00 -0.22035044745E+04  0.22035044745E+04  0.25500000920E-02 0. -1.
    10030    2    1    2    0    0  0.00000000000E+00  0.00000000000E+00 -0.89135890433E+03  0.35156500447E+04  0.34007755792E+04 0.  0.
        4    1    3    3  502    0 -0.60976468833E+03 -0.72823410652E+03 -0.19037032480E+04  0.21274927870E+04  0.12699999809E+01 0. -1.
       -4    1    3    3    0  502  0.60976468833E+03  0.72823410652E+03  0.10123443437E+04  0.13881572577E+04  0.12699999809E+01 0.  1.
</event>
<event>
 5   0  0.4946315E-08  0.3400734E+04  0.7818609E-02  0.8137726E-01
       -2   -1    0    0    0  501  0.00000000000E+00  0.00000000000E+00  0.15029924929E+04  0.15029924929E+04  0.25500000920E-02 0.  1.
        2   -1    0    0  501    0  0.00000000000E+00  0.00000000000E+00 -0.19236611134E+04  0.19236611134E+04  0.25500000920E-02 0. -1.
    10030    2    1    2    0    0  0.00000000000E+00  0.00000000000E+00 -0.42066862045E+03  0.34266536063E+04  0.34007341633E+04 0.  0.
        3    1    3    3  502    0  0.21312193429E+03 -0.16845698498E+04 -0.11991933811E+03  0.17022271281E+04  0.10100000352E+00 0.  1.
       -3    1    3    3    0  502 -0.21312193429E+03  0.16845698498E+04 -0.30074928234E+03  0.17244264782E+04  0.10100000352E+00 0. -1.
</event>
<event>
 5   0  0.4973409E-08  0.3400593E+04  0.7818609E-02  0.8137761E-01
        2   -1    0    0  501    0  0.00000000000E+00  0.00000000000E+00  0.21748541191E+04  0.21748541191E+04  0.25500000920E-02 0. -1.
       -2   -1    0    0    0  501  0.00000000000E+00  0.00000000000E+00 -0.13292884286E+04  0.13292884286E+04  0.25500000920E-02 0.  1.
    10030    2    1    2    0    0  0.00000000000E+00  0.00000000000E+00  0.84556569052E+03  0.35041425477E+04  0.34005931332E+04 0.  0.
        1    1    3    3  502    0 -0.51060495671E+03  0.15914427180E+04  0.74470760192E+03  0.18297531962E+04  0.50400001928E-02 0. -1.
       -1    1    3    3    0  502  0.51060495671E+03 -0.15914427180E+04  0.10085808860E+03  0.16743893515E+04  0.50400001928E-02 0.  1.
</event>
<event>
 5   0  0.4775023E-08  0.3400745E+04  0.7818609E-02  0.8137723E-01
        2   -1    0    0  501    0  0.00000000000E+00  0.00000000000E+00  0.24291978640E+04  0.24291978640E+04  0.25500000920E-02 0. -1.
       -2   -1    0    0    0  501  0.00000000000E+00  0.00000000000E+00 -0.11902148646E+04  0.11902148646E+04  0.25500000920E-02 0.  1.
    10030    2    1    2    0    0  0.00000000000E+00  0.00000000000E+00  0.12389829994E+04  0.36194127287E+04  0.34007454518E+04 0.  0.
        4    1    3    3  502    0  0.16028572954E+04  0.20784168997E+03  0.57408062432E+02  0.16172961931E+04  0.12699999809E+01 0.  1.
       -4    1    3    3    0  502 -0.16028572954E+04 -0.20784168997E+03  0.11815749370E+04  0.20021165356E+04  0.12699999809E+01 0. -1.
</event>
<event>
 5   0  0.1630571E-08  0.3399643E+04  0.7818609E-02  0.8137994E-01
       -1   -1    0    0    0  501  0.00000000000E+00  0.00000000000E+00  0.15900126959E+04  0.15900126960E+04  0.50400001928E-02 0. -1.
        1   -1    0    0  501    0  0.00000000000E+00  0.00000000000E+00 -0.18172133806E+04  0.18172133806E+04  0.50400001928E-02 0.  1.
    10030    2    1    2    0    0  0.00000000000E+00  0.00000000000E+00 -0.22720068461E+03  0.34072260765E+04  0.33996425379E+04 0.  0.
        3    1    3    3  502    0  0.28379364227E+03  0.11254338705E+04  0.11310443242E+04  0.16206176297E+04  0.10100000352E+00 0. -1.
       -3    1    3    3    0  502 -0.28379364227E+03 -0.11254338705E+04 -0.13582450088E+04  0.17866084468E+04  0.10100000352E+00 0.  1.
</event>
<event>
 5   0  0.4946315E-08  0.3399652E+04  0.7818609E-02  0.8137992E-01
       -2   -1    0    0    0  501  0.00000000000E+00  0.00000000000E+00  0.22224738409E+04  0.22224738409E+04  0.25500000920E-02 0. -1.
        2   -1    0    0  501    0  0.00000000000E+00  0.00000000000E+00 -0.13000863266E+04  0.13000863266E+04  0.25500000920E-02 0.  1.
    10030    2    1    2    0    0  0.00000000000E+00  0.00000000000E+00  0.92238751431E+03  0.35225601675E+04  0.33996516597E+04 0.  0.
        3    1    3    3  502    0 -0.55816671856E+02 -0.16987659346E+04  0.48405121671E+03  0.17672653429E+04  0.10100000352E+00 0. -1.
       -3    1    3    3    0  502  0.55816671856E+02  0.16987659346E+04  0.43833629761E+03  0.17552948247E+04  0.10100000352E+00 0.  1.
</event>
<event>
 5   0  0.1630571E-08  0.3399322E+04  0.7818609E-02  0.8138073E-01
       -1   -1    0    0    0  501  0.00000000000E+00  0.00000000000E+00  0.13270987688E+04  0.13270987688E+04  0.50400001928E-02 0.  1.
        1   -1    0    0  501    0  0.00000000000E+00  0.00000000000E+00 -0.21768140562E+04  0.21768140562E+04  0.50400001928E-02 0. -1.
    10030    2    1    2    0    0  0.00000000000E+00  0.00000000000E+00 -0.84971528744E+03  0.35039128250E+04  0.33993218464E+04 0.  0.
        3    1    3    3  502    0  0.12613682383E+04 -0.50222399581E+03 -0.14788494781E+04  0.20075543737E+04  0.10100000352E+00 0. -1.
       -3    1    3    3    0  502 -0.12613682383E+04  0.50222399581E+03  0.62913419061E+03  0.14963584512E+04  0.10100000352E+00 0.  1.
</event>
<event>
 5   0  0.4775023E-08  0.3397077E+04  0.7818609E-02  0.8138624E-01
        2   -1    0    0  501    0  0.00000000000E+00  0.00000000000E+00  0.20546831248E+04  0.20546831248E+04  0.25500000920E-02 0.  1.
       -2   -1    0    0    0  501  0.00000000000E+00  0.00000000000E+00 -0.14041255660E+04  0.14041255660E+04  0.25500000920E-02 0. -1.
    10030    2    1    2    0    0  0.00000000000E+00  0.00000000000E+00  0.65055755877E+03  0.34588086908E+04  0.33970770410E+04 0.  0.
        4    1    3    3  502    0 -0.58384577538E+03 -0.15534057026E+04 -0.43359000540E+02  0.16600683064E+04  0.12699999809E+01 0. -1.
       -4    1    3    3    0  502  0.58384577538E+03  0.15534057026E+04  0.69391655931E+03  0.17987403844E+04  0.12699999809E+01 0.  1.
</event>
<event>
 5   0  0.4764953E-08  0.3399009E+04  0.7818609E-02  0.8138149E-01
       -2   -1    0    0    0  501  0.00000000000E+00  0.00000000000E+00  0.16471072499E+04  0.16471072500E+04  0.25500000920E-02 0. -1.
        2   -1    0    0  501    0  0.00000000000E+00  0.00000000000E+00 -0.17535690731E+04  0.17535690731E+04  0.25500000920E-02 0.  1.
    10030    2    1    2    0    0  0.00000000000E+00  0.00000000000E+00 -0.10646182311E+03  0.34006763230E+04  0.33990094637E+04 0.  0.
        2    1    3    3  502    0  0.14201873285E+04  0.92231608140E+03  0.90774837905E+02  0.16958299069E+04  0.25500000920E-02 0.  1.
       -2    1    3    3    0  502 -0.14201873285E+04 -0.92231608140E+03 -0.19723666101E+03  0.17048464161E+04  0.25500000920E-02 0. -1.
</event>
<event>
 5   0  0.4973409E-08  0.3400579E+04  0.7818609E-02  0.8137764E-01
       -2   -1    0    0    0  501  0.00000000000E+00  0.00000000000E+00  0.26388975698E+04  0.26388975698E+04  0.25500000920E-02 0. -1.
        2   -1    0    0  501    0  0.00000000000E+00  0.00000000000E+00 -0.10955275962E+04  0.10955275962E+04  0.25500000920E-02 0.  1.
    10030    2    1    2    0    0  0.00000000000E+00  0.00000000000E+00  0.15433699736E+04  0.37344251660E+04  0.34005794279E+04 0.  0.
        1    1    3    3  502    0  0.72527313350E+03 -0.45037156054E+03 -0.84308877517E+03  0.11998559678E+04  0.50400001928E-02 0.  1.
       -1    1    3    3    0  502 -0.72527313350E+03  0.45037156054E+03  0.23864587488E+04  0.25345691982E+04  0.50400001928E-02 0. -1.
</event>
<event>
 5   0  0.4946315E-08  0.3399268E+04  0.7818609E-02  0.8138086E-01
       -2   -1    0    0    0  501  0.00000000000E+00  0.00000000000E+00  0.22359273211E+04  0.22359273211E+04  0.25500000920E-02 0.  1.
        2   -1    0    0  501    0  0.00000000000E+00  0.00000000000E+00 -0.12919721037E+04  0.12919721037E+04  0.25500000920E-02 0. -1.
    10030    2    1    2    0    0  0.00000000000E+00  0.00000000000E+00  0.94395521737E+03  0.35278994247E+04  0.33992679945E+04 0.  0.
        3    1    3    3  502    0 -0.56198428954E+03 -0.15352009358E+04 -0.10464905602E+02  0.16348632296E+04  0.10100000352E+00 0. -1.
       -3    1    3    3    0  502  0.56198428954E+03  0.15352009358E+04  0.95442012297E+03  0.18930361952E+04  0.10100000352E+00 0.  1.
</event>
<event>
 5   0  0.4764953E-08  0.3385958E+04  0.7818609E-02  0.8141361E-01
       -2   -1    0    0    0  501  0.00000000000E+00  0.00000000000E+00  0.98604150464E+03  0.98604150464E+03  0.25500000920E-02 0. -1.
        2   -1    0    0  501    0  0.00000000000E+00  0.00000000000E+00 -0.29067521340E+04  0.29067521340E+04  0.25500000920E-02 0.  1.
    10030    2    1    2    0    0  0.00000000000E+00  0.00000000000E+00 -0.19207106293E+04  0.38927936386E+04  0.33859582087E+04 0.  0.
        2    1    3    3  502    0 -0.11451453394E+04  0.54685723614E+03 -0.22487069669E+04  0.25820715924E+04  0.25500000920E-02 0.  1.
       -2    1    3    3    0  502  0.11451453394E+04 -0.54685723614E+03  0.32799633759E+03  0.13107220462E+04  0.25500000920E-02 0. -1.
</event>
<event>
 5   0  0.1595851E-08  0.3399106E+04  0.7818609E-02  0.8138126E-01
        1   -1    0    0  501    0  0.00000000000E+00  0.00000000000E+00  0.16626325059E+04  0.16626325059E+04  0.50400001928E-02 0. -1.
       -1   -1    0    0    0  501  0.00000000000E+00  0.00000000000E+00 -0.17372928650E+04  0.17372928650E+04  0.50400001928E-02 0.  1.
    10030    2    1    2    0    0  0.00000000000E+00  0.00000000000E+00 -0.74660359053E+02  0.33999253709E+04  0.33991055233E+04 0.  0.
        2    1    3    3  502    0  0.93842156761E+03 -0.11678372343E+04  0.76535994898E+03  0.16823360829E+04  0.25500000920E-02 0. -1.
       -2    1    3    3    0  502 -0.93842156761E+03  0.11678372343E+04 -0.84002030803E+03  0.17175892880E+04  0.25500000920E-02 0.  1.
</event>
<event>
 5   0  0.1595851E-08  0.3395937E+04  0.7818609E-02  0.8138904E-01
        1   -1    0    0  501    0  0.00000000000E+00  0.00000000000E+00  0.20451423427E+04  0.20451423428E+04  0.50400001928E-02 0. -1.
       -1   -1    0    0    0  501  0.00000000000E+00  0.00000000000E+00 -0.14097296642E+04  0.14097296642E+04  0.50400001928E-02 0.  1.
    10030    2    1    2    0    0  0.00000000000E+00  0.00000000000E+00  0.63541267854E+03  0.34548720070E+04  0.33959374718E+04 0.  0.
        2    1    3    3  502    0  0.97740518710E+03  0.10140662502E+04 -0.64714401835E+03  0.15499827870E+04  0.25500000920E-02 0.  1.
       -2    1    3    3    0  502 -0.97740518710E+03 -0.10140662502E+04  0.12825566969E+04  0.19048892200E+04  0.25500000920E-02 0. -1.
</event>
<event>
 5   0  0.1645631E-08  0.3400228E+04  0.7818609E-02  0.8137850E-01
        1   -1    0    0  501    0  0.00000000000E+00  0.00000000000E+00  0.19798522191E+04  0.19798522191E+04  0.50400001928E-02 0. -1.
       -1   -1    0    0    0  501  0.00000000000E+00  0.00000000000E+00 -0.14599009997E+04  0.14599009997E+04  0.50400001928E-02 0.  1.
    10030    2    1    2    0    0  0.00000000000E+00  0.00000000000E+00  0.51995121939E+03  0.34397532188E+04  0.34002283652E+04 0.  0.
        4    1    3    3  502    0  0.12896816753E+04 -0.24841240013E+03  0.13520608425E+04  0.18849556172E+04  0.12699999809E+01 0. -1.
       -4    1    3    3    0  502 -0.12896816753E+04  0.24841240013E+03 -0.83210962312E+03  0.15547976016E+04  0.12699999809E+01 0.  1.
</event>
<event>
 5   0  0.1579536E-08  0.3400487E+04  0.7818609E-02  0.8137787E-01
       -1   -1    0    0    0  501  0.00000000000E+00  0.00000000000E+00  0.12819268319E+04  0.12819268320E+04  0.50400001928E-02 0.  1.
        1   -1    0    0  501    0  0.00000000000E+00  0.00000000000E+00 -0.22550649581E+04  0.22550649581E+04  0.50400001928E-02 0. -1.
    10030    2    1    2    0    0  0.00000000000E+00  0.00000000000E+00 -0.97313812616E+03  0.35369917901E+04  0.34004871872E+04 0.  0.
        5    1    3    3  502    0  0.13051541457E+04  0.24105720020E+03  0.61876067936E+03  0.14643847808E+04  0.46999998093E+01 0.  1.
       -5    1    3    3    0  502 -0.13051541457E+04 -0.24105720020E+03 -0.15918988055E+04  0.20726070093E+04  0.46999998093E+01 0. -1.
</event>
<event>
 5   0  0.1579536E-08  0.3404596E+04  0.7818609E-02  0.8136779E-01
        1   -1    0    0  501    0  0.00000000000E+00  0.00000000000E+00  0.23431256370E+04  0.23431256370E+04  0.50400001928E-02 0. -1.
       -1   -1    0    0    0  501  0.00000000000E+00  0.00000000000E+00 -0.12367321018E+04  0.12367321018E+04  0.50400001928E-02 0.  1.
    10030    2    1    2    0    0  0.00000000000E+00  0.00000000000E+00  0.11063935352E+04  0.35798577388E+04  0.34045961251E+04 0.  0.
        5    1    3    3  502    0 -0.66198717450E+03  0.11355982791E+03  0.21979024737E+04  0.22982428565E+04  0.46999998093E+01 0. -1.
       -5    1    3    3    0  502  0.66198717450E+03 -0.11355982791E+03 -0.10915089385E+04  0.12816148823E+04  0.46999998093E+01 0.  1.
</event>
<event>
 5   0  0.4946315E-08  0.3399651E+04  0.7818609E-02  0.8137992E-01
       -2   -1    0    0    0  501  0.00000000000E+00  0.00000000000E+00  0.16741300483E+04  0.16741300484E+04  0.25500000920E-02 0. -1.
        2   -1    0    0  501    0  0.00000000000E+00  0.00000000000E+00 -0.17259158419E+04  0.17259158419E+04  0.25500000920E-02 0.  1.
    10030    2    1    2    0    0  0.00000000000E+00  0.00000000000E+00 -0.51785793536E+02  0.34000458902E+04  0.33996514950E+04 0.  0.
        3    1    3    3  502    0  0.60851216675E+03  0.15225721829E+04 -0.47415740237E+03  0.17068504215E+04  0.10100000352E+00 0.  1.
       -3    1    3    3    0  502 -0.60851216675E+03 -0.15225721829E+04  0.42237160883E+03  0.16931954687E+04  0.10100000352E+00 0. -1.
</event>
<event>
 5   0  0.4946315E-08  0.3400257E+04  0.7818609E-02  0.8137843E-01
       -2   -1    0    0    0  501  0.00000000000E+00  0.00000000000E+00  0.11924327115E+04  0.11924327115E+04  0.25500000920E-02 0. -1.
        2   -1    0    0  501    0  0.00000000000E+00  0.00000000000E+00 -0.24239834119E+04  0.24239834119E+04  0.25500000920E-02 0.  1.
    10030    2    1    2    0    0  0.00000000000E+00  0.00000000000E+00 -0.12315507004E+04  0.36164161234E+04  0.34002571152E+04 0.  0.
        3    1    3    3  502    0 -0.13110205633E+04  0.10067955260E+04 -0.10385699919E+04  0.19521884609E+04  0.10100000352E+00 0.  1.
       -3    1    3    3    0  502  0.13110205633E+04 -0.10067955260E+04 -0.19298070848E+03  0.16642276625E+04  0.10100000352E+00 0. -1.
</event>
<event>
 5   0  0.1579536E-08  0.3398906E+04  0.7818609E-02  0.8138175E-01
        1   -1    0    0  501    0  0.00000000000E+00  0.00000000000E+00  0.17743251204E+04  0.17743251204E+04  0.50400001928E-02 0. -1.
       -1   -1    0    0    0  501  0.00000000000E+00  0.00000000000E+00 -0.16277400894E+04  0.16277400894E+04  0.50400001928E-02 0.  1.
    10030    2    1    2    0    0  0.00000000000E+00  0.00000000000E+00  0.14658503099E+03  0.34020652097E+04  0.33989057827E+04 0.  0.
        5    1    3    3  502    0  0.16811943329E+04  0.95408382756E+02 -0.15626952503E+03  0.16911414485E+04  0.46999998093E+01 0.  1.
       -5    1    3    3    0  502 -0.16811943329E+04 -0.95408382756E+02  0.30285455601E+03  0.17109237612E+04  0.46999998093E+01 0. -1.
</event>
<event>
 5   0  0.4973409E-08  0.3400019E+04  0.7818609E-02  0.8137902E-01
        2   -1    0    0  501    0  0.00000000000E+00  0.00000000000E+00  0.22913586476E+04  0.22913586476E+04  0.25500000920E-02 0.  1.
       -2   -1    0    0    0  501  0.00000000000E+00  0.00000000000E+00 -0.12612747227E+04  0.12612747227E+04  0.25500000920E-02 0. -1.
    10030    2    1    2    0    0  0.00000000000E+00  0.00000000000E+00  0.10300839249E+04  0.35526333703E+04  0.34000192605E+04 0.  0.
        1    1    3    3  502    0  0.29652620550E+03 -0.16198576650E+04  0.73998339030E+02  0.16484363499E+04  0.50400001928E-02 0. -1.
       -1    1    3    3    0  502 -0.29652620550E+03  0.16198576650E+04  0.95608558585E+03  0.19041970205E+04  0.50400001928E-02 0.  1.
</event>
<event>
 5   0  0.1595851E-08  0.3406954E+04  0.7818609E-02  0.8136202E-01
        1   -1    0    0  501    0  0.00000000000E+00  0.00000000000E+00  0.22999732009E+04  0.22999732009E+04  0.50400001928E-02 0.  1.
       -1   -1    0    0    0  501  0.00000000000E+00  0.00000000000E+00 -0.12616813022E+04  0.12616813022E+04  0.50400001928E-02 0. -1.
    10030    2    1    2    0    0  0.00000000000E+00  0.00000000000E+00  0.10382918987E+04  0.35616545031E+04  0.34069535853E+04 0.  0.
        2    1    3    3  502    0 -0.58832537472E+03 -0.24813985456E+03  0.21701395130E+04  0.22621241433E+04  0.25500000920E-02 0.  1.
       -2    1    3    3    0  502  0.58832537472E+03  0.24813985456E+03 -0.11318476143E+04  0.12995303598E+04  0.25500000920E-02 0. -1.
</event>
<event>
 5   0  0.4946315E-08  0.3401988E+04  0.7818609E-02  0.8137418E-01
       -2   -1    0    0    0  501  0.00000000000E+00  0.00000000000E+00  0.10553287686E+04  0.10553287686E+04  0.25500000920E-02 0.  1.
        2   -1    0    0  501    0  0.00000000000E+00  0.00000000000E+00 -0.27416871178E+04  0.27416871178E+04  0.25500000920E-02 0. -1.
    10030    2    1    2    0    0  0.00000000000E+00  0.00000000000E+00 -0.16863583492E+04  0.37970158864E+04  0.34019884126E+04 0.  0.
        3    1    3    3  502    0 -0.22407015778E+03 -0.16439838600E+03 -0.27161768816E+04  0.27303573259E+04  0.10100000352E+00 0. -1.
       -3    1    3    3    0  502  0.22407015778E+03  0.16439838600E+03  0.10298185324E+04  0.10666585605E+04  0.10100000352E+00 0.  1.
</event>
<event>
 5   0  0.4775023E-08  0.3400166E+04  0.7818609E-02  0.8137866E-01
        2   -1    0    0  501    0  0.00000000000E+00  0.00000000000E+00  0.28343289130E+04  0.28343289130E+04  0.25500000920E-02 0.  1.
       -2   -1    0    0    0  501  0.00000000000E+00  0.00000000000E+00 -0.10197410269E+04  0.10197410269E+04  0.25500000920E-02 0. -1.
    10030    2    1    2    0    0  0.00000000000E+00  0.00000000000E+00  0.18145878861E+04  0.38540699399E+04  0.34001655702E+04 0.  0.
        4    1    3    3  502    0 -0.10074372827E+04 -0.13655186755E+04  0.78999650019E+03  0.18718085412E+04  0.12699999809E+01 0.  1.
       -4    1    3    3    0  502  0.10074372827E+04  0.13655186755E+04  0.10245913859E+04  0.19822613987E+04  0.12699999809E+01 0. -1.
</event>
<event>
 5   0  0.5001197E-08  0.3401618E+04  0.7818609E-02  0.8137509E-01
        2   -1    0    0  501    0  0.00000000000E+00  0.00000000000E+00  0.16512187960E+04  0.16512187960E+04  0.25500000920E-02 0.  1.
       -2   -1    0    0    0  501  0.00000000000E+00  0.00000000000E+00 -0.17518886934E+04  0.17518886934E+04  0.25500000920E-02 0. -1.
    10030    2    1    2    0    0  0.00000000000E+00  0.00000000000E+00 -0.10066989737E+03  0.34031074894E+04  0.34016181673E+04 0.  0.
        5    1    3    3  502    0  0.10308085836E+04  0.91098869784E+03  0.95023428052E+03  0.16719551493E+04  0.46999998093E+01 0.  1.
       -5    1    3    3    0  502 -0.10308085836E+04 -0.91098869784E+03 -0.10509041779E+04  0.17311523401E+04  0.46999998093E+01 0. -1.
</event>
<event>
 5   0  0.1625282E-08  0.3400005E+04  0.7818609E-02  0.8137905E-01
       -1   -1    0    0    0  501  0.00000000000E+00  0.00000000000E+00  0.15764774315E+04  0.15764774315E+04  0.50400001928E-02 0.  1.
        1   -1    0    0  501    0  0.00000000000E+00  0.00000000000E+00 -0.18332066214E+04  0.18332066214E+04  0.50400001928E-02 0. -1.
    10030    2    1    2    0    0  0.00000000000E+00  0.00000000000E+00 -0.25672918985E+03  0.34096840529E+04  0.34000052152E+04 0.  0.
        1    1    3    3  502    0  0.80389261903E+03  0.40415404524E+03 -0.15748384572E+04  0.18137530156E+04  0.50400001928E-02 0. -1.
       -1    1    3    3    0  502 -0.80389261903E+03 -0.40415404524E+03  0.13181092673E+04  0.15959310373E+04  0.50400001928E-02 0.  1.
</event>
<event>
 5   0  0.1630571E-08  0.3399975E+04  0.7818609E-02  0.8137912E-01
       -1   -1    0    0    0  501  0.00000000000E+00  0.00000000000E+00  0.12390514597E+04  0.12390514598E+04  0.50400001928E-02 0.  1.
        1   -1    0    0  501    0  0.00000000000E+00  0.00000000000E+00 -0.23323948186E+04  0.23323948186E+04  0.50400001928E-02 0. -1.
    10030    2    1    2    0    0  0.00000000000E+00  0.00000000000E+00 -0.10933433589E+04  0.35714462784E+04  0.33999748262E+04 0.  0.
        3    1    3    3  502    0  0.47947607212E+01 -0.28642090359E+03  0.12135162065E+04  0.12468686849E+04  0.10100000352E+00 0.  1.
       -3    1    3    3    0  502 -0.47947607212E+01  0.28642090359E+03 -0.23068595654E+04  0.23245775935E+04  0.10100000352E+00 0. -1.
</event>
<event>
 5   0  0.1645631E-08  0.3400479E+04  0.7818609E-02  0.8137789E-01
        1   -1    0    0  501    0  0.00000000000E+00  0.00000000000E+00  0.22613391705E+04  0.22613391705E+04  0.50400001928E-02 0.  1.
       -1   -1    0    0    0  501  0.00000000000E+00  0.00000000000E+00 -0.12783640630E+04  0.12783640631E+04  0.50400001928E-02 0. -1.
    10030    2    1    2    0    0  0.00000000000E+00  0.00000000000E+00  0.98297510745E+03  0.35397032336E+04  0.34004792191E+04 0.  0.
        4    1    3    3  502    0  0.15219961323E+04  0.22809583611E+03  0.12437895596E+04  0.19787657817E+04  0.12699999809E+01 0.  1.
       -4    1    3    3    0  502 -0.15219961323E+04 -0.22809583611E+03 -0.26081445219E+03  0.15609374519E+04  0.12699999809E+01 0. -1.
</event>
<event>
 5   0  0.1579536E-08  0.3399385E+04  0.7818609E-02  0.8138057E-01
       -1   -1    0    0    0  501  0.00000000000E+00  0.00000000000E+00  0.16441857819E+04  0.16441857819E+04  0.50400001928E-02 0.  1.
        1   -1    0    0  501    0  0.00000000000E+00  0.00000000000E+00 -0.17570733541E+04  0.17570733541E+04  0.50400001928E-02 0. -1.
    10030    2    1    2    0    0  0.00000000000E+00  0.00000000000E+00 -0.11288757219E+03  0.34012591359E+04  0.33993852541E+04 0.  0.
        5    1    3    3  502    0 -0.48627857584E+03  0.12661792077E+04  0.96845299058E+03  0.16666133098E+04  0.46999998093E+01 0.  1.
       -5    1    3    3    0  502  0.48627857584E+03 -0.12661792077E+04 -0.10813405628E+04  0.17346458261E+04  0.46999998093E+01 0. -1.
</event>
<event>
 5   0  0.4946315E-08  0.3399054E+04  0.7818609E-02  0.8138138E-01
       -2   -1    0    0    0  501  0.00000000000E+00  0.00000000000E+00  0.12735270187E+04  0.12735270187E+04  0.25500000920E-02 0. -1.
        2   -1    0    0  501    0  0.00000000000E+00  0.00000000000E+00 -0.22680262725E+04  0.22680262725E+04  0.25500000920E-02 0.  1.
    10030    2    1    2    0    0  0.00000000000E+00  0.00000000000E+00 -0.99449925384E+03  0.35415532912E+04  0.33990544197E+04 0.  0.
        3    1    3    3  502    0  0.90105618016E+03  0.44219373208E+03 -0.19262254736E+04  0.21720456076E+04  0.10100000352E+00 0.  1.
       -3    1    3    3    0  502 -0.90105618016E+03 -0.44219373208E+03  0.93172621972E+03  0.13695076835E+04  0.10100000352E+00 0. -1.
</event>
<event>
 5   0  0.1595851E-08  0.3398647E+04  0.7818609E-02  0.8138238E-01
        1   -1    0    0  501    0  0.00000000000E+00  0.00000000000E+00  0.17090194029E+04  0.17090194029E+04  0.50400001928E-02 0.  1.
       -1   -1    0    0    0  501  0.00000000000E+00  0.00000000000E+00 -0.16896829313E+04  0.16896829313E+04  0.50400001928E-02 0. -1.
    10030    2    1    2    0    0  0.00000000000E+00  0.00000000000E+00  0.19336471638E+02  0.33987023342E+04  0.33986473275E+04 0.  0.
        2    1    3    3  502    0 -0.53569009623E+03  0.10298658416E+04 -0.12313648970E+04  0.16922904717E+04  0.25500000920E-02 0.  1.
       -2    1    3    3    0  502  0.53569009623E+03 -0.10298658416E+04  0.12507013686E+04  0.17064118625E+04  0.25500000920E-02 0. -1.
</event>
<event>
 5   0  0.1645631E-08  0.3399871E+04  0.7818609E-02  0.8137938E-01
        1   -1    0    0  501    0  0.00000000000E+00  0.00000000000E+00  0.19158643335E+04  0.19158643335E+04  0.50400001928E-02 0. -1.
       -1   -1    0    0    0  501  0.00000000000E+00  0.00000000000E+00 -0.15083434506E+04  0.15083434507E+04  0.50400001928E-02 0.  1.
    10030    2    1    2    0    0  0.00000000000E+00  0.00000000000E+00  0.40752088286E+03  0.34242077842E+04  0.33998714210E+04 0.  0.
        4    1    3    3  502    0 -0.36553382355E+03  0.10703372271E+03 -0.14648145877E+04  0.15135238958E+04  0.12699999809E+01 0.  1.
       -4    1    3    3    0  502  0.36553382355E+03 -0.10703372271E+03  0.18723354706E+04  0.19106838884E+04  0.12699999809E+01 0. -1.
</event>
<event>
 5   0  0.1630571E-08  0.3399648E+04  0.7818609E-02  0.8137993E-01
       -1   -1    0    0    0  501  0.00000000000E+00  0.00000000000E+00  0.10923599588E+04  0.10923599589E+04  0.50400001928E-02 0.  1.
        1   -1    0    0  501    0  0.00000000000E+00  0.00000000000E+00 -0.26451001828E+04  0.26451001828E+04  0.50400001928E-02 0. -1.
    10030    2    1    2    0    0  0.00000000000E+00  0.00000000000E+00 -0.15527402240E+04  0.37374601417E+04  0.33996479388E+04 0.  0.
        3    1    3    3  502    0  0.12161112011E+04  0.11230139451E+04 -0.12011793668E+04  0.20452184861E+04  0.10100000352E+00 0. -1.
       -3    1    3    3    0  502 -0.12161112011E+04 -0.11230139451E+04 -0.35156085721E+03  0.16922416556E+04  0.10100000352E+00 0.  1.
</event>
<event>
 5   0  0.1645631E-08  0.3399780E+04  0.7818609E-02  0.8137960E-01
       -1   -1    0    0    0  501  0.00000000000E+00  0.00000000000E+00  0.12103298171E+04  0.12103298171E+04  0.50400001928E-02 0. -1.
        1   -1    0    0  501    0  0.00000000000E+00  0.00000000000E+00 -0.23874702601E+04  0.23874702601E+04  0.50400001928E-02 0.  1.
    10030    2    1    2    0    0  0.00000000000E+00  0.00000000000E+00 -0.11771404430E+04  0.35978000772E+04  0.33997802536E+04 0.  0.
        4    1    3    3  502    0  0.20082845631E+03  0.26771428453E+03  0.11751217481E+04  0.12218493126E+04  0.12699999809E+01 0. -1.
       -4    1    3    3    0  502 -0.20082845631E+03 -0.26771428453E+03 -0.23522621911E+04  0.23759507646E+04  0.12699999809E+01 0.  1.
</event>
<event>
 5   0  0.4764953E-08  0.3400612E+04  0.7818609E-02  0.8137756E-01
       -2   -1    0    0    0  501  0.00000000000E+00  0.00000000000E+00  0.19414520181E+04  0.19414520181E+04  0.25500000920E-02 0.  1.
        2   -1    0    0  501    0  0.00000000000E+00  0.00000000000E+00 -0.14891125404E+04  0.14891125404E+04  0.25500000920E-02 0. -1.
    10030    2    1    2    0    0  0.00000000000E+00  0.00000000000E+00  0.45233947775E+03  0.34305645585E+04  0.34006120313E+04 0.  0.
        2    1    3    3  502    0  0.28278976051E+03  0.85233072726E+03  0.16827022101E+04  0.19073343821E+04  0.25500000920E-02 0.  1.
       -2    1    3    3    0  502 -0.28278976051E+03 -0.85233072726E+03 -0.12303627323E+04  0.15232301764E+04  0.25500000920E-02 0. -1.
</event>
<event>
 5   0  0.5001197E-08  0.3399425E+04  0.7818609E-02  0.8138047E-01
       -2   -1    0    0    0  501  0.00000000000E+00  0.00000000000E+00  0.19549460860E+04  0.19549460860E+04  0.25500000920E-02 0. -1.
        2   -1    0    0  501    0  0.00000000000E+00  0.00000000000E+00 -0.14778018452E+04  0.14778018452E+04  0.25500000920E-02 0.  1.
    10030    2    1    2    0    0  0.00000000000E+00  0.00000000000E+00  0.47714424081E+03  0.34327479312E+04  0.33994252062E+04 0.  0.
        5    1    3    3  502    0 -0.10081505398E+03  0.16858756723E+04  0.45226233305E+02  0.16894993222E+04  0.46999998093E+01 0. -1.
       -5    1    3    3    0  502  0.10081505398E+03 -0.16858756723E+04  0.43191800750E+03  0.17432486090E+04  0.46999998093E+01 0.  1.
</event>
<event>
 5   0  0.4946315E-08  0.3401102E+04  0.7818609E-02  0.8137636E-01
       -2   -1    0    0    0  501  0.00000000000E+00  0.00000000000E+00  0.10732320199E+04  0.10732320199E+04  0.25500000920E-02 0. -1.
        2   -1    0    0  501    0  0.00000000000E+00  0.00000000000E+00 -0.26945459967E+04  0.26945459967E+04  0.25500000920E-02 0.  1.
    10030    2    1    2    0    0  0.00000000000E+00  0.00000000000E+00 -0.16213139768E+04  0.37677780166E+04  0.34011016114E+04 0.  0.
        3    1    3    3  502    0  0.10815444447E+03 -0.10420104863E+04  0.67330950845E+03  0.12453228263E+04  0.10100000352E+00 0. -1.
       -3    1    3    3    0  502 -0.10815444447E+03  0.10420104863E+04 -0.22946234853E+04  0.25224551902E+04  0.10100000352E+00 0.  1.
</event>
<event>
 5   0  0.5001197E-08  0.3401426E+04  0.7818609E-02  0.8137556E-01
        2   -1    0    0  501    0  0.00000000000E+00  0.00000000000E+00  0.18873066329E+04  0.18873066329E+04  0.25500000920E-02 0.  1.
       -2   -1    0    0    0  501  0.00000000000E+00  0.00000000000E+00 -0.15325672844E+04  0.15325672844E+04  0.25500000920E-02 0. -1.
    10030    2    1    2    0    0  0.00000000000E+00  0.00000000000E+00  0.35473934848E+03  0.34198739173E+04  0.34014258194E+04 0.  0.
        5    1    3    3  502    0 -0.10574818829E+04  0.95749513650E+03  0.11083167378E+04  0.18065029616E+04  0.46999998093E+01 0.  1.
       -5    1    3    3    0  502  0.10574818829E+04 -0.95749513650E+03 -0.75357738928E+03  0.16133709557E+04  0.46999998093E+01 0. -1.
</event>
<event>
 5   0  0.1645631E-08  0.3404289E+04  0.7818609E-02  0.8136854E-01
       -1   -1    0    0    0  501  0.00000000000E+00  0.00000000000E+00  0.22386838381E+04  0.22386838381E+04  0.50400001928E-02 0. -1.
        1   -1    0    0  501    0  0.00000000000E+00  0.00000000000E+00 -0.12941961499E+04  0.12941961499E+04  0.50400001928E-02 0.  1.
    10030    2    1    2    0    0  0.00000000000E+00  0.00000000000E+00  0.94448768817E+03  0.35328799880E+04  0.34042890618E+04 0.  0.
        4    1    3    3  502    0  0.45838391008E+03  0.10651170564E+04  0.17653876519E+04  0.21121518239E+04  0.12699999809E+01 0. -1.
       -4    1    3    3    0  502 -0.45838391008E+03 -0.10651170564E+04 -0.82089996370E+03  0.14207281641E+04  0.12699999809E+01 0.  1.
</event>
<event>
 5   0  0.1579536E-08  0.3401156E+04  0.7818609E-02  0.8137623E-01
        1   -1    0    0  501    0  0.00000000000E+00  0.00000000000E+00  0.17720674834E+04  0.17720674834E+04  0.50400001928E-02 0.  1.
       -1   -1    0    0    0  501  0.00000000000E+00  0.00000000000E+00 -0.16319727236E+04  0.16319727236E+04  0.50400001928E-02 0. -1.
    10030    2    1    2    0    0  0.00000000000E+00  0.00000000000E+00  0.14009475972E+03  0.34040402070E+04  0.34011561548E+04 0.  0.
        5    1    3    3  502    0  0.44333969787E+03  0.74807607161E+03  0.15327159894E+04  0.17622168682E+04  0.46999998093E+01 0.  1.
       -5    1    3    3    0  502 -0.44333969787E+03 -0.74807607161E+03 -0.13926212296E+04  0.16418233388E+04  0.46999998093E+01 0. -1.
</event>
<event>
 5   0  0.1630571E-08  0.3399338E+04  0.7818609E-02  0.8138069E-01
       -1   -1    0    0    0  501  0.00000000000E+00  0.00000000000E+00  0.14883006502E+04  0.14883006502E+04  0.50400001928E-02 0.  1.
        1   -1    0    0  501    0  0.00000000000E+00  0.00000000000E+00 -0.19410561049E+04  0.19410561050E+04  0.50400001928E-02 0. -1.
    10030    2    1    2    0    0  0.00000000000E+00  0.00000000000E+00 -0.45275545475E+03  0.34293567551E+04  0.33993382080E+04 0.  0.
        3    1    3    3  502    0  0.59086169780E+01  0.15309804751E+04 -0.97109633798E+03  0.18129986858E+04  0.10100000352E+00 0. -1.
       -3    1    3    3    0  502 -0.59086169780E+01 -0.15309804751E+04  0.51834088322E+03  0.16163580693E+04  0.10100000352E+00 0.  1.
</event>
<event>
 5   0  0.1579536E-08  0.3399950E+04  0.7818609E-02  0.8137919E-01
       -1   -1    0    0    0  501  0.00000000000E+00  0.00000000000E+00  0.13307322375E+04  0.13307322376E+04  0.50400001928E-02 0.  1.
        1   -1    0    0  501    0  0.00000000000E+00  0.00000000000E+00 -0.21716728698E+04  0.21716728698E+04  0.50400001928E-02 0. -1.
    10030    2    1    2    0    0  0.00000000000E+00  0.00000000000E+00 -0.84094063224E+03  0.35024051074E+04  0.33999500568E+04 0.  0.
        5    1    3    3  502    0 -0.13348929044E+04  0.45616335777E+03 -0.13976703402E+04  0.19858319529E+04  0.46999998093E+01 0. -1.
       -5    1    3    3    0  502  0.13348929044E+04 -0.45616335777E+03  0.55672970795E+03  0.15165731545E+04  0.46999998093E+01 0.  1.
</event>
<event>
 5   0  0.4764953E-08  0.3398600E+04  0.7818609E-02  0.8138250E-01
       -2   -1    0    0    0  501  0.00000000000E+00  0.00000000000E+00  0.19207502301E+04  0.19207502301E+04  0.25500000920E-02 0. -1.
        2   -1    0    0  501    0  0.00000000000E+00  0.00000000000E+00 -0.15033819691E+04  0.15033819691E+04  0.25500000920E-02 0.  1.
    10030    2    1    2    0    0  0.00000000000E+00  0.00000000000E+00  0.41736826097E+03  0.34241321992E+04  0.33986004550E+04 0.  0.
        2    1    3    3  502    0  0.16357255789E+04 -0.13519351463E+03 -0.23478824182E+03  0.16580111502E+04  0.25500000920E-02 0.  1.
       -2    1    3    3    0  502 -0.16357255789E+04  0.13519351463E+03  0.65215650279E+03  0.17661210490E+04  0.25500000920E-02 0. -1.
</event>
<event>
 5   0  0.4946315E-08  0.3399237E+04  0.7818609E-02  0.8138094E-01
       -2   -1    0    0    0  501  0.00000000000E+00  0.00000000000E+00  0.13743744250E+04  0.13743744250E+04  0.25500000920E-02 0. -1.
        2   -1    0    0  501    0  0.00000000000E+00  0.00000000000E+00 -0.21018312870E+04  0.21018312870E+04  0.25500000920E-02 0.  1.
    10030    2    1    2    0    0  0.00000000000E+00  0.00000000000E+00 -0.72745686191E+03  0.34762057120E+04  0.33992370712E+04 0.  0.
        3    1    3    3  502    0 -0.36331586809E+03  0.32701282178E+03 -0.20283974107E+04  0.20864639636E+04  0.10100000352E+00 0.  1.
       -3    1    3    3    0  502  0.36331586809E+03 -0.32701282178E+03  0.13009405488E+04  0.13897417484E+04  0.10100000352E+00 0. -1.
</event>
<event>
 5   0  0.4946315E-08  0.3400822E+04  0.7818609E-02  0.8137705E-01
       -2   -1    0    0    0  501  0.00000000000E+00  0.00000000000E+00  0.30728780077E+04  0.30728780077E+04  0.25500000920E-02 0.  1.
        2   -1    0    0  501    0  0.00000000000E+00  0.00000000000E+00 -0.94094123089E+03  0.94094123090E+03  0.25500000920E-02 0. -1.
    10030    2    1    2    0    0  0.00000000000E+00  0.00000000000E+00  0.21319367768E+04  0.40138192386E+04  0.34008220271E+04 0.  0.
        3    1    3    3  502    0  0.10391406505E+04 -0.15131822006E+03 -0.51251891845E+03  0.11684973887E+04  0.10100000352E+00 0. -1.
       -3    1    3    3    0  502 -0.10391406505E+04  0.15131822006E+03  0.26444556953E+04  0.28453218500E+04  0.10100000352E+00 0.  1.
</event>
<event>
 5   0  0.1595851E-08  0.3399987E+04  0.7818609E-02  0.8137909E-01
       -1   -1    0    0    0  501  0.00000000000E+00  0.00000000000E+00  0.10681686787E+04  0.10681686787E+04  0.50400001928E-02 0. -1.
        1   -1    0    0  501    0  0.00000000000E+00  0.00000000000E+00 -0.27055448535E+04  0.27055448535E+04  0.50400001928E-02 0.  1.
    10030    2    1    2    0    0  0.00000000000E+00  0.00000000000E+00 -0.16373761748E+04  0.37737135322E+04  0.33999872184E+04 0.  0.
        2    1    3    3  502    0 -0.86515833972E+03 -0.88135269499E+03  0.47792297541E+03  0.13242703259E+04  0.25500000920E-02 0. -1.
       -2    1    3    3    0  502  0.86515833972E+03  0.88135269499E+03 -0.21152991502E+04  0.24494432063E+04  0.25500000920E-02 0.  1.
</event>
<event>
 5   0  0.4775023E-08  0.3403778E+04  0.7818609E-02  0.8136980E-01
       -2   -1    0    0    0  501  0.00000000000E+00  0.00000000000E+00  0.16621290062E+04  0.16621290062E+04  0.25500000920E-02 0.  1.
        2   -1    0    0  501    0  0.00000000000E+00  0.00000000000E+00 -0.17425996849E+04  0.17425996849E+04  0.25500000920E-02 0. -1.
    10030    2    1    2    0    0  0.00000000000E+00  0.00000000000E+00 -0.80470678682E+02  0.34047286911E+04  0.34037775970E+04 0.  0.
        4    1    3    3  502    0  0.14830365939E+03  0.29880885989E+03  0.16291058012E+04  0.16629095089E+04  0.12699999809E+01 0.  1.
       -4    1    3    3    0  502 -0.14830365939E+03 -0.29880885989E+03 -0.17095764799E+04  0.17418191823E+04  0.12699999809E+01 0. -1.
</event>
<event>
 5   0  0.4946315E-08  0.3398709E+04  0.7818609E-02  0.8138223E-01
       -2   -1    0    0    0  501  0.00000000000E+00  0.00000000000E+00  0.20030082540E+04  0.20030082540E+04  0.25500000920E-02 0. -1.
        2   -1    0    0  501    0  0.00000000000E+00  0.00000000000E+00 -0.14417347074E+04  0.14417347074E+04  0.25500000920E-02 0.  1.
    10030    2    1    2    0    0  0.00000000000E+00  0.00000000000E+00  0.56127354661E+03  0.34447429615E+04  0.33987094722E+04 0.  0.
        3    1    3    3  502    0 -0.15585791626E+02 -0.50426502538E+03 -0.13640807929E+04  0.14543873461E+04  0.10100000352E+00 0.  1.
       -3    1    3    3    0  502  0.15585791626E+02  0.50426502538E+03  0.19253543395E+04  0.19903556154E+04  0.10100000352E+00 0. -1.
</event>
<event>
 5   0  0.4946315E-08  0.3395332E+04  0.7818609E-02  0.8139053E-01
       -2   -1    0    0    0  501  0.00000000000E+00  0.00000000000E+00  0.21642812078E+04  0.21642812078E+04  0.25500000920E-02 0. -1.
        2   -1    0    0  501    0  0.00000000000E+00  0.00000000000E+00 -0.13316518705E+04  0.13316518705E+04  0.25500000920E-02 0.  1.
    10030    2    1    2    0    0  0.00000000000E+00  0.00000000000E+00  0.83262933729E+03  0.34959330782E+04  0.33953315706E+04 0.  0.
        3    1    3    3  502    0 -0.10355276267E+04  0.94886831629E+03 -0.56556558853E+03  0.15141112880E+04  0.10100000352E+00 0. -1.
       -3    1    3    3    0  502  0.10355276267E+04 -0.94886831629E+03  0.13981949258E+04  0.19818217902E+04  0.10100000352E+00 0.  1.
</event>
<event>
 5   0  0.4946315E-08  0.3400449E+04  0.7818609E-02  0.8137796E-01
       -2   -1    0    0    0  501  0.00000000000E+00  0.00000000000E+00  0.87426818512E+03  0.87426818512E+03  0.25500000920E-02 0. -1.
        2   -1    0    0  501    0  0.00000000000E+00  0.00000000000E+00 -0.33064945723E+04  0.33064945723E+04  0.25500000920E-02 0.  1.
    10030    2    1    2    0    0  0.00000000000E+00  0.00000000000E+00 -0.24322263872E+04  0.41807627574E+04  0.34004487991E+04 0.  0.
        3    1    3    3  502    0  0.46348897196E+03  0.13322397716E+04 -0.49033491086E+02  0.14114138761E+04  0.10100000352E+00 0. -1.
       -3    1    3    3    0  502 -0.46348897196E+03 -0.13322397716E+04 -0.23831928961E+04  0.27693488813E+04  0.10100000352E+00 0.  1.
</event>
<event>
 5   0  0.5001197E-08  0.3398183E+04  0.7818609E-02  0.8138352E-01
       -2   -1    0    0    0  501  0.00000000000E+00  0.00000000000E+00  0.10057046303E+04  0.10057046303E+04  0.25500000920E-02 0.  1.
        2   -1    0    0  501    0  0.00000000000E+00  0.00000000000E+00 -0.28705369108E+04  0.28705369108E+04  0.25500000920E-02 0. -1.
    10030    2    1    2    0    0  0.00000000000E+00  0.00000000000E+00 -0.18648322805E+04  0.38762415411E+04  0.33981831985E+04 0.  0.
        5    1    3    3  502    0 -0.37677969819E+03  0.76042472717E+03 -0.26114582081E+04  0.27458959866E+04  0.46999998093E+01 0. -1.
       -5    1    3    3    0  502  0.37677969819E+03 -0.76042472717E+03  0.74662592764E+03  0.11303455545E+04  0.46999998093E+01 0.  1.
</event>
<event>
 5   0  0.1630571E-08  0.3396857E+04  0.7818609E-02  0.8138678E-01
       -1   -1    0    0    0  501  0.00000000000E+00  0.00000000000E+00  0.15280883510E+04  0.15280883510E+04  0.50400001928E-02 0.  1.
        1   -1    0    0  501    0  0.00000000000E+00  0.00000000000E+00 -0.18877568960E+04  0.18877568960E+04  0.50400001928E-02 0. -1.
    10030    2    1    2    0    0  0.00000000000E+00  0.00000000000E+00 -0.35966854501E+03  0.34158452471E+04  0.33968569722E+04 0.  0.
        3    1    3    3  502    0  0.95919851258E+01 -0.81621231105E+03 -0.16775776426E+04  0.18656262488E+04  0.10100000352E+00 0. -1.
       -3    1    3    3    0  502 -0.95919851258E+01  0.81621231105E+03  0.13179090976E+04  0.15502189983E+04  0.10100000352E+00 0.  1.
</event>
<event>
 5   0  0.1595851E-08  0.3396980E+04  0.7818609E-02  0.8138648E-01
       -1   -1    0    0    0  501  0.00000000000E+00  0.00000000000E+00  0.15522779679E+04  0.15522779679E+04  0.50400001928E-02 0.  1.
        1   -1    0    0  501    0  0.00000000000E+00  0.00000000000E+00 -0.18584744127E+04  0.18584744127E+04  0.50400001928E-02 0. -1.
    10030    2    1    2    0    0  0.00000000000E+00  0.00000000000E+00 -0.30619644480E+03  0.34107523807E+04  0.33969803561E+04 0.  0.
        2    1    3    3  502    0 -0.10736922898E+04 -0.13100772609E+04 -0.27911131315E+03  0.17166888733E+04  0.25500000920E-02 0.  1.
       -2    1    3    3    0  502  0.10736922898E+04  0.13100772609E+04 -0.27085131649E+02  0.16940635074E+04  0.25500000920E-02 0. -1.
</event>
<event>
 5   0  0.1645631E-08  0.3401496E+04  0.7818609E-02  0.8137539E-01
        1   -1    0    0  501    0  0.00000000000E+00  0.00000000000E+00  0.19617029404E+04  0.19617029404E+04  0.50400001928E-02 0.  1.
       -1   -1    0    0    0  501  0.00000000000E+00  0.00000000000E+00 -0.14745061023E+04  0.14745061023E+04  0.50400001928E-02 0. -1.
    10030    2    1    2    0    0  0.00000000000E+00  0.00000000000E+00  0.48719683812E+03  0.34362090427E+04  0.34014955279E+04 0.  0.
        4    1    3    3  502    0 -0.60214079838E+03 -0.11006188879E+04 -0.91642611329E+03  0.15536324892E+04  0.12699999809E+01 0. -1.
       -4    1    3    3    0  502  0.60214079838E+03  0.11006188879E+04  0.14036229514E+04  0.18825765536E+04  0.12699999809E+01 0.  1.
</event>
<event>
 5   0  0.4946315E-08  0.3403580E+04  0.7818609E-02  0.8137028E-01
       -2   -1    0    0    0  501  0.00000000000E+00  0.00000000000E+00  0.13054521856E+04  0.13054521856E+04  0.25500000920E-02 0. -1.
        2   -1    0    0  501    0  0.00000000000E+00  0.00000000000E+00 -0.22184566328E+04  0.22184566328E+04  0.25500000920E-02 0.  1.
    10030    2    1    2    0    0  0.00000000000E+00  0.00000000000E+00 -0.91300444724E+03  0.35239088184E+04  0.34035799153E+04 0.  0.
        3    1    3    3  502    0 -0.65948290787E+03 -0.11237449627E+04 -0.15899040843E+04  0.20556058607E+04  0.10100000352E+00 0.  1.
       -3    1    3    3    0  502  0.65948290787E+03  0.11237449627E+04  0.67689963708E+03  0.14683029578E+04  0.10100000352E+00 0. -1.
</event>
<event>
 5   0  0.4946315E-08  0.3398238E+04  0.7818609E-02  0.8138339E-01
        2   -1    0    0  501    0  0.00000000000E+00  0.00000000000E+00  0.16671302394E+04  0.16671302394E+04  0.25500000920E-02 0.  1.
       -2   -1    0    0    0  501  0.00000000000E+00  0.00000000000E+00 -0.17317213125E+04  0.17317213125E+04  0.25500000920E-02 0. -1.
    10030    2    1    2    0    0  0.00000000000E+00  0.00000000000E+00 -0.64591073109E+02  0.33988515519E+04  0.33982377588E+04 0.  0.
        3    1    3    3  502    0  0.41069437244E+03  0.82314406223E+03 -0.14611084072E+04  0.17265786407E+04  0.10100000352E+00 0. -1.
       -3    1    3    3    0  502 -0.41069437244E+03 -0.82314406223E+03  0.13965173341E+04  0.16722729112E+04  0.10100000352E+00 0.  1.
</event>
<event>
 5   0  0.4973409E-08  0.3406411E+04  0.7818609E-02  0.8136335E-01
       -2   -1    0    0    0  501  0.00000000000E+00  0.00000000000E+00  0.11328511238E+04  0.11328511238E+04  0.25500000920E-02 0.  1.
        2   -1    0    0  501    0  0.00000000000E+00  0.00000000000E+00 -0.25607147672E+04  0.25607147672E+04  0.25500000920E-02 0. -1.
    10030    2    1    2    0    0  0.00000000000E+00  0.00000000000E+00 -0.14278636433E+04  0.36935658910E+04  0.34064107808E+04 0.  0.
        1    1    3    3  502    0  0.94654132309E+03 -0.13894771455E+04 -0.10095327113E+04  0.19610567329E+04  0.50400001928E-02 0.  1.
       -1    1    3    3    0  502 -0.94654132309E+03  0.13894771455E+04 -0.41833093201E+03  0.17325091581E+04  0.50400001928E-02 0. -1.
</event>
<event>
 5   0  0.1625282E-08  0.3400256E+04  0.7818609E-02  0.8137843E-01
       -1   -1    0    0    0  501  0.00000000000E+00  0.00000000000E+00  0.14356269051E+04  0.14356269051E+04  0.50400001928E-02 0. -1.
        1   -1    0    0  501    0  0.00000000000E+00  0.00000000000E+00 -0.20133611914E+04  0.20133611915E+04  0.50400001928E-02 0.  1.
    10030    2    1    2    0    0  0.00000000000E+00  0.00000000000E+00 -0.57773428633E+03  0.34489880966E+04  0.34002561646E+04 0.  0.
        1    1    3    3  502    0  0.97731929145E+03  0.44051772422E+03 -0.16273342709E+04  0.19486984611E+04  0.50400001928E-02 0.  1.
       -1    1    3    3    0  502 -0.97731929145E+03 -0.44051772422E+03  0.10495999846E+04  0.15002896355E+04  0.50400001928E-02 0. -1.
</event>
<event>
 5   0  0.4764953E-08  0.3400219E+04  0.7818609E-02  0.8137853E-01
        2   -1    0    0  501    0  0.00000000000E+00  0.00000000000E+00  0.13442130657E+04  0.13442130657E+04  0.25500000920E-02 0.  1.
       -2   -1    0    0    0  501  0.00000000000E+00  0.00000000000E+00 -0.21502335026E+04  0.21502335026E+04  0.25500000920E-02 0. -1.
    10030    2    1    2    0    0  0.00000000000E+00  0.00000000000E+00 -0.80602043696E+03  0.34944465683E+04  0.34002187979E+04 0.  0.
        2    1    3    3  502    0 -0.20320937837E+03 -0.22432586274E+03 -0.21223196496E+04  0.21437949621E+04  0.25500000920E-02 0. -1.
       -2    1    3    3    0  502  0.20320937837E+03  0.22432586274E+03  0.13162992127E+04  0.13506516062E+04  0.25500000920E-02 0.  1.
</event>
<event>
 5   0  0.4946315E-08  0.3409423E+04  0.7818609E-02  0.8135597E-01
       -2   -1    0    0    0  501  0.00000000000E+00  0.00000000000E+00  0.13739676612E+04  0.13739676612E+04  0.25500000920E-02 0. -1.
        2   -1    0    0  501    0  0.00000000000E+00  0.00000000000E+00 -0.21150724733E+04  0.21150724733E+04  0.25500000920E-02 0.  1.
    10030    2    1    2    0    0  0.00000000000E+00  0.00000000000E+00 -0.74110481216E+03  0.34890401345E+04  0.34094229303E+04 0.  0.
        3    1    3    3  502    0  0.84069386823E+03 -0.12570954691E+04 -0.11756814443E+04  0.19155370179E+04  0.10100000352E+00 0.  1.
       -3    1    3    3    0  502 -0.84069386823E+03  0.12570954691E+04  0.43457663210E+03  0.15735031166E+04  0.10100000352E+00 0. -1.
</event>
<event>
 5   0  0.1625282E-08  0.3407537E+04  0.7818609E-02  0.8136059E-01
       -1   -1    0    0    0  501  0.00000000000E+00  0.00000000000E+00  0.14720170363E+04  0.14720170363E+04  0.50400001928E-02 0.  1.
        1   -1    0    0  501    0  0.00000000000E+00  0.00000000000E+00 -0.19720069424E+04  0.19720069424E+04  0.50400001928E-02 0. -1.
    10030    2    1    2    0    0  0.00000000000E+00  0.00000000000E+00 -0.49998990611E+03  0.34440239787E+04  0.34075374187E+04 0.  0.
        1    1    3    3  502    0  0.64585741765E+03 -0.12269354524E+04 -0.12507105347E+04  0.18672919563E+04  0.50400001928E-02 0. -1.
       -1    1    3    3    0  502 -0.64585741765E+03  0.12269354524E+04  0.75072062862E+03  0.15767320224E+04  0.50400001928E-02 0.  1.
</event>
<event>
 5   0  0.4775023E-08  0.3400136E+04  0.7818609E-02  0.8137873E-01
       -2   -1    0    0    0  501  0.00000000000E+00  0.00000000000E+00  0.11482738537E+04  0.11482738537E+04  0.25500000920E-02 0.  1.
        2   -1    0    0  501    0  0.00000000000E+00  0.00000000000E+00 -0.25170228827E+04  0.25170228827E+04  0.25500000920E-02 0. -1.
    10030    2    1    2    0    0  0.00000000000E+00  0.00000000000E+00 -0.13687490290E+04  0.36652967364E+04  0.34001362122E+04 0.  0.
        4    1    3    3  502    0  0.11208868434E+04  0.20712685364E+03 -0.20440644277E+04  0.23404037785E+04  0.12699999809E+01 0. -1.
       -4    1    3    3    0  502 -0.11208868434E+04 -0.20712685364E+03  0.67531539872E+03  0.13248929579E+04  0.12699999809E+01 0.  1.
</event>
<event>
 5   0  0.1573625E-08  0.3402283E+04  0.7818609E-02  0.8137346E-01
        3   -1    0    0  501    0  0.00000000000E+00  0.00000000000E+00  0.13375864704E+04  0.13375864742E+04  0.10100000352E+00 0. -1.
       -3   -1    0    0    0  501  0.00000000000E+00  0.00000000000E+00 -0.21635108825E+04  0.21635108848E+04  0.10100000352E+00 0.  1.
    10030    2    1    2    0    0  0.00000000000E+00  0.00000000000E+00 -0.82592441210E+03  0.35010973590E+04  0.34022832896E+04 0.  0.
        2    1    3    3  502    0 -0.18381598024E+03 -0.32448936111E+03 -0.21209267479E+04  0.21534650984E+04  0.25500000920E-02 0.  1.
       -2    1    3    3    0  502  0.18381598024E+03  0.32448936111E+03  0.12950023358E+04  0.13476322606E+04  0.25500000920E-02 0. -1.
</event>
<event>
 5   0  0.5001197E-08  0.3400936E+04  0.7818609E-02  0.8137677E-01
       -2   -1    0    0    0  501  0.00000000000E+00  0.00000000000E+00  0.10265822372E+04  0.10265822372E+04  0.25500000920E-02 0.  1.
        2   -1    0    0  501    0  0.00000000000E+00  0.00000000000E+00 -0.28167160398E+04  0.28167160398E+04  0.25500000920E-02 0. -1.
    10030    2    1    2    0    0  0.00000000000E+00  0.00000000000E+00 -0.17901338027E+04  0.38432982770E+04  0.34009355499E+04 0.  0.
        5    1    3    3  502    0  0.47584044865E+03  0.60675192090E+03  0.81765108938E+03  0.11238983139E+04  0.46999998093E+01 0.  1.
       -5    1    3    3    0  502 -0.47584044865E+03 -0.60675192090E+03 -0.26077848920E+04  0.27193999631E+04  0.46999998093E+01 0. -1.
</event>
<event>
 5   0  0.4775023E-08  0.3400662E+04  0.7818609E-02  0.8137744E-01
       -2   -1    0    0    0  501  0.00000000000E+00  0.00000000000E+00  0.19843199398E+04  0.19843199398E+04  0.25500000920E-02 0. -1.
        2   -1    0    0  501    0  0.00000000000E+00  0.00000000000E+00 -0.14569854963E+04  0.14569854964E+04  0.25500000920E-02 0.  1.
    10030    2    1    2    0    0  0.00000000000E+00  0.00000000000E+00  0.52733444344E+03  0.34413054361E+04  0.34006619193E+04 0.  0.
        4    1    3    3  502    0  0.26991346175E+00  0.73823793348E+03 -0.12863468982E+04  0.14831335997E+04  0.12699999809E+01 0.  1.
       -4    1    3    3    0  502 -0.26991346175E+00 -0.73823793348E+03  0.18136813416E+04  0.19581718364E+04  0.12699999809E+01 0. -1.
</event>
<event>
 5   0  0.4946315E-08  0.3399721E+04  0.7818609E-02  0.8137975E-01
        2   -1    0    0  501    0  0.00000000000E+00  0.00000000000E+00  0.16125904045E+04  0.16125904045E+04  0.25500000920E-02 0.  1.
       -2   -1    0    0    0  501  0.00000000000E+00  0.00000000000E+00 -0.17918535325E+04  0.17918535325E+04  0.25500000920E-02 0. -1.
    10030    2    1    2    0    0  0.00000000000E+00  0.00000000000E+00 -0.17926312798E+03  0.34044439370E+04  0.33997210549E+04 0.  0.
        3    1    3    3  502    0 -0.15740838485E+04 -0.21657693843E+03  0.51526078638E+03  0.16703709829E+04  0.10100000352E+00 0.  1.
       -3    1    3    3    0  502  0.15740838485E+04  0.21657693843E+03 -0.69452391436E+03  0.17340729541E+04  0.10100000352E+00 0. -1.
</event>
<event>
 5   0  0.4946315E-08  0.3400433E+04  0.7818609E-02  0.8137800E-01
       -2   -1    0    0    0  501  0.00000000000E+00  0.00000000000E+00  0.10646549668E+04  0.10646549668E+04  0.25500000920E-02 0.  1.
        2   -1    0    0  501    0  0.00000000000E+00  0.00000000000E+00 -0.27151857826E+04  0.27151857826E+04  0.25500000920E-02 0. -1.
    10030    2    1    2    0    0  0.00000000000E+00  0.00000000000E+00 -0.16505308158E+04  0.37798407494E+04  0.34004329308E+04 0.  0.
        3    1    3    3  502    0 -0.45849812295E+03  0.13129766087E+04 -0.19124574738E+04  0.23646610123E+04  0.10100000352E+00 0. -1.
       -3    1    3    3    0  502  0.45849812295E+03 -0.13129766087E+04  0.26192665807E+03  0.14151797370E+04  0.10100000352E+00 0.  1.
</event>
<event>
 5   0  0.4764953E-08  0.3408240E+04  0.7818609E-02  0.8135887E-01
       -2   -1    0    0    0  501  0.00000000000E+00  0.00000000000E+00  0.20398024600E+04  0.20398024600E+04  0.25500000920E-02 0. -1.
        2   -1    0    0  501    0  0.00000000000E+00  0.00000000000E+00 -0.14236795586E+04  0.14236795586E+04  0.25500000920E-02 0.  1.
    10030    2    1    2    0    0  0.00000000000E+00  0.00000000000E+00  0.61612290132E+03  0.34634820186E+04  0.34082400537E+04 0.  0.
        2    1    3    3  502    0 -0.12544610455E+04 -0.11241810948E+04  0.45869026412E+02  0.16850992897E+04  0.25500000920E-02 0.  1.
       -2    1    3    3    0  502  0.12544610455E+04  0.11241810948E+04  0.57025387491E+03  0.17783827289E+04  0.25500000920E-02 0. -1.
</event>
<event>
 5   0  0.4946315E-08  0.3398245E+04  0.7818609E-02  0.8138337E-01
       -2   -1    0    0    0  501  0.00000000000E+00  0.00000000000E+00  0.13067604676E+04  0.13067604676E+04  0.25500000920E-02 0.  1.
        2   -1    0    0  501    0  0.00000000000E+00  0.00000000000E+00 -0.22092931394E+04  0.22092931394E+04  0.25500000920E-02 0. -1.
    10030    2    1    2    0    0  0.00000000000E+00  0.00000000000E+00 -0.90253267182E+03  0.35160536070E+04  0.33982448033E+04 0.  0.
        3    1    3    3  502    0  0.87466330512E+02  0.91935233757E+03  0.10244169268E+04  0.13792349798E+04  0.10100000352E+00 0.  1.
       -3    1    3    3    0  502 -0.87466330512E+02 -0.91935233757E+03 -0.19269495986E+04  0.21368186271E+04  0.10100000352E+00 0. -1.
</event>
<event>
 5   0  0.1579536E-08  0.3401615E+04  0.7818609E-02  0.8137510E-01
       -1   -1    0    0    0  501  0.00000000000E+00  0.00000000000E+00  0.10829437116E+04  0.10829437116E+04  0.50400001928E-02 0.  1.
        1   -1    0    0  501    0  0.00000000000E+00  0.00000000000E+00 -0.26711882143E+04  0.26711882143E+04  0.50400001928E-02 0. -1.
    10030    2    1    2    0    0  0.00000000000E+00  0.00000000000E+00 -0.15882445027E+04  0.37541319259E+04  0.34016151924E+04 0.  0.
        5    1    3    3  502    0 -0.13627297137E+04 -0.77193316862E+03 -0.15260320130E+04  0.21867118887E+04  0.46999998093E+01 0. -1.
       -5    1    3    3    0  502  0.13627297137E+04  0.77193316862E+03 -0.62212489698E+02  0.15674200373E+04  0.46999998093E+01 0.  1.
</event>
<event>
 5   0  0.4973409E-08  0.3400770E+04  0.7818609E-02  0.8137717E-01
       -2   -1    0    0    0  501  0.00000000000E+00  0.00000000000E+00  0.12906828638E+04  0.12906828638E+04  0.25500000920E-02 0.  1.
        2   -1    0    0  501    0  0.00000000000E+00  0.00000000000E+00 -0.22401394490E+04  0.22401394490E+04  0.25500000920E-02 0. -1.
    10030    2    1    2    0    0  0.00000000000E+00  0.00000000000E+00 -0.94945658514E+03  0.35308223128E+04  0.34007702653E+04 0.  0.
        1    1    3    3  502    0 -0.81990362351E+03  0.27938716248E+03 -0.19939038432E+04  0.21739254068E+04  0.50400001928E-02 0. -1.
       -1    1    3    3    0  502  0.81990362351E+03 -0.27938716248E+03  0.10444472581E+04  0.13568969059E+04  0.50400001928E-02 0.  1.
</event>
<event>
 5   0  0.1630571E-08  0.3400435E+04  0.7818609E-02  0.8137800E-01
        1   -1    0    0  501    0  0.00000000000E+00  0.00000000000E+00  0.24216478055E+04  0.24216478055E+04  0.50400001928E-02 0. -1.
       -1   -1    0    0    0  501  0.00000000000E+00  0.00000000000E+00 -0.11937074376E+04  0.11937074376E+04  0.50400001928E-02 0.  1.
    10030    2    1    2    0    0  0.00000000000E+00  0.00000000000E+00  0.12279403680E+04  0.36153552431E+04  0.34004346761E+04 0.  0.
        3    1    3    3  502    0  0.19444357909E+03 -0.13696825884E+04  0.16648224374E+04  0.21645952177E+04  0.10100000352E+00 0.  1.
       -3    1    3    3    0  502 -0.19444357909E+03  0.13696825884E+04 -0.43688206943E+03  0.14507600254E+04  0.10100000352E+00 0. -1.
</event>
<event>
 5   0  0.4775023E-08  0.3401657E+04  0.7818609E-02  0.8137500E-01
        2   -1    0    0  501    0  0.00000000000E+00  0.00000000000E+00  0.22342141775E+04  0.22342141775E+04  0.25500000920E-02 0.  1.
       -2   -1    0    0    0  501  0.00000000000E+00  0.00000000000E+00 -0.12947806597E+04  0.12947806597E+04  0.25500000920E-02 0. -1.
    10030    2    1    2    0    0  0.00000000000E+00  0.00000000000E+00  0.93943351789E+03  0.35289948372E+04  0.34016568355E+04 0.  0.
        4    1    3    3  502    0  0.12584984535E+04 -0.99755321578E+03  0.10509437154E+04  0.19192225201E+04  0.12699999809E+01 0.  1.
       -4    1    3    3    0  502 -0.12584984535E+04  0.99755321578E+03 -0.11151019754E+03  0.16097723171E+04  0.12699999809E+01 0. -1.
</event>
<event>
 5   0  0.4775023E-08  0.3396932E+04  0.7818609E-02  0.8138660E-01
       -2   -1    0    0    0  501  0.00000000000E+00  0.00000000000E+00  0.13054276167E+04  0.13054276167E+04  0.25500000920E-02 0.  1.
        2   -1    0    0  501    0  0.00000000000E+00  0.00000000000E+00 -0.22098399681E+04  0.22098399681E+04  0.25500000920E-02 0. -1.
    10030    2    1    2    0    0  0.00000000000E+00  0.00000000000E+00 -0.90441235141E+03  0.35152675848E+04  0.33969316289E+04 0.  0.
        4    1    3    3  502    0 -0.15065261995E+04 -0.23737502957E+03  0.32137547780E+03  0.15586057567E+04  0.12699999809E+01 0. -1.
       -4    1    3    3    0  502  0.15065261995E+04  0.23737502957E+03 -0.12257878292E+04  0.19566618281E+04  0.12699999809E+01 0.  1.
</event>
<event>
 5   0  0.1573625E-08  0.3396232E+04  0.7818609E-02  0.8138832E-01
        3   -1    0    0  501    0  0.00000000000E+00  0.00000000000E+00  0.14503615690E+04  0.14503615726E+04  0.10100000352E+00 0. -1.
       -3   -1    0    0    0  501  0.00000000000E+00  0.00000000000E+00 -0.19881922901E+04  0.19881922927E+04  0.10100000352E+00 0.  1.
    10030    2    1    2    0    0  0.00000000000E+00  0.00000000000E+00 -0.53783072105E+03  0.34385538652E+04  0.33962318530E+04 0.  0.
        5    1    3    3  502    0  0.26587551152E+03 -0.50017416240E+03 -0.18897114156E+04  0.19727887126E+04  0.46999998093E+01 0.  1.
       -5    1    3    3    0  502 -0.26587551152E+03  0.50017416240E+03  0.13518806945E+04  0.14657651526E+04  0.46999998093E+01 0. -1.
</event>
<event>
 5   0  0.4775023E-08  0.3395614E+04  0.7818609E-02  0.8138984E-01
        2   -1    0    0  501    0  0.00000000000E+00  0.00000000000E+00  0.21036759998E+04  0.21036759998E+04  0.25500000920E-02 0.  1.
       -2   -1    0    0    0  501  0.00000000000E+00  0.00000000000E+00 -0.13702433309E+04  0.13702433309E+04  0.25500000920E-02 0. -1.
    10030    2    1    2    0    0  0.00000000000E+00  0.00000000000E+00  0.73343266890E+03  0.34739193307E+04  0.33956136465E+04 0.  0.
        4    1    3    3  502    0 -0.80826120606E+03  0.29320940733E+03  0.18644747624E+04  0.20531745387E+04  0.12699999809E+01 0.  1.
       -4    1    3    3    0  502  0.80826120606E+03 -0.29320940733E+03 -0.11310420935E+04  0.14207447920E+04  0.12699999809E+01 0. -1.
</event>
<event>
 5   0  0.4973409E-08  0.3400667E+04  0.7818609E-02  0.8137743E-01
        2   -1    0    0  501    0  0.00000000000E+00  0.00000000000E+00  0.15996842499E+04  0.15996842499E+04  0.25500000920E-02 0.  1.
       -2   -1    0    0    0  501  0.00000000000E+00  0.00000000000E+00 -0.18073149848E+04  0.18073149848E+04  0.25500000920E-02 0. -1.
    10030    2    1    2    0    0  0.00000000000E+00  0.00000000000E+00 -0.20763073494E+03  0.34069992347E+04  0.34006665910E+04 0.  0.
        1    1    3    3  502    0  0.16230860584E+04 -0.49458900184E+03 -0.21405063160E+03  0.17102176197E+04  0.50400001928E-02 0.  1.
       -1    1    3    3    0  502 -0.16230860584E+04  0.49458900184E+03  0.64198966634E+01  0.16967816150E+04  0.50400001928E-02 0. -1.
</event>
<event>
 5   0  0.1645631E-08  0.3399847E+04  0.7818609E-02  0.8137944E-01
       -1   -1    0    0    0  501  0.00000000000E+00  0.00000000000E+00  0.10941813797E+04  0.10941813797E+04  0.50400001928E-02 0. -1.
        1   -1    0    0  501    0  0.00000000000E+00  0.00000000000E+00 -0.26410056114E+04  0.26410056114E+04  0.50400001928E-02 0.  1.
    10030    2    1    2    0    0  0.00000000000E+00  0.00000000000E+00 -0.15468242317E+04  0.37351869911E+04  0.33998465634E+04 0.  0.
        4    1    3    3  502    0  0.13368571975E+04 -0.59738978717E+03  0.17528605431E+03  0.14747164263E+04  0.12699999809E+01 0. -1.
       -4    1    3    3    0  502 -0.13368571975E+04  0.59738978717E+03 -0.17221102860E+04  0.22604705648E+04  0.12699999809E+01 0.  1.
</event>
<event>
 5   0  0.1579536E-08  0.3399613E+04  0.7818609E-02  0.8138001E-01
       -1   -1    0    0    0  501  0.00000000000E+00  0.00000000000E+00  0.24362551134E+04  0.24362551134E+04  0.50400001928E-02 0.  1.
        1   -1    0    0  501    0  0.00000000000E+00  0.00000000000E+00 -0.11859771026E+04  0.11859771026E+04  0.50400001928E-02 0. -1.
    10030    2    1    2    0    0  0.00000000000E+00  0.00000000000E+00  0.12502780108E+04  0.36222322159E+04  0.33996133783E+04 0.  0.
        5    1    3    3  502    0 -0.84304803427E+03  0.33341850551E+02  0.21973967737E+04  0.23538089001E+04  0.46999998093E+01 0.  1.
       -5    1    3    3    0  502  0.84304803427E+03 -0.33341850551E+02 -0.94711876291E+03  0.12684233158E+04  0.46999998093E+01 0. -1.
</event>
<event>
 5   0  0.4775023E-08  0.3399956E+04  0.7818609E-02  0.8137917E-01
        2   -1    0    0  501    0  0.00000000000E+00  0.00000000000E+00  0.26749378240E+04  0.26749378240E+04  0.25500000920E-02 0. -1.
       -2   -1    0    0    0  501  0.00000000000E+00  0.00000000000E+00 -0.10803706870E+04  0.10803706870E+04  0.25500000920E-02 0.  1.
    10030    2    1    2    0    0  0.00000000000E+00  0.00000000000E+00  0.15945671370E+04  0.37553085110E+04  0.33999555377E+04 0.  0.
        4    1    3    3  502    0  0.12578474741E+04 -0.10529589277E+04  0.12900269255E+04  0.20868813701E+04  0.12699999809E+01 0.  1.
       -4    1    3    3    0  502 -0.12578474741E+04  0.10529589277E+04  0.30454021156E+03  0.16684271410E+04  0.12699999809E+01 0. -1.
</event>
<event>
 5   0  0.4973409E-08  0.3400763E+04  0.7818609E-02  0.8137719E-01
        2   -1    0    0  501    0  0.00000000000E+00  0.00000000000E+00  0.11292260050E+04  0.11292260050E+04  0.25500000920E-02 0.  1.
       -2   -1    0    0    0  501  0.00000000000E+00  0.00000000000E+00 -0.25604233651E+04  0.25604233651E+04  0.25500000920E-02 0. -1.
    10030    2    1    2    0    0  0.00000000000E+00  0.00000000000E+00 -0.14311973602E+04  0.36896493701E+04  0.34007626484E+04 0.  0.
        1    1    3    3  502    0 -0.11533022798E+04  0.83414300565E+03 -0.17248892205E+04  0.22363236629E+04  0.50400001928E-02 0. -1.
       -1    1    3    3    0  502  0.11533022798E+04 -0.83414300565E+03  0.29369186030E+03  0.14533257072E+04  0.50400001928E-02 0.  1.
</event>
<event>
 5   0  0.4764953E-08  0.3399824E+04  0.7818609E-02  0.8137950E-01
       -2   -1    0    0    0  501  0.00000000000E+00  0.00000000000E+00  0.25807614311E+04  0.25807614311E+04  0.25500000920E-02 0.  1.
        2   -1    0    0  501    0  0.00000000000E+00  0.00000000000E+00 -0.11197085493E+04  0.11197085493E+04  0.25500000920E-02 0. -1.
    10030    2    1    2    0    0  0.00000000000E+00  0.00000000000E+00  0.14610528818E+04  0.37004699803E+04  0.33998239001E+04 0.  0.
        2    1    3    3  502    0 -0.32517646054E+03 -0.71294238073E+03 -0.91140679247E+03  0.12019521247E+04  0.25500000920E-02 0. -1.
       -2    1    3    3    0  502  0.32517646054E+03  0.71294238073E+03  0.23724596743E+04  0.24985178556E+04  0.25500000920E-02 0.  1.
</event>
<event>
 5   0  0.5001197E-08  0.3399426E+04  0.7818609E-02  0.8138047E-01
        2   -1    0    0  501    0  0.00000000000E+00  0.00000000000E+00  0.28265570002E+04  0.28265570002E+04  0.25500000920E-02 0.  1.
       -2   -1    0    0    0  501  0.00000000000E+00  0.00000000000E+00 -0.10220999472E+04  0.10220999472E+04  0.25500000920E-02 0. -1.
    10030    2    1    2    0    0  0.00000000000E+00  0.00000000000E+00  0.18044570531E+04  0.38486569474E+04  0.33994256930E+04 0.  0.
        5    1    3    3  502    0  0.89043931194E+03  0.70581801784E+03  0.23333745279E+04  0.25953265729E+04  0.46999998093E+01 0.  1.
       -5    1    3    3    0  502 -0.89043931194E+03 -0.70581801784E+03 -0.52891747479E+03  0.12533303745E+04  0.46999998093E+01 0. -1.
</event>
<event>
 5   0  0.4764953E-08  0.3398745E+04  0.7818609E-02  0.8138214E-01
        2   -1    0    0  501    0  0.00000000000E+00  0.00000000000E+00  0.24165432699E+04  0.24165432699E+04  0.25500000920E-02 0. -1.
       -2   -1    0    0    0  501  0.00000000000E+00  0.00000000000E+00 -0.11950403774E+04  0.11950403774E+04  0.25500000920E-02 0.  1.
    10030    2    1    2    0    0  0.00000000000E+00  0.00000000000E+00  0.12215028925E+04  0.36115836473E+04  0.33987449338E+04 0.  0.
        2    1    3    3  502    0 -0.53670326275E+03 -0.10195550476E+04  0.19381045945E+04  0.22547266590E+04  0.25500000920E-02 0. -1.
       -2    1    3    3    0  502  0.53670326275E+03  0.10195550476E+04 -0.71660170203E+03  0.13568569883E+04  0.25500000920E-02 0.  1.
</event>
<event>
 5   0  0.1630571E-08  0.3414322E+04  0.7818609E-02  0.8134400E-01
        1   -1    0    0  501    0  0.00000000000E+00  0.00000000000E+00  0.22074147542E+04  0.22074147542E+04  0.50400001928E-02 0.  1.
       -1   -1    0    0    0  501  0.00000000000E+00  0.00000000000E+00 -0.13202768882E+04  0.13202768882E+04  0.50400001928E-02 0. -1.
    10030    2    1    2    0    0  0.00000000000E+00  0.00000000000E+00  0.88713786597E+03  0.35276916425E+04  0.34143220017E+04 0.  0.
        3    1    3    3  502    0 -0.68227783956E+03  0.98118947093E+03 -0.81599245610E+03  0.14470934755E+04  0.10100000352E+00 0. -1.
       -3    1    3    3    0  502  0.68227783956E+03 -0.98118947093E+03  0.17031303221E+04  0.20805981670E+04  0.10100000352E+00 0.  1.
</event>
<event>
 5   0  0.4973409E-08  0.3400051E+04  0.7818609E-02  0.8137894E-01
       -2   -1    0    0    0  501  0.00000000000E+00  0.00000000000E+00  0.15572391819E+04  0.15572391819E+04  0.25500000920E-02 0. -1.
        2   -1    0    0  501    0  0.00000000000E+00  0.00000000000E+00 -0.18559040997E+04  0.18559040997E+04  0.25500000920E-02 0.  1.
    10030    2    1    2    0    0  0.00000000000E+00  0.00000000000E+00 -0.29866491783E+03  0.34131432816E+04  0.34000509302E+04 0.  0.
        1    1    3    3  502    0 -0.12338209679E+04 -0.69029224373E+03 -0.10970381812E+04  0.17895000233E+04  0.50400001928E-02 0.  1.
       -1    1    3    3    0  502  0.12338209679E+04  0.69029224373E+03  0.79837326332E+03  0.16236432583E+04  0.50400001928E-02 0. -1.
</event>
<event>
 5   0  0.1595851E-08  0.3397369E+04  0.7818609E-02  0.8138552E-01
        1   -1    0    0  501    0  0.00000000000E+00  0.00000000000E+00  0.23006053464E+04  0.23006053464E+04  0.50400001928E-02 0.  1.
       -1   -1    0    0    0  501  0.00000000000E+00  0.00000000000E+00 -0.12542474546E+04  0.12542474546E+04  0.50400001928E-02 0. -1.
    10030    2    1    2    0    0  0.00000000000E+00  0.00000000000E+00  0.10463578918E+04  0.35548528011E+04  0.33973686287E+04 0.  0.
        2    1    3    3  502    0  0.98121754350E+02  0.15536234267E+04  0.12345114752E+04  0.19868045232E+04  0.25500000920E-02 0.  1.
       -2    1    3    3    0  502 -0.98121754350E+02 -0.15536234267E+04 -0.18815358344E+03  0.15680482779E+04  0.25500000920E-02 0. -1.
</event>
<event>
 5   0  0.1645631E-08  0.3399491E+04  0.7818609E-02  0.8138031E-01
        1   -1    0    0  501    0  0.00000000000E+00  0.00000000000E+00  0.17512513454E+04  0.17512513454E+04  0.50400001928E-02 0. -1.
       -1   -1    0    0    0  501  0.00000000000E+00  0.00000000000E+00 -0.16497544679E+04  0.16497544679E+04  0.50400001928E-02 0.  1.
    10030    2    1    2    0    0  0.00000000000E+00  0.00000000000E+00  0.10149687747E+03  0.34010058133E+04  0.33994909804E+04 0.  0.
        4    1    3    3  502    0  0.12492979632E+04  0.22456073324E+02  0.12036001774E+04  0.17349076851E+04  0.12699999809E+01 0. -1.
       -4    1    3    3    0  502 -0.12492979632E+04 -0.22456073324E+02 -0.11021032999E+04  0.16660981281E+04  0.12699999809E+01 0.  1.
</event>
<event>
 5   0  0.4946315E-08  0.3400239E+04  0.7818609E-02  0.8137848E-01
       -2   -1    0    0    0  501  0.00000000000E+00  0.00000000000E+00  0.17110640691E+04  0.17110640691E+04  0.25500000920E-02 0.  1.
        2   -1    0    0  501    0  0.00000000000E+00  0.00000000000E+00 -0.16892450342E+04  0.16892450342E+04  0.25500000920E-02 0. -1.
    10030    2    1    2    0    0  0.00000000000E+00  0.00000000000E+00  0.21819034889E+02  0.34003091032E+04  0.34002390986E+04 0.  0.
        3    1    3    3  502    0  0.21369720152E+03 -0.67197841458E+02 -0.16744217197E+04  0.16893401521E+04  0.10100000352E+00 0. -1.
       -3    1    3    3    0  502 -0.21369720152E+03  0.67197841458E+02  0.16962407546E+04  0.17109689511E+04  0.10100000352E+00 0.  1.
</event>
<event>
 5   0  0.5001197E-08  0.3397858E+04  0.7818609E-02  0.8138432E-01
        2   -1    0    0  501    0  0.00000000000E+00  0.00000000000E+00  0.19653718591E+04  0.19653718591E+04  0.25500000920E-02 0. -1.
       -2   -1    0    0    0  501  0.00000000000E+00  0.00000000000E+00 -0.14686074094E+04  0.14686074094E+04  0.25500000920E-02 0.  1.
    10030    2    1    2    0    0  0.00000000000E+00  0.00000000000E+00  0.49676444974E+03  0.34339792686E+04  0.33978579574E+04 0.  0.
        5    1    3    3  502    0 -0.12027639456E+04 -0.60166920000E+03 -0.80077241705E+03  0.15652173935E+04  0.46999998093E+01 0.  1.
       -5    1    3    3    0  502  0.12027639456E+04  0.60166920000E+03  0.12975368668E+04  0.18687618751E+04  0.46999998093E+01 0. -1.
</event>
<event>
 5   0  0.5001197E-08  0.3399270E+04  0.7818609E-02  0.8138086E-01
       -2   -1    0    0    0  501  0.00000000000E+00  0.00000000000E+00  0.13351039707E+04  0.13351039707E+04  0.25500000920E-02 0. -1.
        2   -1    0    0  501    0  0.00000000000E+00  0.00000000000E+00 -0.21636954611E+04  0.21636954611E+04  0.25500000920E-02 0.  1.
    10030    2    1    2    0    0  0.00000000000E+00  0.00000000000E+00 -0.82859149041E+03  0.34987994318E+04  0.33992695694E+04 0.  0.
        5    1    3    3  502    0  0.94013903333E+03  0.36167610139E+03 -0.18233437892E+04  0.20830928131E+04  0.46999998093E+01 0.  1.
       -5    1    3    3    0  502 -0.94013903333E+03 -0.36167610139E+03  0.99475229876E+03  0.14157066187E+04  0.46999998093E+01 0. -1.
</event>
<event>
 5   0  0.4973409E-08  0.3401045E+04  0.7818609E-02  0.8137650E-01
       -2   -1    0    0    0  501  0.00000000000E+00  0.00000000000E+00  0.14588705312E+04  0.14588705312E+04  0.25500000920E-02 0.  1.
        2   -1    0    0  501    0  0.00000000000E+00  0.00000000000E+00 -0.19822027480E+04  0.19822027480E+04  0.25500000920E-02 0. -1.
    10030    2    1    2    0    0  0.00000000000E+00  0.00000000000E+00 -0.52333221684E+03  0.34410732792E+04  0.34010452369E+04 0.  0.
        1    1    3    3  502    0 -0.15807996561E+04  0.34077539968E+03  0.27056856068E+03  0.16395922578E+04  0.50400001928E-02 0.  1.
       -1    1    3    3    0  502  0.15807996561E+04 -0.34077539968E+03 -0.79390077752E+03  0.18014810214E+04  0.50400001928E-02 0. -1.
</event>
<event>
 5   0  0.1645631E-08  0.3400254E+04  0.7818609E-02  0.8137844E-01
        1   -1    0    0  501    0  0.00000000000E+00  0.00000000000E+00  0.98653880946E+03  0.98653880947E+03  0.50400001928E-02 0. -1.
       -1   -1    0    0    0  501  0.00000000000E+00  0.00000000000E+00 -0.29298707732E+04  0.29298707732E+04  0.50400001928E-02 0.  1.
    10030    2    1    2    0    0  0.00000000000E+00  0.00000000000E+00 -0.19433319638E+04  0.39164095827E+04  0.34002536520E+04 0.  0.
        4    1    3    3  502    0  0.64668198949E+02  0.10721210415E+04  0.54626563739E+03  0.12050034287E+04  0.12699999809E+01 0. -1.
       -4    1    3    3    0  502 -0.64668198949E+02 -0.10721210415E+04 -0.24895976012E+04  0.27114061540E+04  0.12699999809E+01 0.  1.
</event>
<event>
 5   0  0.1573625E-08  0.3399621E+04  0.7818609E-02  0.8137999E-01
       -3   -1    0    0    0  501  0.00000000000E+00  0.00000000000E+00  0.19148918394E+04  0.19148918421E+04  0.10100000352E+00 0. -1.
        3   -1    0    0  501    0  0.00000000000E+00  0.00000000000E+00 -0.15088872174E+04  0.15088872208E+04  0.10100000352E+00 0.  1.
    10030    2    1    2    0    0  0.00000000000E+00  0.00000000000E+00  0.40600462197E+03  0.34237790629E+04  0.33996210551E+04 0.  0.
        2    1    3    3  502    0 -0.12553954191E+04  0.80497907118E+03  0.10244866330E+04  0.18093042377E+04  0.25500000920E-02 0. -1.
       -2    1    3    3    0  502  0.12553954191E+04 -0.80497907118E+03 -0.61848201098E+03  0.16144748252E+04  0.25500000920E-02 0.  1.
</event>
<event>
 5   0  0.5001197E-08  0.3398892E+04  0.7818609E-02  0.8138178E-01
        2   -1    0    0  501    0  0.00000000000E+00  0.00000000000E+00  0.16198791051E+04  0.16198791051E+04  0.25500000920E-02 0. -1.
       -2   -1    0    0    0  501  0.00000000000E+00  0.00000000000E+00 -0.17829209837E+04  0.17829209837E+04  0.25500000920E-02 0.  1.
    10030    2    1    2    0    0  0.00000000000E+00  0.00000000000E+00 -0.16304187862E+03  0.34028000888E+04  0.33988918473E+04 0.  0.
        5    1    3    3  502    0  0.11866085103E+04  0.10253838799E+03 -0.12951608971E+04  0.17595504304E+04  0.46999998093E+01 0.  1.
       -5    1    3    3    0  502 -0.11866085103E+04 -0.10253838799E+03  0.11321190185E+04  0.16432496584E+04  0.46999998093E+01 0. -1.
</event>
<event>
 5   0  0.4764953E-08  0.3410653E+04  0.7818609E-02  0.8135297E-01
        2   -1    0    0  501    0  0.00000000000E+00  0.00000000000E+00  0.14113675778E+04  0.14113675778E+04  0.25500000920E-02 0. -1.
       -2   -1    0    0    0  501  0.00000000000E+00  0.00000000000E+00 -0.20605113326E+04  0.20605113326E+04  0.25500000920E-02 0.  1.
    10030    2    1    2    0    0  0.00000000000E+00  0.00000000000E+00 -0.64914375482E+03  0.34718789104E+04  0.34106532445E+04 0.  0.
        2    1    3    3  502    0 -0.68116877453E+03  0.11886548764E+04  0.70916134038E+03  0.15426604038E+04  0.25500000920E-02 0. -1.
       -2    1    3    3    0  502  0.68116877453E+03 -0.11886548764E+04 -0.13583050952E+04  0.19292185066E+04  0.25500000920E-02 0.  1.
</event>
<event>
 5   0  0.4946315E-08  0.3401883E+04  0.7818609E-02  0.8137444E-01
       -2   -1    0    0    0  501  0.00000000000E+00  0.00000000000E+00  0.15160415973E+04  0.15160415973E+04  0.25500000920E-02 0.  1.
        2   -1    0    0  501    0  0.00000000000E+00  0.00000000000E+00 -0.19083920999E+04  0.19083920999E+04  0.25500000920E-02 0. -1.
    10030    2    1    2    0    0  0.00000000000E+00  0.00000000000E+00 -0.39235050259E+03  0.34244336972E+04  0.34018828948E+04 0.  0.
        3    1    3    3  502    0 -0.14745907599E+04  0.60622424369E+03  0.40043907181E+03  0.16438604574E+04  0.10100000352E+00 0.  1.
       -3    1    3    3    0  502  0.14745907599E+04 -0.60622424369E+03 -0.79278957440E+03  0.17805732398E+04  0.10100000352E+00 0. -1.
</event>
<event>
 5   0  0.1625282E-08  0.3399967E+04  0.7818609E-02  0.8137915E-01
       -1   -1    0    0    0  501  0.00000000000E+00  0.00000000000E+00  0.15874168317E+04  0.15874168317E+04  0.50400001928E-02 0.  1.
        1   -1    0    0  501    0  0.00000000000E+00  0.00000000000E+00 -0.18205320724E+04  0.18205320724E+04  0.50400001928E-02 0. -1.
    10030    2    1    2    0    0  0.00000000000E+00  0.00000000000E+00 -0.23311524070E+03  0.34079489041E+04  0.33999666200E+04 0.  0.
        1    1    3    3  502    0 -0.69800126688E+03 -0.12192166809E+04  0.84289819995E+03  0.16383444262E+04  0.50400001928E-02 0.  1.
       -1    1    3    3    0  502  0.69800126688E+03  0.12192166809E+04 -0.10760134407E+04  0.17696044778E+04  0.50400001928E-02 0. -1.
</event>
<event>
 5   0  0.4946315E-08  0.3400170E+04  0.7818609E-02  0.8137865E-01
        2   -1    0    0  501    0  0.00000000000E+00  0.00000000000E+00  0.25950770535E+04  0.25950770535E+04  0.25500000920E-02 0.  1.
       -2   -1    0    0    0  501  0.00000000000E+00  0.00000000000E+00 -0.11137585760E+04  0.11137585760E+04  0.25500000920E-02 0. -1.
    10030    2    1    2    0    0  0.00000000000E+00  0.00000000000E+00  0.14813184775E+04  0.37088356294E+04  0.34001701861E+04 0.  0.
        3    1    3    3  502    0 -0.35807554072E+03 -0.13208929678E+04 -0.35952197806E+03  0.14150026106E+04  0.10100000352E+00 0. -1.
       -3    1    3    3    0  502  0.35807554072E+03  0.13208929678E+04  0.18408404555E+04  0.22938330188E+04  0.10100000352E+00 0.  1.
</event>
<event>
 5   0  0.5001197E-08  0.3401655E+04  0.7818609E-02  0.8137500E-01
        2   -1    0    0  501    0  0.00000000000E+00  0.00000000000E+00  0.16454626377E+04  0.16454626377E+04  0.25500000920E-02 0. -1.
       -2   -1    0    0    0  501  0.00000000000E+00  0.00000000000E+00 -0.17580547770E+04  0.17580547770E+04  0.25500000920E-02 0.  1.
    10030    2    1    2    0    0  0.00000000000E+00  0.00000000000E+00 -0.11259213927E+03  0.34035174148E+04  0.34016545684E+04 0.  0.
        5    1    3    3  502    0  0.16043946578E+04 -0.29366868220E+03 -0.53870930535E+03  0.17177174735E+04  0.46999998093E+01 0.  1.
       -5    1    3    3    0  502 -0.16043946578E+04  0.29366868220E+03  0.42611716608E+03  0.16857999413E+04  0.46999998093E+01 0. -1.
</event>
<event>
 5   0  0.1625282E-08  0.3408247E+04  0.7818609E-02  0.8135885E-01
        1   -1    0    0  501    0  0.00000000000E+00  0.00000000000E+00  0.16574146680E+04  0.16574146681E+04  0.50400001928E-02 0.  1.
       -1   -1    0    0    0  501  0.00000000000E+00  0.00000000000E+00 -0.17521483874E+04  0.17521483874E+04  0.50400001928E-02 0. -1.
    10030    2    1    2    0    0  0.00000000000E+00  0.00000000000E+00 -0.94733719373E+02  0.34095630555E+04  0.34082467269E+04 0.  0.
        1    1    3    3  502    0 -0.73623079417E+03  0.71890734614E+03 -0.14062628965E+04  0.17425380595E+04  0.50400001928E-02 0. -1.
       -1    1    3    3    0  502  0.73623079417E+03 -0.71890734614E+03  0.13115291772E+04  0.16670249960E+04  0.50400001928E-02 0.  1.
</event>
<event>
 5   0  0.1595851E-08  0.3401299E+04  0.7818609E-02  0.8137587E-01
       -1   -1    0    0    0  501  0.00000000000E+00  0.00000000000E+00  0.14184850484E+04  0.14184850484E+04  0.50400001928E-02 0. -1.
        1   -1    0    0  501    0  0.00000000000E+00  0.00000000000E+00 -0.20389424611E+04  0.20389424611E+04  0.50400001928E-02 0.  1.
    10030    2    1    2    0    0  0.00000000000E+00  0.00000000000E+00 -0.62045741263E+03  0.34574275095E+04  0.34012993962E+04 0.  0.
        2    1    3    3  502    0  0.12495013906E+04 -0.15689792008E+03  0.85158399460E+03  0.15202190573E+04  0.25500000920E-02 0. -1.
       -2    1    3    3    0  502 -0.12495013906E+04  0.15689792008E+03 -0.14720414072E+04  0.19372084521E+04  0.25500000920E-02 0.  1.
</event>
<event>
 5   0  0.4775023E-08  0.3402065E+04  0.7818609E-02  0.8137400E-01
        2   -1    0    0  501    0  0.00000000000E+00  0.00000000000E+00  0.18215191511E+04  0.18215191511E+04  0.25500000920E-02 0.  1.
       -2   -1    0    0    0  501  0.00000000000E+00  0.00000000000E+00 -0.15885155529E+04  0.15885155529E+04  0.25500000920E-02 0. -1.
    10030    2    1    2    0    0  0.00000000000E+00  0.00000000000E+00  0.23300359821E+03  0.34100347040E+04  0.34020649620E+04 0.  0.
        4    1    3    3  502    0  0.13672328926E+04 -0.32136812314E+01  0.11308872764E+04  0.17743291000E+04  0.12699999809E+01 0.  1.
       -4    1    3    3    0  502 -0.13672328926E+04  0.32136812314E+01 -0.89788367815E+03  0.16357056040E+04  0.12699999809E+01 0. -1.
</event>
<event>
 5   0  0.4775023E-08  0.3399299E+04  0.7818609E-02  0.8138078E-01
       -2   -1    0    0    0  501  0.00000000000E+00  0.00000000000E+00  0.10167166315E+04  0.10167166315E+04  0.25500000920E-02 0. -1.
        2   -1    0    0  501    0  0.00000000000E+00  0.00000000000E+00 -0.28413120856E+04  0.28413120856E+04  0.25500000920E-02 0.  1.
    10030    2    1    2    0    0  0.00000000000E+00  0.00000000000E+00 -0.18245954540E+04  0.38580287171E+04  0.33992994883E+04 0.  0.
        4    1    3    3  502    0  0.14515398577E+03 -0.15764458719E+04 -0.21031932887E+03  0.15970244518E+04  0.12699999809E+01 0. -1.
       -4    1    3    3    0  502 -0.14515398577E+03  0.15764458719E+04 -0.16142761252E+04  0.22610042653E+04  0.12699999809E+01 0.  1.
</event>
<event>
 5   0  0.4764953E-08  0.3400657E+04  0.7818609E-02  0.8137745E-01
        2   -1    0    0  501    0  0.00000000000E+00  0.00000000000E+00  0.22757729902E+04  0.22757729902E+04  0.25500000920E-02 0.  1.
       -2   -1    0    0    0  501  0.00000000000E+00  0.00000000000E+00 -0.12703890977E+04  0.12703890977E+04  0.25500000920E-02 0. -1.
    10030    2    1    2    0    0  0.00000000000E+00  0.00000000000E+00  0.10053838925E+04  0.35461620879E+04  0.34006571103E+04 0.  0.
        2    1    3    3  502    0  0.75782511414E+03  0.68785164223E+03 -0.91322677299E+03  0.13716493445E+04  0.25500000920E-02 0. -1.
       -2    1    3    3    0  502 -0.75782511414E+03 -0.68785164223E+03  0.19186106655E+04  0.21745127434E+04  0.25500000920E-02 0.  1.
</event>
<event>
 5   0  0.4973409E-08  0.3398365E+04  0.7818609E-02  0.8138308E-01
       -2   -1    0    0    0  501  0.00000000000E+00  0.00000000000E+00  0.11092024512E+04  0.11092024512E+04  0.25500000920E-02 0. -1.
        2   -1    0    0  501    0  0.00000000000E+00  0.00000000000E+00 -0.26029701816E+04  0.26029701816E+04  0.25500000920E-02 0.  1.
    10030    2    1    2    0    0  0.00000000000E+00  0.00000000000E+00 -0.14937677304E+04  0.37121726328E+04  0.33983648455E+04 0.  0.
        1    1    3    3  502    0 -0.60996111051E+02  0.12092218139E+04 -0.20491460827E+04  0.23801129362E+04  0.50400001928E-02 0.  1.
       -1    1    3    3    0  502  0.60996111051E+02 -0.12092218139E+04  0.55537835234E+03  0.13320596965E+04  0.50400001928E-02 0. -1.
</event>
<event>
 5   0  0.4775023E-08  0.3407301E+04  0.7818609E-02  0.8136117E-01
       -2   -1    0    0    0  501  0.00000000000E+00  0.00000000000E+00  0.12983801412E+04  0.12983801412E+04  0.25500000920E-02 0. -1.
        2   -1    0    0  501    0  0.00000000000E+00  0.00000000000E+00 -0.22354197071E+04  0.22354197071E+04  0.25500000920E-02 0.  1.
    10030    2    1    2    0    0  0.00000000000E+00  0.00000000000E+00 -0.93703956591E+03  0.35337998484E+04  0.34073007235E+04 0.  0.
        4    1    3    3  502    0 -0.46195168209E+03 -0.10068202101E+04 -0.18109215865E+04  0.21228577195E+04  0.12699999809E+01 0.  1.
       -4    1    3    3    0  502  0.46195168209E+03  0.10068202101E+04  0.87388202061E+03  0.14109421288E+04  0.12699999809E+01 0. -1.
</event>
<event>
 5   0  0.4946315E-08  0.3401790E+04  0.7818609E-02  0.8137467E-01
       -2   -1    0    0    0  501  0.00000000000E+00  0.00000000000E+00  0.25330210976E+04  0.25330210976E+04  0.25500000920E-02 0.  1.
        2   -1    0    0  501    0  0.00000000000E+00  0.00000000000E+00 -0.11421318461E+04  0.11421318461E+04  0.25500000920E-02 0. -1.
    10030    2    1    2    0    0  0.00000000000E+00  0.00000000000E+00  0.13908892516E+04  0.36751529437E+04  0.34017901536E+04 0.  0.
        3    1    3    3  502    0  0.87414533469E+03 -0.13304502039E+04  0.13425931178E+04  0.20824946822E+04  0.10100000352E+00 0.  1.
       -3    1    3    3    0  502 -0.87414533469E+03  0.13304502039E+04  0.48296133756E+02  0.15926582615E+04  0.10100000352E+00 0. -1.
</event>
<event>
 5   0  0.1630571E-08  0.3400979E+04  0.7818609E-02  0.8137666E-01
       -1   -1    0    0    0  501  0.00000000000E+00  0.00000000000E+00  0.10318128936E+04  0.10318128936E+04  0.50400001928E-02 0. -1.
        1   -1    0    0  501    0  0.00000000000E+00  0.00000000000E+00 -0.28025087977E+04  0.28025087978E+04  0.50400001928E-02 0.  1.
    10030    2    1    2    0    0  0.00000000000E+00  0.00000000000E+00 -0.17706959041E+04  0.38343216914E+04  0.34009791014E+04 0.  0.
        3    1    3    3  502    0  0.71503907998E+03  0.84570228431E+03  0.56948812735E+03  0.12453152119E+04  0.10100000352E+00 0. -1.
       -3    1    3    3    0  502 -0.71503907998E+03 -0.84570228431E+03 -0.23401840315E+04  0.25890064795E+04  0.10100000352E+00 0.  1.
</event>
<event>
 5   0  0.1630571E-08  0.3400320E+04  0.7818609E-02  0.8137828E-01
        1   -1    0    0  501    0  0.00000000000E+00  0.00000000000E+00  0.21940641420E+04  0.21940641420E+04  0.50400001928E-02 0. -1.
       -1   -1    0    0    0  501  0.00000000000E+00  0.00000000000E+00 -0.13174382795E+04  0.13174382795E+04  0.50400001928E-02 0.  1.
    10030    2    1    2    0    0  0.00000000000E+00  0.00000000000E+00  0.87662586246E+03  0.35115024215E+04  0.34003200370E+04 0.  0.
        3    1    3    3  502    0  0.52461541890E+03 -0.97601891044E+03  0.17699363043E+04  0.20881831296E+04  0.10100000352E+00 0. -1.
       -3    1    3    3    0  502 -0.52461541890E+03  0.97601891044E+03 -0.89331044180E+03  0.14233192920E+04  0.10100000352E+00 0.  1.
</event>
<event>
 5   0  0.1645631E-08  0.3398138E+04  0.7818609E-02  0.8138364E-01
        1   -1    0    0  501    0  0.00000000000E+00  0.00000000000E+00  0.21961284224E+04  0.21961284224E+04  0.50400001928E-02 0. -1.
       -1   -1    0    0    0  501  0.00000000000E+00  0.00000000000E+00 -0.13145110421E+04  0.13145110421E+04  0.50400001928E-02 0.  1.
    10030    2    1    2    0    0  0.00000000000E+00  0.00000000000E+00  0.88161738023E+03  0.35106394645E+04  0.33981377613E+04 0.  0.
        4    1    3    3  502    0 -0.89741190153E+03 -0.62534974793E+03 -0.90239831615E+03  0.14180037948E+04  0.12699999809E+01 0.  1.
       -4    1    3    3    0  502  0.89741190153E+03  0.62534974793E+03  0.17840156964E+04  0.20926356697E+04  0.12699999809E+01 0. -1.
</event>
<event>
 5   0  0.1625282E-08  0.3399962E+04  0.7818609E-02  0.8137916E-01
       -1   -1    0    0    0  501  0.00000000000E+00  0.00000000000E+00  0.18156930378E+04  0.18156930378E+04  0.50400001928E-02 0. -1.
        1   -1    0    0  501    0  0.00000000000E+00  0.00000000000E+00 -0.15916435186E+04  0.15916435186E+04  0.50400001928E-02 0.  1.
    10030    2    1    2    0    0  0.00000000000E+00  0.00000000000E+00  0.22404951928E+03  0.34073365564E+04  0.33999623853E+04 0.  0.
        1    1    3    3  502    0 -0.49921279778E+03 -0.14770021652E+04  0.79112803777E+03  0.17483227350E+04  0.50400001928E-02 0.  1.
       -1    1    3    3    0  502  0.49921279778E+03  0.14770021652E+04 -0.56707851850E+03  0.16590138214E+04  0.50400001928E-02 0. -1.
</event>
<event>
 5   0  0.4973409E-08  0.3400592E+04  0.7818609E-02  0.8137761E-01
        2   -1    0    0  501    0  0.00000000000E+00  0.00000000000E+00  0.30107875217E+04  0.30107875217E+04  0.25500000920E-02 0. -1.
       -2   -1    0    0    0  501  0.00000000000E+00  0.00000000000E+00 -0.96021587468E+03  0.96021587469E+03  0.25500000920E-02 0.  1.
    10030    2    1    2    0    0  0.00000000000E+00  0.00000000000E+00  0.20505716470E+04  0.39710033964E+04  0.34005916977E+04 0.  0.
        1    1    3    3  502    0 -0.83529162743E+03  0.14808975263E+04  0.10073319589E+04  0.19762305689E+04  0.50400001928E-02 0.  1.
       -1    1    3    3    0  502  0.83529162743E+03 -0.14808975263E+04  0.10432396881E+04  0.19947728275E+04  0.50400001928E-02 0. -1.
</event>
<event>
 5   0  0.4775023E-08  0.3399839E+04  0.7818609E-02  0.8137946E-01
        2   -1    0    0  501    0  0.00000000000E+00  0.00000000000E+00  0.17477557847E+04  0.17477557847E+04  0.25500000920E-02 0. -1.
       -2   -1    0    0    0  501  0.00000000000E+00  0.00000000000E+00 -0.16533925670E+04  0.16533925670E+04  0.25500000920E-02 0.  1.
    10030    2    1    2    0    0  0.00000000000E+00  0.00000000000E+00  0.94363217747E+02  0.34011483517E+04  0.33998390687E+04 0.  0.
        4    1    3    3  502    0 -0.79840582294E+03  0.14384273772E+04  0.47536470168E+03  0.17124539089E+04  0.12699999809E+01 0. -1.
       -4    1    3    3    0  502  0.79840582294E+03 -0.14384273772E+04 -0.38100148393E+03  0.16886944428E+04  0.12699999809E+01 0.  1.
</event>
<event>
 5   0  0.4764953E-08  0.3400214E+04  0.7818609E-02  0.8137854E-01
       -2   -1    0    0    0  501  0.00000000000E+00  0.00000000000E+00  0.17062710712E+04  0.17062710712E+04  0.25500000920E-02 0. -1.
        2   -1    0    0  501    0  0.00000000000E+00  0.00000000000E+00 -0.16939651485E+04  0.16939651485E+04  0.25500000920E-02 0.  1.
    10030    2    1    2    0    0  0.00000000000E+00  0.00000000000E+00  0.12305922614E+02  0.34002362197E+04  0.34002139512E+04 0.  0.
        2    1    3    3  502    0  0.10162795154E+04 -0.13627681543E+04  0.26218801936E+02  0.17001907309E+04  0.25500000920E-02 0. -1.
       -2    1    3    3    0  502 -0.10162795154E+04  0.13627681543E+04 -0.13912879322E+02  0.17000454888E+04  0.25500000920E-02 0.  1.
</event>
<event>
 5   0  0.1579536E-08  0.3394505E+04  0.7818609E-02  0.8139256E-01
        1   -1    0    0  501    0  0.00000000000E+00  0.00000000000E+00  0.17509016370E+04  0.17509016370E+04  0.50400001928E-02 0. -1.
       -1   -1    0    0    0  501  0.00000000000E+00  0.00000000000E+00 -0.16452472307E+04  0.16452472307E+04  0.50400001928E-02 0.  1.
    10030    2    1    2    0    0  0.00000000000E+00  0.00000000000E+00  0.10565440631E+03  0.33961488677E+04  0.33945050122E+04 0.  0.
        5    1    3    3  502    0  0.71382804460E+03  0.14312854535E+04  0.62100666187E+03  0.17157505328E+04  0.46999998093E+01 0.  1.
       -5    1    3    3    0  502 -0.71382804460E+03 -0.14312854535E+04 -0.51535225555E+03  0.16803983349E+04  0.46999998093E+01 0. -1.
</event>
<event>
 5   0  0.1630571E-08  0.3401051E+04  0.7818609E-02  0.8137648E-01
       -1   -1    0    0    0  501  0.00000000000E+00  0.00000000000E+00  0.23787752475E+04  0.23787752475E+04  0.50400001928E-02 0.  1.
        1   -1    0    0  501    0  0.00000000000E+00  0.00000000000E+00 -0.12156624467E+04  0.12156624467E+04  0.50400001928E-02 0. -1.
    10030    2    1    2    0    0  0.00000000000E+00  0.00000000000E+00  0.11631128008E+04  0.35944376942E+04  0.34010514477E+04 0.  0.
        3    1    3    3  502    0  0.74094338914E+02  0.16915906628E+04  0.74805401762E+03  0.18510952880E+04  0.10100000352E+00 0.  1.
       -3    1    3    3    0  502 -0.74094338914E+02 -0.16915906628E+04  0.41505878321E+03  0.17433424062E+04  0.10100000352E+00 0. -1.
</event>
<event>
 5   0  0.4973409E-08  0.3399863E+04  0.7818609E-02  0.8137940E-01
       -2   -1    0    0    0  501  0.00000000000E+00  0.00000000000E+00  0.19524122073E+04  0.19524122073E+04  0.25500000920E-02 0.  1.
        2   -1    0    0  501    0  0.00000000000E+00  0.00000000000E+00 -0.14801011019E+04  0.14801011019E+04  0.25500000920E-02 0. -1.
    10030    2    1    2    0    0  0.00000000000E+00  0.00000000000E+00  0.47231110538E+03  0.34325133091E+04  0.33998632086E+04 0.  0.
        1    1    3    3  502    0  0.26776424920E+03  0.12419892158E+04  0.13763963074E+04  0.18731528769E+04  0.50400001928E-02 0.  1.
       -1    1    3    3    0  502 -0.26776424920E+03 -0.12419892158E+04 -0.90408520198E+03  0.15593604323E+04  0.50400001928E-02 0. -1.
</event>
<event>
 5   0  0.1645631E-08  0.3400145E+04  0.7818609E-02  0.8137871E-01
       -1   -1    0    0    0  501  0.00000000000E+00  0.00000000000E+00  0.16088135205E+04  0.16088135205E+04  0.50400001928E-02 0. -1.
        1   -1    0    0  501    0  0.00000000000E+00  0.00000000000E+00 -0.17965085688E+04  0.17965085688E+04  0.50400001928E-02 0.  1.
    10030    2    1    2    0    0  0.00000000000E+00  0.00000000000E+00 -0.18769504830E+03  0.34053220893E+04  0.34001454529E+04 0.  0.
        4    1    3    3  502    0  0.14266512446E+04 -0.11060834692E+03  0.82552484161E+03  0.16519869422E+04  0.12699999809E+01 0. -1.
       -4    1    3    3    0  502 -0.14266512446E+04  0.11060834692E+03 -0.10132198899E+04  0.17533351472E+04  0.12699999809E+01 0.  1.
</event>
<event>
 5   0  0.1630571E-08  0.3399108E+04  0.7818609E-02  0.8138125E-01
        1   -1    0    0  501    0  0.00000000000E+00  0.00000000000E+00  0.19284776515E+04  0.19284776515E+04  0.50400001928E-02 0.  1.
       -1   -1    0    0    0  501  0.00000000000E+00  0.00000000000E+00 -0.14978050121E+04  0.14978050121E+04  0.50400001928E-02 0. -1.
    10030    2    1    2    0    0  0.00000000000E+00  0.00000000000E+00  0.43067263940E+03  0.34262826635E+04  0.33991078194E+04 0.  0.
        3    1    3    3  502    0  0.89584870716E+03  0.10591272219E+04 -0.77444472544E+03  0.15887290585E+04  0.10100000352E+00 0. -1.
       -3    1    3    3    0  502 -0.89584870716E+03 -0.10591272219E+04  0.12051173648E+04  0.18375536051E+04  0.10100000352E+00 0.  1.
</event>
<event>
 5   0  0.1625282E-08  0.3399130E+04  0.7818609E-02  0.8138120E-01
        1   -1    0    0  501    0  0.00000000000E+00  0.00000000000E+00  0.22169159787E+04  0.22169159787E+04  0.50400001928E-02 0.  1.
       -1   -1    0    0    0  501  0.00000000000E+00  0.00000000000E+00 -0.13029453542E+04  0.13029453542E+04  0.50400001928E-02 0. -1.
    10030    2    1    2    0    0  0.00000000000E+00  0.00000000000E+00  0.91397062453E+03  0.35198613329E+04  0.33991295209E+04 0.  0.
        1    1    3    3  502    0 -0.22802097238E+03  0.13110953635E+04  0.15516785659E+04  0.20441797837E+04  0.50400001928E-02 0.  1.
       -1    1    3    3    0  502  0.22802097238E+03 -0.13110953635E+04 -0.63770794135E+03  0.14756815492E+04  0.50400001928E-02 0. -1.
</event>
<event>
 5   0  0.1579536E-08  0.3399497E+04  0.7818609E-02  0.8138030E-01
       -1   -1    0    0    0  501  0.00000000000E+00  0.00000000000E+00  0.11453310125E+04  0.11453310125E+04  0.50400001928E-02 0. -1.
        1   -1    0    0  501    0  0.00000000000E+00  0.00000000000E+00 -0.25225407246E+04  0.25225407246E+04  0.50400001928E-02 0.  1.
    10030    2    1    2    0    0  0.00000000000E+00  0.00000000000E+00 -0.13772097120E+04  0.36678717371E+04  0.33994965052E+04 0.  0.
        5    1    3    3  502    0 -0.63345601846E+03 -0.32854722967E+03  0.97588062401E+03  0.12089561166E+04  0.46999998093E+01 0. -1.
       -5    1    3    3    0  502  0.63345601846E+03  0.32854722967E+03 -0.23530903360E+04  0.24589156205E+04  0.46999998093E+01 0.  1.
</event>
<event>
 5   0  0.1630571E-08  0.3400346E+04  0.7818609E-02  0.8137821E-01
        1   -1    0    0  501    0  0.00000000000E+00  0.00000000000E+00  0.16268997653E+04  0.16268997653E+04  0.50400001928E-02 0.  1.
       -1   -1    0    0    0  501  0.00000000000E+00  0.00000000000E+00 -0.17767462689E+04  0.17767462689E+04  0.50400001928E-02 0. -1.
    10030    2    1    2    0    0  0.00000000000E+00  0.00000000000E+00 -0.14984650361E+03  0.34036460342E+04  0.34003459165E+04 0.  0.
        3    1    3    3  502    0 -0.45762633615E+03  0.21348614503E+02 -0.17137998073E+04  0.17739750327E+04  0.10100000352E+00 0. -1.
       -3    1    3    3    0  502  0.45762633615E+03 -0.21348614503E+02  0.15639533037E+04  0.16296710015E+04  0.10100000352E+00 0.  1.
</event>
<event>
 5   0  0.4775023E-08  0.3401726E+04  0.7818609E-02  0.8137483E-01
       -2   -1    0    0    0  501  0.00000000000E+00  0.00000000000E+00  0.22130831449E+04  0.22130831449E+04  0.25500000920E-02 0. -1.
        2   -1    0    0  501    0  0.00000000000E+00  0.00000000000E+00 -0.13071969354E+04  0.13071969354E+04  0.25500000920E-02 0.  1.
    10030    2    1    2    0    0  0.00000000000E+00  0.00000000000E+00  0.90588620942E+03  0.35202800803E+04  0.34017263293E+04 0.  0.
        4    1    3    3  502    0 -0.47401572974E+03  0.49275850640E+03  0.20645992977E+04  0.21748732677E+04  0.12699999809E+01 0. -1.
       -4    1    3    3    0  502  0.47401572974E+03 -0.49275850640E+03 -0.11587130882E+04  0.13454068126E+04  0.12699999809E+01 0.  1.
</event>
<event>
 5   0  0.4973409E-08  0.3406275E+04  0.7818609E-02  0.8136368E-01
        2   -1    0    0  501    0  0.00000000000E+00  0.00000000000E+00  0.21121824131E+04  0.21121824131E+04  0.25500000920E-02 0.  1.
       -2   -1    0    0    0  501  0.00000000000E+00  0.00000000000E+00 -0.13733084753E+04  0.13733084753E+04  0.25500000920E-02 0. -1.
    10030    2    1    2    0    0  0.00000000000E+00  0.00000000000E+00  0.73887393782E+03  0.34854908885E+04  0.34062753907E+04 0.  0.
        1    1    3    3  502    0  0.80628444628E+03 -0.18951247564E+03  0.18922218334E+04  0.20655539339E+04  0.50400001928E-02 0.  1.
       -1    1    3    3    0  502 -0.80628444628E+03  0.18951247564E+03 -0.11533478956E+04  0.14199369546E+04  0.50400001928E-02 0. -1.
</event>
<event>
 5   0  0.1645631E-08  0.3400345E+04  0.7818609E-02  0.8137822E-01
        1   -1    0    0  501    0  0.00000000000E+00  0.00000000000E+00  0.31321292006E+04  0.31321292006E+04  0.50400001928E-02 0.  1.
       -1   -1    0    0    0  501  0.00000000000E+00  0.00000000000E+00 -0.92288239390E+03  0.92288239392E+03  0.50400001928E-02 0. -1.
    10030    2    1    2    0    0  0.00000000000E+00  0.00000000000E+00  0.22092468067E+04  0.40550115945E+04  0.34003452146E+04 0.  0.
        4    1    3    3  502    0  0.84959385813E+03 -0.88093936077E+03  0.25119704773E+04  0.27942550300E+04  0.12699999809E+01 0.  1.
       -4    1    3    3    0  502 -0.84959385813E+03  0.88093936077E+03 -0.30272367065E+03  0.12607565644E+04  0.12699999809E+01 0. -1.
</event>
<event>
 5   0  0.5001197E-08  0.3400444E+04  0.7818609E-02  0.8137797E-01
        2   -1    0    0  501    0  0.00000000000E+00  0.00000000000E+00  0.21319474147E+04  0.21319474147E+04  0.25500000920E-02 0. -1.
       -2   -1    0    0    0  501  0.00000000000E+00  0.00000000000E+00 -0.13559218332E+04  0.13559218332E+04  0.25500000920E-02 0.  1.
    10030    2    1    2    0    0  0.00000000000E+00  0.00000000000E+00  0.77602558143E+03  0.34878692479E+04  0.34004435280E+04 0.  0.
        5    1    3    3  502    0 -0.45235029455E+03  0.61432073273E+03  0.19465255962E+04  0.20906924064E+04  0.46999998093E+01 0. -1.
       -5    1    3    3    0  502  0.45235029455E+03 -0.61432073273E+03 -0.11705000148E+04  0.13971768414E+04  0.46999998093E+01 0.  1.
</event>
<event>
 5   0  0.1645631E-08  0.3399382E+04  0.7818609E-02  0.8138058E-01
        1   -1    0    0  501    0  0.00000000000E+00  0.00000000000E+00  0.19051131723E+04  0.19051131723E+04  0.50400001928E-02 0.  1.
       -1   -1    0    0    0  501  0.00000000000E+00  0.00000000000E+00 -0.15164188856E+04  0.15164188856E+04  0.50400001928E-02 0. -1.
    10030    2    1    2    0    0  0.00000000000E+00  0.00000000000E+00  0.38869428671E+03  0.34215320579E+04  0.33993820577E+04 0.  0.
        4    1    3    3  502    0 -0.14537583121E+04 -0.78604054645E+03  0.59401762061E+03  0.17561695582E+04  0.12699999809E+01 0.  1.
       -4    1    3    3    0  502  0.14537583121E+04  0.78604054645E+03 -0.20532333391E+03  0.16653624996E+04  0.12699999809E+01 0. -1.
</event>
<event>
 5   0  0.1625282E-08  0.3388584E+04  0.7818609E-02  0.8140714E-01
       -1   -1    0    0    0  501  0.00000000000E+00  0.00000000000E+00  0.15090468417E+04  0.15090468418E+04  0.50400001928E-02 0. -1.
        1   -1    0    0  501    0  0.00000000000E+00  0.00000000000E+00 -0.19022771564E+04  0.19022771564E+04  0.50400001928E-02 0.  1.
    10030    2    1    2    0    0  0.00000000000E+00  0.00000000000E+00 -0.39323031467E+03  0.34113239982E+04  0.33885839727E+04 0.  0.
        1    1    3    3  502    0  0.23382350045E+03 -0.13286274329E+04  0.83530073324E+03  0.15867109377E+04  0.50400001928E-02 0. -1.
       -1    1    3    3    0  502 -0.23382350045E+03  0.13286274329E+04 -0.12285310479E+04  0.18246130605E+04  0.50400001928E-02 0.  1.
</event>
<event>
 5   0  0.1625282E-08  0.3399901E+04  0.7818609E-02  0.8137931E-01
       -1   -1    0    0    0  501  0.00000000000E+00  0.00000000000E+00  0.15014288188E+04  0.15014288188E+04  0.50400001928E-02 0.  1.
        1   -1    0    0  501    0  0.00000000000E+00  0.00000000000E+00 -0.19247209050E+04  0.19247209050E+04  0.50400001928E-02 0. -1.
    10030    2    1    2    0    0  0.00000000000E+00  0.00000000000E+00 -0.42329208621E+03  0.34261497238E+04  0.33999008426E+04 0.  0.
        1    1    3    3  502    0 -0.49113842374E+03 -0.14954583037E+04 -0.85864571528E+03  0.17930100262E+04  0.50400001928E-02 0. -1.
       -1    1    3    3    0  502  0.49113842374E+03  0.14954583037E+04  0.43535362907E+03  0.16331396976E+04  0.50400001928E-02 0.  1.
</event>
<event>
 5   0  0.1630571E-08  0.3399481E+04  0.7818609E-02  0.8138034E-01
       -1   -1    0    0    0  501  0.00000000000E+00  0.00000000000E+00  0.10626584096E+04  0.10626584096E+04  0.50400001928E-02 0. -1.
        1   -1    0    0  501    0  0.00000000000E+00  0.00000000000E+00 -0.27187648401E+04  0.27187648401E+04  0.50400001928E-02 0.  1.
    10030    2    1    2    0    0  0.00000000000E+00  0.00000000000E+00 -0.16561064305E+04  0.37814232497E+04  0.33994813258E+04 0.  0.
        3    1    3    3  502    0  0.25581064822E+03  0.11537834306E+04 -0.21869748708E+04  0.24858629062E+04  0.10100000352E+00 0.  1.
       -3    1    3    3    0  502 -0.25581064822E+03 -0.11537834306E+04  0.53086844031E+03  0.12955603435E+04  0.10100000352E+00 0. -1.
</event>
<event>
 5   0  0.5001197E-08  0.3407777E+04  0.7818609E-02  0.8136000E-01
        2   -1    0    0  501    0  0.00000000000E+00  0.00000000000E+00  0.16087089718E+04  0.16087089718E+04  0.25500000920E-02 0. -1.
       -2   -1    0    0    0  501  0.00000000000E+00  0.00000000000E+00 -0.18046997831E+04  0.18046997831E+04  0.25500000920E-02 0.  1.
    10030    2    1    2    0    0  0.00000000000E+00  0.00000000000E+00 -0.19599081133E+03  0.34134087550E+04  0.34077774180E+04 0.  0.
        5    1    3    3  502    0  0.84501062179E+02  0.46476367366E+03 -0.17377923026E+04  0.18008580952E+04  0.46999998093E+01 0.  1.
       -5    1    3    3    0  502 -0.84501062179E+02 -0.46476367366E+03  0.15418014913E+04  0.16125506598E+04  0.46999998093E+01 0. -1.
</event>
<event>
 5   0  0.4973409E-08  0.3401295E+04  0.7818609E-02  0.8137588E-01
        2   -1    0    0  501    0  0.00000000000E+00  0.00000000000E+00  0.27862922403E+04  0.27862922403E+04  0.25500000920E-02 0. -1.
       -2   -1    0    0    0  501  0.00000000000E+00  0.00000000000E+00 -0.10380111695E+04  0.10380111695E+04  0.25500000920E-02 0.  1.
    10030    2    1    2    0    0  0.00000000000E+00  0.00000000000E+00  0.17482810709E+04  0.38243034098E+04  0.34012953220E+04 0.  0.
        1    1    3    3  502    0  0.55551649798E+03 -0.29434260776E+03  0.26508415112E+04  0.27243709123E+04  0.50400001928E-02 0. -1.
       -1    1    3    3    0  502 -0.55551649798E+03  0.29434260776E+03 -0.90256044039E+03  0.10999324974E+04  0.50400001928E-02 0.  1.
</event>
<event>
 5   0  0.1645631E-08  0.3400387E+04  0.7818609E-02  0.8137811E-01
       -1   -1    0    0    0  501  0.00000000000E+00  0.00000000000E+00  0.18107641170E+04  0.18107641170E+04  0.50400001928E-02 0.  1.
        1   -1    0    0  501    0  0.00000000000E+00  0.00000000000E+00 -0.15963747918E+04  0.15963747918E+04  0.50400001928E-02 0. -1.
    10030    2    1    2    0    0  0.00000000000E+00  0.00000000000E+00  0.21438932515E+03  0.34071389089E+04  0.34003871488E+04 0.  0.
        4    1    3    3  502    0 -0.87490582810E+03  0.12918656165E+04 -0.56963128388E+03  0.16609811533E+04  0.12699999809E+01 0. -1.
       -4    1    3    3    0  502  0.87490582810E+03 -0.12918656165E+04  0.78402060903E+03  0.17461577556E+04  0.12699999809E+01 0.  1.
</event>
<event>
 5   0  0.1630571E-08  0.3397919E+04  0.7818609E-02  0.8138417E-01
       -1   -1    0    0    0  501  0.00000000000E+00  0.00000000000E+00  0.20798368093E+04  0.20798368093E+04  0.50400001928E-02 0. -1.
        1   -1    0    0  501    0  0.00000000000E+00  0.00000000000E+00 -0.13878319595E+04  0.13878319595E+04  0.50400001928E-02 0.  1.
    10030    2    1    2    0    0  0.00000000000E+00  0.00000000000E+00  0.69200484974E+03  0.34676687688E+04  0.33979193601E+04 0.  0.
        3    1    3    3  502    0  0.37116501929E+03 -0.43001201891E+03  0.19800540705E+04  0.20599242560E+04  0.10100000352E+00 0. -1.
       -3    1    3    3    0  502 -0.37116501929E+03  0.43001201891E+03 -0.12880492208E+04  0.14077445128E+04  0.10100000352E+00 0.  1.
</event>
<event>
 5   0  0.5001197E-08  0.3399671E+04  0.7818609E-02  0.8137987E-01
       -2   -1    0    0    0  501  0.00000000000E+00  0.00000000000E+00  0.14077100962E+04  0.14077100962E+04  0.25500000920E-02 0.  1.
        2   -1    0    0  501    0  0.00000000000E+00  0.00000000000E+00 -0.20525825016E+04  0.20525825016E+04  0.25500000920E-02 0. -1.
    10030    2    1    2    0    0  0.00000000000E+00  0.00000000000E+00 -0.64487240544E+03  0.34602925978E+04  0.33996712257E+04 0.  0.
        5    1    3    3  502    0 -0.13443049350E+04  0.21785892662E+03 -0.13578269313E+04  0.19231053886E+04  0.46999998093E+01 0. -1.
       -5    1    3    3    0  502  0.13443049350E+04 -0.21785892662E+03  0.71295452586E+03  0.15371872092E+04  0.46999998093E+01 0.  1.
</event>
<event>
 5   0  0.1630571E-08  0.3397012E+04  0.7818609E-02  0.8138640E-01
        1   -1    0    0  501    0  0.00000000000E+00  0.00000000000E+00  0.24816319184E+04  0.24816319184E+04  0.50400001928E-02 0. -1.
       -1   -1    0    0    0  501  0.00000000000E+00  0.00000000000E+00 -0.11625105728E+04  0.11625105728E+04  0.50400001928E-02 0.  1.
    10030    2    1    2    0    0  0.00000000000E+00  0.00000000000E+00  0.13191213456E+04  0.36441424912E+04  0.33970124185E+04 0.  0.
        3    1    3    3  502    0 -0.61712724256E+03  0.15424277553E+04  0.28029576770E+03  0.16847834109E+04  0.10100000352E+00 0.  1.
       -3    1    3    3    0  502  0.61712724256E+03 -0.15424277553E+04  0.10388255779E+04  0.19593590803E+04  0.10100000352E+00 0. -1.
</event>
<event>
 5   0  0.1630571E-08  0.3398958E+04  0.7818609E-02  0.8138162E-01
       -1   -1    0    0    0  501  0.00000000000E+00  0.00000000000E+00  0.27368530369E+04  0.27368530369E+04  0.50400001928E-02 0. -1.
        1   -1    0    0  501    0  0.00000000000E+00  0.00000000000E+00 -0.10553099704E+04  0.10553099704E+04  0.50400001928E-02 0.  1.
    10030    2    1    2    0    0  0.00000000000E+00  0.00000000000E+00  0.16815430665E+04  0.37921630073E+04  0.33989576622E+04 0.  0.
        3    1    3    3  502    0 -0.26845954280E+03  0.14818466657E+04 -0.37923171411E+02  0.15064455662E+04  0.10100000352E+00 0.  1.
       -3    1    3    3    0  502  0.26845954280E+03 -0.14818466657E+04  0.17194662379E+04  0.22857174411E+04  0.10100000352E+00 0. -1.
</event>
<event>
 5   0  0.4775023E-08  0.3400491E+04  0.7818609E-02  0.8137786E-01
       -2   -1    0    0    0  501  0.00000000000E+00  0.00000000000E+00  0.20950023928E+04  0.20950023928E+04  0.25500000920E-02 0.  1.
        2   -1    0    0  501    0  0.00000000000E+00  0.00000000000E+00 -0.13798718885E+04  0.13798718885E+04  0.25500000920E-02 0. -1.
    10030    2    1    2    0    0  0.00000000000E+00  0.00000000000E+00  0.71513050430E+03  0.34748742814E+04  0.34004910871E+04 0.  0.
        4    1    3    3  502    0  0.95642411276E+03  0.39187230148E+03 -0.10219734304E+04  0.14535275331E+04  0.12699999809E+01 0. -1.
       -4    1    3    3    0  502 -0.95642411276E+03 -0.39187230148E+03  0.17371039347E+04  0.20213467483E+04  0.12699999809E+01 0.  1.
</event>
<event>
 5   0  0.4764953E-08  0.3398436E+04  0.7818609E-02  0.8138290E-01
       -2   -1    0    0    0  501  0.00000000000E+00  0.00000000000E+00  0.91213157881E+03  0.91213157882E+03  0.25500000920E-02 0. -1.
        2   -1    0    0  501    0  0.00000000000E+00  0.00000000000E+00 -0.31654889984E+04  0.31654889984E+04  0.25500000920E-02 0.  1.
    10030    2    1    2    0    0  0.00000000000E+00  0.00000000000E+00 -0.22533574196E+04  0.40776205772E+04  0.33984363921E+04 0.  0.
        2    1    3    3  502    0  0.14857290371E+04  0.82118508206E+03 -0.10368357748E+04  0.19891616663E+04  0.25500000920E-02 0. -1.
       -2    1    3    3    0  502 -0.14857290371E+04 -0.82118508206E+03 -0.12165216447E+04  0.20884589109E+04  0.25500000920E-02 0.  1.
</event>
<event>
 5   0  0.1595851E-08  0.3401431E+04  0.7818609E-02  0.8137555E-01
       -1   -1    0    0    0  501  0.00000000000E+00  0.00000000000E+00  0.15675926273E+04  0.15675926273E+04  0.50400001928E-02 0.  1.
        1   -1    0    0  501    0  0.00000000000E+00  0.00000000000E+00 -0.18451437482E+04  0.18451437482E+04  0.50400001928E-02 0. -1.
    10030    2    1    2    0    0  0.00000000000E+00  0.00000000000E+00 -0.27755112093E+03  0.34127363755E+04  0.34014313081E+04 0.  0.
        2    1    3    3  502    0  0.15955414968E+04 -0.55906212379E+03  0.46583175713E+02  0.16912933272E+04  0.25500000920E-02 0.  1.
       -2    1    3    3    0  502 -0.15955414968E+04  0.55906212379E+03 -0.32413429664E+03  0.17214430483E+04  0.25500000920E-02 0. -1.
</event>
<event>
 5   0  0.4764953E-08  0.3399651E+04  0.7818609E-02  0.8137992E-01
        2   -1    0    0  501    0  0.00000000000E+00  0.00000000000E+00  0.92986138782E+03  0.92986138782E+03  0.25500000920E-02 0. -1.
       -2   -1    0    0    0  501  0.00000000000E+00  0.00000000000E+00 -0.31073528576E+04  0.31073528576E+04  0.25500000920E-02 0.  1.
    10030    2    1    2    0    0  0.00000000000E+00  0.00000000000E+00 -0.21774914698E+04  0.40372142455E+04  0.33996514178E+04 0.  0.
        2    1    3    3  502    0  0.58545984362E+03 -0.19778218634E+02 -0.29836976220E+04  0.30406587948E+04  0.25500000920E-02 0.  1.
       -2    1    3    3    0  502 -0.58545984362E+03  0.19778218634E+02  0.80620615222E+03  0.99655545069E+03  0.25500000920E-02 0. -1.
</event>
<event>
 5   0  0.1595851E-08  0.3398275E+04  0.7818609E-02  0.8138330E-01
       -1   -1    0    0    0  501  0.00000000000E+00  0.00000000000E+00  0.10804240748E+04  0.10804240748E+04  0.50400001928E-02 0. -1.
        1   -1    0    0  501    0  0.00000000000E+00  0.00000000000E+00 -0.26721620499E+04  0.26721620499E+04  0.50400001928E-02 0.  1.
    10030    2    1    2    0    0  0.00000000000E+00  0.00000000000E+00 -0.15917379751E+04  0.37525861247E+04  0.33982749803E+04 0.  0.
        2    1    3    3  502    0 -0.32608833845E+03 -0.56326598278E+03  0.93731808117E+03  0.11411254783E+04  0.25500000920E-02 0. -1.
       -2    1    3    3    0  502  0.32608833845E+03  0.56326598278E+03 -0.25290560563E+04  0.26114606464E+04  0.25500000920E-02 0.  1.
</event>
<event>
 5   0  0.1573625E-08  0.3399250E+04  0.7818609E-02  0.8138090E-01
       -3   -1    0    0    0  501  0.00000000000E+00  0.00000000000E+00  0.18619277728E+04  0.18619277756E+04  0.10100000352E+00 0. -1.
        3   -1    0    0  501    0  0.00000000000E+00  0.00000000000E+00 -0.15514703221E+04  0.15514703253E+04  0.10100000352E+00 0.  1.
    10030    2    1    2    0    0  0.00000000000E+00  0.00000000000E+00  0.31045745077E+03  0.34133981009E+04  0.33992503242E+04 0.  0.
        5    1    3    3  502    0 -0.16461144109E+04  0.42309401012E+03  0.15678647997E+03  0.17068407323E+04  0.46999998093E+01 0.  1.
       -5    1    3    3    0  502  0.16461144109E+04 -0.42309401012E+03  0.15367097080E+03  0.17065573686E+04  0.46999998093E+01 0. -1.
</event>
<event>
 5   0  0.1625282E-08  0.3402841E+04  0.7818609E-02  0.8137209E-01
       -1   -1    0    0    0  501  0.00000000000E+00  0.00000000000E+00  0.11465740802E+04  0.11465740802E+04  0.50400001928E-02 0.  1.
        1   -1    0    0  501    0  0.00000000000E+00  0.00000000000E+00 -0.25247669575E+04  0.25247669575E+04  0.50400001928E-02 0. -1.
    10030    2    1    2    0    0  0.00000000000E+00  0.00000000000E+00 -0.13781928774E+04  0.36713410377E+04  0.34028413727E+04 0.  0.
        1    1    3    3  502    0 -0.11137765589E+04 -0.11273919051E+04 -0.13570783199E+04  0.20864257229E+04  0.50400001928E-02 0. -1.
       -1    1    3    3    0  502  0.11137765589E+04  0.11273919051E+04 -0.21114557497E+02  0.15849153149E+04  0.50400001928E-02 0.  1.
</event>
<event>
 5   0  0.4764953E-08  0.3400255E+04  0.7818609E-02  0.8137844E-01
        2   -1    0    0  501    0  0.00000000000E+00  0.00000000000E+00  0.17468779426E+04  0.17468779426E+04  0.25500000920E-02 0.  1.
       -2   -1    0    0    0  501  0.00000000000E+00  0.00000000000E+00 -0.16546284998E+04  0.16546284998E+04  0.25500000920E-02 0. -1.
    10030    2    1    2    0    0  0.00000000000E+00  0.00000000000E+00  0.92249442833E+02  0.34015064424E+04  0.34002553019E+04 0.  0.
        2    1    3    3  502    0  0.23705353430E+02 -0.14897914311E+04  0.86520165157E+03  0.17229667292E+04  0.25500000920E-02 0.  1.
       -2    1    3    3    0  502 -0.23705353430E+02  0.14897914311E+04 -0.77295220874E+03  0.16785397132E+04  0.25500000920E-02 0. -1.
</event>
<event>
 5   0  0.4775023E-08  0.3398946E+04  0.7818609E-02  0.8138165E-01
       -2   -1    0    0    0  501  0.00000000000E+00  0.00000000000E+00  0.16053418191E+04  0.16053418191E+04  0.25500000920E-02 0.  1.
        2   -1    0    0  501    0  0.00000000000E+00  0.00000000000E+00 -0.17991238250E+04  0.17991238250E+04  0.25500000920E-02 0. -1.
    10030    2    1    2    0    0  0.00000000000E+00  0.00000000000E+00 -0.19378200591E+03  0.34044656442E+04  0.33989461391E+04 0.  0.
        4    1    3    3  502    0  0.12675347533E+04  0.92395436728E+03 -0.75207176773E+03  0.17395256769E+04  0.12699999809E+01 0. -1.
       -4    1    3    3    0  502 -0.12675347533E+04 -0.92395436728E+03  0.55828976182E+03  0.16649399673E+04  0.12699999809E+01 0.  1.
</event>
<event>
 5   0  0.4973409E-08  0.3398751E+04  0.7818609E-02  0.8138213E-01
        2   -1    0    0  501    0  0.00000000000E+00  0.00000000000E+00  0.17444452356E+04  0.17444452356E+04  0.25500000920E-02 0. -1.
       -2   -1    0    0    0  501  0.00000000000E+00  0.00000000000E+00 -0.16554703526E+04  0.16554703526E+04  0.25500000920E-02 0.  1.
    10030    2    1    2    0    0  0.00000000000E+00  0.00000000000E+00  0.88974882921E+02  0.33999155882E+04  0.33987511643E+04 0.  0.
        1    1    3    3  502    0  0.60770186207E+03 -0.73125696668E+02  0.16303470901E+04  0.17414593176E+04  0.50400001928E-02 0. -1.
       -1    1    3    3    0  502 -0.60770186207E+03  0.73125696668E+02 -0.15413722071E+04  0.16584562706E+04  0.50400001928E-02 0.  1.
</event>
<event>
 5   0  0.4973409E-08  0.3400555E+04  0.7818609E-02  0.8137770E-01
        2   -1    0    0  501    0  0.00000000000E+00  0.00000000000E+00  0.22626756792E+04  0.22626756792E+04  0.25500000920E-02 0.  1.
       -2   -1    0    0    0  501  0.00000000000E+00  0.00000000000E+00 -0.12776656460E+04  0.12776656460E+04  0.25500000920E-02 0. -1.
    10030    2    1    2    0    0  0.00000000000E+00  0.00000000000E+00  0.98501003325E+03  0.35403413252E+04  0.34005546508E+04 0.  0.
        1    1    3    3  502    0 -0.59981207010E+03 -0.90301079803E+03  0.18562121400E+04  0.21495875254E+04  0.50400001928E-02 0.  1.
       -1    1    3    3    0  502  0.59981207010E+03  0.90301079803E+03 -0.87120210673E+03  0.13907537998E+04  0.50400001928E-02 0. -1.
</event>
<event>
 5   0  0.1595851E-08  0.3399684E+04  0.7818609E-02  0.8137984E-01
       -1   -1    0    0    0  501  0.00000000000E+00  0.00000000000E+00  0.13393098736E+04  0.13393098736E+04  0.50400001928E-02 0. -1.
        1   -1    0    0  501    0  0.00000000000E+00  0.00000000000E+00 -0.21574271128E+04  0.21574271128E+04  0.50400001928E-02 0.  1.
    10030    2    1    2    0    0  0.00000000000E+00  0.00000000000E+00 -0.81811723922E+03  0.34967369864E+04  0.33996843581E+04 0.  0.
        2    1    3    3  502    0 -0.87929142923E+03 -0.42170691014E+03 -0.18410957601E+04  0.20834163611E+04  0.25500000920E-02 0.  1.
       -2    1    3    3    0  502  0.87929142923E+03  0.42170691014E+03  0.10229785209E+04  0.14133206253E+04  0.25500000920E-02 0. -1.
</event>
<event>
 5   0  0.1595851E-08  0.3399494E+04  0.7818609E-02  0.8138031E-01
        1   -1    0    0  501    0  0.00000000000E+00  0.00000000000E+00  0.23260049719E+04  0.23260049719E+04  0.50400001928E-02 0. -1.
       -1   -1    0    0    0  501  0.00000000000E+00  0.00000000000E+00 -0.12421038194E+04  0.12421038194E+04  0.50400001928E-02 0.  1.
    10030    2    1    2    0    0  0.00000000000E+00  0.00000000000E+00  0.10839011525E+04  0.35681087913E+04  0.33994938797E+04 0.  0.
        2    1    3    3  502    0  0.88298958834E+03  0.14123189974E+04  0.18628622199E+03  0.16760125656E+04  0.25500000920E-02 0.  1.
       -2    1    3    3    0  502 -0.88298958834E+03 -0.14123189974E+04  0.89761493048E+03  0.18920962256E+04  0.25500000920E-02 0. -1.
</event>
<event>
 5   0  0.4973409E-08  0.3400273E+04  0.7818609E-02  0.8137839E-01
       -2   -1    0    0    0  501  0.00000000000E+00  0.00000000000E+00  0.15525919516E+04  0.15525919516E+04  0.25500000920E-02 0. -1.
        2   -1    0    0  501    0  0.00000000000E+00  0.00000000000E+00 -0.18617025914E+04  0.18617025914E+04  0.25500000920E-02 0.  1.
    10030    2    1    2    0    0  0.00000000000E+00  0.00000000000E+00 -0.30911063980E+03  0.34142945431E+04  0.34002732007E+04 0.  0.
        1    1    3    3  502    0 -0.77516928038E+03  0.12802589245E+04 -0.96442574469E+03  0.17804682935E+04  0.50400001928E-02 0.  1.
       -1    1    3    3    0  502  0.77516928038E+03 -0.12802589245E+04  0.65531510489E+03  0.16338262496E+04  0.50400001928E-02 0. -1.
</event>
<event>
 5   0  0.5001197E-08  0.3400310E+04  0.7818609E-02  0.8137830E-01
       -2   -1    0    0    0  501  0.00000000000E+00  0.00000000000E+00  0.13372122968E+04  0.13372122968E+04  0.25500000920E-02 0.  1.
        2   -1    0    0  501    0  0.00000000000E+00  0.00000000000E+00 -0.21616062989E+04  0.21616062989E+04  0.25500000920E-02 0. -1.
    10030    2    1    2    0    0  0.00000000000E+00  0.00000000000E+00 -0.82439400212E+03  0.34988185956E+04  0.34003097057E+04 0.  0.
        5    1    3    3  502    0  0.14348568697E+04 -0.75209909289E+03 -0.94292756133E+03  0.18744603911E+04  0.46999998093E+01 0. -1.
       -5    1    3    3    0  502 -0.14348568697E+04  0.75209909289E+03  0.11853355921E+03  0.16243582045E+04  0.46999998093E+01 0.  1.
</event>
<event>
 5   0  0.4775023E-08  0.3401209E+04  0.7818609E-02  0.8137610E-01
       -2   -1    0    0    0  501  0.00000000000E+00  0.00000000000E+00  0.94427219078E+03  0.94427219079E+03  0.25500000920E-02 0.  1.
        2   -1    0    0  501    0  0.00000000000E+00  0.00000000000E+00 -0.30627353409E+04  0.30627353410E+04  0.25500000920E-02 0. -1.
    10030    2    1    2    0    0  0.00000000000E+00  0.00000000000E+00 -0.21184631502E+04  0.40070075317E+04  0.34012090851E+04 0.  0.
        4    1    3    3  502    0  0.35084654574E+03 -0.16437091935E+04 -0.75387307429E+03  0.18420639067E+04  0.12699999809E+01 0.  1.
       -4    1    3    3    0  502 -0.35084654574E+03  0.16437091935E+04 -0.13645900759E+04  0.21649436250E+04  0.12699999809E+01 0. -1.
</event>
<event>
 5   0  0.1625282E-08  0.3403820E+04  0.7818609E-02  0.8136969E-01
       -1   -1    0    0    0  501  0.00000000000E+00  0.00000000000E+00  0.13776362056E+04  0.13776362056E+04  0.50400001928E-02 0.  1.
        1   -1    0    0  501    0  0.00000000000E+00  0.00000000000E+00 -0.21025130235E+04  0.21025130235E+04  0.50400001928E-02 0. -1.
    10030    2    1    2    0    0  0.00000000000E+00  0.00000000000E+00 -0.72487681785E+03  0.34801492291E+04  0.34038202443E+04 0.  0.
        1    1    3    3  502    0  0.12810394740E+04  0.94357399901E+03  0.25534973342E+03  0.16113961375E+04  0.50400001928E-02 0.  1.
       -1    1    3    3    0  502 -0.12810394740E+04 -0.94357399901E+03 -0.98022655126E+03  0.18687530916E+04  0.50400001928E-02 0. -1.
</event>
<event>
 5   0  0.4946315E-08  0.3401942E+04  0.7818609E-02  0.8137430E-01
       -2   -1    0    0    0  501  0.00000000000E+00  0.00000000000E+00  0.10767999605E+04  0.10767999605E+04  0.25500000920E-02 0. -1.
        2   -1    0    0  501    0  0.00000000000E+00  0.00000000000E+00 -0.26869456461E+04  0.26869456461E+04  0.25500000920E-02 0.  1.
    10030    2    1    2    0    0  0.00000000000E+00  0.00000000000E+00 -0.16101456856E+04  0.37637456066E+04  0.34019423661E+04 0.  0.
        3    1    3    3  502    0 -0.41952640648E+03  0.40366340559E+03 -0.25732837148E+04  0.26383206094E+04  0.10100000352E+00 0.  1.
       -3    1    3    3    0  502  0.41952640648E+03 -0.40366340559E+03  0.96313802922E+03  0.11254249972E+04  0.10100000352E+00 0. -1.
</event>
<event>
 5   0  0.4973409E-08  0.3399805E+04  0.7818609E-02  0.8137954E-01
        2   -1    0    0  501    0  0.00000000000E+00  0.00000000000E+00  0.89423057991E+03  0.89423057992E+03  0.25500000920E-02 0. -1.
       -2   -1    0    0    0  501  0.00000000000E+00  0.00000000000E+00 -0.32314585354E+04  0.32314585354E+04  0.25500000920E-02 0.  1.
    10030    2    1    2    0    0  0.00000000000E+00  0.00000000000E+00 -0.23372279555E+04  0.41256891153E+04  0.33998053121E+04 0.  0.
        1    1    3    3  502    0  0.10283380077E+04 -0.50599220082E+03  0.35488743163E+03  0.11997717510E+04  0.50400001928E-02 0. -1.
       -1    1    3    3    0  502 -0.10283380077E+04  0.50599220082E+03 -0.26921153871E+04  0.29259173643E+04  0.50400001928E-02 0.  1.
</event>
<event>
 5   0  0.1645631E-08  0.3405026E+04  0.7818609E-02  0.8136674E-01
        1   -1    0    0  501    0  0.00000000000E+00  0.00000000000E+00  0.16325621174E+04  0.16325621174E+04  0.50400001928E-02 0.  1.
       -1   -1    0    0    0  501  0.00000000000E+00  0.00000000000E+00 -0.17754616068E+04  0.17754616068E+04  0.50400001928E-02 0. -1.
    10030    2    1    2    0    0  0.00000000000E+00  0.00000000000E+00 -0.14289948939E+03  0.34080237242E+04  0.34050264963E+04 0.  0.
        4    1    3    3  502    0 -0.14158339415E+03  0.14362917976E+04  0.83243419807E+03  0.16661117287E+04  0.12699999809E+01 0.  1.
       -4    1    3    3    0  502  0.14158339415E+03 -0.14362917976E+04 -0.97533368747E+03  0.17419119955E+04  0.12699999809E+01 0. -1.
</event>
<event>
 5   0  0.4946315E-08  0.3392562E+04  0.7818609E-02  0.8139734E-01
       -2   -1    0    0    0  501  0.00000000000E+00  0.00000000000E+00  0.21828688963E+04  0.21828688963E+04  0.25500000920E-02 0.  1.
        2   -1    0    0  501    0  0.00000000000E+00  0.00000000000E+00 -0.13181596558E+04  0.13181596558E+04  0.25500000920E-02 0. -1.
    10030    2    1    2    0    0  0.00000000000E+00  0.00000000000E+00  0.86470924050E+03  0.35010285521E+04  0.33925622842E+04 0.  0.
        3    1    3    3  502    0  0.32120644329E+03  0.15715441382E+04  0.10017610274E+04  0.18911503704E+04  0.10100000352E+00 0.  1.
       -3    1    3    3    0  502 -0.32120644329E+03 -0.15715441382E+04 -0.13705178691E+03  0.16098781817E+04  0.10100000352E+00 0. -1.
</event>
<event>
 5   0  0.4973409E-08  0.3399066E+04  0.7818609E-02  0.8138135E-01
        2   -1    0    0  501    0  0.00000000000E+00  0.00000000000E+00  0.16415215052E+04  0.16415215052E+04  0.25500000920E-02 0. -1.
       -2   -1    0    0    0  501  0.00000000000E+00  0.00000000000E+00 -0.17595950386E+04  0.17595950386E+04  0.25500000920E-02 0.  1.
    10030    2    1    2    0    0  0.00000000000E+00  0.00000000000E+00 -0.11807353336E+03  0.34011165438E+04  0.33990663990E+04 0.  0.
        1    1    3    3  502    0  0.13727328244E+04  0.63507183652E+03  0.71648002583E+03  0.16736353462E+04  0.50400001928E-02 0. -1.
       -1    1    3    3    0  502 -0.13727328244E+04 -0.63507183652E+03 -0.83455355919E+03  0.17274811975E+04  0.50400001928E-02 0.  1.
</event>
<event>
 5   0  0.1595851E-08  0.3399309E+04  0.7818609E-02  0.8138076E-01
        1   -1    0    0  501    0  0.00000000000E+00  0.00000000000E+00  0.17355141167E+04  0.17355141167E+04  0.50400001928E-02 0. -1.
       -1   -1    0    0    0  501  0.00000000000E+00  0.00000000000E+00 -0.16645361522E+04  0.16645361522E+04  0.50400001928E-02 0.  1.
    10030    2    1    2    0    0  0.00000000000E+00  0.00000000000E+00  0.70977964475E+02  0.34000502689E+04  0.33993093357E+04 0.  0.
        2    1    3    3  502    0  0.35595128373E+03 -0.11324474465E+04  0.12521781649E+04  0.17254242064E+04  0.25500000920E-02 0. -1.
       -2    1    3    3    0  502 -0.35595128373E+03  0.11324474465E+04 -0.11812002005E+04  0.16746260624E+04  0.25500000920E-02 0.  1.
</event>
<event>
 5   0  0.5001197E-08  0.3400171E+04  0.7818609E-02  0.8137864E-01
        2   -1    0    0  501    0  0.00000000000E+00  0.00000000000E+00  0.20664147373E+04  0.20664147373E+04  0.25500000920E-02 0.  1.
       -2   -1    0    0    0  501  0.00000000000E+00  0.00000000000E+00 -0.13986986063E+04  0.13986986063E+04  0.25500000920E-02 0. -1.
    10030    2    1    2    0    0  0.00000000000E+00  0.00000000000E+00  0.66771613097E+03  0.34651133436E+04  0.34001714151E+04 0.  0.
        5    1    3    3  502    0  0.92115357970E+03 -0.11137891867E+04  0.12460626848E+04  0.19083355508E+04  0.46999998093E+01 0.  1.
       -5    1    3    3    0  502 -0.92115357970E+03  0.11137891867E+04 -0.57834655381E+03  0.15567777928E+04  0.46999998093E+01 0. -1.
</event>
<event>
 5   0  0.1625282E-08  0.3399591E+04  0.7818609E-02  0.8138007E-01
       -1   -1    0    0    0  501  0.00000000000E+00  0.00000000000E+00  0.22113989355E+04  0.22113989355E+04  0.50400001928E-02 0.  1.
        1   -1    0    0  501    0  0.00000000000E+00  0.00000000000E+00 -0.13065507194E+04  0.13065507194E+04  0.50400001928E-02 0. -1.
    10030    2    1    2    0    0  0.00000000000E+00  0.00000000000E+00  0.90484821611E+03  0.35179496548E+04  0.33995910754E+04 0.  0.
        1    1    3    3  502    0 -0.96955800018E+03 -0.13822917770E+04  0.65555288182E+03  0.18112213706E+04  0.50400001928E-02 0.  1.
       -1    1    3    3    0  502  0.96955800018E+03  0.13822917770E+04  0.24929533429E+03  0.17067282842E+04  0.50400001928E-02 0. -1.
</event>
<event>
 5   0  0.4973409E-08  0.3400710E+04  0.7818609E-02  0.8137732E-01
       -2   -1    0    0    0  501  0.00000000000E+00  0.00000000000E+00  0.14560408132E+04  0.14560408132E+04  0.25500000920E-02 0. -1.
        2   -1    0    0  501    0  0.00000000000E+00  0.00000000000E+00 -0.19856633594E+04  0.19856633595E+04  0.25500000920E-02 0.  1.
    10030    2    1    2    0    0  0.00000000000E+00  0.00000000000E+00 -0.52962254626E+03  0.34417041726E+04  0.34007098627E+04 0.  0.
        1    1    3    3  502    0 -0.93507052604E+03 -0.11369677889E+04 -0.11260419672E+04  0.18533815456E+04  0.50400001928E-02 0.  1.
       -1    1    3    3    0  502  0.93507052604E+03  0.11369677889E+04  0.59641942094E+03  0.15883226270E+04  0.50400001928E-02 0. -1.
</event>
<event>
 5   0  0.4764953E-08  0.3400402E+04  0.7818609E-02  0.8137808E-01
       -2   -1    0    0    0  501  0.00000000000E+00  0.00000000000E+00  0.10868722889E+04  0.10868722889E+04  0.25500000920E-02 0.  1.
        2   -1    0    0  501    0  0.00000000000E+00  0.00000000000E+00 -0.26596342198E+04  0.26596342198E+04  0.25500000920E-02 0. -1.
    10030    2    1    2    0    0  0.00000000000E+00  0.00000000000E+00 -0.15727619310E+04  0.37465065087E+04  0.34004015834E+04 0.  0.
        2    1    3    3  502    0  0.12952428812E+04 -0.90855444086E+03 -0.10047541028E+03  0.15853140387E+04  0.25500000920E-02 0. -1.
       -2    1    3    3    0  502 -0.12952428812E+04  0.90855444086E+03 -0.14722865207E+04  0.21611924700E+04  0.25500000920E-02 0.  1.
</event>
<event>
 5   0  0.1579536E-08  0.3399966E+04  0.7818609E-02  0.8137915E-01
       -1   -1    0    0    0  501  0.00000000000E+00  0.00000000000E+00  0.17749325940E+04  0.17749325940E+04  0.50400001928E-02 0. -1.
        1   -1    0    0  501    0  0.00000000000E+00  0.00000000000E+00 -0.16281985540E+04  0.16281985540E+04  0.50400001928E-02 0.  1.
    10030    2    1    2    0    0  0.00000000000E+00  0.00000000000E+00  0.14673404006E+03  0.34031311480E+04  0.33999662839E+04 0.  0.
        5    1    3    3  502    0 -0.95652239954E+03  0.99182803230E+03 -0.92318149472E+03  0.16585970302E+04  0.46999998093E+01 0.  1.
       -5    1    3    3    0  502  0.95652239954E+03 -0.99182803230E+03  0.10699155348E+04  0.17445341178E+04  0.46999998093E+01 0. -1.
</event>
<event>
 5   0  0.1630571E-08  0.3399654E+04  0.7818609E-02  0.8137991E-01
       -1   -1    0    0    0  501  0.00000000000E+00  0.00000000000E+00  0.10966836399E+04  0.10966836399E+04  0.50400001928E-02 0. -1.
        1   -1    0    0  501    0  0.00000000000E+00  0.00000000000E+00 -0.26346812280E+04  0.26346812280E+04  0.50400001928E-02 0.  1.
    10030    2    1    2    0    0  0.00000000000E+00  0.00000000000E+00 -0.15379975881E+04  0.37313648679E+04  0.33996539819E+04 0.  0.
        3    1    3    3  502    0 -0.62913657982E+03 -0.12282722572E+04  0.32028052781E+03  0.14167022272E+04  0.10100000352E+00 0. -1.
       -3    1    3    3    0  502  0.62913657982E+03  0.12282722572E+04 -0.18582781159E+04  0.23146626407E+04  0.10100000352E+00 0.  1.
</event>
<event>
 5   0  0.4946315E-08  0.3397880E+04  0.7818609E-02  0.8138427E-01
       -2   -1    0    0    0  501  0.00000000000E+00  0.00000000000E+00  0.15354595266E+04  0.15354595267E+04  0.25500000920E-02 0.  1.
        2   -1    0    0  501    0  0.00000000000E+00  0.00000000000E+00 -0.18798261378E+04  0.18798261379E+04  0.25500000920E-02 0. -1.
    10030    2    1    2    0    0  0.00000000000E+00  0.00000000000E+00 -0.34436661120E+03  0.34152856645E+04  0.33978798989E+04 0.  0.
        3    1    3    3  502    0  0.53697383450E+03  0.12850809623E+04 -0.11501127637E+04  0.18062484209E+04  0.10100000352E+00 0. -1.
       -3    1    3    3    0  502 -0.53697383450E+03 -0.12850809623E+04  0.80574615249E+03  0.16090372436E+04  0.10100000352E+00 0.  1.
</event>
<event>
 5   0  0.5001197E-08  0.3406597E+04  0.7818609E-02  0.8136289E-01
       -2   -1    0    0    0  501  0.00000000000E+00  0.00000000000E+00  0.11551431050E+04  0.11551431050E+04  0.25500000920E-02 0.  1.
        2   -1    0    0  501    0  0.00000000000E+00  0.00000000000E+00 -0.25115731610E+04  0.25115731610E+04  0.25500000920E-02 0. -1.
    10030    2    1    2    0    0  0.00000000000E+00  0.00000000000E+00 -0.13564300560E+04  0.36667162660E+04  0.34065973754E+04 0.  0.
        5    1    3    3  502    0  0.74034886623E+03  0.68017136629E+03  0.80170976682E+03  0.12858888643E+04  0.46999998093E+01 0.  1.
       -5    1    3    3    0  502 -0.74034886623E+03 -0.68017136629E+03 -0.21581398229E+04  0.23808274016E+04  0.46999998093E+01 0. -1.
</event>
<event>
 5   0  0.1579536E-08  0.3400716E+04  0.7818609E-02  0.8137731E-01
       -1   -1    0    0    0  501  0.00000000000E+00  0.00000000000E+00  0.24101407824E+04  0.24101407825E+04  0.50400001928E-02 0. -1.
        1   -1    0    0  501    0  0.00000000000E+00  0.00000000000E+00 -0.11996049477E+04  0.11996049477E+04  0.50400001928E-02 0.  1.
    10030    2    1    2    0    0  0.00000000000E+00  0.00000000000E+00  0.12105358348E+04  0.36097457301E+04  0.34007156936E+04 0.  0.
        5    1    3    3  502    0 -0.16406297474E+04  0.36786221763E+03  0.87423216838E+03  0.18950705932E+04  0.46999998093E+01 0. -1.
       -5    1    3    3    0  502  0.16406297474E+04 -0.36786221763E+03  0.33630366641E+03  0.17146751369E+04  0.46999998093E+01 0.  1.
</event>
<event>
 5   0  0.4973409E-08  0.3399198E+04  0.7818609E-02  0.8138103E-01
       -2   -1    0    0    0  501  0.00000000000E+00  0.00000000000E+00  0.91213699582E+03  0.91213699583E+03  0.25500000920E-02 0.  1.
        2   -1    0    0  501    0  0.00000000000E+00  0.00000000000E+00 -0.31668893169E+04  0.31668893169E+04  0.25500000920E-02 0. -1.
    10030    2    1    2    0    0  0.00000000000E+00  0.00000000000E+00 -0.22547523210E+04  0.40790263127E+04  0.33991980864E+04 0.  0.
        1    1    3    3  502    0 -0.56586526128E+03 -0.12533564067E+04  0.71138256028E+02  0.13770135902E+04  0.50400001928E-02 0.  1.
       -1    1    3    3    0  502  0.56586526128E+03  0.12533564067E+04 -0.23258905771E+04  0.27020127225E+04  0.50400001928E-02 0. -1.
</event>
<event>
 5   0  0.1625282E-08  0.3399805E+04  0.7818609E-02  0.8137954E-01
        1   -1    0    0  501    0  0.00000000000E+00  0.00000000000E+00  0.14302306143E+04  0.14302306143E+04  0.50400001928E-02 0. -1.
       -1   -1    0    0    0  501  0.00000000000E+00  0.00000000000E+00 -0.20204211959E+04  0.20204211959E+04  0.50400001928E-02 0.  1.
    10030    2    1    2    0    0  0.00000000000E+00  0.00000000000E+00 -0.59019058158E+03  0.34506518102E+04  0.33998048462E+04 0.  0.
        1    1    3    3  502    0  0.57321064875E+03  0.15909603181E+04 -0.11946667138E+03  0.16952868392E+04  0.50400001928E-02 0.  1.
       -1    1    3    3    0  502 -0.57321064875E+03 -0.15909603181E+04 -0.47072391020E+03  0.17553649710E+04  0.50400001928E-02 0. -1.
</event>
<event>
 5   0  0.4946315E-08  0.3401081E+04  0.7818609E-02  0.8137641E-01
       -2   -1    0    0    0  501  0.00000000000E+00  0.00000000000E+00  0.16304946215E+04  0.16304946215E+04  0.25500000920E-02 0. -1.
        2   -1    0    0  501    0  0.00000000000E+00  0.00000000000E+00 -0.17735956142E+04  0.17735956142E+04  0.25500000920E-02 0.  1.
    10030    2    1    2    0    0  0.00000000000E+00  0.00000000000E+00 -0.14310099261E+03  0.34040902357E+04  0.34010810691E+04 0.  0.
        3    1    3    3  502    0  0.58419277053E+03  0.15827597331E+04  0.14177778708E+03  0.16930772330E+04  0.10100000352E+00 0.  1.
       -3    1    3    3    0  502 -0.58419277053E+03 -0.15827597331E+04 -0.28487877969E+03  0.17110130027E+04  0.10100000352E+00 0. -1.
</event>
<event>
 5   0  0.4775023E-08  0.3399335E+04  0.7818609E-02  0.8138069E-01
       -2   -1    0    0    0  501  0.00000000000E+00  0.00000000000E+00  0.11363333184E+04  0.11363333184E+04  0.25500000920E-02 0. -1.
        2   -1    0    0  501    0  0.00000000000E+00  0.00000000000E+00 -0.25422735078E+04  0.25422735078E+04  0.25500000920E-02 0.  1.
    10030    2    1    2    0    0  0.00000000000E+00  0.00000000000E+00 -0.14059401894E+04  0.36786068262E+04  0.33993352828E+04 0.  0.
        4    1    3    3  502    0  0.62363819375E+03  0.15769956071E+04 -0.82649101770E+03  0.18865123261E+04  0.12699999809E+01 0. -1.
       -4    1    3    3    0  502 -0.62363819375E+03 -0.15769956071E+04 -0.57944917173E+03  0.17920945000E+04  0.12699999809E+01 0.  1.
</event>
<event>
 5   0  0.4764953E-08  0.3400762E+04  0.7818609E-02  0.8137719E-01
        2   -1    0    0  501    0  0.00000000000E+00  0.00000000000E+00  0.24570415366E+04  0.24570415366E+04  0.25500000920E-02 0. -1.
       -2   -1    0    0    0  501  0.00000000000E+00  0.00000000000E+00 -0.11767384056E+04  0.11767384056E+04  0.25500000920E-02 0.  1.
    10030    2    1    2    0    0  0.00000000000E+00  0.00000000000E+00  0.12803031310E+04  0.36337799422E+04  0.34007617618E+04 0.  0.
        2    1    3    3  502    0 -0.15161276499E+04 -0.22955260995E+03 -0.14501587059E+03  0.15402490234E+04  0.25500000920E-02 0.  1.
       -2    1    3    3    0  502  0.15161276499E+04  0.22955260995E+03  0.14253190016E+04  0.20935309187E+04  0.25500000920E-02 0. -1.
</event>
<event>
 5   0  0.4764953E-08  0.3402555E+04  0.7818609E-02  0.8137280E-01
       -2   -1    0    0    0  501  0.00000000000E+00  0.00000000000E+00  0.93066311550E+03  0.93066311550E+03  0.25500000920E-02 0. -1.
        2   -1    0    0  501    0  0.00000000000E+00  0.00000000000E+00 -0.31099816443E+04  0.31099816443E+04  0.25500000920E-02 0.  1.
    10030    2    1    2    0    0  0.00000000000E+00  0.00000000000E+00 -0.21793185288E+04  0.40406447598E+04  0.34025550436E+04 0.  0.
        2    1    3    3  502    0 -0.28779094754E+03 -0.13599356320E+04 -0.22544686539E+04  0.26485613952E+04  0.25500000920E-02 0.  1.
       -2    1    3    3    0  502  0.28779094754E+03  0.13599356320E+04  0.75150125133E+02  0.13920833646E+04  0.25500000920E-02 0. -1.
</event>
<event>
 5   0  0.4973409E-08  0.3402054E+04  0.7818609E-02  0.8137402E-01
       -2   -1    0    0    0  501  0.00000000000E+00  0.00000000000E+00  0.28494019556E+04  0.28494019556E+04  0.25500000920E-02 0.  1.
        2   -1    0    0  501    0  0.00000000000E+00  0.00000000000E+00 -0.10154739290E+04  0.10154739290E+04  0.25500000920E-02 0. -1.
    10030    2    1    2    0    0  0.00000000000E+00  0.00000000000E+00  0.18339280266E+04  0.38648758847E+04  0.34020543201E+04 0.  0.
        1    1    3    3  502    0 -0.15860552591E+04  0.12891403813E+02  0.16151963388E+04  0.22637572056E+04  0.50400001928E-02 0.  1.
       -1    1    3    3    0  502  0.15860552591E+04 -0.12891403813E+02  0.21873168786E+03  0.16011186791E+04  0.50400001928E-02 0. -1.
</event>
<event>
 5   0  0.1579536E-08  0.3383407E+04  0.7818609E-02  0.8141991E-01
        1   -1    0    0  501    0  0.00000000000E+00  0.00000000000E+00  0.14785117881E+04  0.14785117881E+04  0.50400001928E-02 0.  1.
       -1   -1    0    0    0  501  0.00000000000E+00  0.00000000000E+00 -0.19356361067E+04  0.19356361067E+04  0.50400001928E-02 0. -1.
    10030    2    1    2    0    0  0.00000000000E+00  0.00000000000E+00 -0.45712431864E+03  0.34141478948E+04  0.33834070410E+04 0.  0.
        5    1    3    3  502    0 -0.15174481695E+04 -0.22410583958E+02 -0.98280738568E+03  0.18080607370E+04  0.46999998093E+01 0. -1.
       -5    1    3    3    0  502  0.15174481695E+04  0.22410583958E+02  0.52568306705E+03  0.16060871578E+04  0.46999998093E+01 0.  1.
</event>
<event>
 5   0  0.1625282E-08  0.3399894E+04  0.7818609E-02  0.8137932E-01
        1   -1    0    0  501    0  0.00000000000E+00  0.00000000000E+00  0.11133635943E+04  0.11133635943E+04  0.50400001928E-02 0. -1.
       -1   -1    0    0    0  501  0.00000000000E+00  0.00000000000E+00 -0.25955758631E+04  0.25955758631E+04  0.50400001928E-02 0.  1.
    10030    2    1    2    0    0  0.00000000000E+00  0.00000000000E+00 -0.14822122688E+04  0.37089394574E+04  0.33998939232E+04 0.  0.
        1    1    3    3  502    0 -0.10837182450E+04 -0.13019572166E+04 -0.58574653478E+03  0.17923830036E+04  0.50400001928E-02 0.  1.
       -1    1    3    3    0  502  0.10837182450E+04  0.13019572166E+04 -0.89646573400E+03  0.19165564538E+04  0.50400001928E-02 0. -1.
</event>
<event>
 5   0  0.4973409E-08  0.3403283E+04  0.7818609E-02  0.8137101E-01
       -2   -1    0    0    0  501  0.00000000000E+00  0.00000000000E+00  0.17119006180E+04  0.17119006180E+04  0.25500000920E-02 0. -1.
        2   -1    0    0  501    0  0.00000000000E+00  0.00000000000E+00 -0.16914437627E+04  0.16914437627E+04  0.25500000920E-02 0.  1.
    10030    2    1    2    0    0  0.00000000000E+00  0.00000000000E+00  0.20456855278E+02  0.34033443808E+04  0.34032828991E+04 0.  0.
        1    1    3    3  502    0 -0.85065171359E+02 -0.21060319639E+02 -0.16891856907E+04  0.16914573356E+04  0.50400001928E-02 0.  1.
       -1    1    3    3    0  502  0.85065171359E+02  0.21060319639E+02  0.17096425460E+04  0.17118870452E+04  0.50400001928E-02 0. -1.
</event>
<event>
 5   0  0.1595851E-08  0.3397702E+04  0.7818609E-02  0.8138470E-01
       -1   -1    0    0    0  501  0.00000000000E+00  0.00000000000E+00  0.11266567241E+04  0.11266567241E+04  0.50400001928E-02 0. -1.
        1   -1    0    0  501    0  0.00000000000E+00  0.00000000000E+00 -0.25616456475E+04  0.25616456475E+04  0.50400001928E-02 0.  1.
    10030    2    1    2    0    0  0.00000000000E+00  0.00000000000E+00 -0.14349889233E+04  0.36883023716E+04  0.33977023375E+04 0.  0.
        2    1    3    3  502    0 -0.10404952489E+04  0.10610931846E+04  0.17603862932E+03  0.14965088401E+04  0.25500000920E-02 0. -1.
       -2    1    3    3    0  502  0.10404952489E+04 -0.10610931846E+04 -0.16110275527E+04  0.21917935315E+04  0.25500000920E-02 0.  1.
</event>
<event>
 5   0  0.1630571E-08  0.3400472E+04  0.7818609E-02  0.8137790E-01
       -1   -1    0    0    0  501  0.00000000000E+00  0.00000000000E+00  0.15980971920E+04  0.15980971920E+04  0.50400001928E-02 0.  1.
        1   -1    0    0  501    0  0.00000000000E+00  0.00000000000E+00 -0.18089030291E+04  0.18089030291E+04  0.50400001928E-02 0. -1.
    10030    2    1    2    0    0  0.00000000000E+00  0.00000000000E+00 -0.21080583714E+03  0.34070002211E+04  0.34004722327E+04 0.  0.
        3    1    3    3  502    0  0.48204283223E+03  0.13912091155E+04  0.74650860437E+03  0.16507886606E+04  0.10100000352E+00 0.  1.
       -3    1    3    3    0  502 -0.48204283223E+03 -0.13912091155E+04 -0.95731444151E+03  0.17562115605E+04  0.10100000352E+00 0. -1.
</event>
<event>
 5   0  0.1645631E-08  0.3400654E+04  0.7818609E-02  0.8137746E-01
        1   -1    0    0  501    0  0.00000000000E+00  0.00000000000E+00  0.21432655071E+04  0.21432655071E+04  0.50400001928E-02 0. -1.
       -1   -1    0    0    0  501  0.00000000000E+00  0.00000000000E+00 -0.13489281325E+04  0.13489281325E+04  0.50400001928E-02 0.  1.
    10030    2    1    2    0    0  0.00000000000E+00  0.00000000000E+00  0.79433737456E+03  0.34921936396E+04  0.34006535478E+04 0.  0.
        4    1    3    3  502    0 -0.63095161471E+03 -0.44571084574E+03  0.19526539394E+04  0.20999088356E+04  0.12699999809E+01 0. -1.
       -4    1    3    3    0  502  0.63095161471E+03  0.44571084574E+03 -0.11583165648E+04  0.13922848040E+04  0.12699999809E+01 0.  1.
</event>
<event>
 5   0  0.4973409E-08  0.3399533E+04  0.7818609E-02  0.8138021E-01
        2   -1    0    0  501    0  0.00000000000E+00  0.00000000000E+00  0.18356875624E+04  0.18356875624E+04  0.25500000920E-02 0.  1.
       -2   -1    0    0    0  501  0.00000000000E+00  0.00000000000E+00 -0.15739091838E+04  0.15739091838E+04  0.25500000920E-02 0. -1.
    10030    2    1    2    0    0  0.00000000000E+00  0.00000000000E+00  0.26177837861E+03  0.34095967462E+04  0.33995326226E+04 0.  0.
        1    1    3    3  502    0  0.36017188216E+03 -0.10814065243E+04  0.13955907547E+04  0.18018982796E+04  0.50400001928E-02 0.  1.
       -1    1    3    3    0  502 -0.36017188216E+03  0.10814065243E+04 -0.11338123761E+04  0.16076984666E+04  0.50400001928E-02 0. -1.
</event>
<event>
 5   0  0.1595851E-08  0.3400096E+04  0.7818609E-02  0.8137883E-01
        1   -1    0    0  501    0  0.00000000000E+00  0.00000000000E+00  0.13250764335E+04  0.13250764335E+04  0.50400001928E-02 0.  1.
       -1   -1    0    0    0  501  0.00000000000E+00  0.00000000000E+00 -0.21811299697E+04  0.21811299697E+04  0.50400001928E-02 0. -1.
    10030    2    1    2    0    0  0.00000000000E+00  0.00000000000E+00 -0.85605353622E+03  0.35062064032E+04  0.34000964229E+04 0.  0.
        2    1    3    3  502    0  0.46476276654E+03 -0.40586583762E+03  0.12055291183E+04  0.13542643620E+04  0.25500000920E-02 0.  1.
       -2    1    3    3    0  502 -0.46476276654E+03  0.40586583762E+03 -0.20615826545E+04  0.21519420412E+04  0.25500000920E-02 0. -1.
</event>
<event>
 5   0  0.1579536E-08  0.3402879E+04  0.7818609E-02  0.8137200E-01
       -1   -1    0    0    0  501  0.00000000000E+00  0.00000000000E+00  0.27377397017E+04  0.27377397017E+04  0.50400001928E-02 0. -1.
        1   -1    0    0  501    0  0.00000000000E+00  0.00000000000E+00 -0.10574036453E+04  0.10574036453E+04  0.50400001928E-02 0.  1.
    10030    2    1    2    0    0  0.00000000000E+00  0.00000000000E+00  0.16803360564E+04  0.37951433470E+04  0.34028787463E+04 0.  0.
        5    1    3    3  502    0 -0.90543949589E+03  0.14314475210E+04  0.66029683810E+03  0.18179319818E+04  0.46999998093E+01 0. -1.
       -5    1    3    3    0  502  0.90543949589E+03 -0.14314475210E+04  0.10200392183E+04  0.19772113652E+04  0.46999998093E+01 0.  1.
</event>
<event>
 5   0  0.1579536E-08  0.3389208E+04  0.7818609E-02  0.8140560E-01
        1   -1    0    0  501    0  0.00000000000E+00  0.00000000000E+00  0.16508155590E+04  0.16508155590E+04  0.50400001928E-02 0.  1.
       -1   -1    0    0    0  501  0.00000000000E+00  0.00000000000E+00 -0.17395537321E+04  0.17395537321E+04  0.50400001928E-02 0. -1.
    10030    2    1    2    0    0  0.00000000000E+00  0.00000000000E+00 -0.88738173112E+02  0.33903692912E+04  0.33892077934E+04 0.  0.
        5    1    3    3  502    0  0.15975473516E+03  0.45061794207E+03  0.15819439448E+04  0.16526181772E+04  0.46999998093E+01 0.  1.
       -5    1    3    3    0  502 -0.15975473516E+03 -0.45061794207E+03 -0.16706821179E+04  0.17377511140E+04  0.46999998093E+01 0. -1.
</event>
<event>
 5   0  0.4973409E-08  0.3400111E+04  0.7818609E-02  0.8137879E-01
       -2   -1    0    0    0  501  0.00000000000E+00  0.00000000000E+00  0.15812884936E+04  0.15812884936E+04  0.25500000920E-02 0. -1.
        2   -1    0    0  501    0  0.00000000000E+00  0.00000000000E+00 -0.18277429518E+04  0.18277429518E+04  0.25500000920E-02 0.  1.
    10030    2    1    2    0    0  0.00000000000E+00  0.00000000000E+00 -0.24645445825E+03  0.34090314454E+04  0.34001111152E+04 0.  0.
        1    1    3    3  502    0 -0.29581916971E+02  0.16874783209E+04 -0.32804416505E+03  0.17193228747E+04  0.50400001928E-02 0. -1.
       -1    1    3    3    0  502  0.29581916971E+02 -0.16874783209E+04  0.81589706802E+02  0.16897085706E+04  0.50400001928E-02 0.  1.
</event>
<event>
 5   0  0.1579536E-08  0.3406989E+04  0.7818609E-02  0.8136193E-01
       -1   -1    0    0    0  501  0.00000000000E+00  0.00000000000E+00  0.13424096896E+04  0.13424096896E+04  0.50400001928E-02 0. -1.
        1   -1    0    0  501    0  0.00000000000E+00  0.00000000000E+00 -0.21617046694E+04  0.21617046695E+04  0.50400001928E-02 0.  1.
    10030    2    1    2    0    0  0.00000000000E+00  0.00000000000E+00 -0.81929497986E+03  0.35041143590E+04  0.34069888725E+04 0.  0.
        5    1    3    3  502    0 -0.77093510069E+03 -0.18770430847E+03  0.11407395835E+04  0.13895620621E+04  0.46999998093E+01 0. -1.
       -5    1    3    3    0  502  0.77093510069E+03  0.18770430847E+03 -0.19600345634E+04  0.21145522970E+04  0.46999998093E+01 0.  1.
</event>
<event>
 5   0  0.4764953E-08  0.3399729E+04  0.7818609E-02  0.8137973E-01
       -2   -1    0    0    0  501  0.00000000000E+00  0.00000000000E+00  0.12516129697E+04  0.12516129697E+04  0.25500000920E-02 0.  1.
        2   -1    0    0  501    0  0.00000000000E+00  0.00000000000E+00 -0.23086529982E+04  0.23086529982E+04  0.25500000920E-02 0. -1.
    10030    2    1    2    0    0  0.00000000000E+00  0.00000000000E+00 -0.10570400285E+04  0.35602659679E+04  0.33997294216E+04 0.  0.
        2    1    3    3  502    0  0.97071444431E+03 -0.30523856685E+02  0.93246382640E+03  0.13463680870E+04  0.25500000920E-02 0.  1.
       -2    1    3    3    0  502 -0.97071444431E+03  0.30523856685E+02 -0.19895038549E+04  0.22138978809E+04  0.25500000920E-02 0. -1.
</event>
<event>
 5   0  0.1595851E-08  0.3404465E+04  0.7818609E-02  0.8136811E-01
        1   -1    0    0  501    0  0.00000000000E+00  0.00000000000E+00  0.17903648383E+04  0.17903648383E+04  0.50400001928E-02 0. -1.
       -1   -1    0    0    0  501  0.00000000000E+00  0.00000000000E+00 -0.16184387930E+04  0.16184387931E+04  0.50400001928E-02 0.  1.
    10030    2    1    2    0    0  0.00000000000E+00  0.00000000000E+00  0.17192604527E+03  0.34088036314E+04  0.34044652491E+04 0.  0.
        2    1    3    3  502    0 -0.14464532276E+04 -0.51484170783E+03 -0.65002944406E+03  0.16672813805E+04  0.25500000920E-02 0.  1.
       -2    1    3    3    0  502  0.14464532276E+04  0.51484170783E+03  0.82195548933E+03  0.17415222508E+04  0.25500000920E-02 0. -1.
</event>
<event>
 5   0  0.5001197E-08  0.3398560E+04  0.7818609E-02  0.8138260E-01
        2   -1    0    0  501    0  0.00000000000E+00  0.00000000000E+00  0.14310738616E+04  0.14310738616E+04  0.25500000920E-02 0. -1.
       -2   -1    0    0    0  501  0.00000000000E+00  0.00000000000E+00 -0.20177525513E+04  0.20177525513E+04  0.25500000920E-02 0.  1.
    10030    2    1    2    0    0  0.00000000000E+00  0.00000000000E+00 -0.58667868968E+03  0.34488264129E+04  0.33985602453E+04 0.  0.
        5    1    3    3  502    0 -0.11966899509E+04  0.76447774379E+03 -0.12404372164E+04  0.18855237037E+04  0.46999998093E+01 0.  1.
       -5    1    3    3    0  502  0.11966899509E+04 -0.76447774379E+03  0.65375852670E+03  0.15633027092E+04  0.46999998093E+01 0. -1.
</event>
<event>
 5   0  0.4775023E-08  0.3401226E+04  0.7818609E-02  0.8137606E-01
        2   -1    0    0  501    0  0.00000000000E+00  0.00000000000E+00  0.21077034341E+04  0.21077034341E+04  0.25500000920E-02 0. -1.
       -2   -1    0    0    0  501  0.00000000000E+00  0.00000000000E+00 -0.13721493251E+04  0.13721493251E+04  0.25500000920E-02 0.  1.
    10030    2    1    2    0    0  0.00000000000E+00  0.00000000000E+00  0.73555410903E+03  0.34798527592E+04  0.34012255700E+04 0.  0.
        4    1    3    3  502    0  0.10893737354E+04 -0.12772610962E+04  0.89550862538E+02  0.16811162997E+04  0.12699999809E+01 0.  1.
       -4    1    3    3    0  502 -0.10893737354E+04  0.12772610962E+04  0.64600324650E+03  0.17987364595E+04  0.12699999809E+01 0. -1.
</event>
<event>
 5   0  0.4775023E-08  0.3400347E+04  0.7818609E-02  0.8137821E-01
       -2   -1    0    0    0  501  0.00000000000E+00  0.00000000000E+00  0.13128816451E+04  0.13128816451E+04  0.25500000920E-02 0.  1.
        2   -1    0    0  501    0  0.00000000000E+00  0.00000000000E+00 -0.22017143492E+04  0.22017143492E+04  0.25500000920E-02 0. -1.
    10030    2    1    2    0    0  0.00000000000E+00  0.00000000000E+00 -0.88883270411E+03  0.35145959942E+04  0.34003472509E+04 0.  0.
        4    1    3    3  502    0  0.90406299308E+03  0.12080585194E+03 -0.19274293523E+04  0.21323483464E+04  0.12699999809E+01 0. -1.
       -4    1    3    3    0  502 -0.90406299308E+03 -0.12080585194E+03  0.10385966482E+04  0.13822476478E+04  0.12699999809E+01 0.  1.
</event>
<event>
 5   0  0.1579536E-08  0.3400236E+04  0.7818609E-02  0.8137849E-01
       -1   -1    0    0    0  501  0.00000000000E+00  0.00000000000E+00  0.15765411265E+04  0.15765411265E+04  0.50400001928E-02 0. -1.
        1   -1    0    0  501    0  0.00000000000E+00  0.00000000000E+00 -0.18333809578E+04  0.18333809578E+04  0.50400001928E-02 0.  1.
    10030    2    1    2    0    0  0.00000000000E+00  0.00000000000E+00 -0.25683983129E+03  0.34099220843E+04  0.34002355687E+04 0.  0.
        5    1    3    3  502    0 -0.47941260731E+03  0.96574538220E+03  0.11898124242E+04  0.16056700427E+04  0.46999998093E+01 0. -1.
       -5    1    3    3    0  502  0.47941260731E+03 -0.96574538220E+03 -0.14466522555E+04  0.18042520416E+04  0.46999998093E+01 0.  1.
</event>
<event>
 5   0  0.1573625E-08  0.3399580E+04  0.7818609E-02  0.8138009E-01
        3   -1    0    0  501    0  0.00000000000E+00  0.00000000000E+00  0.17500618197E+04  0.17500618226E+04  0.10100000352E+00 0.  1.
       -3   -1    0    0    0  501  0.00000000000E+00  0.00000000000E+00 -0.16509624877E+04  0.16509624908E+04  0.10100000352E+00 0. -1.
    10030    2    1    2    0    0  0.00000000000E+00  0.00000000000E+00  0.99099331966E+02  0.34010243134E+04  0.33995802245E+04 0.  0.
        4    1    3    3  502    0 -0.91838860701E+03  0.13765130428E+04 -0.33927855410E+03  0.16891824474E+04  0.12699999809E+01 0. -1.
       -4    1    3    3    0  502  0.91838860701E+03 -0.13765130428E+04  0.43837788607E+03  0.17118418660E+04  0.12699999809E+01 0.  1.
</event>
<event>
 5   0  0.1579536E-08  0.3399748E+04  0.7818609E-02  0.8137968E-01
        1   -1    0    0  501    0  0.00000000000E+00  0.00000000000E+00  0.13294722054E+04  0.13294722054E+04  0.50400001928E-02 0.  1.
       -1   -1    0    0    0  501  0.00000000000E+00  0.00000000000E+00 -0.21734730914E+04  0.21734730914E+04  0.50400001928E-02 0. -1.
    10030    2    1    2    0    0  0.00000000000E+00  0.00000000000E+00 -0.84400088592E+03  0.35029452968E+04  0.33997482638E+04 0.  0.
        5    1    3    3  502    0  0.97375634694E+03 -0.47573004243E+03 -0.17713435323E+04  0.20765838524E+04  0.46999998093E+01 0. -1.
       -5    1    3    3    0  502 -0.97375634694E+03  0.47573004243E+03  0.92734264636E+03  0.14263614445E+04  0.46999998093E+01 0.  1.
</event>
<event>
 5   0  0.4775023E-08  0.3397000E+04  0.7818609E-02  0.8138643E-01
        2   -1    0    0  501    0  0.00000000000E+00  0.00000000000E+00  0.22253721264E+04  0.22253721264E+04  0.25500000920E-02 0. -1.
       -2   -1    0    0    0  501  0.00000000000E+00  0.00000000000E+00 -0.12963688258E+04  0.12963688258E+04  0.25500000920E-02 0.  1.
    10030    2    1    2    0    0  0.00000000000E+00  0.00000000000E+00  0.92900330054E+03  0.35217409522E+04  0.33970004713E+04 0.  0.
        4    1    3    3  502    0  0.27707736883E+03  0.72614273624E+03 -0.11012028872E+04  0.13478518292E+04  0.12699999809E+01 0.  1.
       -4    1    3    3    0  502 -0.27707736883E+03 -0.72614273624E+03  0.20302061877E+04  0.21738891231E+04  0.12699999809E+01 0. -1.
</event>
<event>
 5   0  0.5001197E-08  0.3399832E+04  0.7818609E-02  0.8137948E-01
        2   -1    0    0  501    0  0.00000000000E+00  0.00000000000E+00  0.22528140635E+04  0.22528140635E+04  0.25500000920E-02 0. -1.
       -2   -1    0    0    0  501  0.00000000000E+00  0.00000000000E+00 -0.12827130728E+04  0.12827130728E+04  0.25500000920E-02 0.  1.
    10030    2    1    2    0    0  0.00000000000E+00  0.00000000000E+00  0.97010099073E+03  0.35355271364E+04  0.33998317899E+04 0.  0.
        5    1    3    3  502    0  0.23511468803E+03  0.19049715600E+03 -0.12544726563E+04  0.12904618625E+04  0.46999998093E+01 0.  1.
       -5    1    3    3    0  502 -0.23511468803E+03 -0.19049715600E+03  0.22245736471E+04  0.22450652739E+04  0.46999998093E+01 0. -1.
</event>
<event>
 5   0  0.1630571E-08  0.3399237E+04  0.7818609E-02  0.8138094E-01
       -1   -1    0    0    0  501  0.00000000000E+00  0.00000000000E+00  0.12947558826E+04  0.12947558826E+04  0.50400001928E-02 0.  1.
        1   -1    0    0  501    0  0.00000000000E+00  0.00000000000E+00 -0.22310788460E+04  0.22310788460E+04  0.50400001928E-02 0. -1.
    10030    2    1    2    0    0  0.00000000000E+00  0.00000000000E+00 -0.93632296342E+03  0.35258347285E+04  0.33992366557E+04 0.  0.
        3    1    3    3  502    0  0.12003210534E+04 -0.21047500218E+03  0.76071206205E+03  0.14365769068E+04  0.10100000352E+00 0.  1.
       -3    1    3    3    0  502 -0.12003210534E+04  0.21047500218E+03 -0.16970350255E+04  0.20892578217E+04  0.10100000352E+00 0. -1.
</event>
<event>
 5   0  0.4775023E-08  0.3400175E+04  0.7818609E-02  0.8137863E-01
       -2   -1    0    0    0  501  0.00000000000E+00  0.00000000000E+00  0.27254460207E+04  0.27254460207E+04  0.25500000920E-02 0. -1.
        2   -1    0    0  501    0  0.00000000000E+00  0.00000000000E+00 -0.10604861555E+04  0.10604861555E+04  0.25500000920E-02 0.  1.
    10030    2    1    2    0    0  0.00000000000E+00  0.00000000000E+00  0.16649598652E+04  0.37859321762E+04  0.34001751557E+04 0.  0.
        4    1    3    3  502    0 -0.13280884903E+04 -0.79776983887E+03  0.16119285393E+04  0.22357484167E+04  0.12699999809E+01 0. -1.
       -4    1    3    3    0  502  0.13280884903E+04  0.79776983887E+03  0.53031325901E+02  0.15501837595E+04  0.12699999809E+01 0.  1.
</event>
<event>
 5   0  0.4973409E-08  0.3399493E+04  0.7818609E-02  0.8138031E-01
        2   -1    0    0  501    0  0.00000000000E+00  0.00000000000E+00  0.18803517889E+04  0.18803517889E+04  0.25500000920E-02 0. -1.
       -2   -1    0    0    0  501  0.00000000000E+00  0.00000000000E+00 -0.15364885393E+04  0.15364885393E+04  0.25500000920E-02 0.  1.
    10030    2    1    2    0    0  0.00000000000E+00  0.00000000000E+00  0.34386324952E+03  0.34168403282E+04  0.33994934761E+04 0.  0.
        1    1    3    3  502    0 -0.10423803993E+04 -0.33084698239E+03 -0.11359084585E+04  0.15768020322E+04  0.50400001928E-02 0.  1.
       -1    1    3    3    0  502  0.10423803993E+04  0.33084698239E+03  0.14797717081E+04  0.18400382960E+04  0.50400001928E-02 0. -1.
</event>
<event>
 5   0  0.1630571E-08  0.3400114E+04  0.7818609E-02  0.8137878E-01
        1   -1    0    0  501    0  0.00000000000E+00  0.00000000000E+00  0.22899707105E+04  0.22899707105E+04  0.50400001928E-02 0. -1.
       -1   -1    0    0    0  501  0.00000000000E+00  0.00000000000E+00 -0.12621093776E+04  0.12621093776E+04  0.50400001928E-02 0.  1.
    10030    2    1    2    0    0  0.00000000000E+00  0.00000000000E+00  0.10278613329E+04  0.35520800881E+04  0.34001138264E+04 0.  0.
        3    1    3    3  502    0  0.51605865058E+03 -0.28266376193E+03 -0.11523416639E+04  0.12938727348E+04  0.10100000352E+00 0.  1.
       -3    1    3    3    0  502 -0.51605865058E+03  0.28266376193E+03  0.21802029968E+04  0.22582073533E+04  0.10100000352E+00 0. -1.
</event>
<event>
 5   0  0.4946315E-08  0.3400843E+04  0.7818609E-02  0.8137699E-01
       -2   -1    0    0    0  501  0.00000000000E+00  0.00000000000E+00  0.13282573323E+04  0.13282573323E+04  0.25500000920E-02 0.  1.
        2   -1    0    0  501    0  0.00000000000E+00  0.00000000000E+00 -0.21768624615E+04  0.21768624615E+04  0.25500000920E-02 0. -1.
    10030    2    1    2    0    0  0.00000000000E+00  0.00000000000E+00 -0.84860512919E+03  0.35051197939E+04  0.34008431461E+04 0.  0.
        3    1    3    3  502    0  0.10263396840E+04 -0.99837104795E+03  0.52105420720E+03  0.15236848077E+04  0.10100000352E+00 0.  1.
       -3    1    3    3    0  502 -0.10263396840E+04  0.99837104795E+03 -0.13696593364E+04  0.19814349861E+04  0.10100000352E+00 0. -1.
</event>
<event>
 5   0  0.1630571E-08  0.3400123E+04  0.7818609E-02  0.8137876E-01
        1   -1    0    0  501    0  0.00000000000E+00  0.00000000000E+00  0.19831273746E+04  0.19831273747E+04  0.50400001928E-02 0. -1.
       -1   -1    0    0    0  501  0.00000000000E+00  0.00000000000E+00 -0.14573993975E+04  0.14573993975E+04  0.50400001928E-02 0.  1.
    10030    2    1    2    0    0  0.00000000000E+00  0.00000000000E+00  0.52572797713E+03  0.34405267722E+04  0.34001227278E+04 0.  0.
        3    1    3    3  502    0  0.90937740968E+03 -0.14798337078E+03 -0.11828695755E+04  0.14993487900E+04  0.10100000352E+00 0.  1.
       -3    1    3    3    0  502 -0.90937740968E+03  0.14798337078E+03  0.17085975526E+04  0.19411779821E+04  0.10100000352E+00 0. -1.
</event>
<event>
 5   0  0.1579536E-08  0.3404665E+04  0.7818609E-02  0.8136762E-01
       -1   -1    0    0    0  501  0.00000000000E+00  0.00000000000E+00  0.11285465650E+04  0.11285465650E+04  0.50400001928E-02 0. -1.
        1   -1    0    0  501    0  0.00000000000E+00  0.00000000000E+00 -0.25678474479E+04  0.25678474479E+04  0.50400001928E-02 0.  1.
    10030    2    1    2    0    0  0.00000000000E+00  0.00000000000E+00 -0.14393008829E+04  0.36963940130E+04  0.34046646924E+04 0.  0.
        5    1    3    3  502    0  0.90232992992E+03  0.69325070356E+03  0.65498199291E+03  0.13129430077E+04  0.46999998093E+01 0. -1.
       -5    1    3    3    0  502 -0.90232992992E+03 -0.69325070356E+03 -0.20942828758E+04  0.23834510053E+04  0.46999998093E+01 0.  1.
</event>
<event>
 5   0  0.1625282E-08  0.3398325E+04  0.7818609E-02  0.8138317E-01
        1   -1    0    0  501    0  0.00000000000E+00  0.00000000000E+00  0.23063407559E+04  0.23063407559E+04  0.50400001928E-02 0.  1.
       -1   -1    0    0    0  501  0.00000000000E+00  0.00000000000E+00 -0.12518330748E+04  0.12518330748E+04  0.50400001928E-02 0. -1.
    10030    2    1    2    0    0  0.00000000000E+00  0.00000000000E+00  0.10545076812E+04  0.35581738307E+04  0.33983252581E+04 0.  0.
        1    1    3    3  502    0 -0.65216987957E+02  0.37265917530E+03  0.22616819011E+04  0.22931055663E+04  0.50400001928E-02 0.  1.
       -1    1    3    3    0  502  0.65216987957E+02 -0.37265917530E+03 -0.12071742199E+04  0.12650682644E+04  0.50400001928E-02 0. -1.
</event>
<event>
 5   0  0.1625282E-08  0.3397366E+04  0.7818609E-02  0.8138553E-01
       -1   -1    0    0    0  501  0.00000000000E+00  0.00000000000E+00  0.12706670295E+04  0.12706670295E+04  0.50400001928E-02 0. -1.
        1   -1    0    0  501    0  0.00000000000E+00  0.00000000000E+00 -0.22708733152E+04  0.22708733152E+04  0.50400001928E-02 0.  1.
    10030    2    1    2    0    0  0.00000000000E+00  0.00000000000E+00 -0.10002062857E+04  0.35415403447E+04  0.33973659501E+04 0.  0.
        1    1    3    3  502    0 -0.10934521021E+04 -0.62934612348E+02 -0.18536368156E+04  0.21530368573E+04  0.50400001928E-02 0.  1.
       -1    1    3    3    0  502  0.10934521021E+04  0.62934612348E+02  0.85343052987E+03  0.13885034873E+04  0.50400001928E-02 0. -1.
</event>
<event>
 5   0  0.4946315E-08  0.3400026E+04  0.7818609E-02  0.8137900E-01
       -2   -1    0    0    0  501  0.00000000000E+00  0.00000000000E+00  0.16642387738E+04  0.16642387738E+04  0.25500000920E-02 0. -1.
        2   -1    0    0  501    0  0.00000000000E+00  0.00000000000E+00 -0.17365561789E+04  0.17365561789E+04  0.25500000920E-02 0.  1.
    10030    2    1    2    0    0  0.00000000000E+00  0.00000000000E+00 -0.72317405089E+02  0.34007949527E+04  0.34000259562E+04 0.  0.
        3    1    3    3  502    0  0.16449742253E+04 -0.41633003522E+03 -0.13997627826E+03  0.17026051418E+04  0.10100000352E+00 0. -1.
       -3    1    3    3    0  502 -0.16449742253E+04  0.41633003522E+03  0.67658873167E+02  0.16981898108E+04  0.10100000352E+00 0.  1.
</event>
<event>
 5   0  0.1625282E-08  0.3398558E+04  0.7818609E-02  0.8138260E-01
       -1   -1    0    0    0  501  0.00000000000E+00  0.00000000000E+00  0.16895428457E+04  0.16895428457E+04  0.50400001928E-02 0.  1.
        1   -1    0    0  501    0  0.00000000000E+00  0.00000000000E+00 -0.17090708908E+04  0.17090708908E+04  0.50400001928E-02 0. -1.
    10030    2    1    2    0    0  0.00000000000E+00  0.00000000000E+00 -0.19528045067E+02  0.33986137365E+04  0.33985576331E+04 0.  0.
        1    1    3    3  502    0  0.63212831365E+03  0.10618389017E+03  0.15640113883E+04  0.16902641351E+04  0.50400001928E-02 0.  1.
       -1    1    3    3    0  502 -0.63212831365E+03 -0.10618389017E+03 -0.15835394334E+04  0.17083496014E+04  0.50400001928E-02 0. -1.
</event>
<event>
 5   0  0.1595851E-08  0.3407772E+04  0.7818609E-02  0.8136002E-01
       -1   -1    0    0    0  501  0.00000000000E+00  0.00000000000E+00  0.14740008260E+04  0.14740008261E+04  0.50400001928E-02 0.  1.
        1   -1    0    0  501    0  0.00000000000E+00  0.00000000000E+00 -0.19696237616E+04  0.19696237616E+04  0.50400001928E-02 0. -1.
    10030    2    1    2    0    0  0.00000000000E+00  0.00000000000E+00 -0.49562293551E+03  0.34436245876E+04  0.34077717362E+04 0.  0.
        2    1    3    3  502    0  0.41292458041E+03 -0.42337247819E+03 -0.18625834336E+04  0.19542180052E+04  0.25500000920E-02 0. -1.
       -2    1    3    3    0  502 -0.41292458041E+03  0.42337247819E+03  0.13669604981E+04  0.14894065825E+04  0.25500000920E-02 0.  1.
</event>
<event>
 5   0  0.1579536E-08  0.3398187E+04  0.7818609E-02  0.8138351E-01
        1   -1    0    0  501    0  0.00000000000E+00  0.00000000000E+00  0.27401772386E+04  0.27401772386E+04  0.50400001928E-02 0. -1.
       -1   -1    0    0    0  501  0.00000000000E+00  0.00000000000E+00 -0.10535519413E+04  0.10535519413E+04  0.50400001928E-02 0.  1.
    10030    2    1    2    0    0  0.00000000000E+00  0.00000000000E+00  0.16866252973E+04  0.37937291800E+04  0.33981871928E+04 0.  0.
        5    1    3    3  502    0  0.32204080453E+03  0.13667107161E+03  0.26995261534E+04  0.27221044808E+04  0.46999998093E+01 0. -1.
       -5    1    3    3    0  502 -0.32204080453E+03 -0.13667107161E+03 -0.10129008561E+04  0.10716246992E+04  0.46999998093E+01 0.  1.
</event>
<event>
 5   0  0.4775023E-08  0.3400326E+04  0.7818609E-02  0.8137826E-01
        2   -1    0    0  501    0  0.00000000000E+00  0.00000000000E+00  0.19398812606E+04  0.19398812606E+04  0.25500000920E-02 0.  1.
       -2   -1    0    0    0  501  0.00000000000E+00  0.00000000000E+00 -0.14900677499E+04  0.14900677499E+04  0.25500000920E-02 0. -1.
    10030    2    1    2    0    0  0.00000000000E+00  0.00000000000E+00  0.44981351076E+03  0.34299490105E+04  0.34003261638E+04 0.  0.
        4    1    3    3  502    0  0.46784266140E+03 -0.74806852393E+03 -0.12410501433E+04  0.15227246446E+04  0.12699999809E+01 0. -1.
       -4    1    3    3    0  502 -0.46784266140E+03  0.74806852393E+03  0.16908636540E+04  0.19072243659E+04  0.12699999809E+01 0.  1.
</event>
<event>
 5   0  0.4946315E-08  0.3397777E+04  0.7818609E-02  0.8138452E-01
       -2   -1    0    0    0  501  0.00000000000E+00  0.00000000000E+00  0.26969767817E+04  0.26969767817E+04  0.25500000920E-02 0. -1.
        2   -1    0    0  501    0  0.00000000000E+00  0.00000000000E+00 -0.10701696405E+04  0.10701696405E+04  0.25500000920E-02 0.  1.
    10030    2    1    2    0    0  0.00000000000E+00  0.00000000000E+00  0.16268071411E+04  0.37671464222E+04  0.33977773164E+04 0.  0.
        3    1    3    3  502    0 -0.32311599188E+03  0.10683476574E+04  0.22334395623E+04  0.24968025452E+04  0.10100000352E+00 0. -1.
       -3    1    3    3    0  502  0.32311599188E+03 -0.10683476574E+04 -0.60663242113E+03  0.12703438770E+04  0.10100000352E+00 0.  1.
</event>
<event>
 5   0  0.1645631E-08  0.3399840E+04  0.7818609E-02  0.8137946E-01
       -1   -1    0    0    0  501  0.00000000000E+00  0.00000000000E+00  0.16565256656E+04  0.16565256656E+04  0.50400001928E-02 0. -1.
        1   -1    0    0  501    0  0.00000000000E+00  0.00000000000E+00 -0.17444508462E+04  0.17444508462E+04  0.50400001928E-02 0.  1.
    10030    2    1    2    0    0  0.00000000000E+00  0.00000000000E+00 -0.87925180645E+02  0.34009765118E+04  0.33998397604E+04 0.  0.
        4    1    3    3  502    0 -0.51381344962E+03  0.13801481965E+04 -0.89331224869E+03  0.17224464264E+04  0.12699999809E+01 0.  1.
       -4    1    3    3    0  502  0.51381344962E+03 -0.13801481965E+04  0.80538706804E+03  0.16785300854E+04  0.12699999809E+01 0. -1.
</event>
<event>
 5   0  0.1595851E-08  0.3399244E+04  0.7818609E-02  0.8138092E-01
        1   -1    0    0  501    0  0.00000000000E+00  0.00000000000E+00  0.22199132517E+04  0.22199132517E+04  0.50400001928E-02 0. -1.
       -1   -1    0    0    0  501  0.00000000000E+00  0.00000000000E+00 -0.13012740185E+04  0.13012740185E+04  0.50400001928E-02 0.  1.
    10030    2    1    2    0    0  0.00000000000E+00  0.00000000000E+00  0.91863923323E+03  0.35211872702E+04  0.33992442911E+04 0.  0.
        2    1    3    3  502    0  0.39943401567E+03 -0.15933510939E+04  0.91132170593E+03  0.18785160348E+04  0.25500000920E-02 0.  1.
       -2    1    3    3    0  502 -0.39943401567E+03  0.15933510939E+04  0.73175272949E+01  0.16426712354E+04  0.25500000920E-02 0. -1.
</event>
<event>
 5   0  0.1645631E-08  0.3400363E+04  0.7818609E-02  0.8137817E-01
       -1   -1    0    0    0  501  0.00000000000E+00  0.00000000000E+00  0.14915064107E+04  0.14915064107E+04  0.50400001928E-02 0.  1.
        1   -1    0    0  501    0  0.00000000000E+00  0.00000000000E+00 -0.19380516223E+04  0.19380516223E+04  0.50400001928E-02 0. -1.
    10030    2    1    2    0    0  0.00000000000E+00  0.00000000000E+00 -0.44654521165E+03  0.34295580330E+04  0.34003625800E+04 0.  0.
        4    1    3    3  502    0 -0.10042864246E+04 -0.94609166929E+03 -0.12252479002E+04  0.18452410952E+04  0.12699999809E+01 0.  1.
       -4    1    3    3    0  502  0.10042864246E+04  0.94609166929E+03  0.77870268860E+03  0.15843169378E+04  0.12699999809E+01 0. -1.
</event>
<event>
 5   0  0.1630571E-08  0.3399001E+04  0.7818609E-02  0.8138151E-01
       -1   -1    0    0    0  501  0.00000000000E+00  0.00000000000E+00  0.17651632569E+04  0.17651632569E+04  0.50400001928E-02 0. -1.
        1   -1    0    0  501    0  0.00000000000E+00  0.00000000000E+00 -0.16362807567E+04  0.16362807567E+04  0.50400001928E-02 0.  1.
    10030    2    1    2    0    0  0.00000000000E+00  0.00000000000E+00  0.12888250021E+03  0.34014440135E+04  0.33990014237E+04 0.  0.
        3    1    3    3  502    0  0.16154497803E+04 -0.47339727334E+03 -0.16922105827E+03  0.16918684192E+04  0.10100000352E+00 0. -1.
       -3    1    3    3    0  502 -0.16154497803E+04  0.47339727334E+03  0.29810355848E+03  0.17095755944E+04  0.10100000352E+00 0.  1.
</event>
<event>
 5   0  0.1625282E-08  0.3405761E+04  0.7818609E-02  0.8136494E-01
       -1   -1    0    0    0  501  0.00000000000E+00  0.00000000000E+00  0.10984541285E+04  0.10984541285E+04  0.50400001928E-02 0. -1.
        1   -1    0    0  501    0  0.00000000000E+00  0.00000000000E+00 -0.26398938487E+04  0.26398938487E+04  0.50400001928E-02 0.  1.
    10030    2    1    2    0    0  0.00000000000E+00  0.00000000000E+00 -0.15414397202E+04  0.37383479772E+04  0.34057611759E+04 0.  0.
        1    1    3    3  502    0 -0.12655468847E+04  0.11085694868E+04 -0.10596074932E+04  0.19882915440E+04  0.50400001928E-02 0. -1.
       -1    1    3    3    0  502  0.12655468847E+04 -0.11085694868E+04 -0.48183222705E+03  0.17500564332E+04  0.50400001928E-02 0.  1.
</event>
<event>
 5   0  0.4775023E-08  0.3399990E+04  0.7818609E-02  0.8137909E-01
        2   -1    0    0  501    0  0.00000000000E+00  0.00000000000E+00  0.26909855341E+04  0.26909855341E+04  0.25500000920E-02 0. -1.
       -2   -1    0    0    0  501  0.00000000000E+00  0.00000000000E+00 -0.10739499408E+04  0.10739499408E+04  0.25500000920E-02 0.  1.
    10030    2    1    2    0    0  0.00000000000E+00  0.00000000000E+00  0.16170355933E+04  0.37649354749E+04  0.33999904442E+04 0.  0.
        4    1    3    3  502    0  0.14840684605E+04 -0.11548591198E+03 -0.10070368949E+03  0.14919581218E+04  0.12699999809E+01 0.  1.
       -4    1    3    3    0  502 -0.14840684605E+04  0.11548591198E+03  0.17177392828E+04  0.22729773531E+04  0.12699999809E+01 0. -1.
</event>
<event>
 5   0  0.4775023E-08  0.3399225E+04  0.7818609E-02  0.8138097E-01
       -2   -1    0    0    0  501  0.00000000000E+00  0.00000000000E+00  0.14332304962E+04  0.14332304962E+04  0.25500000920E-02 0.  1.
        2   -1    0    0  501    0  0.00000000000E+00  0.00000000000E+00 -0.20155044942E+04  0.20155044942E+04  0.25500000920E-02 0. -1.
    10030    2    1    2    0    0  0.00000000000E+00  0.00000000000E+00 -0.58227399807E+03  0.34487349904E+04  0.33992249154E+04 0.  0.
        4    1    3    3  502    0 -0.19609404705E+03 -0.44177563392E+03 -0.19443061048E+04  0.20034835732E+04  0.12699999809E+01 0. -1.
       -4    1    3    3    0  502  0.19609404705E+03  0.44177563392E+03  0.13620321068E+04  0.14452514172E+04  0.12699999809E+01 0.  1.
</event>
<event>
 5   0  0.1625282E-08  0.3399435E+04  0.7818609E-02  0.8138045E-01
       -1   -1    0    0    0  501  0.00000000000E+00  0.00000000000E+00  0.12732732025E+04  0.12732732025E+04  0.50400001928E-02 0. -1.
        1   -1    0    0  501    0  0.00000000000E+00  0.00000000000E+00 -0.22689863557E+04  0.22689863557E+04  0.50400001928E-02 0.  1.
    10030    2    1    2    0    0  0.00000000000E+00  0.00000000000E+00 -0.99571315321E+03  0.35422595581E+04  0.33994349668E+04 0.  0.
        1    1    3    3  502    0  0.12738784130E+03 -0.99717081932E+02  0.12652328191E+04  0.12755333179E+04  0.50400001928E-02 0. -1.
       -1    1    3    3    0  502 -0.12738784130E+03  0.99717081932E+02 -0.22609459723E+04  0.22667262402E+04  0.50400001928E-02 0.  1.
</event>
<event>
 5   0  0.1645631E-08  0.3399148E+04  0.7818609E-02  0.8138115E-01
        1   -1    0    0  501    0  0.00000000000E+00  0.00000000000E+00  0.24192725522E+04  0.24192725522E+04  0.50400001928E-02 0. -1.
       -1   -1    0    0    0  501  0.00000000000E+00  0.00000000000E+00 -0.11939753895E+04  0.11939753895E+04  0.50400001928E-02 0.  1.
    10030    2    1    2    0    0  0.00000000000E+00  0.00000000000E+00  0.12252971627E+04  0.36132479417E+04  0.33991480625E+04 0.  0.
        4    1    3    3  502    0 -0.68588383730E+03  0.45341617459E+02 -0.10396226426E+04  0.12463183191E+04  0.12699999809E+01 0.  1.
       -4    1    3    3    0  502  0.68588383730E+03 -0.45341617459E+02  0.22649198054E+04  0.23669296226E+04  0.12699999809E+01 0. -1.
</event>
<event>
 5   0  0.4775023E-08  0.3393312E+04  0.7818609E-02  0.8139550E-01
       -2   -1    0    0    0  501  0.00000000000E+00  0.00000000000E+00  0.31878462693E+04  0.31878462693E+04  0.25500000920E-02 0.  1.
        2   -1    0    0  501    0  0.00000000000E+00  0.00000000000E+00 -0.90300511889E+03  0.90300511890E+03  0.25500000920E-02 0. -1.
    10030    2    1    2    0    0  0.00000000000E+00  0.00000000000E+00  0.22848411504E+04  0.40908513882E+04  0.33933119511E+04 0.  0.
        4    1    3    3  502    0  0.56215908431E+03  0.11199558708E+04  0.25213632924E+04  0.28155991287E+04  0.12699999809E+01 0.  1.
       -4    1    3    3    0  502 -0.56215908431E+03 -0.11199558708E+04 -0.23652214199E+03  0.12752522594E+04  0.12699999809E+01 0. -1.
</event>
<event>
 5   0  0.4775023E-08  0.3403711E+04  0.7818609E-02  0.8136996E-01
       -2   -1    0    0    0  501  0.00000000000E+00  0.00000000000E+00  0.14769437062E+04  0.14769437062E+04  0.25500000920E-02 0.  1.
        2   -1    0    0  501    0  0.00000000000E+00  0.00000000000E+00 -0.19610176712E+04  0.19610176712E+04  0.25500000920E-02 0. -1.
    10030    2    1    2    0    0  0.00000000000E+00  0.00000000000E+00 -0.48407396494E+03  0.34379613774E+04  0.34037113316E+04 0.  0.
        4    1    3    3  502    0  0.89370500413E+03  0.10931868135E+04 -0.12016203627E+04  0.18540925415E+04  0.12699999809E+01 0. -1.
       -4    1    3    3    0  502 -0.89370500413E+03 -0.10931868135E+04  0.71754639772E+03  0.15838688359E+04  0.12699999809E+01 0.  1.
</event>
<event>
 5   0  0.5001197E-08  0.3399538E+04  0.7818609E-02  0.8138020E-01
       -2   -1    0    0    0  501  0.00000000000E+00  0.00000000000E+00  0.15390672063E+04  0.15390672063E+04  0.25500000920E-02 0.  1.
        2   -1    0    0  501    0  0.00000000000E+00  0.00000000000E+00 -0.18772508390E+04  0.18772508390E+04  0.25500000920E-02 0. -1.
    10030    2    1    2    0    0  0.00000000000E+00  0.00000000000E+00 -0.33818363273E+03  0.34163180454E+04  0.33995383242E+04 0.  0.
        5    1    3    3  502    0  0.44235846523E+03  0.16311687229E+04 -0.35109538755E+03  0.17261756792E+04  0.46999998093E+01 0. -1.
       -5    1    3    3    0  502 -0.44235846523E+03 -0.16311687229E+04  0.12911754822E+02  0.16901423661E+04  0.46999998093E+01 0.  1.
</event>
<event>
 5   0  0.4973409E-08  0.3399521E+04  0.7818609E-02  0.8138024E-01
        2   -1    0    0  501    0  0.00000000000E+00  0.00000000000E+00  0.14710785223E+04  0.14710785223E+04  0.25500000920E-02 0. -1.
       -2   -1    0    0    0  501  0.00000000000E+00  0.00000000000E+00 -0.19639920839E+04  0.19639920839E+04  0.25500000920E-02 0.  1.
    10030    2    1    2    0    0  0.00000000000E+00  0.00000000000E+00 -0.49291356157E+03  0.34350706062E+04  0.33995214796E+04 0.  0.
        1    1    3    3  502    0  0.78893213191E+02  0.40172064865E+03  0.14205166073E+04  0.14783338764E+04  0.50400001928E-02 0. -1.
       -1    1    3    3    0  502 -0.78893213191E+02 -0.40172064865E+03 -0.19134301688E+04  0.19567367298E+04  0.50400001928E-02 0.  1.
</event>
<event>
 5   0  0.1579536E-08  0.3400498E+04  0.7818609E-02  0.8137784E-01
       -1   -1    0    0    0  501  0.00000000000E+00  0.00000000000E+00  0.16706553656E+04  0.16706553656E+04  0.50400001928E-02 0. -1.
        1   -1    0    0  501    0  0.00000000000E+00  0.00000000000E+00 -0.17303671122E+04  0.17303671123E+04  0.50400001928E-02 0.  1.
    10030    2    1    2    0    0  0.00000000000E+00  0.00000000000E+00 -0.59711746683E+02  0.34010224778E+04  0.34004982579E+04 0.  0.
        5    1    3    3  502    0  0.16521998620E+04  0.39875008439E+03 -0.75239036673E+02  0.17013080310E+04  0.46999998093E+01 0.  1.
       -5    1    3    3    0  502 -0.16521998620E+04 -0.39875008439E+03  0.15527289990E+02  0.16997144468E+04  0.46999998093E+01 0. -1.
</event>
<event>
 5   0  0.5001197E-08  0.3398010E+04  0.7818609E-02  0.8138395E-01
       -2   -1    0    0    0  501  0.00000000000E+00  0.00000000000E+00  0.11300081212E+04  0.11300081212E+04  0.25500000920E-02 0. -1.
        2   -1    0    0  501    0  0.00000000000E+00  0.00000000000E+00 -0.25545103765E+04  0.25545103765E+04  0.25500000920E-02 0.  1.
    10030    2    1    2    0    0  0.00000000000E+00  0.00000000000E+00 -0.14245022553E+04  0.36845184977E+04  0.33980096946E+04 0.  0.
        5    1    3    3  502    0 -0.33658472481E+03 -0.92367171075E+03 -0.22147778305E+04  0.24231635592E+04  0.46999998093E+01 0.  1.
       -5    1    3    3    0  502  0.33658472481E+03  0.92367171075E+03  0.79027557521E+03  0.12613549385E+04  0.46999998093E+01 0. -1.
</event>
<event>
 5   0  0.1595851E-08  0.3396759E+04  0.7818609E-02  0.8138702E-01
        1   -1    0    0  501    0  0.00000000000E+00  0.00000000000E+00  0.23151821925E+04  0.23151821926E+04  0.50400001928E-02 0. -1.
       -1   -1    0    0    0  501  0.00000000000E+00  0.00000000000E+00 -0.12459034968E+04  0.12459034968E+04  0.50400001928E-02 0.  1.
    10030    2    1    2    0    0  0.00000000000E+00  0.00000000000E+00  0.10692786958E+04  0.35610856893E+04  0.33967593906E+04 0.  0.
        2    1    3    3  502    0  0.10207584308E+04 -0.11953533423E+04  0.12089311946E+04  0.19830108472E+04  0.25500000920E-02 0. -1.
       -2    1    3    3    0  502 -0.10207584308E+04  0.11953533423E+04 -0.13965249878E+03  0.15780748421E+04  0.25500000920E-02 0.  1.
</event>
<event>
 5   0  0.5001197E-08  0.3399608E+04  0.7818609E-02  0.8138002E-01
       -2   -1    0    0    0  501  0.00000000000E+00  0.00000000000E+00  0.12786487003E+04  0.12786487003E+04  0.25500000920E-02 0.  1.
        2   -1    0    0  501    0  0.00000000000E+00  0.00000000000E+00 -0.22596778614E+04  0.22596778614E+04  0.25500000920E-02 0. -1.
    10030    2    1    2    0    0  0.00000000000E+00  0.00000000000E+00 -0.98102916114E+03  0.35383265618E+04  0.33996083072E+04 0.  0.
        5    1    3    3  502    0  0.15110886687E+03 -0.13720848946E+04 -0.15228859525E+04  0.20553964488E+04  0.46999998093E+01 0. -1.
       -5    1    3    3    0  502 -0.15110886687E+03  0.13720848946E+04  0.54185679136E+03  0.14829301129E+04  0.46999998093E+01 0.  1.
</event>
<event>
 5   0  0.1630571E-08  0.3400663E+04  0.7818609E-02  0.8137744E-01
       -1   -1    0    0    0  501  0.00000000000E+00  0.00000000000E+00  0.13383567677E+04  0.13383567677E+04  0.50400001928E-02 0. -1.
        1   -1    0    0  501    0  0.00000000000E+00  0.00000000000E+00 -0.21602066118E+04  0.21602066118E+04  0.50400001928E-02 0.  1.
    10030    2    1    2    0    0  0.00000000000E+00  0.00000000000E+00 -0.82184984413E+03  0.34985633795E+04  0.34006629581E+04 0.  0.
        3    1    3    3  502    0  0.13268963663E+04  0.33269343918E+03  0.62799279895E+03  0.15052288388E+04  0.10100000352E+00 0. -1.
       -3    1    3    3    0  502 -0.13268963663E+04 -0.33269343918E+03 -0.14498426431E+04  0.19933345407E+04  0.10100000352E+00 0.  1.
</event>
<event>
 5   0  0.1645631E-08  0.3399652E+04  0.7818609E-02  0.8137992E-01
       -1   -1    0    0    0  501  0.00000000000E+00  0.00000000000E+00  0.10359659624E+04  0.10359659624E+04  0.50400001928E-02 0. -1.
        1   -1    0    0  501    0  0.00000000000E+00  0.00000000000E+00 -0.27890954701E+04  0.27890954701E+04  0.50400001928E-02 0.  1.
    10030    2    1    2    0    0  0.00000000000E+00  0.00000000000E+00 -0.17531295077E+04  0.38250614325E+04  0.33996517309E+04 0.  0.
        4    1    3    3  502    0 -0.14984287258E+04 -0.23306790122E+03 -0.12482094327E+02  0.15164981729E+04  0.12699999809E+01 0. -1.
       -4    1    3    3    0  502  0.14984287258E+04  0.23306790122E+03 -0.17406474134E+04  0.23085632596E+04  0.12699999809E+01 0.  1.
</event>
<event>
 5   0  0.1630571E-08  0.3396866E+04  0.7818609E-02  0.8138676E-01
        1   -1    0    0  501    0  0.00000000000E+00  0.00000000000E+00  0.28812023791E+04  0.28812023791E+04  0.50400001928E-02 0. -1.
       -1   -1    0    0    0  501  0.00000000000E+00  0.00000000000E+00 -0.10012053570E+04  0.10012053570E+04  0.50400001928E-02 0.  1.
    10030    2    1    2    0    0  0.00000000000E+00  0.00000000000E+00  0.18799970220E+04  0.38824077361E+04  0.33968663539E+04 0.  0.
        3    1    3    3  502    0 -0.13979879066E+03 -0.27751278355E+03  0.28484374713E+04  0.28653364697E+04  0.10100000352E+00 0. -1.
       -3    1    3    3    0  502  0.13979879066E+03  0.27751278355E+03 -0.96844044922E+03  0.10170712663E+04  0.10100000352E+00 0.  1.
</event>
<event>
 5   0  0.1630571E-08  0.3397371E+04  0.7818609E-02  0.8138552E-01
       -1   -1    0    0    0  501  0.00000000000E+00  0.00000000000E+00  0.16144007596E+04  0.16144007596E+04  0.50400001928E-02 0. -1.
        1   -1    0    0  501    0  0.00000000000E+00  0.00000000000E+00 -0.17873702582E+04  0.17873702582E+04  0.50400001928E-02 0.  1.
    10030    2    1    2    0    0  0.00000000000E+00  0.00000000000E+00 -0.17296949855E+03  0.34017710178E+04  0.33973706907E+04 0.  0.
        3    1    3    3  502    0 -0.69966647654E+03  0.10494137367E+04  0.10528508478E+04  0.16429538298E+04  0.10100000352E+00 0. -1.
       -3    1    3    3    0  502  0.69966647654E+03 -0.10494137367E+04 -0.12258203463E+04  0.17588171880E+04  0.10100000352E+00 0.  1.
</event>
<event>
 5   0  0.4764953E-08  0.3391458E+04  0.7818609E-02  0.8140006E-01
        2   -1    0    0  501    0  0.00000000000E+00  0.00000000000E+00  0.19688536263E+04  0.19688536263E+04  0.25500000920E-02 0. -1.
       -2   -1    0    0    0  501  0.00000000000E+00  0.00000000000E+00 -0.14604928887E+04  0.14604928887E+04  0.25500000920E-02 0.  1.
    10030    2    1    2    0    0  0.00000000000E+00  0.00000000000E+00  0.50836073761E+03  0.34293465151E+04  0.33914579285E+04 0.  0.
        2    1    3    3  502    0  0.86770788535E+03 -0.81673019165E+03  0.14741127147E+04  0.18955140400E+04  0.25500000920E-02 0. -1.
       -2    1    3    3    0  502 -0.86770788535E+03  0.81673019165E+03 -0.96575197709E+03  0.15338324750E+04  0.25500000920E-02 0.  1.
</event>
<event>
 5   0  0.1579536E-08  0.3400345E+04  0.7818609E-02  0.8137822E-01
        1   -1    0    0  501    0  0.00000000000E+00  0.00000000000E+00  0.18792289869E+04  0.18792289869E+04  0.50400001928E-02 0. -1.
       -1   -1    0    0    0  501  0.00000000000E+00  0.00000000000E+00 -0.15381764052E+04  0.15381764052E+04  0.50400001928E-02 0.  1.
    10030    2    1    2    0    0  0.00000000000E+00  0.00000000000E+00  0.34105258174E+03  0.34174053921E+04  0.34003445047E+04 0.  0.
        5    1    3    3  502    0  0.97950676754E+03  0.13885400653E+04  0.11469056703E+03  0.17031303640E+04  0.46999998093E+01 0. -1.
       -5    1    3    3    0  502 -0.97950676754E+03 -0.13885400653E+04  0.22636201471E+03  0.17142750282E+04  0.46999998093E+01 0.  1.
</event>
<event>
 5   0  0.1595851E-08  0.3399614E+04  0.7818609E-02  0.8138001E-01
        1   -1    0    0  501    0  0.00000000000E+00  0.00000000000E+00  0.12640100930E+04  0.12640100930E+04  0.50400001928E-02 0. -1.
       -1   -1    0    0    0  501  0.00000000000E+00  0.00000000000E+00 -0.22858551964E+04  0.22858551964E+04  0.50400001928E-02 0.  1.
    10030    2    1    2    0    0  0.00000000000E+00  0.00000000000E+00 -0.10218451034E+04  0.35498652895E+04  0.33996141190E+04 0.  0.
        2    1    3    3  502    0  0.99489018358E+03  0.13559676932E+04 -0.25325940852E+03  0.17007631200E+04  0.25500000920E-02 0.  1.
       -2    1    3    3    0  502 -0.99489018358E+03 -0.13559676932E+04 -0.76858569491E+03  0.18491021694E+04  0.25500000920E-02 0. -1.
</event>
<event>
 5   0  0.1630571E-08  0.3400608E+04  0.7818609E-02  0.8137757E-01
       -1   -1    0    0    0  501  0.00000000000E+00  0.00000000000E+00  0.14346657366E+04  0.14346657366E+04  0.50400001928E-02 0. -1.
        1   -1    0    0  501    0  0.00000000000E+00  0.00000000000E+00 -0.20151264649E+04  0.20151264649E+04  0.50400001928E-02 0.  1.
    10030    2    1    2    0    0  0.00000000000E+00  0.00000000000E+00 -0.58046072826E+03  0.34497922015E+04  0.34006075305E+04 0.  0.
        3    1    3    3  502    0  0.78631685288E+03 -0.93513020511E+03 -0.14898179795E+04  0.19267382582E+04  0.10100000352E+00 0.  1.
       -3    1    3    3    0  502 -0.78631685288E+03  0.93513020511E+03  0.90935725121E+03  0.15230539433E+04  0.10100000352E+00 0. -1.
</event>
<event>
 5   0  0.4973409E-08  0.3398050E+04  0.7818609E-02  0.8138385E-01
        2   -1    0    0  501    0  0.00000000000E+00  0.00000000000E+00  0.27994683700E+04  0.27994683700E+04  0.25500000920E-02 0.  1.
       -2   -1    0    0    0  501  0.00000000000E+00  0.00000000000E+00 -0.10311550020E+04  0.10311550020E+04  0.25500000920E-02 0. -1.
    10030    2    1    2    0    0  0.00000000000E+00  0.00000000000E+00  0.17683133680E+04  0.38306233720E+04  0.33980499188E+04 0.  0.
        1    1    3    3  502    0 -0.47670449292E+03 -0.15420108670E+04  0.28589975842E+03  0.16391410432E+04  0.50400001928E-02 0. -1.
       -1    1    3    3    0  502  0.47670449292E+03  0.15420108670E+04  0.14824136096E+04  0.21914823288E+04  0.50400001928E-02 0.  1.
</event>
<event>
 5   0  0.4764953E-08  0.3396535E+04  0.7818609E-02  0.8138757E-01
       -2   -1    0    0    0  501  0.00000000000E+00  0.00000000000E+00  0.11363815524E+04  0.11363815524E+04  0.25500000920E-02 0. -1.
        2   -1    0    0  501    0  0.00000000000E+00  0.00000000000E+00 -0.25379786311E+04  0.25379786311E+04  0.25500000920E-02 0.  1.
    10030    2    1    2    0    0  0.00000000000E+00  0.00000000000E+00 -0.14015970787E+04  0.36743601835E+04  0.33965347616E+04 0.  0.
        2    1    3    3  502    0 -0.15618072894E+04 -0.61155960005E+03 -0.41281916526E+03  0.17273293887E+04  0.25500000920E-02 0. -1.
       -2    1    3    3    0  502  0.15618072894E+04  0.61155960005E+03 -0.98877791349E+03  0.19470307948E+04  0.25500000920E-02 0.  1.
</event>
<event>
 5   0  0.1630571E-08  0.3404855E+04  0.7818609E-02  0.8136716E-01
       -1   -1    0    0    0  501  0.00000000000E+00  0.00000000000E+00  0.12958490085E+04  0.12958490085E+04  0.50400001928E-02 0. -1.
        1   -1    0    0  501    0  0.00000000000E+00  0.00000000000E+00 -0.22365721127E+04  0.22365721127E+04  0.50400001928E-02 0.  1.
    10030    2    1    2    0    0  0.00000000000E+00  0.00000000000E+00 -0.94072310417E+03  0.35324211212E+04  0.34048552126E+04 0.  0.
        3    1    3    3  502    0  0.59229843159E+03 -0.22306972829E+03  0.11692554542E+04  0.13295622826E+04  0.10100000352E+00 0. -1.
       -3    1    3    3    0  502 -0.59229843159E+03  0.22306972829E+03 -0.21099785584E+04  0.22028588386E+04  0.10100000352E+00 0.  1.
</event>
<event>
 5   0  0.4973409E-08  0.3400009E+04  0.7818609E-02  0.8137904E-01
        2   -1    0    0  501    0  0.00000000000E+00  0.00000000000E+00  0.19107848024E+04  0.19107848024E+04  0.25500000920E-02 0. -1.
       -2   -1    0    0    0  501  0.00000000000E+00  0.00000000000E+00 -0.15124758337E+04  0.15124758337E+04  0.25500000920E-02 0.  1.
    10030    2    1    2    0    0  0.00000000000E+00  0.00000000000E+00  0.39830896872E+03  0.34232606361E+04  0.34000093159E+04 0.  0.
        1    1    3    3  502    0  0.70540370713E+03 -0.14085852506E+04 -0.44420596074E+03  0.16367729634E+04  0.50400001928E-02 0. -1.
       -1    1    3    3    0  502 -0.70540370713E+03  0.14085852506E+04  0.84251492946E+03  0.17864876727E+04  0.50400001928E-02 0.  1.
</event>
<event>
 5   0  0.1625282E-08  0.3394328E+04  0.7818609E-02  0.8139300E-01
       -1   -1    0    0    0  501  0.00000000000E+00  0.00000000000E+00  0.16674116144E+04  0.16674116144E+04  0.50400001928E-02 0.  1.
        1   -1    0    0  501    0  0.00000000000E+00  0.00000000000E+00 -0.17274474756E+04  0.17274474756E+04  0.50400001928E-02 0. -1.
    10030    2    1    2    0    0  0.00000000000E+00  0.00000000000E+00 -0.60035861159E+02  0.33948590900E+04  0.33943282011E+04 0.  0.
        1    1    3    3  502    0 -0.92807278809E+02  0.24340969798E+03  0.16472966967E+04  0.16677673336E+04  0.50400001928E-02 0.  1.
       -1    1    3    3    0  502  0.92807278809E+02 -0.24340969798E+03 -0.17073325578E+04  0.17270917564E+04  0.50400001928E-02 0. -1.
</event>
<event>
 5   0  0.1630571E-08  0.3399198E+04  0.7818609E-02  0.8138103E-01
        1   -1    0    0  501    0  0.00000000000E+00  0.00000000000E+00  0.10520090888E+04  0.10520090888E+04  0.50400001928E-02 0.  1.
       -1   -1    0    0    0  501  0.00000000000E+00  0.00000000000E+00 -0.27458282348E+04  0.27458282348E+04  0.50400001928E-02 0. -1.
    10030    2    1    2    0    0  0.00000000000E+00  0.00000000000E+00 -0.16938191460E+04  0.37978373237E+04  0.33991977050E+04 0.  0.
        3    1    3    3  502    0 -0.72992901243E+03 -0.62265932081E+03  0.72051771739E+03  0.11998528177E+04  0.10100000352E+00 0.  1.
       -3    1    3    3    0  502  0.72992901243E+03  0.62265932081E+03 -0.24143368634E+04  0.25979845059E+04  0.10100000352E+00 0. -1.
</event>
<event>
 5   0  0.4775023E-08  0.3400379E+04  0.7818609E-02  0.8137813E-01
        2   -1    0    0  501    0  0.00000000000E+00  0.00000000000E+00  0.22834146554E+04  0.22834146554E+04  0.25500000920E-02 0. -1.
       -2   -1    0    0    0  501  0.00000000000E+00  0.00000000000E+00 -0.12659308140E+04  0.12659308140E+04  0.25500000920E-02 0.  1.
    10030    2    1    2    0    0  0.00000000000E+00  0.00000000000E+00  0.10174838414E+04  0.35493454694E+04  0.34003793749E+04 0.  0.
        4    1    3    3  502    0 -0.44572075876E+02 -0.14851132092E+04  0.13714454894E+04  0.20219822594E+04  0.12699999809E+01 0. -1.
       -4    1    3    3    0  502  0.44572075876E+02  0.14851132092E+04 -0.35396164798E+03  0.15273632100E+04  0.12699999809E+01 0.  1.
</event>
<event>
 5   0  0.5001197E-08  0.3402527E+04  0.7818609E-02  0.8137286E-01
        2   -1    0    0  501    0  0.00000000000E+00  0.00000000000E+00  0.20821117259E+04  0.20821117259E+04  0.25500000920E-02 0.  1.
       -2   -1    0    0    0  501  0.00000000000E+00  0.00000000000E+00 -0.13900779630E+04  0.13900779630E+04  0.25500000920E-02 0. -1.
    10030    2    1    2    0    0  0.00000000000E+00  0.00000000000E+00  0.69203376295E+03  0.34721896889E+04  0.34025270766E+04 0.  0.
        5    1    3    3  502    0 -0.37895127653E+03  0.12665781351E+04 -0.74662956492E+03  0.15183221132E+04  0.46999998093E+01 0. -1.
       -5    1    3    3    0  502  0.37895127653E+03 -0.12665781351E+04  0.14386633279E+04  0.19538675757E+04  0.46999998093E+01 0.  1.
</event>
<event>
 5   0  0.4973409E-08  0.3399745E+04  0.7818609E-02  0.8137969E-01
        2   -1    0    0  501    0  0.00000000000E+00  0.00000000000E+00  0.19140927396E+04  0.19140927396E+04  0.25500000920E-02 0.  1.
       -2   -1    0    0    0  501  0.00000000000E+00  0.00000000000E+00 -0.15096273771E+04  0.15096273771E+04  0.25500000920E-02 0. -1.
    10030    2    1    2    0    0  0.00000000000E+00  0.00000000000E+00  0.40446536251E+03  0.34237201168E+04  0.33997451682E+04 0.  0.
        1    1    3    3  502    0 -0.56500505426E+03 -0.85511185972E+03  0.15679376806E+04  0.18731992885E+04  0.50400001928E-02 0.  1.
       -1    1    3    3    0  502  0.56500505426E+03  0.85511185972E+03 -0.11634723181E+04  0.15505208283E+04  0.50400001928E-02 0. -1.
</event>
<event>
 5   0  0.5001197E-08  0.3400946E+04  0.7818609E-02  0.8137674E-01
       -2   -1    0    0    0  501  0.00000000000E+00  0.00000000000E+00  0.12472191950E+04  0.12472191950E+04  0.25500000920E-02 0. -1.
        2   -1    0    0  501    0  0.00000000000E+00  0.00000000000E+00 -0.23184448725E+04  0.23184448725E+04  0.25500000920E-02 0.  1.
    10030    2    1    2    0    0  0.00000000000E+00  0.00000000000E+00 -0.10712256775E+04  0.35656640675E+04  0.34009463080E+04 0.  0.
        5    1    3    3  502    0  0.75311030597E+03  0.78475800903E+02 -0.21319370100E+04  0.22624126699E+04  0.46999998093E+01 0.  1.
       -5    1    3    3    0  502 -0.75311030597E+03 -0.78475800903E+02  0.10607113326E+04  0.13032513976E+04  0.46999998093E+01 0. -1.
</event>
<event>
 5   0  0.4775023E-08  0.3403318E+04  0.7818609E-02  0.8137092E-01
        2   -1    0    0  501    0  0.00000000000E+00  0.00000000000E+00  0.19440687347E+04  0.19440687347E+04  0.25500000920E-02 0. -1.
       -2   -1    0    0    0  501  0.00000000000E+00  0.00000000000E+00 -0.14894760814E+04  0.14894760814E+04  0.25500000920E-02 0.  1.
    10030    2    1    2    0    0  0.00000000000E+00  0.00000000000E+00  0.45459265325E+03  0.34335448161E+04  0.34033183107E+04 0.  0.
        4    1    3    3  502    0  0.23415166693E+03 -0.18790548426E+03 -0.14625445542E+04  0.14930417476E+04  0.12699999809E+01 0.  1.
       -4    1    3    3    0  502 -0.23415166693E+03  0.18790548426E+03  0.19171372074E+04  0.19405030686E+04  0.12699999809E+01 0. -1.
</event>
<event>
 5   0  0.1630571E-08  0.3399726E+04  0.7818609E-02  0.8137974E-01
       -1   -1    0    0    0  501  0.00000000000E+00  0.00000000000E+00  0.11382304603E+04  0.11382304603E+04  0.50400001928E-02 0.  1.
        1   -1    0    0  501    0  0.00000000000E+00  0.00000000000E+00 -0.25386189198E+04  0.25386189198E+04  0.50400001928E-02 0. -1.
    10030    2    1    2    0    0  0.00000000000E+00  0.00000000000E+00 -0.14003884595E+04  0.36768493801E+04  0.33997255076E+04 0.  0.
        3    1    3    3  502    0  0.13819083599E+04 -0.74796117281E+03  0.10543363767E+01  0.15713426593E+04  0.10100000352E+00 0.  1.
       -3    1    3    3    0  502 -0.13819083599E+04  0.74796117281E+03 -0.14014427958E+04  0.21055067208E+04  0.10100000352E+00 0. -1.
</event>
<event>
 5   0  0.1630571E-08  0.3398558E+04  0.7818609E-02  0.8138260E-01
        1   -1    0    0  501    0  0.00000000000E+00  0.00000000000E+00  0.14086645843E+04  0.14086645843E+04  0.50400001928E-02 0. -1.
       -1   -1    0    0    0  501  0.00000000000E+00  0.00000000000E+00 -0.20498481023E+04  0.20498481023E+04  0.50400001928E-02 0.  1.
    10030    2    1    2    0    0  0.00000000000E+00  0.00000000000E+00 -0.64118351801E+03  0.34585126867E+04  0.33985575911E+04 0.  0.
        3    1    3    3  502    0 -0.19888594444E+02 -0.61637035681E+03  0.12907688083E+04  0.14305216180E+04  0.10100000352E+00 0. -1.
       -3    1    3    3    0  502  0.19888594444E+02  0.61637035681E+03 -0.19319523263E+04  0.20279910686E+04  0.10100000352E+00 0.  1.
</event>
<event>
 5   0  0.4946315E-08  0.3400052E+04  0.7818609E-02  0.8137894E-01
       -2   -1    0    0    0  501  0.00000000000E+00  0.00000000000E+00  0.14409907868E+04  0.14409907868E+04  0.25500000920E-02 0. -1.
        2   -1    0    0  501    0  0.00000000000E+00  0.00000000000E+00 -0.20056254337E+04  0.20056254337E+04  0.25500000920E-02 0.  1.
    10030    2    1    2    0    0  0.00000000000E+00  0.00000000000E+00 -0.56463464688E+03  0.34466162205E+04  0.34000516300E+04 0.  0.
        3    1    3    3  502    0 -0.12215475441E+04  0.48310611647E+03 -0.13762245430E+04  0.19025151577E+04  0.10100000352E+00 0.  1.
       -3    1    3    3    0  502  0.12215475441E+04 -0.48310611647E+03  0.81158989616E+03  0.15441010628E+04  0.10100000352E+00 0. -1.
</event>
<event>
 5   0  0.4775023E-08  0.3399379E+04  0.7818609E-02  0.8138059E-01
       -2   -1    0    0    0  501  0.00000000000E+00  0.00000000000E+00  0.95960622331E+03  0.95960622332E+03  0.25500000920E-02 0. -1.
        2   -1    0    0  501    0  0.00000000000E+00  0.00000000000E+00 -0.30105512081E+04  0.30105512081E+04  0.25500000920E-02 0.  1.
    10030    2    1    2    0    0  0.00000000000E+00  0.00000000000E+00 -0.20509449848E+04  0.39701574314E+04  0.33993785755E+04 0.  0.
        4    1    3    3  502    0  0.65462219417E+03  0.14717711160E+04 -0.39188801731E+03  0.16577750951E+04  0.12699999809E+01 0. -1.
       -4    1    3    3    0  502 -0.65462219417E+03 -0.14717711160E+04 -0.16590569675E+04  0.23123823363E+04  0.12699999809E+01 0.  1.
</event>
<event>
 5   0  0.1595851E-08  0.3400262E+04  0.7818609E-02  0.8137842E-01
       -1   -1    0    0    0  501  0.00000000000E+00  0.00000000000E+00  0.20304193411E+04  0.20304193411E+04  0.50400001928E-02 0.  1.
        1   -1    0    0  501    0  0.00000000000E+00  0.00000000000E+00 -0.14235706345E+04  0.14235706345E+04  0.50400001928E-02 0. -1.
    10030    2    1    2    0    0  0.00000000000E+00  0.00000000000E+00  0.60684870661E+03  0.34539899757E+04  0.34002619604E+04 0.  0.
        2    1    3    3  502    0 -0.16502052197E+04 -0.99139394976E+02  0.70648045103E+03  0.17978099217E+04  0.25500000920E-02 0.  1.
       -2    1    3    3    0  502  0.16502052197E+04  0.99139394976E+02 -0.99631744421E+02  0.16561800540E+04  0.25500000920E-02 0. -1.
</event>
<event>
 5   0  0.1625282E-08  0.3398952E+04  0.7818609E-02  0.8138164E-01
        1   -1    0    0  501    0  0.00000000000E+00  0.00000000000E+00  0.15603474928E+04  0.15603474928E+04  0.50400001928E-02 0. -1.
       -1   -1    0    0    0  501  0.00000000000E+00  0.00000000000E+00 -0.18510100810E+04  0.18510100810E+04  0.50400001928E-02 0.  1.
    10030    2    1    2    0    0  0.00000000000E+00  0.00000000000E+00 -0.29066258822E+03  0.34113575738E+04  0.33989521556E+04 0.  0.
        1    1    3    3  502    0 -0.21377446604E+03  0.16836199280E+04 -0.23478208256E+03  0.17133003854E+04  0.50400001928E-02 0.  1.
       -1    1    3    3    0  502  0.21377446604E+03 -0.16836199280E+04 -0.55880505655E+02  0.16980571884E+04  0.50400001928E-02 0. -1.
</event>
<event>
 5   0  0.1595851E-08  0.3400263E+04  0.7818609E-02  0.8137842E-01
        1   -1    0    0  501    0  0.00000000000E+00  0.00000000000E+00  0.31500417641E+04  0.31500417641E+04  0.50400001928E-02 0.  1.
       -1   -1    0    0    0  501  0.00000000000E+00  0.00000000000E+00 -0.91758996299E+03  0.91758996301E+03  0.50400001928E-02 0. -1.
    10030    2    1    2    0    0  0.00000000000E+00  0.00000000000E+00  0.22324518011E+04  0.40676317271E+04  0.34002627579E+04 0.  0.
        2    1    3    3  502    0  0.36562976374E+02 -0.63291618975E+02 -0.91570944853E+03  0.91862205199E+03  0.25500000920E-02 0. -1.
       -2    1    3    3    0  502 -0.36562976374E+02  0.63291618975E+02  0.31481612496E+04  0.31490096751E+04  0.25500000920E-02 0.  1.
</event>
<event>
 5   0  0.4775023E-08  0.3399647E+04  0.7818609E-02  0.8137993E-01
        2   -1    0    0  501    0  0.00000000000E+00  0.00000000000E+00  0.12226474735E+04  0.12226474735E+04  0.25500000920E-02 0.  1.
       -2   -1    0    0    0  501  0.00000000000E+00  0.00000000000E+00 -0.23632319768E+04  0.23632319768E+04  0.25500000920E-02 0. -1.
    10030    2    1    2    0    0  0.00000000000E+00  0.00000000000E+00 -0.11405845033E+04  0.35858794503E+04  0.33996468086E+04 0.  0.
        4    1    3    3  502    0  0.75137090560E+03 -0.13059805313E+04 -0.14003274478E+04  0.20569545352E+04  0.12699999809E+01 0. -1.
       -4    1    3    3    0  502 -0.75137090560E+03  0.13059805313E+04  0.25974294451E+03  0.15289249151E+04  0.12699999809E+01 0.  1.
</event>
<event>
 5   0  0.4775023E-08  0.3401540E+04  0.7818609E-02  0.8137529E-01
        2   -1    0    0  501    0  0.00000000000E+00  0.00000000000E+00  0.21769645571E+04  0.21769645571E+04  0.25500000920E-02 0.  1.
       -2   -1    0    0    0  501  0.00000000000E+00  0.00000000000E+00 -0.13287392051E+04  0.13287392051E+04  0.25500000920E-02 0. -1.
    10030    2    1    2    0    0  0.00000000000E+00  0.00000000000E+00  0.84822535205E+03  0.35057037622E+04  0.34015397426E+04 0.  0.
        4    1    3    3  502    0  0.15401078356E+04  0.16277819507E+03 -0.30039937226E+03  0.15775519902E+04  0.12699999809E+01 0. -1.
       -4    1    3    3    0  502 -0.15401078356E+04 -0.16277819507E+03  0.11486247243E+04  0.19281517721E+04  0.12699999809E+01 0.  1.
</event>
<event>
 5   0  0.5001197E-08  0.3400361E+04  0.7818609E-02  0.8137818E-01
       -2   -1    0    0    0  501  0.00000000000E+00  0.00000000000E+00  0.12245538622E+04  0.12245538622E+04  0.25500000920E-02 0.  1.
        2   -1    0    0  501    0  0.00000000000E+00  0.00000000000E+00 -0.23605448904E+04  0.23605448904E+04  0.25500000920E-02 0. -1.
    10030    2    1    2    0    0  0.00000000000E+00  0.00000000000E+00 -0.11359910282E+04  0.35850987527E+04  0.34003613705E+04 0.  0.
        5    1    3    3  502    0  0.73916406405E+03  0.14509748015E+04 -0.10833249233E+04  0.19558390444E+04  0.46999998093E+01 0. -1.
       -5    1    3    3    0  502 -0.73916406405E+03 -0.14509748015E+04 -0.52666104967E+02  0.16292597082E+04  0.46999998093E+01 0.  1.
</event>
<event>
 5   0  0.1630571E-08  0.3398498E+04  0.7818609E-02  0.8138275E-01
       -1   -1    0    0    0  501  0.00000000000E+00  0.00000000000E+00  0.12590392193E+04  0.12590392193E+04  0.50400001928E-02 0. -1.
        1   -1    0    0  501    0  0.00000000000E+00  0.00000000000E+00 -0.22933741109E+04  0.22933741109E+04  0.50400001928E-02 0.  1.
    10030    2    1    2    0    0  0.00000000000E+00  0.00000000000E+00 -0.10343348916E+04  0.35524133302E+04  0.33984984627E+04 0.  0.
        3    1    3    3  502    0  0.84906482465E+02  0.16360356216E+04 -0.98885380907E+03  0.19135447556E+04  0.10100000352E+00 0.  1.
       -3    1    3    3    0  502 -0.84906482465E+02 -0.16360356216E+04 -0.45481082561E+02  0.16388685746E+04  0.10100000352E+00 0. -1.
</event>
<event>
 5   0  0.1595851E-08  0.3397207E+04  0.7818609E-02  0.8138592E-01
       -1   -1    0    0    0  501  0.00000000000E+00  0.00000000000E+00  0.21383700134E+04  0.21383700134E+04  0.50400001928E-02 0. -1.
        1   -1    0    0  501    0  0.00000000000E+00  0.00000000000E+00 -0.13492772410E+04  0.13492772410E+04  0.50400001928E-02 0.  1.
    10030    2    1    2    0    0  0.00000000000E+00  0.00000000000E+00  0.78909277243E+03  0.34876472544E+04  0.33972070834E+04 0.  0.
        2    1    3    3  502    0 -0.12264878720E+04 -0.30545522102E+02 -0.81148247574E+03  0.14709552466E+04  0.25500000920E-02 0.  1.
       -2    1    3    3    0  502  0.12264878720E+04  0.30545522102E+02  0.16005752482E+04  0.20166920078E+04  0.25500000920E-02 0. -1.
</event>
<event>
 5   0  0.4973409E-08  0.3399246E+04  0.7818609E-02  0.8138092E-01
       -2   -1    0    0    0  501  0.00000000000E+00  0.00000000000E+00  0.14805420253E+04  0.14805420253E+04  0.25500000920E-02 0.  1.
        2   -1    0    0  501    0  0.00000000000E+00  0.00000000000E+00 -0.19511216593E+04  0.19511216593E+04  0.25500000920E-02 0. -1.
    10030    2    1    2    0    0  0.00000000000E+00  0.00000000000E+00 -0.47057963396E+03  0.34316636846E+04  0.33992455711E+04 0.  0.
        1    1    3    3  502    0 -0.13364058301E+04 -0.30551004904E+03 -0.12495607393E+04  0.18549175113E+04  0.50400001928E-02 0. -1.
       -1    1    3    3    0  502  0.13364058301E+04  0.30551004904E+03  0.77898110530E+03  0.15767461733E+04  0.50400001928E-02 0.  1.
</event>
<event>
 5   0  0.1645631E-08  0.3396952E+04  0.7818609E-02  0.8138655E-01
        1   -1    0    0  501    0  0.00000000000E+00  0.00000000000E+00  0.20320777596E+04  0.20320777596E+04  0.50400001928E-02 0. -1.
       -1   -1    0    0    0  501  0.00000000000E+00  0.00000000000E+00 -0.14196409152E+04  0.14196409152E+04  0.50400001928E-02 0.  1.
    10030    2    1    2    0    0  0.00000000000E+00  0.00000000000E+00  0.61243684438E+03  0.34517186748E+04  0.33969520046E+04 0.  0.
        4    1    3    3  502    0  0.62135205777E+03 -0.11995018519E+04 -0.73991195250E+03  0.15402449100E+04  0.12699999809E+01 0.  1.
       -4    1    3    3    0  502 -0.62135205777E+03  0.11995018519E+04  0.13523487969E+04  0.19114737648E+04  0.12699999809E+01 0. -1.
</event>
<event>
 5   0  0.4775023E-08  0.3399904E+04  0.7818609E-02  0.8137930E-01
        2   -1    0    0  501    0  0.00000000000E+00  0.00000000000E+00  0.16230692802E+04  0.16230692802E+04  0.25500000920E-02 0. -1.
       -2   -1    0    0    0  501  0.00000000000E+00  0.00000000000E+00 -0.17804763509E+04  0.17804763509E+04  0.25500000920E-02 0.  1.
    10030    2    1    2    0    0  0.00000000000E+00  0.00000000000E+00 -0.15740707078E+03  0.34035456311E+04  0.33999038041E+04 0.  0.
        4    1    3    3  502    0  0.99528780326E+01 -0.26344691612E+03 -0.17598866856E+04  0.17795241207E+04  0.12699999809E+01 0.  1.
       -4    1    3    3    0  502 -0.99528780326E+01  0.26344691612E+03  0.16024796148E+04  0.16240215103E+04  0.12699999809E+01 0. -1.
</event>
<event>
 5   0  0.4764953E-08  0.3400730E+04  0.7818609E-02  0.8137727E-01
        2   -1    0    0  501    0  0.00000000000E+00  0.00000000000E+00  0.22098446089E+04  0.22098446089E+04  0.25500000920E-02 0. -1.
       -2   -1    0    0    0  501  0.00000000000E+00  0.00000000000E+00 -0.13083455808E+04  0.13083455808E+04  0.25500000920E-02 0.  1.
    10030    2    1    2    0    0  0.00000000000E+00  0.00000000000E+00  0.90149902812E+03  0.35181901898E+04  0.34007295855E+04 0.  0.
        2    1    3    3  502    0  0.98588696462E+03 -0.13183225209E+04  0.10257748771E+02  0.16462237386E+04  0.25500000920E-02 0. -1.
       -2    1    3    3    0  502 -0.98588696462E+03  0.13183225209E+04  0.89124127935E+03  0.18719664511E+04  0.25500000920E-02 0.  1.
</event>
<event>
 5   0  0.1645631E-08  0.3400439E+04  0.7818609E-02  0.8137799E-01
       -1   -1    0    0    0  501  0.00000000000E+00  0.00000000000E+00  0.19307200005E+04  0.19307200005E+04  0.50400001928E-02 0. -1.
        1   -1    0    0  501    0  0.00000000000E+00  0.00000000000E+00 -0.14972371450E+04  0.14972371450E+04  0.50400001928E-02 0.  1.
    10030    2    1    2    0    0  0.00000000000E+00  0.00000000000E+00  0.43348285550E+03  0.34279571455E+04  0.34004386195E+04 0.  0.
        4    1    3    3  502    0 -0.94485248297E+03 -0.34523100769E+02  0.16412608790E+04  0.18941164021E+04  0.12699999809E+01 0. -1.
       -4    1    3    3    0  502  0.94485248297E+03  0.34523100769E+02 -0.12077780235E+04  0.15338407434E+04  0.12699999809E+01 0.  1.
</event>
<event>
 5   0  0.4775023E-08  0.3400825E+04  0.7818609E-02  0.8137704E-01
        2   -1    0    0  501    0  0.00000000000E+00  0.00000000000E+00  0.18226660233E+04  0.18226660233E+04  0.25500000920E-02 0.  1.
       -2   -1    0    0    0  501  0.00000000000E+00  0.00000000000E+00 -0.15863586834E+04  0.15863586834E+04  0.25500000920E-02 0. -1.
    10030    2    1    2    0    0  0.00000000000E+00  0.00000000000E+00  0.23630733991E+03  0.34090247068E+04  0.34008246489E+04 0.  0.
        4    1    3    3  502    0 -0.11191771835E+04 -0.11874550119E+04 -0.36132328393E+03  0.16712758904E+04  0.12699999809E+01 0. -1.
       -4    1    3    3    0  502  0.11191771835E+04  0.11874550119E+04  0.59763062384E+03  0.17377488164E+04  0.12699999809E+01 0.  1.
</event>
<event>
 5   0  0.1630571E-08  0.3399677E+04  0.7818609E-02  0.8137986E-01
        1   -1    0    0  501    0  0.00000000000E+00  0.00000000000E+00  0.17424420925E+04  0.17424420925E+04  0.50400001928E-02 0.  1.
       -1   -1    0    0    0  501  0.00000000000E+00  0.00000000000E+00 -0.16582763535E+04  0.16582763535E+04  0.50400001928E-02 0. -1.
    10030    2    1    2    0    0  0.00000000000E+00  0.00000000000E+00  0.84165739024E+02  0.34007184460E+04  0.33996767607E+04 0.  0.
        3    1    3    3  502    0 -0.12203546078E+04  0.98473283486E+03 -0.61423278098E+03  0.16841158048E+04  0.10100000352E+00 0. -1.
       -3    1    3    3    0  502  0.12203546078E+04 -0.98473283486E+03  0.69839852000E+03  0.17166026412E+04  0.10100000352E+00 0.  1.
</event>
<event>
 5   0  0.5001197E-08  0.3399677E+04  0.7818609E-02  0.8137985E-01
        2   -1    0    0  501    0  0.00000000000E+00  0.00000000000E+00  0.15228046901E+04  0.15228046901E+04  0.25500000920E-02 0.  1.
       -2   -1    0    0    0  501  0.00000000000E+00  0.00000000000E+00 -0.18974538884E+04  0.18974538884E+04  0.25500000920E-02 0. -1.
    10030    2    1    2    0    0  0.00000000000E+00  0.00000000000E+00 -0.37464919828E+03  0.34202585784E+04  0.33996774438E+04 0.  0.
        5    1    3    3  502    0  0.28984128479E+02 -0.12865468459E+03  0.15176435836E+04  0.15233700287E+04  0.46999998093E+01 0.  1.
       -5    1    3    3    0  502 -0.28984128479E+02  0.12865468459E+03 -0.18922927819E+04  0.18968885497E+04  0.46999998093E+01 0. -1.
</event>
<event>
 5   0  0.5001197E-08  0.3400636E+04  0.7818609E-02  0.8137750E-01
       -2   -1    0    0    0  501  0.00000000000E+00  0.00000000000E+00  0.18764432204E+04  0.18764432204E+04  0.25500000920E-02 0.  1.
        2   -1    0    0  501    0  0.00000000000E+00  0.00000000000E+00 -0.15407238348E+04  0.15407238348E+04  0.25500000920E-02 0. -1.
    10030    2    1    2    0    0  0.00000000000E+00  0.00000000000E+00  0.33571938569E+03  0.34171670552E+04  0.34006357019E+04 0.  0.
        5    1    3    3  502    0 -0.34522712684E+03  0.17168770599E+03 -0.14962100419E+04  0.15450970898E+04  0.46999998093E+01 0. -1.
       -5    1    3    3    0  502  0.34522712684E+03 -0.17168770599E+03  0.18319294276E+04  0.18720699654E+04  0.46999998093E+01 0.  1.
</event>
<event>
 5   0  0.4973409E-08  0.3399276E+04  0.7818609E-02  0.8138084E-01
       -2   -1    0    0    0  501  0.00000000000E+00  0.00000000000E+00  0.15061656892E+04  0.15061656892E+04  0.25500000920E-02 0.  1.
        2   -1    0    0  501    0  0.00000000000E+00  0.00000000000E+00 -0.19179627209E+04  0.19179627209E+04  0.25500000920E-02 0. -1.
    10030    2    1    2    0    0  0.00000000000E+00  0.00000000000E+00 -0.41179703168E+03  0.34241284101E+04  0.33992761838E+04 0.  0.
        1    1    3    3  502    0 -0.14380997074E+04  0.51886210473E+03  0.54210775524E+03  0.16221064917E+04  0.50400001928E-02 0.  1.
       -1    1    3    3    0  502  0.14380997074E+04 -0.51886210473E+03 -0.95390478691E+03  0.18020219184E+04  0.50400001928E-02 0. -1.
</event>
<event>
 5   0  0.1645631E-08  0.3399620E+04  0.7818609E-02  0.8138000E-01
        1   -1    0    0  501    0  0.00000000000E+00  0.00000000000E+00  0.22794668897E+04  0.22794668897E+04  0.50400001928E-02 0. -1.
       -1   -1    0    0    0  501  0.00000000000E+00  0.00000000000E+00 -0.12675568455E+04  0.12675568455E+04  0.50400001928E-02 0.  1.
    10030    2    1    2    0    0  0.00000000000E+00  0.00000000000E+00  0.10119100441E+04  0.35470237352E+04  0.33996198965E+04 0.  0.
        4    1    3    3  502    0 -0.13078191412E+04  0.91585965110E+03 -0.10256785764E+03  0.15999098677E+04  0.12699999809E+01 0. -1.
       -4    1    3    3    0  502  0.13078191412E+04 -0.91585965110E+03  0.11144779018E+04  0.19471138675E+04  0.12699999809E+01 0.  1.
</event>
<event>
 5   0  0.1630571E-08  0.3402077E+04  0.7818609E-02  0.8137397E-01
        1   -1    0    0  501    0  0.00000000000E+00  0.00000000000E+00  0.14879782990E+04  0.14879782990E+04  0.50400001928E-02 0. -1.
       -1   -1    0    0    0  501  0.00000000000E+00  0.00000000000E+00 -0.19446064983E+04  0.19446064983E+04  0.50400001928E-02 0.  1.
    10030    2    1    2    0    0  0.00000000000E+00  0.00000000000E+00 -0.45662819933E+03  0.34325847973E+04  0.34020771711E+04 0.  0.
        3    1    3    3  502    0 -0.12270991612E+04 -0.14177351668E+03 -0.14082711916E+04  0.18732591494E+04  0.10100000352E+00 0.  1.
       -3    1    3    3    0  502  0.12270991612E+04  0.14177351668E+03  0.95164299226E+03  0.15593256480E+04  0.10100000352E+00 0. -1.
</event>
<event>
 5   0  0.1630571E-08  0.3399164E+04  0.7818609E-02  0.8138111E-01
       -1   -1    0    0    0  501  0.00000000000E+00  0.00000000000E+00  0.11395410041E+04  0.11395410041E+04  0.50400001928E-02 0.  1.
        1   -1    0    0  501    0  0.00000000000E+00  0.00000000000E+00 -0.25348622757E+04  0.25348622757E+04  0.50400001928E-02 0. -1.
    10030    2    1    2    0    0  0.00000000000E+00  0.00000000000E+00 -0.13953212716E+04  0.36744032798E+04  0.33991643108E+04 0.  0.
        3    1    3    3  502    0 -0.74301448621E+03 -0.45471090364E+03  0.87987313574E+03  0.12381475186E+04  0.10100000352E+00 0.  1.
       -3    1    3    3    0  502  0.74301448621E+03  0.45471090364E+03 -0.22751944074E+04  0.24362557612E+04  0.10100000352E+00 0. -1.
</event>
<event>
 5   0  0.4775023E-08  0.3399258E+04  0.7818609E-02  0.8138088E-01
        2   -1    0    0  501    0  0.00000000000E+00  0.00000000000E+00  0.13184309948E+04  0.13184309948E+04  0.25500000920E-02 0. -1.
       -2   -1    0    0    0  501  0.00000000000E+00  0.00000000000E+00 -0.21910431536E+04  0.21910431536E+04  0.25500000920E-02 0.  1.
    10030    2    1    2    0    0  0.00000000000E+00  0.00000000000E+00 -0.87261215883E+03  0.35094741484E+04  0.33992582747E+04 0.  0.
        4    1    3    3  502    0 -0.32094728657E+03  0.66131338889E+03  0.11458286388E+04  0.13613476564E+04  0.12699999809E+01 0. -1.
       -4    1    3    3    0  502  0.32094728657E+03 -0.66131338889E+03 -0.20184407977E+04  0.21481264920E+04  0.12699999809E+01 0.  1.
</event>
<event>
 5   0  0.1579536E-08  0.3394343E+04  0.7818609E-02  0.8139296E-01
       -1   -1    0    0    0  501  0.00000000000E+00  0.00000000000E+00  0.93320325991E+03  0.93320325992E+03  0.50400001928E-02 0. -1.
        1   -1    0    0  501    0  0.00000000000E+00  0.00000000000E+00 -0.30865641081E+04  0.30865641081E+04  0.50400001928E-02 0.  1.
    10030    2    1    2    0    0  0.00000000000E+00  0.00000000000E+00 -0.21533608482E+04  0.40197673680E+04  0.33943433460E+04 0.  0.
        5    1    3    3  502    0  0.12397891899E+03 -0.11467466996E+04  0.39769102737E+03  0.12200733620E+04  0.46999998093E+01 0. -1.
       -5    1    3    3    0  502 -0.12397891899E+03  0.11467466996E+04 -0.25510518755E+04  0.27996940060E+04  0.46999998093E+01 0.  1.
</event>
<event>
 5   0  0.1645631E-08  0.3398708E+04  0.7818609E-02  0.8138223E-01
       -1   -1    0    0    0  501  0.00000000000E+00  0.00000000000E+00  0.14607398548E+04  0.14607398548E+04  0.50400001928E-02 0.  1.
        1   -1    0    0  501    0  0.00000000000E+00  0.00000000000E+00 -0.19769464797E+04  0.19769464797E+04  0.50400001928E-02 0. -1.
    10030    2    1    2    0    0  0.00000000000E+00  0.00000000000E+00 -0.51620662494E+03  0.34376863345E+04  0.33987082921E+04 0.  0.
        4    1    3    3  502    0  0.36587544437E+03  0.16347463481E+04 -0.54693457688E+03  0.17622143762E+04  0.12699999809E+01 0.  1.
       -4    1    3    3    0  502 -0.36587544437E+03 -0.16347463481E+04  0.30727951946E+02  0.16754719583E+04  0.12699999809E+01 0. -1.
</event>
<event>
 5   0  0.1595851E-08  0.3398082E+04  0.7818609E-02  0.8138377E-01
        1   -1    0    0  501    0  0.00000000000E+00  0.00000000000E+00  0.20777723938E+04  0.20777723938E+04  0.50400001928E-02 0.  1.
       -1   -1    0    0    0  501  0.00000000000E+00  0.00000000000E+00 -0.13893438229E+04  0.13893438229E+04  0.50400001928E-02 0. -1.
    10030    2    1    2    0    0  0.00000000000E+00  0.00000000000E+00  0.68842857089E+03  0.34671162166E+04  0.33980819535E+04 0.  0.
        2    1    3    3  502    0  0.42196912480E+03  0.10775252270E+04 -0.92509352819E+03  0.14815250902E+04  0.25500000920E-02 0. -1.
       -2    1    3    3    0  502 -0.42196912480E+03 -0.10775252270E+04  0.16135220991E+04  0.19855911264E+04  0.25500000920E-02 0.  1.
</event>
<event>
 5   0  0.4946315E-08  0.3398891E+04  0.7818609E-02  0.8138179E-01
        2   -1    0    0  501    0  0.00000000000E+00  0.00000000000E+00  0.27034969205E+04  0.27034969205E+04  0.25500000920E-02 0. -1.
       -2   -1    0    0    0  501  0.00000000000E+00  0.00000000000E+00 -0.10682886119E+04  0.10682886119E+04  0.25500000920E-02 0.  1.
    10030    2    1    2    0    0  0.00000000000E+00  0.00000000000E+00  0.16352083086E+04  0.37717855323E+04  0.33988909793E+04 0.  0.
        3    1    3    3  502    0 -0.10295454764E+04 -0.54325392257E+03  0.21915972529E+04  0.24815695117E+04  0.10100000352E+00 0. -1.
       -3    1    3    3    0  502  0.10295454764E+04  0.54325392257E+03 -0.55638894430E+03  0.12902160206E+04  0.10100000352E+00 0.  1.
</event>
<event>
 5   0  0.4775023E-08  0.3401032E+04  0.7818609E-02  0.8137653E-01
        2   -1    0    0  501    0  0.00000000000E+00  0.00000000000E+00  0.14242349978E+04  0.14242349978E+04  0.25500000920E-02 0.  1.
       -2   -1    0    0    0  501  0.00000000000E+00  0.00000000000E+00 -0.20303909807E+04  0.20303909807E+04  0.25500000920E-02 0. -1.
    10030    2    1    2    0    0  0.00000000000E+00  0.00000000000E+00 -0.60615598292E+03  0.34546259784E+04  0.34010315458E+04 0.  0.
        4    1    3    3  502    0 -0.87901208576E+03 -0.13501861299E+03  0.11691969873E+04  0.14689845066E+04  0.12699999809E+01 0.  1.
       -4    1    3    3    0  502  0.87901208576E+03  0.13501861299E+03 -0.17753529702E+04  0.19856414718E+04  0.12699999809E+01 0. -1.
</event>
<event>
 5   0  0.4973409E-08  0.3400734E+04  0.7818609E-02  0.8137726E-01
        2   -1    0    0  501    0  0.00000000000E+00  0.00000000000E+00  0.12680948173E+04  0.12680948174E+04  0.25500000920E-02 0.  1.
       -2   -1    0    0    0  501  0.00000000000E+00  0.00000000000E+00 -0.22799929138E+04  0.22799929138E+04  0.25500000920E-02 0. -1.
    10030    2    1    2    0    0  0.00000000000E+00  0.00000000000E+00 -0.10118980965E+04  0.35480877312E+04  0.34007335665E+04 0.  0.
        1    1    3    3  502    0 -0.84047618821E+03 -0.51619734188E+03 -0.19510223743E+04  0.21861720481E+04  0.50400001928E-02 0. -1.
       -1    1    3    3    0  502  0.84047618821E+03  0.51619734188E+03  0.93912427782E+03  0.13619156831E+04  0.50400001928E-02 0.  1.
</event>
<event>
 5   0  0.4946315E-08  0.3401514E+04  0.7818609E-02  0.8137535E-01
       -2   -1    0    0    0  501  0.00000000000E+00  0.00000000000E+00  0.15435454344E+04  0.15435454344E+04  0.25500000920E-02 0. -1.
        2   -1    0    0  501    0  0.00000000000E+00  0.00000000000E+00 -0.18739809769E+04  0.18739809769E+04  0.25500000920E-02 0.  1.
    10030    2    1    2    0    0  0.00000000000E+00  0.00000000000E+00 -0.33043554255E+03  0.34175264113E+04  0.34015142398E+04 0.  0.
        3    1    3    3  502    0  0.14991508630E+04  0.59223208650E+03 -0.71034222774E+03  0.17614704780E+04  0.10100000352E+00 0.  1.
       -3    1    3    3    0  502 -0.14991508630E+04 -0.59223208650E+03  0.37990668519E+03  0.16560559332E+04  0.10100000352E+00 0. -1.
</event>
<event>
 5   0  0.1579536E-08  0.3399926E+04  0.7818609E-02  0.8137924E-01
       -1   -1    0    0    0  501  0.00000000000E+00  0.00000000000E+00  0.18576801428E+04  0.18576801428E+04  0.50400001928E-02 0.  1.
        1   -1    0    0  501    0  0.00000000000E+00  0.00000000000E+00 -0.15556361133E+04  0.15556361133E+04  0.50400001928E-02 0. -1.
    10030    2    1    2    0    0  0.00000000000E+00  0.00000000000E+00  0.30204402951E+03  0.34133162560E+04  0.33999260680E+04 0.  0.
        5    1    3    3  502    0 -0.54401924339E+03  0.31791598124E+03 -0.14340643386E+04  0.15663939880E+04  0.46999998093E+01 0. -1.
       -5    1    3    3    0  502  0.54401924339E+03 -0.31791598124E+03  0.17361083681E+04  0.18469222680E+04  0.46999998093E+01 0.  1.
</event>
<event>
 5   0  0.1645631E-08  0.3400209E+04  0.7818609E-02  0.8137855E-01
        1   -1    0    0  501    0  0.00000000000E+00  0.00000000000E+00  0.19554951882E+04  0.19554951883E+04  0.50400001928E-02 0. -1.
       -1   -1    0    0    0  501  0.00000000000E+00  0.00000000000E+00 -0.14780681934E+04  0.14780681934E+04  0.50400001928E-02 0.  1.
    10030    2    1    2    0    0  0.00000000000E+00  0.00000000000E+00  0.47742699482E+03  0.34335633817E+04  0.34002089584E+04 0.  0.
        4    1    3    3  502    0  0.13912391320E+04  0.12651630083E+01 -0.74801339313E+03  0.15795801886E+04  0.12699999809E+01 0.  1.
       -4    1    3    3    0  502 -0.13912391320E+04 -0.12651630083E+01  0.12254403880E+04  0.18539831931E+04  0.12699999809E+01 0. -1.
</event>
<event>
 5   0  0.1579536E-08  0.3399677E+04  0.7818609E-02  0.8137985E-01
        1   -1    0    0  501    0  0.00000000000E+00  0.00000000000E+00  0.21972424091E+04  0.21972424091E+04  0.50400001928E-02 0. -1.
       -1   -1    0    0    0  501  0.00000000000E+00  0.00000000000E+00 -0.13150354353E+04  0.13150354353E+04  0.50400001928E-02 0.  1.
    10030    2    1    2    0    0  0.00000000000E+00  0.00000000000E+00  0.88220697380E+03  0.35122778443E+04  0.33996774128E+04 0.  0.
        5    1    3    3  502    0  0.55262010306E+03  0.65597041968E+03  0.19572742960E+04  0.21369676950E+04  0.46999998093E+01 0. -1.
       -5    1    3    3    0  502 -0.55262010306E+03 -0.65597041968E+03 -0.10750673221E+04  0.13753101494E+04  0.46999998093E+01 0.  1.
</event>
<event>
 5   0  0.1625282E-08  0.3406942E+04  0.7818609E-02  0.8136205E-01
       -1   -1    0    0    0  501  0.00000000000E+00  0.00000000000E+00  0.23626107962E+04  0.23626107962E+04  0.50400001928E-02 0. -1.
        1   -1    0    0  501    0  0.00000000000E+00  0.00000000000E+00 -0.12282229465E+04  0.12282229465E+04  0.50400001928E-02 0.  1.
    10030    2    1    2    0    0  0.00000000000E+00  0.00000000000E+00  0.11343878497E+04  0.35908337427E+04  0.34069416159E+04 0.  0.
        1    1    3    3  502    0  0.15436149340E+04  0.35979810938E+03 -0.90685401251E+02  0.15875848280E+04  0.50400001928E-02 0.  1.
       -1    1    3    3    0  502 -0.15436149340E+04 -0.35979810938E+03  0.12250732510E+04  0.20032489147E+04  0.50400001928E-02 0. -1.
</event>
<event>
 5   0  0.4775023E-08  0.3399921E+04  0.7818609E-02  0.8137926E-01
       -2   -1    0    0    0  501  0.00000000000E+00  0.00000000000E+00  0.16553992516E+04  0.16553992516E+04  0.25500000920E-02 0. -1.
        2   -1    0    0  501    0  0.00000000000E+00  0.00000000000E+00 -0.17457207679E+04  0.17457207679E+04  0.25500000920E-02 0.  1.
    10030    2    1    2    0    0  0.00000000000E+00  0.00000000000E+00 -0.90321516290E+02  0.34011200195E+04  0.33999205007E+04 0.  0.
        4    1    3    3  502    0  0.93759179486E+03  0.75520454624E+03  0.11554505627E+04  0.16686760908E+04  0.12699999809E+01 0. -1.
       -4    1    3    3    0  502 -0.93759179486E+03 -0.75520454624E+03 -0.12457720790E+04  0.17324439287E+04  0.12699999809E+01 0.  1.
</event>
<event>
 5   0  0.4973409E-08  0.3398536E+04  0.7818609E-02  0.8138266E-01
       -2   -1    0    0    0  501  0.00000000000E+00  0.00000000000E+00  0.13341777069E+04  0.13341777069E+04  0.25500000920E-02 0. -1.
        2   -1    0    0  501    0  0.00000000000E+00  0.00000000000E+00 -0.21642628752E+04  0.21642628752E+04  0.25500000920E-02 0.  1.
    10030    2    1    2    0    0  0.00000000000E+00  0.00000000000E+00 -0.83008516830E+03  0.34984405820E+04  0.33985357317E+04 0.  0.
        1    1    3    3  502    0  0.16049430152E+04  0.55645541261E+03 -0.36870177337E+03  0.17382248721E+04  0.50400001928E-02 0. -1.
       -1    1    3    3    0  502 -0.16049430152E+04 -0.55645541261E+03 -0.46138339492E+03  0.17602157099E+04  0.50400001928E-02 0.  1.
</event>
<event>
 5   0  0.4764953E-08  0.3390316E+04  0.7818609E-02  0.8140287E-01
        2   -1    0    0  501    0  0.00000000000E+00  0.00000000000E+00  0.12535424462E+04  0.12535424462E+04  0.25500000920E-02 0.  1.
       -2   -1    0    0    0  501  0.00000000000E+00  0.00000000000E+00 -0.22923517004E+04  0.22923517004E+04  0.25500000920E-02 0. -1.
    10030    2    1    2    0    0  0.00000000000E+00  0.00000000000E+00 -0.10388092542E+04  0.35458941466E+04  0.33903157128E+04 0.  0.
        2    1    3    3  502    0  0.29330652963E+03 -0.98405542893E+02  0.12237657887E+04  0.12622658503E+04  0.25500000920E-02 0.  1.
       -2    1    3    3    0  502 -0.29330652963E+03  0.98405542893E+02 -0.22625750429E+04  0.22836282963E+04  0.25500000920E-02 0. -1.
</event>
<event>
 5   0  0.1630571E-08  0.3399253E+04  0.7818609E-02  0.8138090E-01
        1   -1    0    0  501    0  0.00000000000E+00  0.00000000000E+00  0.13096907314E+04  0.13096907314E+04  0.50400001928E-02 0. -1.
       -1   -1    0    0    0  501  0.00000000000E+00  0.00000000000E+00 -0.22056579813E+04  0.22056579813E+04  0.50400001928E-02 0.  1.
    10030    2    1    2    0    0  0.00000000000E+00  0.00000000000E+00 -0.89596724987E+03  0.35153487127E+04  0.33992527501E+04 0.  0.
        3    1    3    3  502    0 -0.98082722200E+03 -0.97141888028E+03 -0.14733367244E+04  0.20190091120E+04  0.10100000352E+00 0.  1.
       -3    1    3    3    0  502  0.98082722200E+03  0.97141888028E+03  0.57736947456E+03  0.14963396007E+04  0.10100000352E+00 0. -1.
</event>
<event>
 5   0  0.4946315E-08  0.3402612E+04  0.7818609E-02  0.8137266E-01
        2   -1    0    0  501    0  0.00000000000E+00  0.00000000000E+00  0.21378932991E+04  0.21378932991E+04  0.25500000920E-02 0. -1.
       -2   -1    0    0    0  501  0.00000000000E+00  0.00000000000E+00 -0.13538759335E+04  0.13538759335E+04  0.25500000920E-02 0.  1.
    10030    2    1    2    0    0  0.00000000000E+00  0.00000000000E+00  0.78401736554E+03  0.34917692326E+04  0.34026121061E+04 0.  0.
        3    1    3    3  502    0 -0.29879470479E+03  0.12289835739E+04  0.15597006541E+04  0.20080699791E+04  0.10100000352E+00 0. -1.
       -3    1    3    3    0  502  0.29879470479E+03 -0.12289835739E+04 -0.77568328855E+03  0.14836992535E+04  0.10100000352E+00 0.  1.
</event>
<event>
 5   0  0.5001197E-08  0.3398759E+04  0.7818609E-02  0.8138211E-01
       -2   -1    0    0    0  501  0.00000000000E+00  0.00000000000E+00  0.11701786364E+04  0.11701786364E+04  0.25500000920E-02 0. -1.
        2   -1    0    0  501    0  0.00000000000E+00  0.00000000000E+00 -0.24679060533E+04  0.24679060533E+04  0.25500000920E-02 0.  1.
    10030    2    1    2    0    0  0.00000000000E+00  0.00000000000E+00 -0.12977274169E+04  0.36380846898E+04  0.33987591502E+04 0.  0.
        5    1    3    3  502    0 -0.56931619978E+03 -0.12573983206E+04 -0.17099783658E+04  0.21975485372E+04  0.46999998093E+01 0.  1.
       -5    1    3    3    0  502  0.56931619978E+03  0.12573983206E+04  0.41225094885E+03  0.14405361526E+04  0.46999998093E+01 0. -1.
</event>
<event>
 5   0  0.4973409E-08  0.3395453E+04  0.7818609E-02  0.8139023E-01
        2   -1    0    0  501    0  0.00000000000E+00  0.00000000000E+00  0.19480264555E+04  0.19480264555E+04  0.25500000920E-02 0.  1.
       -2   -1    0    0    0  501  0.00000000000E+00  0.00000000000E+00 -0.14795877663E+04  0.14795877663E+04  0.25500000920E-02 0. -1.
    10030    2    1    2    0    0  0.00000000000E+00  0.00000000000E+00  0.46843868925E+03  0.34276142219E+04  0.33954534967E+04 0.  0.
        1    1    3    3  502    0 -0.42313540917E+03  0.35372816860E+03  0.18550766399E+04  0.19353233662E+04  0.50400001928E-02 0.  1.
       -1    1    3    3    0  502  0.42313540917E+03 -0.35372816860E+03 -0.13866379506E+04  0.14922908557E+04  0.50400001928E-02 0. -1.
</event>
<event>
 5   0  0.1630571E-08  0.3399763E+04  0.7818609E-02  0.8137964E-01
       -1   -1    0    0    0  501  0.00000000000E+00  0.00000000000E+00  0.10876691935E+04  0.10876691936E+04  0.50400001928E-02 0.  1.
        1   -1    0    0  501    0  0.00000000000E+00  0.00000000000E+00 -0.26566875037E+04  0.26566875037E+04  0.50400001928E-02 0. -1.
    10030    2    1    2    0    0  0.00000000000E+00  0.00000000000E+00 -0.15690183101E+04  0.37443566972E+04  0.33997630239E+04 0.  0.
        3    1    3    3  502    0 -0.14042539148E+04 -0.24890488386E+03 -0.18033186876E+04  0.22990956912E+04  0.10100000352E+00 0. -1.
       -3    1    3    3    0  502  0.14042539148E+04  0.24890488386E+03  0.23430037745E+03  0.14452610060E+04  0.10100000352E+00 0.  1.
</event>
<event>
 5   0  0.1645631E-08  0.3400148E+04  0.7818609E-02  0.8137870E-01
       -1   -1    0    0    0  501  0.00000000000E+00  0.00000000000E+00  0.23674874768E+04  0.23674874768E+04  0.50400001928E-02 0. -1.
        1   -1    0    0  501    0  0.00000000000E+00  0.00000000000E+00 -0.12208096464E+04  0.12208096465E+04  0.50400001928E-02 0.  1.
    10030    2    1    2    0    0  0.00000000000E+00  0.00000000000E+00  0.11466778304E+04  0.35882971233E+04  0.34001479671E+04 0.  0.
        4    1    3    3  502    0 -0.52894423709E+03 -0.79758341733E+03  0.20561994292E+04  0.22680121294E+04  0.12699999809E+01 0. -1.
       -4    1    3    3    0  502  0.52894423709E+03  0.79758341733E+03 -0.90952159880E+03  0.13202849939E+04  0.12699999809E+01 0.  1.
</event>
<event>
 5   0  0.1630571E-08  0.3398682E+04  0.7818609E-02  0.8138230E-01
        1   -1    0    0  501    0  0.00000000000E+00  0.00000000000E+00  0.16410430919E+04  0.16410430920E+04  0.50400001928E-02 0. -1.
       -1   -1    0    0    0  501  0.00000000000E+00  0.00000000000E+00 -0.17597103701E+04  0.17597103701E+04  0.50400001928E-02 0.  1.
    10030    2    1    2    0    0  0.00000000000E+00  0.00000000000E+00 -0.11866727814E+03  0.34007534621E+04  0.33986824192E+04 0.  0.
        3    1    3    3  502    0 -0.52931164563E+02 -0.12582996052E+04 -0.12009236564E+04  0.17402118386E+04  0.10100000352E+00 0.  1.
       -3    1    3    3    0  502  0.52931164563E+02  0.12582996052E+04  0.10822563782E+04  0.16605416234E+04  0.10100000352E+00 0. -1.
</event>
<event>
 5   0  0.4775023E-08  0.3400631E+04  0.7818609E-02  0.8137751E-01
        2   -1    0    0  501    0  0.00000000000E+00  0.00000000000E+00  0.15454549320E+04  0.15454549320E+04  0.25500000920E-02 0.  1.
       -2   -1    0    0    0  501  0.00000000000E+00  0.00000000000E+00 -0.18706939828E+04  0.18706939828E+04  0.25500000920E-02 0. -1.
    10030    2    1    2    0    0  0.00000000000E+00  0.00000000000E+00 -0.32523905074E+03  0.34161489148E+04  0.34006312602E+04 0.  0.
        4    1    3    3  502    0  0.47603436517E+03  0.10065381072E+04 -0.14535296922E+04  0.18309772956E+04  0.12699999809E+01 0. -1.
       -4    1    3    3    0  502 -0.47603436517E+03 -0.10065381072E+04  0.11282906414E+04  0.15851716192E+04  0.12699999809E+01 0.  1.
</event>
<event>
 5   0  0.5001197E-08  0.3396844E+04  0.7818609E-02  0.8138681E-01
        2   -1    0    0  501    0  0.00000000000E+00  0.00000000000E+00  0.15847664205E+04  0.15847664205E+04  0.25500000920E-02 0.  1.
       -2   -1    0    0    0  501  0.00000000000E+00  0.00000000000E+00 -0.18202286117E+04  0.18202286117E+04  0.25500000920E-02 0. -1.
    10030    2    1    2    0    0  0.00000000000E+00  0.00000000000E+00 -0.23546219119E+03  0.34049950323E+04  0.33968439361E+04 0.  0.
        5    1    3    3  502    0 -0.13794253880E+04 -0.37547809864E+03 -0.10368921221E+04  0.17660593326E+04  0.46999998093E+01 0. -1.
       -5    1    3    3    0  502  0.13794253880E+04  0.37547809864E+03  0.80142993087E+03  0.16389356997E+04  0.46999998093E+01 0.  1.
</event>
<event>
 5   0  0.4764953E-08  0.3408030E+04  0.7818609E-02  0.8135938E-01
        2   -1    0    0  501    0  0.00000000000E+00  0.00000000000E+00  0.16283044282E+04  0.16283044282E+04  0.25500000920E-02 0. -1.
       -2   -1    0    0    0  501  0.00000000000E+00  0.00000000000E+00 -0.17832460752E+04  0.17832460752E+04  0.25500000920E-02 0.  1.
    10030    2    1    2    0    0  0.00000000000E+00  0.00000000000E+00 -0.15494164696E+03  0.34115505034E+04  0.34080302117E+04 0.  0.
        2    1    3    3  502    0 -0.11434177462E+04  0.55518794431E+03 -0.12135570768E+04  0.17573726339E+04  0.25500000920E-02 0.  1.
       -2    1    3    3    0  502  0.11434177462E+04 -0.55518794431E+03  0.10586154298E+04  0.16541778695E+04  0.25500000920E-02 0. -1.
</event>
<event>
 5   0  0.4946315E-08  0.3400237E+04  0.7818609E-02  0.8137848E-01
       -2   -1    0    0    0  501  0.00000000000E+00  0.00000000000E+00  0.15214131458E+04  0.15214131458E+04  0.25500000920E-02 0.  1.
        2   -1    0    0  501    0  0.00000000000E+00  0.00000000000E+00 -0.18998149308E+04  0.18998149308E+04  0.25500000920E-02 0. -1.
    10030    2    1    2    0    0  0.00000000000E+00  0.00000000000E+00 -0.37840178499E+03  0.34212280767E+04  0.34002372920E+04 0.  0.
        3    1    3    3  502    0 -0.82142514285E+02 -0.45437616341E+03 -0.18355164125E+04  0.18927032523E+04  0.10100000352E+00 0. -1.
       -3    1    3    3    0  502  0.82142514285E+02  0.45437616341E+03  0.14571146276E+04  0.15285248243E+04  0.10100000352E+00 0.  1.
</event>
<event>
 5   0  0.4764953E-08  0.3400262E+04  0.7818609E-02  0.8137842E-01
        2   -1    0    0  501    0  0.00000000000E+00  0.00000000000E+00  0.22414688965E+04  0.22414688965E+04  0.25500000920E-02 0.  1.
       -2   -1    0    0    0  501  0.00000000000E+00  0.00000000000E+00 -0.12895319273E+04  0.12895319273E+04  0.25500000920E-02 0. -1.
    10030    2    1    2    0    0  0.00000000000E+00  0.00000000000E+00  0.95193696921E+03  0.35310008238E+04  0.34002621699E+04 0.  0.
        2    1    3    3  502    0  0.92070547477E+03 -0.38244871651E+03  0.19060459452E+04  0.21510408497E+04  0.25500000920E-02 0.  1.
       -2    1    3    3    0  502 -0.92070547477E+03  0.38244871651E+03 -0.95410897597E+03  0.13799599741E+04  0.25500000920E-02 0. -1.
</event>
<event>
 5   0  0.4946315E-08  0.3398420E+04  0.7818609E-02  0.8138294E-01
       -2   -1    0    0    0  501  0.00000000000E+00  0.00000000000E+00  0.20239414097E+04  0.20239414097E+04  0.25500000920E-02 0.  1.
        2   -1    0    0  501    0  0.00000000000E+00  0.00000000000E+00 -0.14265798345E+04  0.14265798345E+04  0.25500000920E-02 0. -1.
    10030    2    1    2    0    0  0.00000000000E+00  0.00000000000E+00  0.59736157520E+03  0.34505212442E+04  0.33984196335E+04 0.  0.
        3    1    3    3  502    0  0.10251665320E+04  0.13550494869E+04  0.31261935719E+03  0.17276736969E+04  0.10100000352E+00 0.  1.
       -3    1    3    3    0  502 -0.10251665320E+04 -0.13550494869E+04  0.28474221801E+03  0.17228475473E+04  0.10100000352E+00 0. -1.
</event>
<event>
 5   0  0.4946315E-08  0.3397967E+04  0.7818609E-02  0.8138405E-01
       -2   -1    0    0    0  501  0.00000000000E+00  0.00000000000E+00  0.27231353085E+04  0.27231353085E+04  0.25500000920E-02 0. -1.
        2   -1    0    0  501    0  0.00000000000E+00  0.00000000000E+00 -0.10600080380E+04  0.10600080380E+04  0.25500000920E-02 0.  1.
    10030    2    1    2    0    0  0.00000000000E+00  0.00000000000E+00  0.16631272705E+04  0.37831433465E+04  0.33979672250E+04 0.  0.
        3    1    3    3  502    0  0.75405581732E+03  0.13147954024E+04  0.16862099450E+04  0.22672871707E+04  0.10100000352E+00 0.  1.
       -3    1    3    3    0  502 -0.75405581732E+03 -0.13147954024E+04 -0.23082674451E+02  0.15158561758E+04  0.10100000352E+00 0. -1.
</event>
<event>
 5   0  0.4764953E-08  0.3397961E+04  0.7818609E-02  0.8138407E-01
        2   -1    0    0  501    0  0.00000000000E+00  0.00000000000E+00  0.22768988222E+04  0.22768988222E+04  0.25500000920E-02 0. -1.
       -2   -1    0    0    0  501  0.00000000000E+00  0.00000000000E+00 -0.12677481085E+04  0.12677481085E+04  0.25500000920E-02 0.  1.
    10030    2    1    2    0    0  0.00000000000E+00  0.00000000000E+00  0.10091507137E+04  0.35446469307E+04  0.33979606679E+04 0.  0.
        2    1    3    3  502    0  0.58447202178E+03  0.14781700149E+04 -0.12127386222E+03  0.15941460055E+04  0.25500000920E-02 0.  1.
       -2    1    3    3    0  502 -0.58447202178E+03 -0.14781700149E+04  0.11304245759E+04  0.19505009252E+04  0.25500000920E-02 0. -1.
</event>
<event>
 5   0  0.1579536E-08  0.3400016E+04  0.7818609E-02  0.8137902E-01
        1   -1    0    0  501    0  0.00000000000E+00  0.00000000000E+00  0.11066074956E+04  0.11066074956E+04  0.50400001928E-02 0.  1.
       -1   -1    0    0    0  501  0.00000000000E+00  0.00000000000E+00 -0.26116099188E+04  0.26116099188E+04  0.50400001928E-02 0. -1.
    10030    2    1    2    0    0  0.00000000000E+00  0.00000000000E+00 -0.15050024232E+04  0.37182174144E+04  0.34000159480E+04 0.  0.
        5    1    3    3  502    0 -0.71342902229E+03 -0.11766676651E+04 -0.18441615250E+04  0.23009740512E+04  0.46999998093E+01 0. -1.
       -5    1    3    3    0  502  0.71342902229E+03  0.11766676651E+04  0.33915910185E+03  0.14172433631E+04  0.46999998093E+01 0.  1.
</event>
<event>
 5   0  0.1595851E-08  0.3399599E+04  0.7818609E-02  0.8138005E-01
       -1   -1    0    0    0  501  0.00000000000E+00  0.00000000000E+00  0.19622792816E+04  0.19622792817E+04  0.50400001928E-02 0. -1.
        1   -1    0    0  501    0  0.00000000000E+00  0.00000000000E+00 -0.14724297203E+04  0.14724297203E+04  0.50400001928E-02 0.  1.
    10030    2    1    2    0    0  0.00000000000E+00  0.00000000000E+00  0.48984956133E+03  0.34347090020E+04  0.33995989963E+04 0.  0.
        2    1    3    3  502    0  0.63218054012E+03  0.95576248682E+03  0.15133525354E+04  0.18982544779E+04  0.25500000920E-02 0. -1.
       -2    1    3    3    0  502 -0.63218054012E+03 -0.95576248682E+03 -0.10235029741E+04  0.15364545241E+04  0.25500000920E-02 0.  1.
</event>
<event>
 5   0  0.1595851E-08  0.3400663E+04  0.7818609E-02  0.8137744E-01
        1   -1    0    0  501    0  0.00000000000E+00  0.00000000000E+00  0.17323167545E+04  0.17323167545E+04  0.50400001928E-02 0.  1.
       -1   -1    0    0    0  501  0.00000000000E+00  0.00000000000E+00 -0.16689371073E+04  0.16689371073E+04  0.50400001928E-02 0. -1.
    10030    2    1    2    0    0  0.00000000000E+00  0.00000000000E+00  0.63379647144E+02  0.34012538618E+04  0.34006632960E+04 0.  0.
        2    1    3    3  502    0 -0.78994952041E+03 -0.23647408712E+03  0.15189542720E+04  0.17283409152E+04  0.25500000920E-02 0.  1.
       -2    1    3    3    0  502  0.78994952041E+03  0.23647408712E+03 -0.14555746248E+04  0.16729129467E+04  0.25500000920E-02 0. -1.
</event>
<event>
 5   0  0.1630571E-08  0.3399810E+04  0.7818609E-02  0.8137953E-01
        1   -1    0    0  501    0  0.00000000000E+00  0.00000000000E+00  0.15263070014E+04  0.15263070015E+04  0.50400001928E-02 0.  1.
       -1   -1    0    0    0  501  0.00000000000E+00  0.00000000000E+00 -0.18932479187E+04  0.18932479187E+04  0.50400001928E-02 0. -1.
    10030    2    1    2    0    0  0.00000000000E+00  0.00000000000E+00 -0.36694091726E+03  0.34195549202E+04  0.33998103205E+04 0.  0.
        3    1    3    3  502    0 -0.16752283973E+04  0.25051760851E+03 -0.32757951211E+03  0.17252413171E+04  0.10100000352E+00 0.  1.
       -3    1    3    3    0  502  0.16752283973E+04 -0.25051760851E+03 -0.39361405152E+02  0.16943136031E+04  0.10100000352E+00 0. -1.
</event>
<event>
 5   0  0.4973409E-08  0.3399295E+04  0.7818609E-02  0.8138079E-01
       -2   -1    0    0    0  501  0.00000000000E+00  0.00000000000E+00  0.88890380132E+03  0.88890380132E+03  0.25500000920E-02 0.  1.
        2   -1    0    0  501    0  0.00000000000E+00  0.00000000000E+00 -0.32498466030E+04  0.32498466030E+04  0.25500000920E-02 0. -1.
    10030    2    1    2    0    0  0.00000000000E+00  0.00000000000E+00 -0.23609428017E+04  0.41387504043E+04  0.33992946322E+04 0.  0.
        1    1    3    3  502    0 -0.57986800012E+03 -0.11708605964E+04  0.14302553396E+03  0.13143887314E+04  0.50400001928E-02 0.  1.
       -1    1    3    3    0  502  0.57986800012E+03  0.11708605964E+04 -0.25039683356E+04  0.28243616729E+04  0.50400001928E-02 0. -1.
</event>
<event>
 5   0  0.1630571E-08  0.3401750E+04  0.7818609E-02  0.8137477E-01
        1   -1    0    0  501    0  0.00000000000E+00  0.00000000000E+00  0.24153068892E+04  0.24153068892E+04  0.50400001928E-02 0.  1.
       -1   -1    0    0    0  501  0.00000000000E+00  0.00000000000E+00 -0.11977675277E+04  0.11977675277E+04  0.50400001928E-02 0. -1.
    10030    2    1    2    0    0  0.00000000000E+00  0.00000000000E+00  0.12175393615E+04  0.36130744169E+04  0.34017502326E+04 0.  0.
        3    1    3    3  502    0  0.83382391977E+03  0.16485520985E+03 -0.95602744003E+03  0.12792294734E+04  0.10100000352E+00 0. -1.
       -3    1    3    3    0  502 -0.83382391977E+03 -0.16485520985E+03  0.21735668015E+04  0.23338449435E+04  0.10100000352E+00 0.  1.
</event>
<event>
 5   0  0.4946315E-08  0.3398550E+04  0.7818609E-02  0.8138262E-01
        2   -1    0    0  501    0  0.00000000000E+00  0.00000000000E+00  0.19796350772E+04  0.19796350772E+04  0.25500000920E-02 0.  1.
       -2   -1    0    0    0  501  0.00000000000E+00  0.00000000000E+00 -0.14586199012E+04  0.14586199012E+04  0.25500000920E-02 0. -1.
    10030    2    1    2    0    0  0.00000000000E+00  0.00000000000E+00  0.52101517594E+03  0.34382549784E+04  0.33985497617E+04 0.  0.
        3    1    3    3  502    0 -0.95975177896E+03  0.94459855927E+03  0.13090257132E+04  0.18780144417E+04  0.10100000352E+00 0.  1.
       -3    1    3    3    0  502  0.95975177896E+03 -0.94459855927E+03 -0.78801053722E+03  0.15602405367E+04  0.10100000352E+00 0. -1.
</event>
<event>
 5   0  0.1625282E-08  0.3404144E+04  0.7818609E-02  0.8136890E-01
        1   -1    0    0  501    0  0.00000000000E+00  0.00000000000E+00  0.19388141171E+04  0.19388141171E+04  0.50400001928E-02 0. -1.
       -1   -1    0    0    0  501  0.00000000000E+00  0.00000000000E+00 -0.14942378593E+04  0.14942378593E+04  0.50400001928E-02 0.  1.
    10030    2    1    2    0    0  0.00000000000E+00  0.00000000000E+00  0.44457625776E+03  0.34330519764E+04  0.34041442131E+04 0.  0.
        1    1    3    3  502    0  0.16205298868E+04 -0.51665269669E+01  0.74719403459E+03  0.17845006955E+04  0.50400001928E-02 0.  1.
       -1    1    3    3    0  502 -0.16205298868E+04  0.51665269669E+01 -0.30261777683E+03  0.16485512809E+04  0.50400001928E-02 0. -1.
</event>
<event>
 5   0  0.4775023E-08  0.3401267E+04  0.7818609E-02  0.8137596E-01
       -2   -1    0    0    0  501  0.00000000000E+00  0.00000000000E+00  0.11848792633E+04  0.11848792633E+04  0.25500000920E-02 0. -1.
        2   -1    0    0  501    0  0.00000000000E+00  0.00000000000E+00 -0.24408846449E+04  0.24408846449E+04  0.25500000920E-02 0.  1.
    10030    2    1    2    0    0  0.00000000000E+00  0.00000000000E+00 -0.12560053816E+04  0.36257639082E+04  0.34012665875E+04 0.  0.
        4    1    3    3  502    0  0.24041392790E+03  0.74468785281E+03 -0.22375604621E+04  0.23704508620E+04  0.12699999809E+01 0.  1.
       -4    1    3    3    0  502 -0.24041392790E+03 -0.74468785281E+03  0.98155508052E+03  0.12553130462E+04  0.12699999809E+01 0. -1.
</event>
<event>
 5   0  0.4775023E-08  0.3400873E+04  0.7818609E-02  0.8137692E-01
        2   -1    0    0  501    0  0.00000000000E+00  0.00000000000E+00  0.17601097937E+04  0.17601097937E+04  0.25500000920E-02 0. -1.
       -2   -1    0    0    0  501  0.00000000000E+00  0.00000000000E+00 -0.16427864759E+04  0.16427864759E+04  0.25500000920E-02 0.  1.
    10030    2    1    2    0    0  0.00000000000E+00  0.00000000000E+00  0.11732331778E+03  0.34028962696E+04  0.34008731615E+04 0.  0.
        4    1    3    3  502    0  0.40182311100E+03 -0.13972048244E+04  0.94113859050E+03  0.17318737232E+04  0.12699999809E+01 0. -1.
       -4    1    3    3    0  502 -0.40182311100E+03  0.13972048244E+04 -0.82381527272E+03  0.16710225463E+04  0.12699999809E+01 0.  1.
</event>
<event>
 5   0  0.1579536E-08  0.3400201E+04  0.7818609E-02  0.8137857E-01
       -1   -1    0    0    0  501  0.00000000000E+00  0.00000000000E+00  0.14741727930E+04  0.14741727931E+04  0.50400001928E-02 0.  1.
        1   -1    0    0  501    0  0.00000000000E+00  0.00000000000E+00 -0.19606533829E+04  0.19606533829E+04  0.50400001928E-02 0. -1.
    10030    2    1    2    0    0  0.00000000000E+00  0.00000000000E+00 -0.48648058989E+03  0.34348261760E+04  0.34002010963E+04 0.  0.
        5    1    3    3  502    0 -0.15502165231E+04 -0.18647681459E+03  0.43619705479E+03  0.16211831579E+04  0.46999998093E+01 0.  1.
       -5    1    3    3    0  502  0.15502165231E+04  0.18647681459E+03 -0.92267764468E+03  0.18136430181E+04  0.46999998093E+01 0. -1.
</event>
<event>
 5   0  0.1630571E-08  0.3403372E+04  0.7818609E-02  0.8137079E-01
       -1   -1    0    0    0  501  0.00000000000E+00  0.00000000000E+00  0.12458153439E+04  0.12458153439E+04  0.50400001928E-02 0. -1.
        1   -1    0    0  501    0  0.00000000000E+00  0.00000000000E+00 -0.23243688929E+04  0.23243688929E+04  0.50400001928E-02 0.  1.
    10030    2    1    2    0    0  0.00000000000E+00  0.00000000000E+00 -0.10785535490E+04  0.35701842367E+04  0.34033715234E+04 0.  0.
        3    1    3    3  502    0  0.91460531576E+03 -0.14338818816E+04 -0.47980325841E+03  0.17671251543E+04  0.10100000352E+00 0.  1.
       -3    1    3    3    0  502 -0.91460531576E+03  0.14338818816E+04 -0.59875029058E+03  0.18030590824E+04  0.10100000352E+00 0. -1.
</event>
<event>
 5   0  0.1595851E-08  0.3400470E+04  0.7818609E-02  0.8137791E-01
       -1   -1    0    0    0  501  0.00000000000E+00  0.00000000000E+00  0.14636776961E+04  0.14636776961E+04  0.50400001928E-02 0. -1.
        1   -1    0    0  501    0  0.00000000000E+00  0.00000000000E+00 -0.19750243594E+04  0.19750243594E+04  0.50400001928E-02 0.  1.
    10030    2    1    2    0    0  0.00000000000E+00  0.00000000000E+00 -0.51134666325E+03  0.34387020555E+04  0.34004700288E+04 0.  0.
        2    1    3    3  502    0 -0.13408182391E+04  0.34960860721E+03 -0.12520323759E+04  0.18675129983E+04  0.25500000920E-02 0.  1.
       -2    1    3    3    0  502  0.13408182391E+04 -0.34960860721E+03  0.74068571263E+03  0.15711890572E+04  0.25500000920E-02 0. -1.
</event>
<event>
 5   0  0.4775023E-08  0.3402797E+04  0.7818609E-02  0.8137220E-01
       -2   -1    0    0    0  501  0.00000000000E+00  0.00000000000E+00  0.19362021747E+04  0.19362021747E+04  0.25500000920E-02 0.  1.
        2   -1    0    0  501    0  0.00000000000E+00  0.00000000000E+00 -0.14950691532E+04  0.14950691532E+04  0.25500000920E-02 0. -1.
    10030    2    1    2    0    0  0.00000000000E+00  0.00000000000E+00  0.44113302153E+03  0.34312713278E+04  0.34027965826E+04 0.  0.
        4    1    3    3  502    0 -0.41790294143E+03  0.32879239498E+03  0.18502612374E+04  0.19251533879E+04  0.12699999809E+01 0.  1.
       -4    1    3    3    0  502  0.41790294143E+03 -0.32879239498E+03 -0.14091282158E+04  0.15061179400E+04  0.12699999809E+01 0. -1.
</event>
<event>
 5   0  0.1630571E-08  0.3398131E+04  0.7818609E-02  0.8138365E-01
       -1   -1    0    0    0  501  0.00000000000E+00  0.00000000000E+00  0.15355629284E+04  0.15355629284E+04  0.50400001928E-02 0. -1.
        1   -1    0    0  501    0  0.00000000000E+00  0.00000000000E+00 -0.18799775614E+04  0.18799775614E+04  0.50400001928E-02 0.  1.
    10030    2    1    2    0    0  0.00000000000E+00  0.00000000000E+00 -0.34441463306E+03  0.34155404898E+04  0.33981311626E+04 0.  0.
        3    1    3    3  502    0  0.13630576528E+04 -0.49978355534E+03 -0.10594038259E+04  0.17972329408E+04  0.10100000352E+00 0.  1.
       -3    1    3    3    0  502 -0.13630576528E+04  0.49978355534E+03  0.71498919289E+03  0.16183075490E+04  0.10100000352E+00 0. -1.
</event>
<event>
 5   0  0.4764953E-08  0.3398526E+04  0.7818609E-02  0.8138268E-01
       -2   -1    0    0    0  501  0.00000000000E+00  0.00000000000E+00  0.20353404214E+04  0.20353404214E+04  0.25500000920E-02 0.  1.
        2   -1    0    0  501    0  0.00000000000E+00  0.00000000000E+00 -0.14186790879E+04  0.14186790879E+04  0.25500000920E-02 0. -1.
    10030    2    1    2    0    0  0.00000000000E+00  0.00000000000E+00  0.61666133355E+03  0.34540195093E+04  0.33985260879E+04 0.  0.
        2    1    3    3  502    0  0.24194534484E+03  0.38761950039E+03 -0.13550701230E+04  0.14300354769E+04  0.25500000920E-02 0. -1.
       -2    1    3    3    0  502 -0.24194534484E+03 -0.38761950039E+03  0.19717314565E+04  0.20239840324E+04  0.25500000920E-02 0.  1.
</event>
<event>
 5   0  0.4775023E-08  0.3400588E+04  0.7818609E-02  0.8137762E-01
        2   -1    0    0  501    0  0.00000000000E+00  0.00000000000E+00  0.24468733798E+04  0.24468733798E+04  0.25500000920E-02 0. -1.
       -2   -1    0    0    0  501  0.00000000000E+00  0.00000000000E+00 -0.11815079137E+04  0.11815079137E+04  0.25500000920E-02 0.  1.
    10030    2    1    2    0    0  0.00000000000E+00  0.00000000000E+00  0.12653654661E+04  0.36283812935E+04  0.34005883386E+04 0.  0.
        4    1    3    3  502    0 -0.49367044410E+03  0.19388252942E+03  0.23563520864E+04  0.24153048898E+04  0.12699999809E+01 0. -1.
       -4    1    3    3    0  502  0.49367044410E+03 -0.19388252942E+03 -0.10909866203E+04  0.12130764037E+04  0.12699999809E+01 0.  1.
</event>
<event>
 5   0  0.1579536E-08  0.3398796E+04  0.7818609E-02  0.8138202E-01
       -1   -1    0    0    0  501  0.00000000000E+00  0.00000000000E+00  0.14921860779E+04  0.14921860779E+04  0.50400001928E-02 0. -1.
        1   -1    0    0  501    0  0.00000000000E+00  0.00000000000E+00 -0.19353841026E+04  0.19353841026E+04  0.50400001928E-02 0.  1.
    10030    2    1    2    0    0  0.00000000000E+00  0.00000000000E+00 -0.44319802473E+03  0.34275701805E+04  0.33987957945E+04 0.  0.
        5    1    3    3  502    0 -0.90627809754E+03  0.24565027428E+03 -0.16500110190E+04  0.18984842638E+04  0.46999998093E+01 0.  1.
       -5    1    3    3    0  502  0.90627809754E+03 -0.24565027428E+03  0.12068129942E+04  0.15290859166E+04  0.46999998093E+01 0. -1.
</event>
<event>
 5   0  0.1595851E-08  0.3398806E+04  0.7818609E-02  0.8138199E-01
        1   -1    0    0  501    0  0.00000000000E+00  0.00000000000E+00  0.14077644008E+04  0.14077644008E+04  0.50400001928E-02 0. -1.
       -1   -1    0    0    0  501  0.00000000000E+00  0.00000000000E+00 -0.20514591377E+04  0.20514591377E+04  0.50400001928E-02 0.  1.
    10030    2    1    2    0    0  0.00000000000E+00  0.00000000000E+00 -0.64369473693E+03  0.34592235385E+04  0.33988063456E+04 0.  0.
        2    1    3    3  502    0  0.22373142173E+03 -0.45047404051E+03  0.13302725678E+04  0.14221841353E+04  0.25500000920E-02 0. -1.
       -2    1    3    3    0  502 -0.22373142173E+03  0.45047404051E+03 -0.19739673047E+04  0.20370394032E+04  0.25500000920E-02 0.  1.
</event>
<event>
 5   0  0.4764953E-08  0.3400220E+04  0.7818609E-02  0.8137852E-01
        2   -1    0    0  501    0  0.00000000000E+00  0.00000000000E+00  0.10566826659E+04  0.10566826659E+04  0.25500000920E-02 0. -1.
       -2   -1    0    0    0  501  0.00000000000E+00  0.00000000000E+00 -0.27353289823E+04  0.27353289823E+04  0.25500000920E-02 0.  1.
    10030    2    1    2    0    0  0.00000000000E+00  0.00000000000E+00 -0.16786463164E+04  0.37920116482E+04  0.34002204171E+04 0.  0.
        2    1    3    3  502    0  0.50577464535E+03  0.27989249470E+03  0.94372180129E+03  0.11066881398E+04  0.25500000920E-02 0. -1.
       -2    1    3    3    0  502 -0.50577464535E+03 -0.27989249470E+03 -0.26223681177E+04  0.26853235084E+04  0.25500000920E-02 0.  1.
</event>
<event>
 5   0  0.4946315E-08  0.3400168E+04  0.7818609E-02  0.8137865E-01
        2   -1    0    0  501    0  0.00000000000E+00  0.00000000000E+00  0.30308884390E+04  0.30308884390E+04  0.25500000920E-02 0.  1.
       -2   -1    0    0    0  501  0.00000000000E+00  0.00000000000E+00 -0.95361026785E+03  0.95361026786E+03  0.25500000920E-02 0. -1.
    10030    2    1    2    0    0  0.00000000000E+00  0.00000000000E+00  0.20772781711E+04  0.39844987068E+04  0.34001684288E+04 0.  0.
        3    1    3    3  502    0 -0.41464355653E+03  0.39055934441E+03  0.29157346799E+04  0.29708541894E+04  0.10100000352E+00 0.  1.
       -3    1    3    3    0  502  0.41464355653E+03 -0.39055934441E+03 -0.83845650880E+03  0.10136445175E+04  0.10100000352E+00 0. -1.
</event>
<event>
 5   0  0.5001197E-08  0.3399109E+04  0.7818609E-02  0.8138125E-01
        2   -1    0    0  501    0  0.00000000000E+00  0.00000000000E+00  0.22685549457E+04  0.22685549457E+04  0.25500000920E-02 0. -1.
       -2   -1    0    0    0  501  0.00000000000E+00  0.00000000000E+00 -0.12732709314E+04  0.12732709314E+04  0.25500000920E-02 0.  1.
    10030    2    1    2    0    0  0.00000000000E+00  0.00000000000E+00  0.99528401432E+03  0.35418258771E+04  0.33991087471E+04 0.  0.
        5    1    3    3  502    0 -0.82615639476E+03  0.14589734513E+04  0.20789278662E+03  0.16894908762E+04  0.46999998093E+01 0. -1.
       -5    1    3    3    0  502  0.82615639476E+03 -0.14589734513E+04  0.78739122770E+03  0.18523350009E+04  0.46999998093E+01 0.  1.
</event>
<event>
 5   0  0.1595851E-08  0.3400617E+04  0.7818609E-02  0.8137755E-01
       -1   -1    0    0    0  501  0.00000000000E+00  0.00000000000E+00  0.99699535028E+03  0.99699535029E+03  0.50400001928E-02 0. -1.
        1   -1    0    0  501    0  0.00000000000E+00  0.00000000000E+00 -0.28997623225E+04  0.28997623225E+04  0.50400001928E-02 0.  1.
    10030    2    1    2    0    0  0.00000000000E+00  0.00000000000E+00 -0.19027669722E+04  0.38967576728E+04  0.34006173278E+04 0.  0.
        2    1    3    3  502    0  0.10362987323E+03  0.11878665155E+04  0.43760435144E+03  0.12701431328E+04  0.25500000920E-02 0. -1.
       -2    1    3    3    0  502 -0.10362987323E+03 -0.11878665155E+04 -0.23403713237E+04  0.26266145400E+04  0.25500000920E-02 0.  1.
</event>
<event>
 5   0  0.4764953E-08  0.3386917E+04  0.7818609E-02  0.8141125E-01
       -2   -1    0    0    0  501  0.00000000000E+00  0.00000000000E+00  0.17557355399E+04  0.17557355399E+04  0.25500000920E-02 0.  1.
        2   -1    0    0  501    0  0.00000000000E+00  0.00000000000E+00 -0.16333908121E+04  0.16333908121E+04  0.25500000920E-02 0. -1.
    10030    2    1    2    0    0  0.00000000000E+00  0.00000000000E+00  0.12234472779E+03  0.33891263520E+04  0.33869173591E+04 0.  0.
        2    1    3    3  502    0 -0.14115756460E+04 -0.63208735617E+03  0.75134829520E+03  0.17194779704E+04  0.25500000920E-02 0.  1.
       -2    1    3    3    0  502  0.14115756460E+04  0.63208735617E+03 -0.62900356741E+03  0.16696483815E+04  0.25500000920E-02 0. -1.
</event>
<event>
 5   0  0.1595851E-08  0.3401882E+04  0.7818609E-02  0.8137445E-01
       -1   -1    0    0    0  501  0.00000000000E+00  0.00000000000E+00  0.15630866290E+04  0.15630866290E+04  0.50400001928E-02 0. -1.
        1   -1    0    0  501    0  0.00000000000E+00  0.00000000000E+00 -0.18509527607E+04  0.18509527607E+04  0.50400001928E-02 0.  1.
    10030    2    1    2    0    0  0.00000000000E+00  0.00000000000E+00 -0.28786613170E+03  0.34140393897E+04  0.34018815448E+04 0.  0.
        2    1    3    3  502    0 -0.27378143623E+03 -0.20362834243E+03  0.15283892213E+04  0.15660122568E+04  0.25500000920E-02 0. -1.
       -2    1    3    3    0  502  0.27378143623E+03  0.20362834243E+03 -0.18162553530E+04  0.18480271329E+04  0.25500000920E-02 0.  1.
</event>
<event>
 5   0  0.5001197E-08  0.3399781E+04  0.7818609E-02  0.8137960E-01
       -2   -1    0    0    0  501  0.00000000000E+00  0.00000000000E+00  0.15254942414E+04  0.15254942414E+04  0.25500000920E-02 0.  1.
        2   -1    0    0  501    0  0.00000000000E+00  0.00000000000E+00 -0.18942236906E+04  0.18942236906E+04  0.25500000920E-02 0. -1.
    10030    2    1    2    0    0  0.00000000000E+00  0.00000000000E+00 -0.36872944920E+03  0.34197179319E+04  0.33997807764E+04 0.  0.
        5    1    3    3  502    0  0.40890748175E+03 -0.12028236409E+03 -0.18395943635E+04  0.18883333095E+04  0.46999998093E+01 0. -1.
       -5    1    3    3    0  502 -0.40890748175E+03  0.12028236409E+03  0.14708649143E+04  0.15313846224E+04  0.46999998093E+01 0.  1.
</event>
<event>
 5   0  0.1625282E-08  0.3400639E+04  0.7818609E-02  0.8137749E-01
       -1   -1    0    0    0  501  0.00000000000E+00  0.00000000000E+00  0.18556795042E+04  0.18556795043E+04  0.50400001928E-02 0.  1.
        1   -1    0    0  501    0  0.00000000000E+00  0.00000000000E+00 -0.15579667791E+04  0.15579667791E+04  0.50400001928E-02 0. -1.
    10030    2    1    2    0    0  0.00000000000E+00  0.00000000000E+00  0.29771272519E+03  0.34136462833E+04  0.34006393635E+04 0.  0.
        1    1    3    3  502    0 -0.14235073763E+04 -0.68810029018E+03 -0.47902124166E+03  0.16520643479E+04  0.50400001928E-02 0. -1.
       -1    1    3    3    0  502  0.14235073763E+04  0.68810029018E+03  0.77673396685E+03  0.17615819354E+04  0.50400001928E-02 0.  1.
</event>
<event>
 5   0  0.1595851E-08  0.3396199E+04  0.7818609E-02  0.8138840E-01
        1   -1    0    0  501    0  0.00000000000E+00  0.00000000000E+00  0.28580749372E+04  0.28580749372E+04  0.50400001928E-02 0.  1.
       -1   -1    0    0    0  501  0.00000000000E+00  0.00000000000E+00 -0.10089106992E+04  0.10089106992E+04  0.50400001928E-02 0. -1.
    10030    2    1    2    0    0  0.00000000000E+00  0.00000000000E+00  0.18491642380E+04  0.38669856364E+04  0.33961992776E+04 0.  0.
        2    1    3    3  502    0  0.15740911109E+04 -0.61523887285E+03  0.11125777655E+04  0.20233909608E+04  0.25500000920E-02 0. -1.
       -2    1    3    3    0  502 -0.15740911109E+04  0.61523887285E+03  0.73658647258E+03  0.18435946756E+04  0.25500000920E-02 0.  1.
</event>
<event>
 5   0  0.1625282E-08  0.3400003E+04  0.7818609E-02  0.8137906E-01
        1   -1    0    0  501    0  0.00000000000E+00  0.00000000000E+00  0.19172296525E+04  0.19172296525E+04  0.50400001928E-02 0. -1.
       -1   -1    0    0    0  501  0.00000000000E+00  0.00000000000E+00 -0.15073860967E+04  0.15073860967E+04  0.50400001928E-02 0.  1.
    10030    2    1    2    0    0  0.00000000000E+00  0.00000000000E+00  0.40984355582E+03  0.34246157492E+04  0.34000031308E+04 0.  0.
        1    1    3    3  502    0 -0.58227596272E+02 -0.16291532035E+04 -0.28072486262E+03  0.16541877348E+04  0.50400001928E-02 0.  1.
       -1    1    3    3    0  502  0.58227596272E+02  0.16291532035E+04  0.69056841845E+03  0.17704280144E+04  0.50400001928E-02 0. -1.
</event>
<event>
 5   0  0.5001197E-08  0.3399304E+04  0.7818609E-02  0.8138077E-01
       -2   -1    0    0    0  501  0.00000000000E+00  0.00000000000E+00  0.10457585907E+04  0.10457585907E+04  0.25500000920E-02 0.  1.
        2   -1    0    0  501    0  0.00000000000E+00  0.00000000000E+00 -0.27624124666E+04  0.27624124666E+04  0.25500000920E-02 0. -1.
    10030    2    1    2    0    0  0.00000000000E+00  0.00000000000E+00 -0.17166538760E+04  0.38081710573E+04  0.33993037922E+04 0.  0.
        5    1    3    3  502    0 -0.88566799625E+03  0.92840221712E+03  0.39039855600E+03  0.13411829103E+04  0.46999998093E+01 0.  1.
       -5    1    3    3    0  502  0.88566799625E+03 -0.92840221712E+03 -0.21070524320E+04  0.24669881470E+04  0.46999998093E+01 0. -1.
</event>
<event>
 5   0  0.1579536E-08  0.3401244E+04  0.7818609E-02  0.8137601E-01
        1   -1    0    0  501    0  0.00000000000E+00  0.00000000000E+00  0.23791793601E+04  0.23791793601E+04  0.50400001928E-02 0. -1.
       -1   -1    0    0    0  501  0.00000000000E+00  0.00000000000E+00 -0.12155937638E+04  0.12155937638E+04  0.50400001928E-02 0.  1.
    10030    2    1    2    0    0  0.00000000000E+00  0.00000000000E+00  0.11635855963E+04  0.35947731239E+04  0.34012442388E+04 0.  0.
        5    1    3    3  502    0 -0.12537773062E+04 -0.97022941554E+03 -0.68686391724E+02  0.15868341321E+04  0.46999998093E+01 0.  1.
       -5    1    3    3    0  502  0.12537773062E+04  0.97022941554E+03  0.12322719880E+04  0.20079389918E+04  0.46999998093E+01 0. -1.
</event>
<event>
 5   0  0.1630571E-08  0.3397793E+04  0.7818609E-02  0.8138448E-01
       -1   -1    0    0    0  501  0.00000000000E+00  0.00000000000E+00  0.19202553843E+04  0.19202553843E+04  0.50400001928E-02 0. -1.
        1   -1    0    0  501    0  0.00000000000E+00  0.00000000000E+00 -0.15030553154E+04  0.15030553154E+04  0.50400001928E-02 0.  1.
    10030    2    1    2    0    0  0.00000000000E+00  0.00000000000E+00  0.41720006895E+03  0.34233106997E+04  0.33977934383E+04 0.  0.
        3    1    3    3  502    0 -0.75388721027E+03  0.14163713302E+04 -0.35398073062E+03  0.16430934358E+04  0.10100000352E+00 0.  1.
       -3    1    3    3    0  502  0.75388721027E+03 -0.14163713302E+04  0.77118079957E+03  0.17802172639E+04  0.10100000352E+00 0. -1.
</event>
<event>
 5   0  0.4973409E-08  0.3407814E+04  0.7818609E-02  0.8135991E-01
       -2   -1    0    0    0  501  0.00000000000E+00  0.00000000000E+00  0.18849570602E+04  0.18849570602E+04  0.25500000920E-02 0.  1.
        2   -1    0    0  501    0  0.00000000000E+00  0.00000000000E+00 -0.15402470069E+04  0.15402470069E+04  0.25500000920E-02 0. -1.
    10030    2    1    2    0    0  0.00000000000E+00  0.00000000000E+00  0.34471005327E+03  0.34252040671E+04  0.34078142380E+04 0.  0.
        1    1    3    3  502    0  0.29816130815E+03 -0.14519960666E+04 -0.67223454048E+03  0.16276031521E+04  0.50400001928E-02 0. -1.
       -1    1    3    3    0  502 -0.29816130815E+03  0.14519960666E+04  0.10169445937E+04  0.17976009151E+04  0.50400001928E-02 0.  1.
</event>
<event>
 5   0  0.1630571E-08  0.3399335E+04  0.7818609E-02  0.8138070E-01
       -1   -1    0    0    0  501  0.00000000000E+00  0.00000000000E+00  0.13218651268E+04  0.13218651268E+04  0.50400001928E-02 0. -1.
        1   -1    0    0  501    0  0.00000000000E+00  0.00000000000E+00 -0.21854490166E+04  0.21854490166E+04  0.50400001928E-02 0.  1.
    10030    2    1    2    0    0  0.00000000000E+00  0.00000000000E+00 -0.86358388982E+03  0.35073141434E+04  0.33993345475E+04 0.  0.
        3    1    3    3  502    0 -0.80858221112E+03 -0.95611050293E+03 -0.16176109750E+04  0.20456338291E+04  0.10100000352E+00 0.  1.
       -3    1    3    3    0  502  0.80858221112E+03  0.95611050293E+03  0.75402708520E+03  0.14616803144E+04  0.10100000352E+00 0. -1.
</event>
<event>
 5   0  0.4946315E-08  0.3400568E+04  0.7818609E-02  0.8137767E-01
        2   -1    0    0  501    0  0.00000000000E+00  0.00000000000E+00  0.17420702817E+04  0.17420702817E+04  0.25500000920E-02 0.  1.
       -2   -1    0    0    0  501  0.00000000000E+00  0.00000000000E+00 -0.16594995565E+04  0.16594995565E+04  0.25500000920E-02 0. -1.
    10030    2    1    2    0    0  0.00000000000E+00  0.00000000000E+00  0.82570725201E+02  0.34015698383E+04  0.34005675173E+04 0.  0.
        3    1    3    3  502    0 -0.90588695215E+03 -0.91178082225E+03 -0.10721417372E+04  0.16737572562E+04  0.10100000352E+00 0. -1.
       -3    1    3    3    0  502  0.90588695215E+03  0.91178082225E+03  0.11547124624E+04  0.17278125821E+04  0.10100000352E+00 0.  1.
</event>
<event>
 5   0  0.1625282E-08  0.3399134E+04  0.7818609E-02  0.8138119E-01
        1   -1    0    0  501    0  0.00000000000E+00  0.00000000000E+00  0.15283701744E+04  0.15283701745E+04  0.50400001928E-02 0. -1.
       -1   -1    0    0    0  501  0.00000000000E+00  0.00000000000E+00 -0.18899403393E+04  0.18899403393E+04  0.50400001928E-02 0.  1.
    10030    2    1    2    0    0  0.00000000000E+00  0.00000000000E+00 -0.36157016481E+03  0.34183105137E+04  0.33991342698E+04 0.  0.
        1    1    3    3  502    0  0.87886414264E+03 -0.13666765537E+04 -0.68191498637E+03  0.17621620335E+04  0.50400001928E-02 0.  1.
       -1    1    3    3    0  502 -0.87886414264E+03  0.13666765537E+04  0.32034482156E+03  0.16561484802E+04  0.50400001928E-02 0. -1.
</event>
<event>
 5   0  0.1625282E-08  0.3399954E+04  0.7818609E-02  0.8137918E-01
        1   -1    0    0  501    0  0.00000000000E+00  0.00000000000E+00  0.11563943502E+04  0.11563943503E+04  0.50400001928E-02 0. -1.
       -1   -1    0    0    0  501  0.00000000000E+00  0.00000000000E+00 -0.24990791490E+04  0.24990791490E+04  0.50400001928E-02 0.  1.
    10030    2    1    2    0    0  0.00000000000E+00  0.00000000000E+00 -0.13426847987E+04  0.36554734992E+04  0.33999535342E+04 0.  0.
        1    1    3    3  502    0  0.29639552743E+03  0.53430816150E+03 -0.23769397079E+04  0.24542163505E+04  0.50400001928E-02 0.  1.
       -1    1    3    3    0  502 -0.29639552743E+03 -0.53430816150E+03  0.10342549092E+04  0.12012571487E+04  0.50400001928E-02 0. -1.
</event>
<event>
 5   0  0.4973409E-08  0.3399383E+04  0.7818609E-02  0.8138058E-01
       -2   -1    0    0    0  501  0.00000000000E+00  0.00000000000E+00  0.18212920197E+04  0.18212920197E+04  0.25500000920E-02 0.  1.
        2   -1    0    0  501    0  0.00000000000E+00  0.00000000000E+00 -0.15862097161E+04  0.15862097161E+04  0.25500000920E-02 0. -1.
    10030    2    1    2    0    0  0.00000000000E+00  0.00000000000E+00  0.23508230360E+03  0.34075017358E+04  0.33993829426E+04 0.  0.
        1    1    3    3  502    0 -0.87090129283E+03 -0.51503912716E+02  0.15797331257E+04  0.18046269596E+04  0.50400001928E-02 0.  1.
       -1    1    3    3    0  502  0.87090129283E+03  0.51503912716E+02 -0.13446508221E+04  0.16028747762E+04  0.50400001928E-02 0. -1.
</event>
<event>
 5   0  0.1630571E-08  0.3399671E+04  0.7818609E-02  0.8137987E-01
        1   -1    0    0  501    0  0.00000000000E+00  0.00000000000E+00  0.14135886386E+04  0.14135886386E+04  0.50400001928E-02 0.  1.
       -1   -1    0    0    0  501  0.00000000000E+00  0.00000000000E+00 -0.20440463040E+04  0.20440463040E+04  0.50400001928E-02 0. -1.
    10030    2    1    2    0    0  0.00000000000E+00  0.00000000000E+00 -0.63045766542E+03  0.34576349426E+04  0.33996709441E+04 0.  0.
        3    1    3    3  502    0 -0.43020365762E+01  0.16353184326E+04  0.15652856768E+03  0.16427982488E+04  0.10100000352E+00 0.  1.
       -3    1    3    3    0  502  0.43020365762E+01 -0.16353184326E+04 -0.78698623310E+03  0.18148366937E+04  0.10100000352E+00 0. -1.
</event>
<event>
 5   0  0.1625282E-08  0.3395781E+04  0.7818609E-02  0.8138943E-01
       -1   -1    0    0    0  501  0.00000000000E+00  0.00000000000E+00  0.10647835832E+04  0.10647835832E+04  0.50400001928E-02 0.  1.
        1   -1    0    0  501    0  0.00000000000E+00  0.00000000000E+00 -0.27074349106E+04  0.27074349106E+04  0.50400001928E-02 0. -1.
    10030    2    1    2    0    0  0.00000000000E+00  0.00000000000E+00 -0.16426513274E+04  0.37722184938E+04  0.33957810562E+04 0.  0.
        1    1    3    3  502    0 -0.95182433225E+03 -0.12884400410E+04 -0.14465551142E+04  0.21583718395E+04  0.50400001928E-02 0. -1.
       -1    1    3    3    0  502  0.95182433225E+03  0.12884400410E+04 -0.19609621317E+03  0.16138466543E+04  0.50400001928E-02 0.  1.
</event>
<event>
 5   0  0.4946315E-08  0.3400614E+04  0.7818609E-02  0.8137756E-01
       -2   -1    0    0    0  501  0.00000000000E+00  0.00000000000E+00  0.20189225399E+04  0.20189225399E+04  0.25500000920E-02 0. -1.
        2   -1    0    0  501    0  0.00000000000E+00  0.00000000000E+00 -0.14319739678E+04  0.14319739679E+04  0.25500000920E-02 0.  1.
    10030    2    1    2    0    0  0.00000000000E+00  0.00000000000E+00  0.58694857209E+03  0.34508965078E+04  0.34006143682E+04 0.  0.
        3    1    3    3  502    0  0.23632069789E+03 -0.95864246685E+03  0.16982117188E+04  0.19643741760E+04  0.10100000352E+00 0. -1.
       -3    1    3    3    0  502 -0.23632069789E+03  0.95864246685E+03 -0.11112631467E+04  0.14865223318E+04  0.10100000352E+00 0.  1.
</event>
<event>
 5   0  0.5001197E-08  0.3399309E+04  0.7818609E-02  0.8138076E-01
        2   -1    0    0  501    0  0.00000000000E+00  0.00000000000E+00  0.23175964237E+04  0.23175964237E+04  0.25500000920E-02 0. -1.
       -2   -1    0    0    0  501  0.00000000000E+00  0.00000000000E+00 -0.12464746090E+04  0.12464746090E+04  0.25500000920E-02 0.  1.
    10030    2    1    2    0    0  0.00000000000E+00  0.00000000000E+00  0.10711218147E+04  0.35640710327E+04  0.33993088097E+04 0.  0.
        5    1    3    3  502    0  0.30987179390E+03 -0.32684345082E+03  0.22538853386E+04  0.22984491249E+04  0.46999998093E+01 0. -1.
       -5    1    3    3    0  502 -0.30987179390E+03  0.32684345082E+03 -0.11827635239E+04  0.12656219078E+04  0.46999998093E+01 0.  1.
</event>
<event>
 5   0  0.4764953E-08  0.3399501E+04  0.7818609E-02  0.8138029E-01
        2   -1    0    0  501    0  0.00000000000E+00  0.00000000000E+00  0.27472272844E+04  0.27472272844E+04  0.25500000920E-02 0. -1.
       -2   -1    0    0    0  501  0.00000000000E+00  0.00000000000E+00 -0.10516608909E+04  0.10516608909E+04  0.25500000920E-02 0.  1.
    10030    2    1    2    0    0  0.00000000000E+00  0.00000000000E+00  0.16955663936E+04  0.37988881753E+04  0.33995008418E+04 0.  0.
        2    1    3    3  502    0  0.13545663656E+04 -0.63079176015E+03 -0.57588064433E+02  0.14953476749E+04  0.25500000920E-02 0.  1.
       -2    1    3    3    0  502 -0.13545663656E+04  0.63079176015E+03  0.17531544580E+04  0.23035405004E+04  0.25500000920E-02 0. -1.
</event>
<event>
 5   0  0.4764953E-08  0.3412860E+04  0.7818609E-02  0.8134757E-01
       -2   -1    0    0    0  501  0.00000000000E+00  0.00000000000E+00  0.18908803581E+04  0.18908803581E+04  0.25500000920E-02 0. -1.
        2   -1    0    0  501    0  0.00000000000E+00  0.00000000000E+00 -0.15399723116E+04  0.15399723116E+04  0.25500000920E-02 0.  1.
    10030    2    1    2    0    0  0.00000000000E+00  0.00000000000E+00  0.35090804652E+03  0.34308526698E+04  0.34128600300E+04 0.  0.
        2    1    3    3  502    0 -0.52320399360E+03  0.63255365933E+03  0.16793479572E+04  0.18692447973E+04  0.25500000920E-02 0. -1.
       -2    1    3    3    0  502  0.52320399360E+03 -0.63255365933E+03 -0.13284399107E+04  0.15616078724E+04  0.25500000920E-02 0.  1.
</event>
<event>
 5   0  0.4946315E-08  0.3400206E+04  0.7818609E-02  0.8137856E-01
       -2   -1    0    0    0  501  0.00000000000E+00  0.00000000000E+00  0.14743313342E+04  0.14743313342E+04  0.25500000920E-02 0.  1.
        2   -1    0    0  501    0  0.00000000000E+00  0.00000000000E+00 -0.19604477119E+04  0.19604477119E+04  0.25500000920E-02 0. -1.
    10030    2    1    2    0    0  0.00000000000E+00  0.00000000000E+00 -0.48611637770E+03  0.34347790460E+04  0.34002055765E+04 0.  0.
        3    1    3    3  502    0 -0.16892776944E+04 -0.15340147619E+03 -0.35893436636E+03  0.17337892119E+04  0.10100000352E+00 0.  1.
       -3    1    3    3    0  502  0.16892776944E+04  0.15340147619E+03 -0.12718201133E+03  0.17009898342E+04  0.10100000352E+00 0. -1.
</event>
<event>
 5   0  0.1595851E-08  0.3399193E+04  0.7818609E-02  0.8138105E-01
        1   -1    0    0  501    0  0.00000000000E+00  0.00000000000E+00  0.90445365188E+03  0.90445365190E+03  0.50400001928E-02 0.  1.
       -1   -1    0    0    0  501  0.00000000000E+00  0.00000000000E+00 -0.31937816964E+04  0.31937816964E+04  0.50400001928E-02 0. -1.
    10030    2    1    2    0    0  0.00000000000E+00  0.00000000000E+00 -0.22893280445E+04  0.40982353483E+04  0.33991925621E+04 0.  0.
        2    1    3    3  502    0 -0.90038972238E+03  0.60913762532E+03 -0.27198152943E+04  0.29290178445E+04  0.25500000920E-02 0. -1.
       -2    1    3    3    0  502  0.90038972238E+03 -0.60913762532E+03  0.43048724979E+03  0.11692175037E+04  0.25500000920E-02 0.  1.
</event>
<event>
 5   0  0.4973409E-08  0.3407731E+04  0.7818609E-02  0.8136012E-01
       -2   -1    0    0    0  501  0.00000000000E+00  0.00000000000E+00  0.15403727382E+04  0.15403727382E+04  0.25500000920E-02 0.  1.
        2   -1    0    0  501    0  0.00000000000E+00  0.00000000000E+00 -0.18847108220E+04  0.18847108220E+04  0.25500000920E-02 0. -1.
    10030    2    1    2    0    0  0.00000000000E+00  0.00000000000E+00 -0.34433808380E+03  0.34250835603E+04  0.34077307228E+04 0.  0.
        1    1    3    3  502    0  0.57295561553E+03  0.12381313983E+04  0.85376853391E+03  0.16093999523E+04  0.50400001928E-02 0. -1.
       -1    1    3    3    0  502 -0.57295561553E+03 -0.12381313983E+04 -0.11981066177E+04  0.18156836080E+04  0.50400001928E-02 0.  1.
</event>
<event>
 5   0  0.1630571E-08  0.3400668E+04  0.7818609E-02  0.8137742E-01
       -1   -1    0    0    0  501  0.00000000000E+00  0.00000000000E+00  0.15758450496E+04  0.15758450496E+04  0.50400001928E-02 0. -1.
        1   -1    0    0  501    0  0.00000000000E+00  0.00000000000E+00 -0.18346574798E+04  0.18346574798E+04  0.50400001928E-02 0.  1.
    10030    2    1    2    0    0  0.00000000000E+00  0.00000000000E+00 -0.25881243025E+03  0.34105025294E+04  0.34006681151E+04 0.  0.
        3    1    3    3  502    0 -0.75218404298E+01  0.46598904593E+03 -0.17693517698E+04  0.18297016326E+04  0.10100000352E+00 0.  1.
       -3    1    3    3    0  502  0.75218404298E+01 -0.46598904593E+03  0.15105393395E+04  0.15808008968E+04  0.10100000352E+00 0. -1.
</event>
<event>
 5   0  0.1630571E-08  0.3399318E+04  0.7818609E-02  0.8138074E-01
        1   -1    0    0  501    0  0.00000000000E+00  0.00000000000E+00  0.17813062384E+04  0.17813062384E+04  0.50400001928E-02 0. -1.
       -1   -1    0    0    0  501  0.00000000000E+00  0.00000000000E+00 -0.16217540273E+04  0.16217540273E+04  0.50400001928E-02 0.  1.
    10030    2    1    2    0    0  0.00000000000E+00  0.00000000000E+00  0.15955221106E+03  0.34030602657E+04  0.33993179116E+04 0.  0.
        3    1    3    3  502    0 -0.98535146327E+03  0.78586781526E+03 -0.10618015371E+04  0.16480073555E+04  0.10100000352E+00 0.  1.
       -3    1    3    3    0  502  0.98535146327E+03 -0.78586781526E+03  0.12213537482E+04  0.17550529102E+04  0.10100000352E+00 0. -1.
</event>
<event>
 5   0  0.1645631E-08  0.3397862E+04  0.7818609E-02  0.8138431E-01
        1   -1    0    0  501    0  0.00000000000E+00  0.00000000000E+00  0.16124266552E+04  0.16124266552E+04  0.50400001928E-02 0. -1.
       -1   -1    0    0    0  501  0.00000000000E+00  0.00000000000E+00 -0.17900758994E+04  0.17900758994E+04  0.50400001928E-02 0.  1.
    10030    2    1    2    0    0  0.00000000000E+00  0.00000000000E+00 -0.17764924416E+03  0.34025025546E+04  0.33978617364E+04 0.  0.
        4    1    3    3  502    0 -0.89770290027E+03 -0.97812568969E+03  0.97270064974E+03  0.16458276121E+04  0.12699999809E+01 0. -1.
       -4    1    3    3    0  502  0.89770290027E+03  0.97812568969E+03 -0.11503498939E+04  0.17566749424E+04  0.12699999809E+01 0.  1.
</event>
<event>
 5   0  0.4775023E-08  0.3402426E+04  0.7818609E-02  0.8137311E-01
        2   -1    0    0  501    0  0.00000000000E+00  0.00000000000E+00  0.23536302448E+04  0.23536302448E+04  0.25500000920E-02 0. -1.
       -2   -1    0    0    0  501  0.00000000000E+00  0.00000000000E+00 -0.12296432421E+04  0.12296432421E+04  0.25500000920E-02 0.  1.
    10030    2    1    2    0    0  0.00000000000E+00  0.00000000000E+00  0.11239870027E+04  0.35832734869E+04  0.34024259139E+04 0.  0.
        4    1    3    3  502    0  0.72329775976E+03  0.67615805594E+03 -0.89492972108E+03  0.13346348506E+04  0.12699999809E+01 0.  1.
       -4    1    3    3    0  502 -0.72329775976E+03 -0.67615805594E+03  0.20189167238E+04  0.22486386363E+04  0.12699999809E+01 0. -1.
</event>
<event>
 5   0  0.1630571E-08  0.3399764E+04  0.7818609E-02  0.8137964E-01
        1   -1    0    0  501    0  0.00000000000E+00  0.00000000000E+00  0.10808660060E+04  0.10808660060E+04  0.50400001928E-02 0. -1.
       -1   -1    0    0    0  501  0.00000000000E+00  0.00000000000E+00 -0.26734101265E+04  0.26734101265E+04  0.50400001928E-02 0.  1.
    10030    2    1    2    0    0  0.00000000000E+00  0.00000000000E+00 -0.15925441205E+04  0.37542761325E+04  0.33997635953E+04 0.  0.
        3    1    3    3  502    0  0.47959781204E+03  0.10903391204E+04 -0.21354741951E+04  0.24452205436E+04  0.10100000352E+00 0.  1.
       -3    1    3    3    0  502 -0.47959781204E+03 -0.10903391204E+04  0.54293007459E+03  0.13090555889E+04  0.10100000352E+00 0. -1.
</event>
<event>
 5   0  0.5001197E-08  0.3398339E+04  0.7818609E-02  0.8138314E-01
        2   -1    0    0  501    0  0.00000000000E+00  0.00000000000E+00  0.27626012667E+04  0.27626012667E+04  0.25500000920E-02 0.  1.
       -2   -1    0    0    0  501  0.00000000000E+00  0.00000000000E+00 -0.10450936767E+04  0.10450936767E+04  0.25500000920E-02 0. -1.
    10030    2    1    2    0    0  0.00000000000E+00  0.00000000000E+00  0.17175075900E+04  0.38076949434E+04  0.33983390737E+04 0.  0.
        5    1    3    3  502    0  0.10424946200E+04  0.54948716571E+03 -0.51279977940E+03  0.12851913795E+04  0.46999998093E+01 0. -1.
       -5    1    3    3    0  502 -0.10424946200E+04 -0.54948716571E+03  0.22303073693E+04  0.25225035639E+04  0.46999998093E+01 0.  1.
</event>
<event>
 5   0  0.1630571E-08  0.3400551E+04  0.7818609E-02  0.8137771E-01
        1   -1    0    0  501    0  0.00000000000E+00  0.00000000000E+00  0.19303639204E+04  0.19303639204E+04  0.50400001928E-02 0.  1.
       -1   -1    0    0    0  501  0.00000000000E+00  0.00000000000E+00 -0.14976127300E+04  0.14976127300E+04  0.50400001928E-02 0. -1.
    10030    2    1    2    0    0  0.00000000000E+00  0.00000000000E+00  0.43275119043E+03  0.34279766504E+04  0.34005514734E+04 0.  0.
        3    1    3    3  502    0  0.16461422610E+04  0.59083072047E+02 -0.20852396933E+03  0.16603485805E+04  0.10100000352E+00 0. -1.
       -3    1    3    3    0  502 -0.16461422610E+04 -0.59083072047E+02  0.64127515976E+03  0.17676280699E+04  0.10100000352E+00 0.  1.
</event>
<event>
 5   0  0.4973409E-08  0.3401771E+04  0.7818609E-02  0.8137472E-01
       -2   -1    0    0    0  501  0.00000000000E+00  0.00000000000E+00  0.13959244127E+04  0.13959244127E+04  0.25500000920E-02 0. -1.
        2   -1    0    0  501    0  0.00000000000E+00  0.00000000000E+00 -0.20724696735E+04  0.20724696735E+04  0.25500000920E-02 0.  1.
    10030    2    1    2    0    0  0.00000000000E+00  0.00000000000E+00 -0.67654526072E+03  0.34683940862E+04  0.34017707223E+04 0.  0.
        1    1    3    3  502    0  0.15165832762E+04 -0.74763045100E+03 -0.15017403439E+03  0.16975065141E+04  0.50400001928E-02 0.  1.
       -1    1    3    3    0  502 -0.15165832762E+04  0.74763045100E+03 -0.52637122634E+03  0.17708875721E+04  0.50400001928E-02 0. -1.
</event>
<event>
 5   0  0.1630571E-08  0.3397480E+04  0.7818609E-02  0.8138525E-01
        1   -1    0    0  501    0  0.00000000000E+00  0.00000000000E+00  0.30706259532E+04  0.30706259532E+04  0.50400001928E-02 0. -1.
       -1   -1    0    0    0  501  0.00000000000E+00  0.00000000000E+00 -0.93978152680E+03  0.93978152681E+03  0.50400001928E-02 0.  1.
    10030    2    1    2    0    0  0.00000000000E+00  0.00000000000E+00  0.21308444264E+04  0.40104074800E+04  0.33974799759E+04 0.  0.
        3    1    3    3  502    0  0.34078022519E+03  0.16015343920E+04  0.15994488235E+04  0.22889473825E+04  0.10100000352E+00 0. -1.
       -3    1    3    3    0  502 -0.34078022519E+03 -0.16015343920E+04  0.53139560290E+03  0.17214600976E+04  0.10100000352E+00 0.  1.
</event>
<event>
 5   0  0.5001197E-08  0.3399589E+04  0.7818609E-02  0.8138007E-01
       -2   -1    0    0    0  501  0.00000000000E+00  0.00000000000E+00  0.13912835324E+04  0.13912835324E+04  0.25500000920E-02 0.  1.
        2   -1    0    0  501    0  0.00000000000E+00  0.00000000000E+00 -0.20767168600E+04  0.20767168600E+04  0.25500000920E-02 0. -1.
    10030    2    1    2    0    0  0.00000000000E+00  0.00000000000E+00 -0.68543332757E+03  0.34680003924E+04  0.33995893686E+04 0.  0.
        5    1    3    3  502    0 -0.12834712893E+04 -0.97209608343E+03  0.21323700559E+03  0.16241186707E+04  0.46999998093E+01 0. -1.
       -5    1    3    3    0  502  0.12834712893E+04  0.97209608343E+03 -0.89867033317E+03  0.18438817217E+04  0.46999998093E+01 0.  1.
</event>
<event>
 5   0  0.4946315E-08  0.3401184E+04  0.7818609E-02  0.8137616E-01
        2   -1    0    0  501    0  0.00000000000E+00  0.00000000000E+00  0.13201957441E+04  0.13201957441E+04  0.25500000920E-02 0. -1.
       -2   -1    0    0    0  501  0.00000000000E+00  0.00000000000E+00 -0.21905945643E+04  0.21905945643E+04  0.25500000920E-02 0.  1.
    10030    2    1    2    0    0  0.00000000000E+00  0.00000000000E+00 -0.87039882021E+03  0.35107903085E+04  0.34011842767E+04 0.  0.
        3    1    3    3  502    0 -0.44832116145E+03  0.74199378873E+03  0.10749815580E+04  0.13809895027E+04  0.10100000352E+00 0. -1.
       -3    1    3    3    0  502  0.44832116145E+03 -0.74199378873E+03 -0.19453803782E+04  0.21298008058E+04  0.10100000352E+00 0.  1.
</event>
<event>
 5   0  0.4946315E-08  0.3403824E+04  0.7818609E-02  0.8136968E-01
       -2   -1    0    0    0  501  0.00000000000E+00  0.00000000000E+00  0.13243275208E+04  0.13243275208E+04  0.25500000920E-02 0.  1.
        2   -1    0    0  501    0  0.00000000000E+00  0.00000000000E+00 -0.21871510575E+04  0.21871510575E+04  0.25500000920E-02 0. -1.
    10030    2    1    2    0    0  0.00000000000E+00  0.00000000000E+00 -0.86282353675E+03  0.35114785783E+04  0.34038239305E+04 0.  0.
        3    1    3    3  502    0  0.72192330053E+03 -0.60267066879E+02  0.11573278194E+04  0.13653618799E+04  0.10100000352E+00 0.  1.
       -3    1    3    3    0  502 -0.72192330053E+03  0.60267066879E+02 -0.20201513561E+04  0.21461166984E+04  0.10100000352E+00 0. -1.
</event>
<event>
 5   0  0.1625282E-08  0.3401353E+04  0.7818609E-02  0.8137574E-01
        1   -1    0    0  501    0  0.00000000000E+00  0.00000000000E+00  0.19607909031E+04  0.19607909031E+04  0.50400001928E-02 0. -1.
       -1   -1    0    0    0  501  0.00000000000E+00  0.00000000000E+00 -0.14750681366E+04  0.14750681366E+04  0.50400001928E-02 0.  1.
    10030    2    1    2    0    0  0.00000000000E+00  0.00000000000E+00  0.48572276656E+03  0.34358590397E+04  0.34013527801E+04 0.  0.
        1    1    3    3  502    0  0.14875607851E+04  0.52516343124E+03 -0.39893164553E+03  0.16272001035E+04  0.50400001928E-02 0.  1.
       -1    1    3    3    0  502 -0.14875607851E+04 -0.52516343124E+03  0.88465441209E+03  0.18086589363E+04  0.50400001928E-02 0. -1.
</event>
<event>
 5   0  0.1645631E-08  0.3399019E+04  0.7818609E-02  0.8138147E-01
       -1   -1    0    0    0  501  0.00000000000E+00  0.00000000000E+00  0.18324210440E+04  0.18324210440E+04  0.50400001928E-02 0.  1.
        1   -1    0    0  501    0  0.00000000000E+00  0.00000000000E+00 -0.15762383558E+04  0.15762383558E+04  0.50400001928E-02 0. -1.
    10030    2    1    2    0    0  0.00000000000E+00  0.00000000000E+00  0.25618268820E+03  0.34086593999E+04  0.33990188782E+04 0.  0.
        4    1    3    3  502    0  0.13419423987E+04 -0.15612979024E+03 -0.90592223567E+03  0.16266169257E+04  0.12699999809E+01 0. -1.
       -4    1    3    3    0  502 -0.13419423987E+04  0.15612979024E+03  0.11621049239E+04  0.17820424742E+04  0.12699999809E+01 0.  1.
</event>
<event>
 5   0  0.1625282E-08  0.3400730E+04  0.7818609E-02  0.8137727E-01
        1   -1    0    0  501    0  0.00000000000E+00  0.00000000000E+00  0.11875309678E+04  0.11875309678E+04  0.50400001928E-02 0.  1.
       -1   -1    0    0    0  501  0.00000000000E+00  0.00000000000E+00 -0.24346652852E+04  0.24346652852E+04  0.50400001928E-02 0. -1.
    10030    2    1    2    0    0  0.00000000000E+00  0.00000000000E+00 -0.12471343174E+04  0.36221962530E+04  0.34007295819E+04 0.  0.
        1    1    3    3  502    0 -0.28357352827E+03  0.74231851605E+03 -0.22247240537E+04  0.23623818151E+04  0.50400001928E-02 0. -1.
       -1    1    3    3    0  502  0.28357352827E+03 -0.74231851605E+03  0.97758973631E+03  0.12598144378E+04  0.50400001928E-02 0.  1.
</event>
<event>
 5   0  0.1573625E-08  0.3400357E+04  0.7818609E-02  0.8137819E-01
       -3   -1    0    0    0  501  0.00000000000E+00  0.00000000000E+00  0.17175660457E+04  0.17175660486E+04  0.10100000352E+00 0.  1.
        3   -1    0    0  501    0  0.00000000000E+00  0.00000000000E+00 -0.16829666022E+04  0.16829666052E+04  0.10100000352E+00 0. -1.
    10030    2    1    2    0    0  0.00000000000E+00  0.00000000000E+00  0.34599443462E+02  0.34005326539E+04  0.34003566296E+04 0.  0.
        4    1    3    3  502    0  0.53626297702E+03  0.51124153526E+03  0.15476268914E+04  0.17158369665E+04  0.12699999809E+01 0.  1.
       -4    1    3    3    0  502 -0.53626297702E+03 -0.51124153526E+03 -0.15130274479E+04  0.16846956874E+04  0.12699999809E+01 0. -1.
</event>
<event>
 5   0  0.1630571E-08  0.3405281E+04  0.7818609E-02  0.8136611E-01
        1   -1    0    0  501    0  0.00000000000E+00  0.00000000000E+00  0.23972083604E+04  0.23972083604E+04  0.50400001928E-02 0.  1.
       -1   -1    0    0    0  501  0.00000000000E+00  0.00000000000E+00 -0.12093171908E+04  0.12093171908E+04  0.50400001928E-02 0. -1.
    10030    2    1    2    0    0  0.00000000000E+00  0.00000000000E+00  0.11878911696E+04  0.36065255512E+04  0.34052813571E+04 0.  0.
        3    1    3    3  502    0  0.10623316715E+04 -0.13275681641E+04  0.68867095953E+03  0.18344627310E+04  0.10100000352E+00 0.  1.
       -3    1    3    3    0  502 -0.10623316715E+04  0.13275681641E+04  0.49922021006E+03  0.17720628203E+04  0.10100000352E+00 0. -1.
</event>
<event>
 5   0  0.1645631E-08  0.3400152E+04  0.7818609E-02  0.8137869E-01
       -1   -1    0    0    0  501  0.00000000000E+00  0.00000000000E+00  0.15543752573E+04  0.15543752573E+04  0.50400001928E-02 0.  1.
        1   -1    0    0  501    0  0.00000000000E+00  0.00000000000E+00 -0.18594338858E+04  0.18594338858E+04  0.50400001928E-02 0. -1.
    10030    2    1    2    0    0  0.00000000000E+00  0.00000000000E+00 -0.30505862847E+03  0.34138091431E+04  0.34001517758E+04 0.  0.
        4    1    3    3  502    0  0.14395696153E+04  0.52492821757E+03 -0.89192888607E+03  0.17729774566E+04  0.12699999809E+01 0.  1.
       -4    1    3    3    0  502 -0.14395696153E+04 -0.52492821757E+03  0.58687025760E+03  0.16408316864E+04  0.12699999809E+01 0. -1.
</event>
<event>
 5   0  0.1595851E-08  0.3401445E+04  0.7818609E-02  0.8137552E-01
        1   -1    0    0  501    0  0.00000000000E+00  0.00000000000E+00  0.26874274371E+04  0.26874274371E+04  0.50400001928E-02 0.  1.
       -1   -1    0    0    0  501  0.00000000000E+00  0.00000000000E+00 -0.10762924326E+04  0.10762924326E+04  0.50400001928E-02 0. -1.
    10030    2    1    2    0    0  0.00000000000E+00  0.00000000000E+00  0.16111350045E+04  0.37637198697E+04  0.34014454655E+04 0.  0.
        2    1    3    3  502    0  0.97021544720E+03 -0.47167602209E+03 -0.64925082328E+03  0.12590960707E+04  0.25500000920E-02 0. -1.
       -2    1    3    3    0  502 -0.97021544720E+03  0.47167602209E+03  0.22603858278E+04  0.25046237990E+04  0.25500000920E-02 0.  1.
</event>
<event>
 5   0  0.4764953E-08  0.3395263E+04  0.7818609E-02  0.8139070E-01
        2   -1    0    0  501    0  0.00000000000E+00  0.00000000000E+00  0.21093837321E+04  0.21093837321E+04  0.25500000920E-02 0. -1.
       -2   -1    0    0    0  501  0.00000000000E+00  0.00000000000E+00 -0.13662534760E+04  0.13662534760E+04  0.25500000920E-02 0.  1.
    10030    2    1    2    0    0  0.00000000000E+00  0.00000000000E+00  0.74313025603E+03  0.34756372081E+04  0.33952630863E+04 0.  0.
        2    1    3    3  502    0  0.62581151153E+03  0.55604284031E+02  0.19859913079E+04  0.20830010465E+04  0.25500000920E-02 0. -1.
       -2    1    3    3    0  502 -0.62581151153E+03 -0.55604284031E+02 -0.12428610519E+04  0.13926361617E+04  0.25500000920E-02 0.  1.
</event>
<event>
 5   0  0.1579536E-08  0.3401183E+04  0.7818609E-02  0.8137616E-01
       -1   -1    0    0    0  501  0.00000000000E+00  0.00000000000E+00  0.21555979535E+04  0.21555979535E+04  0.50400001928E-02 0. -1.
        1   -1    0    0  501    0  0.00000000000E+00  0.00000000000E+00 -0.13416284253E+04  0.13416284253E+04  0.50400001928E-02 0.  1.
    10030    2    1    2    0    0  0.00000000000E+00  0.00000000000E+00  0.81396952813E+03  0.34972263788E+04  0.34011830224E+04 0.  0.
        5    1    3    3  502    0 -0.19733932520E+03 -0.87296445046E+03 -0.10798703357E+04  0.14025518788E+04  0.46999998093E+01 0.  1.
       -5    1    3    3    0  502  0.19733932520E+03  0.87296445046E+03  0.18938398638E+04  0.20946744999E+04  0.46999998093E+01 0. -1.
</event>
<event>
 5   0  0.1630571E-08  0.3404828E+04  0.7818609E-02  0.8136722E-01
       -1   -1    0    0    0  501  0.00000000000E+00  0.00000000000E+00  0.13024631991E+04  0.13024631991E+04  0.50400001928E-02 0.  1.
        1   -1    0    0  501    0  0.00000000000E+00  0.00000000000E+00 -0.22251792930E+04  0.22251792930E+04  0.50400001928E-02 0. -1.
    10030    2    1    2    0    0  0.00000000000E+00  0.00000000000E+00 -0.92271609388E+03  0.35276424921E+04  0.34048284189E+04 0.  0.
        3    1    3    3  502    0  0.16571361033E+04  0.58141625186E+02 -0.86092899463E+03  0.18683359595E+04  0.10100000352E+00 0.  1.
       -3    1    3    3    0  502 -0.16571361033E+04 -0.58141625186E+02 -0.61787099259E+02  0.16593065327E+04  0.10100000352E+00 0. -1.
</event>
<event>
 5   0  0.4764953E-08  0.3399254E+04  0.7818609E-02  0.8138089E-01
       -2   -1    0    0    0  501  0.00000000000E+00  0.00000000000E+00  0.24320985463E+04  0.24320985463E+04  0.25500000920E-02 0. -1.
        2   -1    0    0  501    0  0.00000000000E+00  0.00000000000E+00 -0.11877530840E+04  0.11877530840E+04  0.25500000920E-02 0.  1.
    10030    2    1    2    0    0  0.00000000000E+00  0.00000000000E+00  0.12443454622E+04  0.36198516303E+04  0.33992543588E+04 0.  0.
        2    1    3    3  502    0  0.15248049544E+04  0.74674854814E+03  0.53921327622E+03  0.17814080106E+04  0.25500000920E-02 0. -1.
       -2    1    3    3    0  502 -0.15248049544E+04 -0.74674854814E+03  0.70513218603E+03  0.18384436197E+04  0.25500000920E-02 0.  1.
</event>
<event>
 5   0  0.1595851E-08  0.3407972E+04  0.7818609E-02  0.8135952E-01
        1   -1    0    0  501    0  0.00000000000E+00  0.00000000000E+00  0.10583786372E+04  0.10583786373E+04  0.50400001928E-02 0. -1.
       -1   -1    0    0    0  501  0.00000000000E+00  0.00000000000E+00 -0.27434120894E+04  0.27434120894E+04  0.50400001928E-02 0.  1.
    10030    2    1    2    0    0  0.00000000000E+00  0.00000000000E+00 -0.16850334521E+04  0.38017907266E+04  0.34079722702E+04 0.  0.
        2    1    3    3  502    0 -0.10031957768E+04 -0.10940292574E+04  0.91004021180E+02  0.14871393729E+04  0.25500000920E-02 0. -1.
       -2    1    3    3    0  502  0.10031957768E+04  0.10940292574E+04 -0.17760374733E+04  0.23146513537E+04  0.25500000920E-02 0.  1.
</event>
<event>
 5   0  0.1579536E-08  0.3400455E+04  0.7818609E-02  0.8137795E-01
       -1   -1    0    0    0  501  0.00000000000E+00  0.00000000000E+00  0.26036955240E+04  0.26036955240E+04  0.50400001928E-02 0. -1.
        1   -1    0    0  501    0  0.00000000000E+00  0.00000000000E+00 -0.11102581196E+04  0.11102581196E+04  0.50400001928E-02 0.  1.
    10030    2    1    2    0    0  0.00000000000E+00  0.00000000000E+00  0.14934374044E+04  0.37139536436E+04  0.34004553205E+04 0.  0.
        5    1    3    3  502    0  0.47929983087E+03  0.80844533772E+02  0.25261850362E+04  0.25725273747E+04  0.46999998093E+01 0. -1.
       -5    1    3    3    0  502 -0.47929983087E+03 -0.80844533772E+02 -0.10327476318E+04  0.11414262690E+04  0.46999998093E+01 0.  1.
</event>
<event>
 5   0  0.4973409E-08  0.3400788E+04  0.7818609E-02  0.8137713E-01
       -2   -1    0    0    0  501  0.00000000000E+00  0.00000000000E+00  0.19193438698E+04  0.19193438698E+04  0.25500000920E-02 0. -1.
        2   -1    0    0  501    0  0.00000000000E+00  0.00000000000E+00 -0.15064209485E+04  0.15064209485E+04  0.25500000920E-02 0.  1.
    10030    2    1    2    0    0  0.00000000000E+00  0.00000000000E+00  0.41292292121E+03  0.34257648183E+04  0.34007880339E+04 0.  0.
        1    1    3    3  502    0 -0.11170097860E+04 -0.85088344816E+03 -0.75955310466E+03  0.15964443063E+04  0.50400001928E-02 0.  1.
       -1    1    3    3    0  502  0.11170097860E+04  0.85088344816E+03  0.11724760259E+04  0.18293205120E+04  0.50400001928E-02 0. -1.
</event>
<event>
 5   0  0.4764953E-08  0.3402782E+04  0.7818609E-02  0.8137224E-01
        2   -1    0    0  501    0  0.00000000000E+00  0.00000000000E+00  0.21407805463E+04  0.21407805463E+04  0.25500000920E-02 0.  1.
       -2   -1    0    0    0  501  0.00000000000E+00  0.00000000000E+00 -0.13521851494E+04  0.13521851494E+04  0.25500000920E-02 0. -1.
    10030    2    1    2    0    0  0.00000000000E+00  0.00000000000E+00  0.78859539684E+03  0.34929656957E+04  0.34027821928E+04 0.  0.
        2    1    3    3  502    0 -0.15045162802E+04 -0.47470500670E+03  0.10482191713E+04  0.18941165518E+04  0.25500000920E-02 0.  1.
       -2    1    3    3    0  502  0.15045162802E+04  0.47470500670E+03 -0.25962377443E+03  0.15988491439E+04  0.25500000920E-02 0. -1.
</event>
<event>
 5   0  0.4775023E-08  0.3403765E+04  0.7818609E-02  0.8136983E-01
       -2   -1    0    0    0  501  0.00000000000E+00  0.00000000000E+00  0.12548866749E+04  0.12548866749E+04  0.25500000920E-02 0. -1.
        2   -1    0    0  501    0  0.00000000000E+00  0.00000000000E+00 -0.23080996530E+04  0.23080996530E+04  0.25500000920E-02 0.  1.
    10030    2    1    2    0    0  0.00000000000E+00  0.00000000000E+00 -0.10532129781E+04  0.35629863279E+04  0.34037646798E+04 0.  0.
        4    1    3    3  502    0 -0.72122212323E+03  0.11467758970E+04 -0.16049127146E+04  0.21002387348E+04  0.12699999809E+01 0. -1.
       -4    1    3    3    0  502  0.72122212323E+03 -0.11467758970E+04  0.55169973646E+03  0.14627475931E+04  0.12699999809E+01 0.  1.
</event>
<event>
 5   0  0.5001197E-08  0.3401034E+04  0.7818609E-02  0.8137653E-01
       -2   -1    0    0    0  501  0.00000000000E+00  0.00000000000E+00  0.14679404659E+04  0.14679404659E+04  0.25500000920E-02 0. -1.
        2   -1    0    0  501    0  0.00000000000E+00  0.00000000000E+00 -0.19699421280E+04  0.19699421280E+04  0.25500000920E-02 0.  1.
    10030    2    1    2    0    0  0.00000000000E+00  0.00000000000E+00 -0.50200166213E+03  0.34378825940E+04  0.34010338224E+04 0.  0.
        5    1    3    3  502    0 -0.69430671266E+03 -0.68344539890E+03  0.11578633498E+04  0.15132181109E+04  0.46999998093E+01 0. -1.
       -5    1    3    3    0  502  0.69430671266E+03  0.68344539890E+03 -0.16598650119E+04  0.19246644830E+04  0.46999998093E+01 0.  1.
</event>
<event>
 5   0  0.4775023E-08  0.3397628E+04  0.7818609E-02  0.8138489E-01
        2   -1    0    0  501    0  0.00000000000E+00  0.00000000000E+00  0.31693772848E+04  0.31693772848E+04  0.25500000920E-02 0. -1.
       -2   -1    0    0    0  501  0.00000000000E+00  0.00000000000E+00 -0.91057913650E+03  0.91057913650E+03  0.25500000920E-02 0.  1.
    10030    2    1    2    0    0  0.00000000000E+00  0.00000000000E+00  0.22587981483E+04  0.40799564213E+04  0.33976278968E+04 0.  0.
        4    1    3    3  502    0 -0.25759517841E+03  0.16719806327E+04  0.94300911877E+03  0.19367865972E+04  0.12699999809E+01 0.  1.
       -4    1    3    3    0  502  0.25759517841E+03 -0.16719806327E+04  0.13157890295E+04  0.21431698241E+04  0.12699999809E+01 0. -1.
</event>
<event>
 5   0  0.4973409E-08  0.3401061E+04  0.7818609E-02  0.8137646E-01
       -2   -1    0    0    0  501  0.00000000000E+00  0.00000000000E+00  0.13233942961E+04  0.13233942961E+04  0.25500000920E-02 0. -1.
        2   -1    0    0  501    0  0.00000000000E+00  0.00000000000E+00 -0.21851411829E+04  0.21851411829E+04  0.25500000920E-02 0.  1.
    10030    2    1    2    0    0  0.00000000000E+00  0.00000000000E+00 -0.86174688674E+03  0.35085354790E+04  0.34010606449E+04 0.  0.
        1    1    3    3  502    0  0.39569189395E+03  0.14348844705E+04  0.41751226849E+03  0.15458919798E+04  0.50400001928E-02 0. -1.
       -1    1    3    3    0  502 -0.39569189395E+03 -0.14348844705E+04 -0.12792591552E+04  0.19626434992E+04  0.50400001928E-02 0.  1.
</event>
<event>
 5   0  0.1595851E-08  0.3400509E+04  0.7818609E-02  0.8137781E-01
       -1   -1    0    0    0  501  0.00000000000E+00  0.00000000000E+00  0.15057044457E+04  0.15057044457E+04  0.50400001928E-02 0.  1.
        1   -1    0    0  501    0  0.00000000000E+00  0.00000000000E+00 -0.19199421686E+04  0.19199421686E+04  0.50400001928E-02 0. -1.
    10030    2    1    2    0    0  0.00000000000E+00  0.00000000000E+00 -0.41423772295E+03  0.34256466143E+04  0.34005090552E+04 0.  0.
        2    1    3    3  502    0 -0.99658317423E+03 -0.13238708744E+04  0.17655524977E+03  0.16664284778E+04  0.25500000920E-02 0.  1.
       -2    1    3    3    0  502  0.99658317423E+03  0.13238708744E+04 -0.59079297272E+03  0.17592181365E+04  0.25500000920E-02 0. -1.
</event>
<event>
 5   0  0.4764953E-08  0.3400591E+04  0.7818609E-02  0.8137761E-01
        2   -1    0    0  501    0  0.00000000000E+00  0.00000000000E+00  0.14110356703E+04  0.14110356703E+04  0.25500000920E-02 0.  1.
       -2   -1    0    0    0  501  0.00000000000E+00  0.00000000000E+00 -0.20488534215E+04  0.20488534215E+04  0.25500000920E-02 0. -1.
    10030    2    1    2    0    0  0.00000000000E+00  0.00000000000E+00 -0.63781775122E+03  0.34598890918E+04  0.34005912785E+04 0.  0.
        2    1    3    3  502    0  0.33765351870E+03 -0.24846171136E+03  0.13576299793E+04  0.14208808118E+04  0.25500000920E-02 0.  1.
       -2    1    3    3    0  502 -0.33765351870E+03  0.24846171136E+03 -0.19954477305E+04  0.20390082800E+04  0.25500000920E-02 0. -1.
</event>
<event>
 5   0  0.4946315E-08  0.3397887E+04  0.7818609E-02  0.8138425E-01
        2   -1    0    0  501    0  0.00000000000E+00  0.00000000000E+00  0.17845670666E+04  0.17845670666E+04  0.25500000920E-02 0. -1.
       -2   -1    0    0    0  501  0.00000000000E+00  0.00000000000E+00 -0.16174278963E+04  0.16174278963E+04  0.25500000920E-02 0.  1.
    10030    2    1    2    0    0  0.00000000000E+00  0.00000000000E+00  0.16713917033E+03  0.34019949629E+04  0.33978867293E+04 0.  0.
        3    1    3    3  502    0 -0.13940693497E+04  0.56253878741E+03 -0.70892346854E+03  0.16620624939E+04  0.10100000352E+00 0.  1.
       -3    1    3    3    0  502  0.13940693497E+04 -0.56253878741E+03  0.87606263888E+03  0.17399324690E+04  0.10100000352E+00 0. -1.
</event>
<event>
 5   0  0.5001197E-08  0.3398028E+04  0.7818609E-02  0.8138391E-01
        2   -1    0    0  501    0  0.00000000000E+00  0.00000000000E+00  0.24573194743E+04  0.24573194743E+04  0.25500000920E-02 0. -1.
       -2   -1    0    0    0  501  0.00000000000E+00  0.00000000000E+00 -0.11747140844E+04  0.11747140844E+04  0.25500000920E-02 0.  1.
    10030    2    1    2    0    0  0.00000000000E+00  0.00000000000E+00  0.12826053900E+04  0.36320335587E+04  0.33980275433E+04 0.  0.
        5    1    3    3  502    0  0.55558980592E+03  0.11072593815E+04  0.18840957838E+04  0.22548929870E+04  0.46999998093E+01 0. -1.
       -5    1    3    3    0  502 -0.55558980592E+03 -0.11072593815E+04 -0.60149039380E+03  0.13771405717E+04  0.46999998093E+01 0.  1.
</event>
<event>
 5   0  0.4973409E-08  0.3396036E+04  0.7818609E-02  0.8138880E-01
        2   -1    0    0  501    0  0.00000000000E+00  0.00000000000E+00  0.19080972871E+04  0.19080972871E+04  0.25500000920E-02 0.  1.
       -2   -1    0    0    0  501  0.00000000000E+00  0.00000000000E+00 -0.15110678349E+04  0.15110678349E+04  0.25500000920E-02 0. -1.
    10030    2    1    2    0    0  0.00000000000E+00  0.00000000000E+00  0.39702945221E+03  0.34191651221E+04  0.33960355926E+04 0.  0.
        1    1    3    3  502    0  0.70875467524E+03 -0.12361157378E+04  0.11283572565E+04  0.18175547874E+04  0.50400001928E-02 0.  1.
       -1    1    3    3    0  502 -0.70875467524E+03  0.12361157378E+04 -0.73132780430E+03  0.16016103347E+04  0.50400001928E-02 0. -1.
</event>
<event>
 5   0  0.1625282E-08  0.3400040E+04  0.7818609E-02  0.8137896E-01
        1   -1    0    0  501    0  0.00000000000E+00  0.00000000000E+00  0.15273056746E+04  0.15273056747E+04  0.50400001928E-02 0.  1.
       -1   -1    0    0    0  501  0.00000000000E+00  0.00000000000E+00 -0.18922660071E+04  0.18922660071E+04  0.50400001928E-02 0. -1.
    10030    2    1    2    0    0  0.00000000000E+00  0.00000000000E+00 -0.36496033246E+03  0.34195716818E+04  0.34000403590E+04 0.  0.
        1    1    3    3  502    0  0.53045394912E+03  0.10987258326E+03 -0.18031384003E+04  0.18827536927E+04  0.50400001928E-02 0. -1.
       -1    1    3    3    0  502 -0.53045394912E+03 -0.10987258326E+03  0.14381780678E+04  0.15368179891E+04  0.50400001928E-02 0.  1.
</event>
<event>
 5   0  0.4764953E-08  0.3400527E+04  0.7818609E-02  0.8137777E-01
       -2   -1    0    0    0  501  0.00000000000E+00  0.00000000000E+00  0.30329801761E+04  0.30329801761E+04  0.25500000920E-02 0. -1.
        2   -1    0    0  501    0  0.00000000000E+00  0.00000000000E+00 -0.95315387639E+03  0.95315387640E+03  0.25500000920E-02 0.  1.
    10030    2    1    2    0    0  0.00000000000E+00  0.00000000000E+00  0.20798262997E+04  0.39861340525E+04  0.34005274955E+04 0.  0.
        2    1    3    3  502    0  0.42412033466E+03  0.11109117704E+04  0.24644714962E+04  0.27363520928E+04  0.25500000920E-02 0. -1.
       -2    1    3    3    0  502 -0.42412033466E+03 -0.11109117704E+04 -0.38464519650E+03  0.12497819598E+04  0.25500000920E-02 0.  1.
</event>
<event>
 5   0  0.1579536E-08  0.3398489E+04  0.7818609E-02  0.8138277E-01
        1   -1    0    0  501    0  0.00000000000E+00  0.00000000000E+00  0.18345392772E+04  0.18345392772E+04  0.50400001928E-02 0.  1.
       -1   -1    0    0    0  501  0.00000000000E+00  0.00000000000E+00 -0.15739277460E+04  0.15739277460E+04  0.50400001928E-02 0. -1.
    10030    2    1    2    0    0  0.00000000000E+00  0.00000000000E+00  0.26061153116E+03  0.34084670232E+04  0.33984892347E+04 0.  0.
        5    1    3    3  502    0 -0.50284820331E+03  0.11345697883E+04 -0.10338368846E+04  0.16152231159E+04  0.46999998093E+01 0. -1.
       -5    1    3    3    0  502  0.50284820331E+03 -0.11345697883E+04  0.12944484158E+04  0.17932439073E+04  0.46999998093E+01 0.  1.
</event>
<event>
 5   0  0.5001197E-08  0.3380999E+04  0.7818609E-02  0.8142586E-01
       -2   -1    0    0    0  501  0.00000000000E+00  0.00000000000E+00  0.15879628334E+04  0.15879628334E+04  0.25500000920E-02 0. -1.
        2   -1    0    0  501    0  0.00000000000E+00  0.00000000000E+00 -0.17996568433E+04  0.17996568433E+04  0.25500000920E-02 0.  1.
    10030    2    1    2    0    0  0.00000000000E+00  0.00000000000E+00 -0.21169400987E+03  0.33876196768E+04  0.33809987756E+04 0.  0.
        5    1    3    3  502    0  0.13109929082E+04 -0.10614853330E+04 -0.21702633071E+03  0.17007574888E+04  0.46999998093E+01 0.  1.
       -5    1    3    3    0  502 -0.13109929082E+04  0.10614853330E+04  0.53323208359E+01  0.16868621880E+04  0.46999998093E+01 0. -1.
</event>
<event>
 5   0  0.1645631E-08  0.3398809E+04  0.7818609E-02  0.8138199E-01
        1   -1    0    0  501    0  0.00000000000E+00  0.00000000000E+00  0.31131630532E+04  0.31131630532E+04  0.50400001928E-02 0.  1.
       -1   -1    0    0    0  501  0.00000000000E+00  0.00000000000E+00 -0.92766578409E+03  0.92766578410E+03  0.50400001928E-02 0. -1.
    10030    2    1    2    0    0  0.00000000000E+00  0.00000000000E+00  0.21854972691E+04  0.40408288373E+04  0.33988085235E+04 0.  0.
        4    1    3    3  502    0 -0.36631397491E+03 -0.31013643429E+03 -0.84540760634E+03  0.97215542473E+03  0.12699999809E+01 0. -1.
       -4    1    3    3    0  502  0.36631397491E+03  0.31013643429E+03  0.30309048755E+04  0.30686734126E+04  0.12699999809E+01 0.  1.
</event>
<event>
 5   0  0.4775023E-08  0.3400136E+04  0.7818609E-02  0.8137873E-01
        2   -1    0    0  501    0  0.00000000000E+00  0.00000000000E+00  0.20443979970E+04  0.20443979970E+04  0.25500000920E-02 0.  1.
       -2   -1    0    0    0  501  0.00000000000E+00  0.00000000000E+00 -0.14137324280E+04  0.14137324280E+04  0.25500000920E-02 0. -1.
    10030    2    1    2    0    0  0.00000000000E+00  0.00000000000E+00  0.63066556898E+03  0.34581304250E+04  0.34001363174E+04 0.  0.
        4    1    3    3  502    0  0.97827679839E+03  0.13691185361E+04  0.68879490119E+02  0.16841190746E+04  0.12699999809E+01 0.  1.
       -4    1    3    3    0  502 -0.97827679839E+03 -0.13691185361E+04  0.56178607886E+03  0.17740113505E+04  0.12699999809E+01 0. -1.
</event>
<event>
 5   0  0.1625282E-08  0.3400498E+04  0.7818609E-02  0.8137784E-01
        1   -1    0    0  501    0  0.00000000000E+00  0.00000000000E+00  0.10016063967E+04  0.10016063967E+04  0.50400001928E-02 0. -1.
       -1   -1    0    0    0  501  0.00000000000E+00  0.00000000000E+00 -0.28862111031E+04  0.28862111031E+04  0.50400001928E-02 0.  1.
    10030    2    1    2    0    0  0.00000000000E+00  0.00000000000E+00 -0.18846047064E+04  0.38878174998E+04  0.34004984947E+04 0.  0.
        1    1    3    3  502    0 -0.58993441052E+03  0.15744388374E+04 -0.65313977034E+03  0.18037382906E+04  0.50400001928E-02 0. -1.
       -1    1    3    3    0  502  0.58993441052E+03 -0.15744388374E+04 -0.12314649360E+04  0.20840792092E+04  0.50400001928E-02 0.  1.
</event>
<event>
 5   0  0.4973409E-08  0.3400933E+04  0.7818609E-02  0.8137677E-01
        2   -1    0    0  501    0  0.00000000000E+00  0.00000000000E+00  0.19190807884E+04  0.19190807884E+04  0.25500000920E-02 0.  1.
       -2   -1    0    0    0  501  0.00000000000E+00  0.00000000000E+00 -0.15067558997E+04  0.15067558997E+04  0.25500000920E-02 0. -1.
    10030    2    1    2    0    0  0.00000000000E+00  0.00000000000E+00  0.41232488875E+03  0.34258366881E+04  0.34009329896E+04 0.  0.
        1    1    3    3  502    0 -0.42574553977E+02  0.11942006962E+04  0.14248389722E+04  0.18595951152E+04  0.50400001928E-02 0.  1.
       -1    1    3    3    0  502  0.42574553977E+02 -0.11942006962E+04 -0.10125140835E+04  0.15662415729E+04  0.50400001928E-02 0. -1.
</event>
<event>
 5   0  0.1645631E-08  0.3397757E+04  0.7818609E-02  0.8138457E-01
       -1   -1    0    0    0  501  0.00000000000E+00  0.00000000000E+00  0.20108296044E+04  0.20108296045E+04  0.50400001928E-02 0.  1.
        1   -1    0    0  501    0  0.00000000000E+00  0.00000000000E+00 -0.14353220591E+04  0.14353220591E+04  0.50400001928E-02 0. -1.
    10030    2    1    2    0    0  0.00000000000E+00  0.00000000000E+00  0.57550754536E+03  0.34461516636E+04  0.33977569591E+04 0.  0.
        4    1    3    3  502    0 -0.29705282105E+03  0.54804642029E+03 -0.13151326689E+04  0.14553936948E+04  0.12699999809E+01 0. -1.
       -4    1    3    3    0  502  0.29705282105E+03 -0.54804642029E+03  0.18906402143E+04  0.19907579687E+04  0.12699999809E+01 0.  1.
</event>
<event>
 5   0  0.4946315E-08  0.3402290E+04  0.7818609E-02  0.8137344E-01
       -2   -1    0    0    0  501  0.00000000000E+00  0.00000000000E+00  0.14847178653E+04  0.14847178653E+04  0.25500000920E-02 0.  1.
        2   -1    0    0  501    0  0.00000000000E+00  0.00000000000E+00 -0.19491210987E+04  0.19491210987E+04  0.25500000920E-02 0. -1.
    10030    2    1    2    0    0  0.00000000000E+00  0.00000000000E+00 -0.46440323344E+03  0.34338389640E+04  0.34022903561E+04 0.  0.
        3    1    3    3  502    0  0.10573731653E+04  0.11702505161E+04  0.41118156477E+03  0.16299063072E+04  0.10100000352E+00 0. -1.
       -3    1    3    3    0  502 -0.10573731653E+04 -0.11702505161E+04 -0.87558479821E+03  0.18039326567E+04  0.10100000352E+00 0.  1.
</event>
<event>
 5   0  0.1630571E-08  0.3400317E+04  0.7818609E-02  0.8137828E-01
        1   -1    0    0  501    0  0.00000000000E+00  0.00000000000E+00  0.16542062864E+04  0.16542062864E+04  0.50400001928E-02 0.  1.
       -1   -1    0    0    0  501  0.00000000000E+00  0.00000000000E+00 -0.17473873932E+04  0.17473873932E+04  0.50400001928E-02 0. -1.
    10030    2    1    2    0    0  0.00000000000E+00  0.00000000000E+00 -0.93181106742E+02  0.34015936796E+04  0.34003171679E+04 0.  0.
        3    1    3    3  502    0 -0.85668305521E+03 -0.81452156355E+03 -0.12690099947E+04  0.17342830252E+04  0.10100000352E+00 0. -1.
       -3    1    3    3    0  502  0.85668305521E+03  0.81452156355E+03  0.11758288879E+04  0.16673106545E+04  0.10100000352E+00 0.  1.
</event>
<event>
 5   0  0.4973409E-08  0.3398088E+04  0.7818609E-02  0.8138376E-01
       -2   -1    0    0    0  501  0.00000000000E+00  0.00000000000E+00  0.92235386479E+03  0.92235386480E+03  0.25500000920E-02 0. -1.
        2   -1    0    0  501    0  0.00000000000E+00  0.00000000000E+00 -0.31297646449E+04  0.31297646449E+04  0.25500000920E-02 0.  1.
    10030    2    1    2    0    0  0.00000000000E+00  0.00000000000E+00 -0.22074107801E+04  0.40521185097E+04  0.33980880013E+04 0.  0.
        1    1    3    3  502    0 -0.58272680530E+03  0.11003158099E+04  0.27486700606E+03  0.12750754026E+04  0.50400001928E-02 0. -1.
       -1    1    3    3    0  502  0.58272680530E+03 -0.11003158099E+04 -0.24822777862E+04  0.27770431071E+04  0.50400001928E-02 0.  1.
</event>
<event>
 5   0  0.1645631E-08  0.3396767E+04  0.7818609E-02  0.8138700E-01
        1   -1    0    0  501    0  0.00000000000E+00  0.00000000000E+00  0.20979766680E+04  0.20979766680E+04  0.50400001928E-02 0. -1.
       -1   -1    0    0    0  501  0.00000000000E+00  0.00000000000E+00 -0.13748993486E+04  0.13748993486E+04  0.50400001928E-02 0.  1.
    10030    2    1    2    0    0  0.00000000000E+00  0.00000000000E+00  0.72307731937E+03  0.34728760166E+04  0.33967671420E+04 0.  0.
        4    1    3    3  502    0 -0.15143902944E+04 -0.55016526448E+02  0.11455985287E+04  0.18996848117E+04  0.12699999809E+01 0. -1.
       -4    1    3    3    0  502  0.15143902944E+04  0.55016526448E+02 -0.42252120935E+03  0.15731912049E+04  0.12699999809E+01 0.  1.
</event>
<event>
 5   0  0.4946315E-08  0.3399557E+04  0.7818609E-02  0.8138015E-01
        2   -1    0    0  501    0  0.00000000000E+00  0.00000000000E+00  0.19313831001E+04  0.19313831001E+04  0.25500000920E-02 0.  1.
       -2   -1    0    0    0  501  0.00000000000E+00  0.00000000000E+00 -0.14959471569E+04  0.14959471569E+04  0.25500000920E-02 0. -1.
    10030    2    1    2    0    0  0.00000000000E+00  0.00000000000E+00  0.43543594325E+03  0.34273302570E+04  0.33995570638E+04 0.  0.
        3    1    3    3  502    0  0.15292946661E+04  0.74097528422E+03  0.25624667308E+03  0.17185601285E+04  0.10100000352E+00 0. -1.
       -3    1    3    3    0  502 -0.15292946661E+04 -0.74097528422E+03  0.17918927017E+03  0.17087701286E+04  0.10100000352E+00 0.  1.
</event>
<event>
 5   0  0.1645631E-08  0.3400117E+04  0.7818609E-02  0.8137878E-01
        1   -1    0    0  501    0  0.00000000000E+00  0.00000000000E+00  0.17503361520E+04  0.17503361520E+04  0.50400001928E-02 0. -1.
       -1   -1    0    0    0  501  0.00000000000E+00  0.00000000000E+00 -0.16512249169E+04  0.16512249169E+04  0.50400001928E-02 0.  1.
    10030    2    1    2    0    0  0.00000000000E+00  0.00000000000E+00  0.99111235160E+02  0.34015610689E+04  0.34001168610E+04 0.  0.
        4    1    3    3  502    0  0.91506022592E+03 -0.11805587501E+04  0.86177660887E+03  0.17244462056E+04  0.12699999809E+01 0. -1.
       -4    1    3    3    0  502 -0.91506022592E+03  0.11805587501E+04 -0.76266537371E+03  0.16771148633E+04  0.12699999809E+01 0.  1.
</event>
<event>
 5   0  0.1573625E-08  0.3403142E+04  0.7818609E-02  0.8137135E-01
       -3   -1    0    0    0  501  0.00000000000E+00  0.00000000000E+00  0.19034341998E+04  0.19034342025E+04  0.10100000352E+00 0. -1.
        3   -1    0    0  501    0  0.00000000000E+00  0.00000000000E+00 -0.15211162365E+04  0.15211162398E+04  0.10100000352E+00 0.  1.
    10030    2    1    2    0    0  0.00000000000E+00  0.00000000000E+00  0.38231796331E+03  0.34245504423E+04  0.34031424752E+04 0.  0.
        4    1    3    3  502    0 -0.95664840104E+03 -0.79127915609E+03 -0.97979507706E+03  0.15815495161E+04  0.12699999809E+01 0.  1.
       -4    1    3    3    0  502  0.95664840104E+03  0.79127915609E+03  0.13621130404E+04  0.18430009261E+04  0.12699999809E+01 0. -1.
</event>
<event>
 5   0  0.1645631E-08  0.3399714E+04  0.7818609E-02  0.8137976E-01
       -1   -1    0    0    0  501  0.00000000000E+00  0.00000000000E+00  0.13339514825E+04  0.13339514825E+04  0.50400001928E-02 0. -1.
        1   -1    0    0  501    0  0.00000000000E+00  0.00000000000E+00 -0.21661315053E+04  0.21661315054E+04  0.50400001928E-02 0.  1.
    10030    2    1    2    0    0  0.00000000000E+00  0.00000000000E+00 -0.83218002282E+03  0.35000829879E+04  0.33997143015E+04 0.  0.
        4    1    3    3  502    0 -0.16386287960E+04  0.34041687054E+03 -0.72240500671E+03  0.18228709727E+04  0.12699999809E+01 0.  1.
       -4    1    3    3    0  502  0.16386287960E+04 -0.34041687054E+03 -0.10977501612E+03  0.16772120151E+04  0.12699999809E+01 0. -1.
</event>
<event>
 5   0  0.1579536E-08  0.3399948E+04  0.7818609E-02  0.8137919E-01
        1   -1    0    0  501    0  0.00000000000E+00  0.00000000000E+00  0.12033907954E+04  0.12033907954E+04  0.50400001928E-02 0.  1.
       -1   -1    0    0    0  501  0.00000000000E+00  0.00000000000E+00 -0.24014743603E+04  0.24014743603E+04  0.50400001928E-02 0. -1.
    10030    2    1    2    0    0  0.00000000000E+00  0.00000000000E+00 -0.11980835649E+04  0.36048651557E+04  0.33999483176E+04 0.  0.
        5    1    3    3  502    0 -0.16544406128E+04 -0.39038509802E+03 -0.61788314010E+03  0.18086945377E+04  0.46999998093E+01 0.  1.
       -5    1    3    3    0  502  0.16544406128E+04  0.39038509802E+03 -0.58020042485E+03  0.17961706180E+04  0.46999998093E+01 0. -1.
</event>
<event>
 5   0  0.4764953E-08  0.3401820E+04  0.7818609E-02  0.8137460E-01
        2   -1    0    0  501    0  0.00000000000E+00  0.00000000000E+00  0.20236919065E+04  0.20236919066E+04  0.25500000920E-02 0. -1.
       -2   -1    0    0    0  501  0.00000000000E+00  0.00000000000E+00 -0.14296123990E+04  0.14296123990E+04  0.25500000920E-02 0.  1.
    10030    2    1    2    0    0  0.00000000000E+00  0.00000000000E+00  0.59407950755E+03  0.34533043056E+04  0.34018201254E+04 0.  0.
        2    1    3    3  502    0  0.13186363516E+04  0.40368294736E+03  0.13077655487E+04  0.19005295263E+04  0.25500000920E-02 0. -1.
       -2    1    3    3    0  502 -0.13186363516E+04 -0.40368294736E+03 -0.71368604119E+03  0.15527747793E+04  0.25500000920E-02 0.  1.
</event>
<event>
 5   0  0.4775023E-08  0.3402136E+04  0.7818609E-02  0.8137382E-01
        2   -1    0    0  501    0  0.00000000000E+00  0.00000000000E+00  0.14225324985E+04  0.14225324985E+04  0.25500000920E-02 0.  1.
       -2   -1    0    0    0  501  0.00000000000E+00  0.00000000000E+00 -0.20341413191E+04  0.20341413191E+04  0.25500000920E-02 0. -1.
    10030    2    1    2    0    0  0.00000000000E+00  0.00000000000E+00 -0.61160882055E+03  0.34566738176E+04  0.34021358780E+04 0.  0.
        4    1    3    3  502    0  0.14634398876E+04  0.16541726296E+03 -0.11706912916E+04  0.18813662293E+04  0.12699999809E+01 0. -1.
       -4    1    3    3    0  502 -0.14634398876E+04 -0.16541726296E+03  0.55908247102E+03  0.15753075884E+04  0.12699999809E+01 0.  1.
</event>
<event>
 5   0  0.5001197E-08  0.3401772E+04  0.7818609E-02  0.8137471E-01
        2   -1    0    0  501    0  0.00000000000E+00  0.00000000000E+00  0.26630433407E+04  0.26630433407E+04  0.25500000920E-02 0.  1.
       -2   -1    0    0    0  501  0.00000000000E+00  0.00000000000E+00 -0.10863561591E+04  0.10863561591E+04  0.25500000920E-02 0. -1.
    10030    2    1    2    0    0  0.00000000000E+00  0.00000000000E+00  0.15766871815E+04  0.37493994998E+04  0.34017722059E+04 0.  0.
        5    1    3    3  502    0  0.44266008151E+03 -0.17184831134E+03 -0.10118103749E+04  0.11177039476E+04  0.46999998093E+01 0. -1.
       -5    1    3    3    0  502 -0.44266008151E+03  0.17184831134E+03  0.25884975564E+04  0.26316955522E+04  0.46999998093E+01 0.  1.
</event>
<event>
 5   0  0.5001197E-08  0.3400564E+04  0.7818609E-02  0.8137768E-01
        2   -1    0    0  501    0  0.00000000000E+00  0.00000000000E+00  0.19629037482E+04  0.19629037482E+04  0.25500000920E-02 0.  1.
       -2   -1    0    0    0  501  0.00000000000E+00  0.00000000000E+00 -0.14727972361E+04  0.14727972362E+04  0.25500000920E-02 0. -1.
    10030    2    1    2    0    0  0.00000000000E+00  0.00000000000E+00  0.49010651208E+03  0.34357009844E+04  0.34005641974E+04 0.  0.
        5    1    3    3  502    0  0.12158606501E+04 -0.99060452411E+03 -0.41848433162E+03  0.16231961279E+04  0.46999998093E+01 0. -1.
       -5    1    3    3    0  502 -0.12158606501E+04  0.99060452411E+03  0.90859084370E+03  0.18125048565E+04  0.46999998093E+01 0.  1.
</event>
<event>
 5   0  0.1645631E-08  0.3398968E+04  0.7818609E-02  0.8138160E-01
        1   -1    0    0  501    0  0.00000000000E+00  0.00000000000E+00  0.12213368526E+04  0.12213368527E+04  0.50400001928E-02 0.  1.
       -1   -1    0    0    0  501  0.00000000000E+00  0.00000000000E+00 -0.23648232199E+04  0.23648232199E+04  0.50400001928E-02 0. -1.
    10030    2    1    2    0    0  0.00000000000E+00  0.00000000000E+00 -0.11434863673E+04  0.35861600726E+04  0.33989679307E+04 0.  0.
        4    1    3    3  502    0 -0.14916407523E+04  0.36085595501E+03 -0.13420441799E+04  0.20386989351E+04  0.12699999809E+01 0. -1.
       -4    1    3    3    0  502  0.14916407523E+04 -0.36085595501E+03  0.19855781261E+03  0.15474611375E+04  0.12699999809E+01 0.  1.
</event>
<event>
 5   0  0.1625282E-08  0.3398554E+04  0.7818609E-02  0.8138261E-01
       -1   -1    0    0    0  501  0.00000000000E+00  0.00000000000E+00  0.12431408535E+04  0.12431408535E+04  0.50400001928E-02 0.  1.
        1   -1    0    0  501    0  0.00000000000E+00  0.00000000000E+00 -0.23227794479E+04  0.23227794479E+04  0.50400001928E-02 0. -1.
    10030    2    1    2    0    0  0.00000000000E+00  0.00000000000E+00 -0.10796385944E+04  0.35659203014E+04  0.33985538250E+04 0.  0.
        1    1    3    3  502    0 -0.53823290079E+03 -0.58112363539E+03 -0.21172322735E+04  0.22605468000E+04  0.50400001928E-02 0. -1.
       -1    1    3    3    0  502  0.53823290079E+03  0.58112363539E+03  0.10375936791E+04  0.13053735013E+04  0.50400001928E-02 0.  1.
</event>
<event>
 5   0  0.4946315E-08  0.3400846E+04  0.7818609E-02  0.8137699E-01
       -2   -1    0    0    0  501  0.00000000000E+00  0.00000000000E+00  0.21440907700E+04  0.21440907700E+04  0.25500000920E-02 0.  1.
        2   -1    0    0  501    0  0.00000000000E+00  0.00000000000E+00 -0.13485611712E+04  0.13485611712E+04  0.25500000920E-02 0. -1.
    10030    2    1    2    0    0  0.00000000000E+00  0.00000000000E+00  0.79552959873E+03  0.34926519412E+04  0.34008455184E+04 0.  0.
        3    1    3    3  502    0  0.94669455909E+03  0.87237764509E+03  0.15386839681E+04  0.20061958299E+04  0.10100000352E+00 0.  1.
       -3    1    3    3    0  502 -0.94669455909E+03 -0.87237764509E+03 -0.74315436941E+03  0.14864561113E+04  0.10100000352E+00 0. -1.
</event>
<event>
 5   0  0.4973409E-08  0.3400265E+04  0.7818609E-02  0.8137841E-01
       -2   -1    0    0    0  501  0.00000000000E+00  0.00000000000E+00  0.14547741497E+04  0.14547741497E+04  0.25500000920E-02 0. -1.
        2   -1    0    0  501    0  0.00000000000E+00  0.00000000000E+00 -0.19868727487E+04  0.19868727487E+04  0.25500000920E-02 0.  1.
    10030    2    1    2    0    0  0.00000000000E+00  0.00000000000E+00 -0.53209859901E+03  0.34416468983E+04  0.34002653505E+04 0.  0.
        1    1    3    3  502    0 -0.10993670114E+04  0.92044629082E+03 -0.11907440512E+04  0.18637866283E+04  0.50400001928E-02 0.  1.
       -1    1    3    3    0  502  0.10993670114E+04 -0.92044629082E+03  0.65864545222E+03  0.15778602701E+04  0.50400001928E-02 0. -1.
</event>
<event>
 5   0  0.5001197E-08  0.3400375E+04  0.7818609E-02  0.8137814E-01
        2   -1    0    0  501    0  0.00000000000E+00  0.00000000000E+00  0.20672284644E+04  0.20672284644E+04  0.25500000920E-02 0. -1.
       -2   -1    0    0    0  501  0.00000000000E+00  0.00000000000E+00 -0.13983154129E+04  0.13983154129E+04  0.25500000920E-02 0.  1.
    10030    2    1    2    0    0  0.00000000000E+00  0.00000000000E+00  0.66891305149E+03  0.34655438774E+04  0.34003749346E+04 0.  0.
        5    1    3    3  502    0  0.19416862985E+03 -0.49533886778E+03 -0.13112833477E+04  0.14151141858E+04  0.46999998093E+01 0.  1.
       -5    1    3    3    0  502 -0.19416862985E+03  0.49533886778E+03  0.19801963992E+04  0.20504296916E+04  0.46999998093E+01 0. -1.
</event>
<event>
 5   0  0.1630571E-08  0.3401149E+04  0.7818609E-02  0.8137624E-01
        1   -1    0    0  501    0  0.00000000000E+00  0.00000000000E+00  0.24338711070E+04  0.24338711070E+04  0.50400001928E-02 0.  1.
       -1   -1    0    0    0  501  0.00000000000E+00  0.00000000000E+00 -0.11882112499E+04  0.11882112499E+04  0.50400001928E-02 0. -1.
    10030    2    1    2    0    0  0.00000000000E+00  0.00000000000E+00  0.12456598572E+04  0.36220823569E+04  0.34011486473E+04 0.  0.
        3    1    3    3  502    0  0.10303167988E+04 -0.23867163406E+03 -0.79537989070E+03  0.13233087454E+04  0.10100000352E+00 0. -1.
       -3    1    3    3    0  502 -0.10303167988E+04  0.23867163406E+03  0.20410397479E+04  0.22987736116E+04  0.10100000352E+00 0.  1.
</event>
<event>
 5   0  0.4764953E-08  0.3399366E+04  0.7818609E-02  0.8138062E-01
       -2   -1    0    0    0  501  0.00000000000E+00  0.00000000000E+00  0.12735360570E+04  0.12735360570E+04  0.25500000920E-02 0. -1.
        2   -1    0    0  501    0  0.00000000000E+00  0.00000000000E+00 -0.22684255451E+04  0.22684255451E+04  0.25500000920E-02 0.  1.
    10030    2    1    2    0    0  0.00000000000E+00  0.00000000000E+00 -0.99488948813E+03  0.35419616021E+04  0.33993656610E+04 0.  0.
        2    1    3    3  502    0 -0.27746534803E+03  0.19761134965E+03 -0.22324941766E+04  0.22583329058E+04  0.25500000920E-02 0.  1.
       -2    1    3    3    0  502  0.27746534803E+03 -0.19761134965E+03  0.12376046885E+04  0.12836286963E+04  0.25500000920E-02 0. -1.
</event>
<event>
 5   0  0.1625282E-08  0.3398258E+04  0.7818609E-02  0.8138334E-01
        1   -1    0    0  501    0  0.00000000000E+00  0.00000000000E+00  0.19714630665E+04  0.19714630665E+04  0.50400001928E-02 0. -1.
       -1   -1    0    0    0  501  0.00000000000E+00  0.00000000000E+00 -0.14644147572E+04  0.14644147572E+04  0.50400001928E-02 0.  1.
    10030    2    1    2    0    0  0.00000000000E+00  0.00000000000E+00  0.50704830928E+03  0.34358778237E+04  0.33982581466E+04 0.  0.
        1    1    3    3  502    0 -0.11735587769E+04 -0.10695802746E+04 -0.35798318951E+03  0.16276959577E+04  0.50400001928E-02 0.  1.
       -1    1    3    3    0  502  0.11735587769E+04  0.10695802746E+04  0.86503149879E+03  0.18081818660E+04  0.50400001928E-02 0. -1.
</event>
<event>
 5   0  0.4946315E-08  0.3397802E+04  0.7818609E-02  0.8138446E-01
        2   -1    0    0  501    0  0.00000000000E+00  0.00000000000E+00  0.22013219442E+04  0.22013219442E+04  0.25500000920E-02 0. -1.
       -2   -1    0    0    0  501  0.00000000000E+00  0.00000000000E+00 -0.13111503521E+04  0.13111503521E+04  0.25500000920E-02 0.  1.
    10030    2    1    2    0    0  0.00000000000E+00  0.00000000000E+00  0.89017159206E+03  0.35124722963E+04  0.33978016671E+04 0.  0.
        3    1    3    3  502    0  0.12036204441E+04  0.10030482994E+02 -0.79431838023E+03  0.14421319231E+04  0.10100000352E+00 0.  1.
       -3    1    3    3    0  502 -0.12036204441E+04 -0.10030482994E+02  0.16844899723E+04  0.20703403732E+04  0.10100000352E+00 0. -1.
</event>
<event>
 5   0  0.4764953E-08  0.3399974E+04  0.7818609E-02  0.8137913E-01
        2   -1    0    0  501    0  0.00000000000E+00  0.00000000000E+00  0.22233175984E+04  0.22233175984E+04  0.25500000920E-02 0.  1.
       -2   -1    0    0    0  501  0.00000000000E+00  0.00000000000E+00 -0.12998395119E+04  0.12998395119E+04  0.25500000920E-02 0. -1.
    10030    2    1    2    0    0  0.00000000000E+00  0.00000000000E+00  0.92347808648E+03  0.35231571103E+04  0.33999741540E+04 0.  0.
        2    1    3    3  502    0 -0.14319124872E+04 -0.89928786405E+03  0.27969238946E+03  0.17138610989E+04  0.25500000920E-02 0. -1.
       -2    1    3    3    0  502  0.14319124872E+04  0.89928786405E+03  0.64378569702E+03  0.18092960115E+04  0.25500000920E-02 0.  1.
</event>
<event>
 5   0  0.1625282E-08  0.3400235E+04  0.7818609E-02  0.8137849E-01
        1   -1    0    0  501    0  0.00000000000E+00  0.00000000000E+00  0.29572561273E+04  0.29572561273E+04  0.50400001928E-02 0.  1.
       -1   -1    0    0    0  501  0.00000000000E+00  0.00000000000E+00 -0.97739224225E+03  0.97739224226E+03  0.50400001928E-02 0. -1.
    10030    2    1    2    0    0  0.00000000000E+00  0.00000000000E+00  0.19798638851E+04  0.39346483696E+04  0.34002348138E+04 0.  0.
        1    1    3    3  502    0 -0.11480703815E+04  0.65734044481E+02  0.24389433196E+04  0.26964478637E+04  0.50400001928E-02 0.  1.
       -1    1    3    3    0  502  0.11480703815E+04 -0.65734044481E+02 -0.45907943453E+03  0.12382005059E+04  0.50400001928E-02 0. -1.
</event>
<event>
 5   0  0.5001197E-08  0.3398763E+04  0.7818609E-02  0.8138210E-01
        2   -1    0    0  501    0  0.00000000000E+00  0.00000000000E+00  0.25968184051E+04  0.25968184051E+04  0.25500000920E-02 0.  1.
       -2   -1    0    0    0  501  0.00000000000E+00  0.00000000000E+00 -0.11120903663E+04  0.11120903663E+04  0.25500000920E-02 0. -1.
    10030    2    1    2    0    0  0.00000000000E+00  0.00000000000E+00  0.14847280388E+04  0.37089087714E+04  0.33987625579E+04 0.  0.
        5    1    3    3  502    0 -0.23083648218E+03  0.40182379496E+03 -0.10418013506E+04  0.11402280421E+04  0.46999998093E+01 0. -1.
       -5    1    3    3    0  502  0.23083648218E+03 -0.40182379496E+03  0.25265293894E+04  0.25686807293E+04  0.46999998093E+01 0.  1.
</event>
<event>
 5   0  0.4764953E-08  0.3397771E+04  0.7818609E-02  0.8138454E-01
        2   -1    0    0  501    0  0.00000000000E+00  0.00000000000E+00  0.17514575814E+04  0.17514575814E+04  0.25500000920E-02 0.  1.
       -2   -1    0    0    0  501  0.00000000000E+00  0.00000000000E+00 -0.16478912487E+04  0.16478912487E+04  0.25500000920E-02 0. -1.
    10030    2    1    2    0    0  0.00000000000E+00  0.00000000000E+00  0.10356633277E+03  0.33993488301E+04  0.33977708109E+04 0.  0.
        2    1    3    3  502    0 -0.14156752248E+04  0.92078260327E+03  0.23689524825E+03  0.17053141362E+04  0.25500000920E-02 0. -1.
       -2    1    3    3    0  502  0.14156752248E+04 -0.92078260327E+03 -0.13332891549E+03  0.16940346939E+04  0.25500000920E-02 0.  1.
</event>
<event>
 5   0  0.5001197E-08  0.3401296E+04  0.7818609E-02  0.8137588E-01
        2   -1    0    0  501    0  0.00000000000E+00  0.00000000000E+00  0.20590816295E+04  0.20590816295E+04  0.25500000920E-02 0.  1.
       -2   -1    0    0    0  501  0.00000000000E+00  0.00000000000E+00 -0.14046089119E+04  0.14046089119E+04  0.25500000920E-02 0. -1.
    10030    2    1    2    0    0  0.00000000000E+00  0.00000000000E+00  0.65447271759E+03  0.34636905414E+04  0.34012964629E+04 0.  0.
        5    1    3    3  502    0  0.14692656649E+04 -0.99504924347E+02  0.11934513924E+04  0.18955186995E+04  0.46999998093E+01 0.  1.
       -5    1    3    3    0  502 -0.14692656649E+04  0.99504924347E+02 -0.53897867481E+03  0.15681718420E+04  0.46999998093E+01 0. -1.
</event>
<event>
 5   0  0.1625282E-08  0.3400503E+04  0.7818609E-02  0.8137783E-01
        1   -1    0    0  501    0  0.00000000000E+00  0.00000000000E+00  0.18709102189E+04  0.18709102189E+04  0.50400001928E-02 0. -1.
       -1   -1    0    0    0  501  0.00000000000E+00  0.00000000000E+00 -0.15451598226E+04  0.15451598226E+04  0.50400001928E-02 0.  1.
    10030    2    1    2    0    0  0.00000000000E+00  0.00000000000E+00  0.32575039631E+03  0.34160700415E+04  0.34005030816E+04 0.  0.
        1    1    3    3  502    0  0.82857400670E+03  0.87474180684E+03 -0.10422611926E+04  0.15931153463E+04  0.50400001928E-02 0.  1.
       -1    1    3    3    0  502 -0.82857400670E+03 -0.87474180684E+03  0.13680115889E+04  0.18229546951E+04  0.50400001928E-02 0. -1.
</event>
<event>
 5   0  0.4775023E-08  0.3399081E+04  0.7818609E-02  0.8138132E-01
       -2   -1    0    0    0  501  0.00000000000E+00  0.00000000000E+00  0.12557731890E+04  0.12557731890E+04  0.25500000920E-02 0. -1.
        2   -1    0    0  501    0  0.00000000000E+00  0.00000000000E+00 -0.23001274760E+04  0.23001274760E+04  0.25500000920E-02 0.  1.
    10030    2    1    2    0    0  0.00000000000E+00  0.00000000000E+00 -0.10443542869E+04  0.35559006650E+04  0.33990812969E+04 0.  0.
        4    1    3    3  502    0 -0.47852391822E+03  0.13658008149E+04  0.41002308097E+03  0.15041667282E+04  0.12699999809E+01 0. -1.
       -4    1    3    3    0  502  0.47852391822E+03 -0.13658008149E+04 -0.14543773679E+04  0.20517339368E+04  0.12699999809E+01 0.  1.
</event>
<event>
 5   0  0.4946315E-08  0.3400549E+04  0.7818609E-02  0.8137772E-01
       -2   -1    0    0    0  501  0.00000000000E+00  0.00000000000E+00  0.17337281388E+04  0.17337281388E+04  0.25500000920E-02 0.  1.
        2   -1    0    0  501    0  0.00000000000E+00  0.00000000000E+00 -0.16674660777E+04  0.16674660777E+04  0.25500000920E-02 0. -1.
    10030    2    1    2    0    0  0.00000000000E+00  0.00000000000E+00  0.66262061029E+02  0.34011942165E+04  0.34005486965E+04 0.  0.
        3    1    3    3  502    0  0.16141997044E+04  0.49778337971E+03 -0.16056489143E+03  0.16968235246E+04  0.10100000352E+00 0. -1.
       -3    1    3    3    0  502 -0.16141997044E+04 -0.49778337971E+03  0.22682695246E+03  0.17043706919E+04  0.10100000352E+00 0.  1.
</event>
<event>
 5   0  0.5001197E-08  0.3396067E+04  0.7818609E-02  0.8138872E-01
       -2   -1    0    0    0  501  0.00000000000E+00  0.00000000000E+00  0.10186786023E+04  0.10186786023E+04  0.25500000920E-02 0.  1.
        2   -1    0    0  501    0  0.00000000000E+00  0.00000000000E+00 -0.28304496744E+04  0.28304496744E+04  0.25500000920E-02 0. -1.
    10030    2    1    2    0    0  0.00000000000E+00  0.00000000000E+00 -0.18117710720E+04  0.38491282767E+04  0.33960674424E+04 0.  0.
        5    1    3    3  502    0 -0.12557373367E+04 -0.44561266318E+03  0.28707606843E+03  0.13630413286E+04  0.46999998093E+01 0.  1.
       -5    1    3    3    0  502  0.12557373367E+04  0.44561266318E+03 -0.20988471405E+04  0.24860869481E+04  0.46999998093E+01 0. -1.
</event>
<event>
 5   0  0.4946315E-08  0.3400199E+04  0.7818609E-02  0.8137857E-01
        2   -1    0    0  501    0  0.00000000000E+00  0.00000000000E+00  0.27204844545E+04  0.27204844545E+04  0.25500000920E-02 0.  1.
       -2   -1    0    0    0  501  0.00000000000E+00  0.00000000000E+00 -0.10624354473E+04  0.10624354473E+04  0.25500000920E-02 0. -1.
    10030    2    1    2    0    0  0.00000000000E+00  0.00000000000E+00  0.16580490072E+04  0.37829199018E+04  0.34001994755E+04 0.  0.
        3    1    3    3  502    0  0.80152577361E+03  0.11310484981E+03  0.24923280156E+04  0.26204837760E+04  0.10100000352E+00 0.  1.
       -3    1    3    3    0  502 -0.80152577361E+03 -0.11310484981E+03 -0.83427900831E+03  0.11624361259E+04  0.10100000352E+00 0. -1.
</event>
<event>
 5   0  0.1630571E-08  0.3401995E+04  0.7818609E-02  0.8137417E-01
       -1   -1    0    0    0  501  0.00000000000E+00  0.00000000000E+00  0.13676375973E+04  0.13676375973E+04  0.50400001928E-02 0.  1.
        1   -1    0    0  501    0  0.00000000000E+00  0.00000000000E+00 -0.21156140290E+04  0.21156140290E+04  0.50400001928E-02 0. -1.
    10030    2    1    2    0    0  0.00000000000E+00  0.00000000000E+00 -0.74797643172E+03  0.34832516263E+04  0.34019954658E+04 0.  0.
        3    1    3    3  502    0  0.46243004773E+03 -0.22419062914E+03  0.12862499255E+04  0.13851143882E+04  0.10100000352E+00 0.  1.
       -3    1    3    3    0  502 -0.46243004773E+03  0.22419062914E+03 -0.20342263572E+04  0.20981372381E+04  0.10100000352E+00 0. -1.
</event>
<event>
 5   0  0.1630571E-08  0.3399827E+04  0.7818609E-02  0.8137949E-01
        1   -1    0    0  501    0  0.00000000000E+00  0.00000000000E+00  0.25120006044E+04  0.25120006044E+04  0.50400001928E-02 0.  1.
       -1   -1    0    0    0  501  0.00000000000E+00  0.00000000000E+00 -0.11503602582E+04  0.11503602582E+04  0.50400001928E-02 0. -1.
    10030    2    1    2    0    0  0.00000000000E+00  0.00000000000E+00  0.13616403462E+04  0.36623608627E+04  0.33998268568E+04 0.  0.
        3    1    3    3  502    0 -0.13040977585E+04  0.40453270052E+03  0.17716285038E+04  0.22367353968E+04  0.10100000352E+00 0.  1.
       -3    1    3    3    0  502  0.13040977585E+04 -0.40453270052E+03 -0.40998815758E+03  0.14256254659E+04  0.10100000352E+00 0. -1.
</event>
<event>
 5   0  0.4775023E-08  0.3401109E+04  0.7818609E-02  0.8137634E-01
       -2   -1    0    0    0  501  0.00000000000E+00  0.00000000000E+00  0.17251101671E+04  0.17251101671E+04  0.25500000920E-02 0.  1.
        2   -1    0    0  501    0  0.00000000000E+00  0.00000000000E+00 -0.16763486437E+04  0.16763486437E+04  0.25500000920E-02 0. -1.
    10030    2    1    2    0    0  0.00000000000E+00  0.00000000000E+00  0.48761523370E+02  0.34014588108E+04  0.34011092831E+04 0.  0.
        4    1    3    3  502    0  0.60332909469E+03 -0.15342056667E+04  0.44166631823E+03  0.17067113915E+04  0.12699999809E+01 0.  1.
       -4    1    3    3    0  502 -0.60332909469E+03  0.15342056667E+04 -0.39290479486E+03  0.16947474193E+04  0.12699999809E+01 0. -1.
</event>
<event>
 5   0  0.1579536E-08  0.3391795E+04  0.7818609E-02  0.8139923E-01
       -1   -1    0    0    0  501  0.00000000000E+00  0.00000000000E+00  0.15925219075E+04  0.15925219075E+04  0.50400001928E-02 0. -1.
        1   -1    0    0  501    0  0.00000000000E+00  0.00000000000E+00 -0.18059834400E+04  0.18059834400E+04  0.50400001928E-02 0.  1.
    10030    2    1    2    0    0  0.00000000000E+00  0.00000000000E+00 -0.21346153243E+03  0.33985053475E+04  0.33917949188E+04 0.  0.
        5    1    3    3  502    0 -0.13269457971E+04  0.10473654878E+04 -0.24222585085E+03  0.17077631763E+04  0.46999998093E+01 0. -1.
       -5    1    3    3    0  502  0.13269457971E+04 -0.10473654878E+04  0.28764318418E+02  0.16907421712E+04  0.46999998093E+01 0.  1.
</event>
<event>
 5   0  0.1630571E-08  0.3398903E+04  0.7818609E-02  0.8138176E-01
        1   -1    0    0  501    0  0.00000000000E+00  0.00000000000E+00  0.99847506349E+03  0.99847506351E+03  0.50400001928E-02 0. -1.
       -1   -1    0    0    0  501  0.00000000000E+00  0.00000000000E+00 -0.28925456157E+04  0.28925456157E+04  0.50400001928E-02 0.  1.
    10030    2    1    2    0    0  0.00000000000E+00  0.00000000000E+00 -0.18940705522E+04  0.38910206793E+04  0.33989025684E+04 0.  0.
        3    1    3    3  502    0  0.69825055125E+03  0.10859510285E+04  0.31809262956E+03  0.13296715383E+04  0.10100000352E+00 0. -1.
       -3    1    3    3    0  502 -0.69825055125E+03 -0.10859510285E+04 -0.22121631818E+04  0.25613491409E+04  0.10100000352E+00 0.  1.
</event>
<event>
 5   0  0.1573625E-08  0.3399895E+04  0.7818609E-02  0.8137932E-01
        3   -1    0    0  501    0  0.00000000000E+00  0.00000000000E+00  0.16738328677E+04  0.16738328707E+04  0.10100000352E+00 0. -1.
       -3   -1    0    0    0  501  0.00000000000E+00  0.00000000000E+00 -0.17264694260E+04  0.17264694290E+04  0.10100000352E+00 0.  1.
    10030    2    1    2    0    0  0.00000000000E+00  0.00000000000E+00 -0.52636558350E+02  0.34003022997E+04  0.33998948692E+04 0.  0.
        1    1    3    3  502    0 -0.14606043503E+04  0.37331549827E+03  0.75932773520E+03  0.16879893775E+04  0.50400001928E-02 0. -1.
       -1    1    3    3    0  502  0.14606043503E+04 -0.37331549827E+03 -0.81196429355E+03  0.17123129221E+04  0.50400001928E-02 0.  1.
</event>
<event>
 5   0  0.1630571E-08  0.3399846E+04  0.7818609E-02  0.8137944E-01
       -1   -1    0    0    0  501  0.00000000000E+00  0.00000000000E+00  0.93347549305E+03  0.93347549306E+03  0.50400001928E-02 0. -1.
        1   -1    0    0  501    0  0.00000000000E+00  0.00000000000E+00 -0.30956759859E+04  0.30956759859E+04  0.50400001928E-02 0.  1.
    10030    2    1    2    0    0  0.00000000000E+00  0.00000000000E+00 -0.21622004929E+04  0.40291514790E+04  0.33998456832E+04 0.  0.
        3    1    3    3  502    0 -0.85755861552E+03  0.11089116050E+04 -0.22206731691E+04  0.26261152033E+04  0.10100000352E+00 0.  1.
       -3    1    3    3    0  502  0.85755861552E+03 -0.11089116050E+04  0.58472676232E+02  0.14030362757E+04  0.10100000352E+00 0. -1.
</event>
<event>
 5   0  0.4973409E-08  0.3400781E+04  0.7818609E-02  0.8137715E-01
        2   -1    0    0  501    0  0.00000000000E+00  0.00000000000E+00  0.24321034827E+04  0.24321034827E+04  0.25500000920E-02 0.  1.
       -2   -1    0    0    0  501  0.00000000000E+00  0.00000000000E+00 -0.11888177729E+04  0.11888177729E+04  0.25500000920E-02 0. -1.
    10030    2    1    2    0    0  0.00000000000E+00  0.00000000000E+00  0.12432857099E+04  0.36209212556E+04  0.34007809960E+04 0.  0.
        1    1    3    3  502    0  0.39774624703E+03  0.13323417967E+04  0.16637710684E+04  0.21682875520E+04  0.50400001928E-02 0.  1.
       -1    1    3    3    0  502 -0.39774624703E+03 -0.13323417967E+04 -0.42048535850E+03  0.14526337036E+04  0.50400001928E-02 0. -1.
</event>
<event>
 5   0  0.1595851E-08  0.3401203E+04  0.7818609E-02  0.8137611E-01
       -1   -1    0    0    0  501  0.00000000000E+00  0.00000000000E+00  0.18724657606E+04  0.18724657606E+04  0.50400001928E-02 0. -1.
        1   -1    0    0  501    0  0.00000000000E+00  0.00000000000E+00 -0.15445117441E+04  0.15445117441E+04  0.50400001928E-02 0.  1.
    10030    2    1    2    0    0  0.00000000000E+00  0.00000000000E+00  0.32795401654E+03  0.34169775047E+04  0.34012029388E+04 0.  0.
        2    1    3    3  502    0 -0.61757159402E+03 -0.55114856132E+03 -0.13284720581E+04  0.15652467600E+04  0.25500000920E-02 0.  1.
       -2    1    3    3    0  502  0.61757159402E+03  0.55114856132E+03  0.16564260746E+04  0.18517307448E+04  0.25500000920E-02 0. -1.
</event>
<event>
 5   0  0.1630571E-08  0.3406027E+04  0.7818609E-02  0.8136429E-01
        1   -1    0    0  501    0  0.00000000000E+00  0.00000000000E+00  0.21784033726E+04  0.21784033726E+04  0.50400001928E-02 0. -1.
       -1   -1    0    0    0  501  0.00000000000E+00  0.00000000000E+00 -0.13313675021E+04  0.13313675021E+04  0.50400001928E-02 0.  1.
    10030    2    1    2    0    0  0.00000000000E+00  0.00000000000E+00  0.84703587050E+03  0.35097708746E+04  0.34060272792E+04 0.  0.
        3    1    3    3  502    0  0.97268476623E+03 -0.79816640182E+03 -0.75907451849E+03  0.14694826961E+04  0.10100000352E+00 0. -1.
       -3    1    3    3    0  502 -0.97268476623E+03  0.79816640182E+03  0.16061103890E+04  0.20402881785E+04  0.10100000352E+00 0.  1.
</event>
<event>
 5   0  0.1595851E-08  0.3400214E+04  0.7818609E-02  0.8137854E-01
       -1   -1    0    0    0  501  0.00000000000E+00  0.00000000000E+00  0.22913508124E+04  0.22913508124E+04  0.50400001928E-02 0. -1.
        1   -1    0    0  501    0  0.00000000000E+00  0.00000000000E+00 -0.12614232595E+04  0.12614232595E+04  0.50400001928E-02 0.  1.
    10030    2    1    2    0    0  0.00000000000E+00  0.00000000000E+00  0.10299275529E+04  0.35527740719E+04  0.34002136464E+04 0.  0.
        2    1    3    3  502    0  0.64255799970E+03 -0.79561550003E+03 -0.90408777207E+03  0.13650126397E+04  0.25500000920E-02 0.  1.
       -2    1    3    3    0  502 -0.64255799970E+03  0.79561550003E+03  0.19340153250E+04  0.21877614322E+04  0.25500000920E-02 0. -1.
</event>
<event>
 5   0  0.1630571E-08  0.3399553E+04  0.7818609E-02  0.8138016E-01
        1   -1    0    0  501    0  0.00000000000E+00  0.00000000000E+00  0.19131571075E+04  0.19131571075E+04  0.50400001928E-02 0. -1.
       -1   -1    0    0    0  501  0.00000000000E+00  0.00000000000E+00 -0.15101950197E+04  0.15101950198E+04  0.50400001928E-02 0.  1.
    10030    2    1    2    0    0  0.00000000000E+00  0.00000000000E+00  0.40296208772E+03  0.34233521272E+04  0.33995531093E+04 0.  0.
        3    1    3    3  502    0 -0.14320048690E+04  0.55892061871E+03 -0.52900065859E+03  0.16256912099E+04  0.10100000352E+00 0.  1.
       -3    1    3    3    0  502  0.14320048690E+04 -0.55892061871E+03  0.93196274630E+03  0.17976609173E+04  0.10100000352E+00 0. -1.
</event>
<event>
 5   0  0.5001197E-08  0.3399924E+04  0.7818609E-02  0.8137925E-01
        2   -1    0    0  501    0  0.00000000000E+00  0.00000000000E+00  0.16650742987E+04  0.16650742987E+04  0.25500000920E-02 0. -1.
       -2   -1    0    0    0  501  0.00000000000E+00  0.00000000000E+00 -0.17355806139E+04  0.17355806139E+04  0.25500000920E-02 0.  1.
    10030    2    1    2    0    0  0.00000000000E+00  0.00000000000E+00 -0.70506315246E+02  0.34006549126E+04  0.33999239248E+04 0.  0.
        5    1    3    3  502    0 -0.56062359756E+03  0.14997242091E+04  0.53616387052E+03  0.16884801768E+04  0.46999998093E+01 0. -1.
       -5    1    3    3    0  502  0.56062359756E+03 -0.14997242091E+04 -0.60667018577E+03  0.17121747358E+04  0.46999998093E+01 0.  1.
</event>
<event>
 5   0  0.4973409E-08  0.3394843E+04  0.7818609E-02  0.8139173E-01
        2   -1    0    0  501    0  0.00000000000E+00  0.00000000000E+00  0.19164097981E+04  0.19164097981E+04  0.25500000920E-02 0. -1.
       -2   -1    0    0    0  501  0.00000000000E+00  0.00000000000E+00 -0.15034566421E+04  0.15034566421E+04  0.25500000920E-02 0.  1.
    10030    2    1    2    0    0  0.00000000000E+00  0.00000000000E+00  0.41295315605E+03  0.34198664402E+04  0.33948425825E+04 0.  0.
        1    1    3    3  502    0  0.53293095815E+03 -0.26377775434E+03  0.18080525245E+04  0.19033255216E+04  0.50400001928E-02 0. -1.
       -1    1    3    3    0  502 -0.53293095815E+03  0.26377775434E+03 -0.13950993685E+04  0.15165409186E+04  0.50400001928E-02 0.  1.
</event>
<event>
 5   0  0.1625282E-08  0.3399769E+04  0.7818609E-02  0.8137963E-01
        1   -1    0    0  501    0  0.00000000000E+00  0.00000000000E+00  0.15180247652E+04  0.15180247652E+04  0.50400001928E-02 0.  1.
       -1   -1    0    0    0  501  0.00000000000E+00  0.00000000000E+00 -0.19035313668E+04  0.19035313668E+04  0.50400001928E-02 0. -1.
    10030    2    1    2    0    0  0.00000000000E+00  0.00000000000E+00 -0.38550660163E+03  0.34215561320E+04  0.33997692605E+04 0.  0.
        1    1    3    3  502    0 -0.10037168213E+04  0.43774744773E+03 -0.15012921683E+04  0.18582110913E+04  0.50400001928E-02 0. -1.
       -1    1    3    3    0  502  0.10037168213E+04 -0.43774744773E+03  0.11157855667E+04  0.15633450406E+04  0.50400001928E-02 0.  1.
</event>
<event>
 5   0  0.4764953E-08  0.3398384E+04  0.7818609E-02  0.8138303E-01
       -2   -1    0    0    0  501  0.00000000000E+00  0.00000000000E+00  0.16555754054E+04  0.16555754054E+04  0.25500000920E-02 0. -1.
        2   -1    0    0  501    0  0.00000000000E+00  0.00000000000E+00 -0.17439576529E+04  0.17439576529E+04  0.25500000920E-02 0.  1.
    10030    2    1    2    0    0  0.00000000000E+00  0.00000000000E+00 -0.88382247442E+02  0.33995330583E+04  0.33983839678E+04 0.  0.
        2    1    3    3  502    0  0.58469530761E+03  0.83344574909E+03  0.13166926975E+04  0.16643857964E+04  0.25500000920E-02 0. -1.
       -2    1    3    3    0  502 -0.58469530761E+03 -0.83344574909E+03 -0.14050749450E+04  0.17351472619E+04  0.25500000920E-02 0.  1.
</event>
<event>
 5   0  0.5001197E-08  0.3402979E+04  0.7818609E-02  0.8137176E-01
        2   -1    0    0  501    0  0.00000000000E+00  0.00000000000E+00  0.32851814404E+04  0.32851814404E+04  0.25500000920E-02 0. -1.
       -2   -1    0    0    0  501  0.00000000000E+00  0.00000000000E+00 -0.88125009543E+03  0.88125009543E+03  0.25500000920E-02 0.  1.
    10030    2    1    2    0    0  0.00000000000E+00  0.00000000000E+00  0.24039313450E+04  0.41664315359E+04  0.34029789643E+04 0.  0.
        5    1    3    3  502    0 -0.50200145999E+03  0.16245679427E+04  0.11263142061E+04  0.20395666812E+04  0.46999998093E+01 0. -1.
       -5    1    3    3    0  502  0.50200145999E+03 -0.16245679427E+04  0.12776171389E+04  0.21268648546E+04  0.46999998093E+01 0.  1.
</event>
<event>
 5   0  0.1595851E-08  0.3399678E+04  0.7818609E-02  0.8137985E-01
       -1   -1    0    0    0  501  0.00000000000E+00  0.00000000000E+00  0.12536661361E+04  0.12536661361E+04  0.50400001928E-02 0. -1.
        1   -1    0    0  501    0  0.00000000000E+00  0.00000000000E+00 -0.23048022766E+04  0.23048022766E+04  0.50400001928E-02 0.  1.
    10030    2    1    2    0    0  0.00000000000E+00  0.00000000000E+00 -0.10511361405E+04  0.35584684128E+04  0.33996779640E+04 0.  0.
        2    1    3    3  502    0  0.64970583612E+03 -0.12586761981E+04  0.45804135997E+03  0.14886857736E+04  0.25500000920E-02 0. -1.
       -2    1    3    3    0  502 -0.64970583612E+03  0.12586761981E+04 -0.15091775005E+04  0.20697826391E+04  0.25500000920E-02 0.  1.
</event>
<event>
 5   0  0.4764953E-08  0.3400023E+04  0.7818609E-02  0.8137901E-01
       -2   -1    0    0    0  501  0.00000000000E+00  0.00000000000E+00  0.16958845168E+04  0.16958845168E+04  0.25500000920E-02 0.  1.
        2   -1    0    0  501    0  0.00000000000E+00  0.00000000000E+00 -0.17041488309E+04  0.17041488309E+04  0.25500000920E-02 0. -1.
    10030    2    1    2    0    0  0.00000000000E+00  0.00000000000E+00 -0.82643140749E+01  0.34000333477E+04  0.34000233039E+04 0.  0.
        2    1    3    3  502    0 -0.14889845602E+04 -0.66911240586E+03  0.47047769875E+03  0.16988630602E+04  0.25500000920E-02 0.  1.
       -2    1    3    3    0  502  0.14889845602E+04  0.66911240586E+03 -0.47874201283E+03  0.17011702875E+04  0.25500000920E-02 0. -1.
</event>
<event>
 5   0  0.4946315E-08  0.3401678E+04  0.7818609E-02  0.8137495E-01
        2   -1    0    0  501    0  0.00000000000E+00  0.00000000000E+00  0.14590608581E+04  0.14590608581E+04  0.25500000920E-02 0.  1.
       -2   -1    0    0    0  501  0.00000000000E+00  0.00000000000E+00 -0.19826814038E+04  0.19826814038E+04  0.25500000920E-02 0. -1.
    10030    2    1    2    0    0  0.00000000000E+00  0.00000000000E+00 -0.52362054568E+03  0.34417422619E+04  0.34016777216E+04 0.  0.
        3    1    3    3  502    0  0.10358045309E+04  0.22574919916E+03  0.10838919942E+04  0.15161383817E+04  0.10100000352E+00 0.  1.
       -3    1    3    3    0  502 -0.10358045309E+04 -0.22574919916E+03 -0.16075125399E+04  0.19256038802E+04  0.10100000352E+00 0. -1.
</event>
<event>
 5   0  0.1573625E-08  0.3379374E+04  0.7818609E-02  0.8142987E-01
        3   -1    0    0  501    0  0.00000000000E+00  0.00000000000E+00  0.11233863257E+04  0.11233863302E+04  0.10100000352E+00 0.  1.
       -3   -1    0    0    0  501  0.00000000000E+00  0.00000000000E+00 -0.25414603477E+04  0.25414603497E+04  0.10100000352E+00 0. -1.
    10030    2    1    2    0    0  0.00000000000E+00  0.00000000000E+00 -0.14180740221E+04  0.36648466800E+04  0.33793737964E+04 0.  0.
        4    1    3    3  502    0 -0.82747596801E+03 -0.63191153338E+03 -0.21522494836E+04  0.23908592841E+04  0.12699999809E+01 0. -1.
       -4    1    3    3    0  502  0.82747596801E+03  0.63191153338E+03  0.73417546154E+03  0.12739873959E+04  0.12699999809E+01 0.  1.
</event>
<event>
 5   0  0.1579536E-08  0.3400076E+04  0.7818609E-02  0.8137888E-01
       -1   -1    0    0    0  501  0.00000000000E+00  0.00000000000E+00  0.93008980608E+03  0.93008980610E+03  0.50400001928E-02 0. -1.
        1   -1    0    0  501    0  0.00000000000E+00  0.00000000000E+00 -0.31073653816E+04  0.31073653817E+04  0.50400001928E-02 0.  1.
    10030    2    1    2    0    0  0.00000000000E+00  0.00000000000E+00 -0.21772755756E+04  0.40374551878E+04  0.34000758023E+04 0.  0.
        5    1    3    3  502    0 -0.17328458247E+03  0.18350622551E+03  0.90771039357E+03  0.94215833590E+03  0.46999998093E+01 0. -1.
       -5    1    3    3    0  502  0.17328458247E+03 -0.18350622551E+03 -0.30849859691E+04  0.30952968518E+04  0.46999998093E+01 0.  1.
</event>
<event>
 5   0  0.4973409E-08  0.3400427E+04  0.7818609E-02  0.8137802E-01
       -2   -1    0    0    0  501  0.00000000000E+00  0.00000000000E+00  0.16570662457E+04  0.16570662457E+04  0.25500000920E-02 0. -1.
        2   -1    0    0  501    0  0.00000000000E+00  0.00000000000E+00 -0.17444838818E+04  0.17444838818E+04  0.25500000920E-02 0.  1.
    10030    2    1    2    0    0  0.00000000000E+00  0.00000000000E+00 -0.87417636127E+02  0.34015501275E+04  0.34004266536E+04 0.  0.
        1    1    3    3  502    0  0.68959134556E+03 -0.78239716358E+03 -0.13869271289E+04  0.17352949047E+04  0.50400001928E-02 0.  1.
       -1    1    3    3    0  502 -0.68959134556E+03  0.78239716358E+03  0.12995094928E+04  0.16662552228E+04  0.50400001928E-02 0. -1.
</event>
<event>
 5   0  0.1645631E-08  0.3400007E+04  0.7818609E-02  0.8137905E-01
        1   -1    0    0  501    0  0.00000000000E+00  0.00000000000E+00  0.19161105490E+04  0.19161105490E+04  0.50400001928E-02 0.  1.
       -1   -1    0    0    0  501  0.00000000000E+00  0.00000000000E+00 -0.15082699572E+04  0.15082699572E+04  0.50400001928E-02 0. -1.
    10030    2    1    2    0    0  0.00000000000E+00  0.00000000000E+00  0.40784059177E+03  0.34243805062E+04  0.34000070445E+04 0.  0.
        4    1    3    3  502    0 -0.27741389167E+03 -0.28941853691E+03  0.18678192403E+04  0.19103590982E+04  0.12699999809E+01 0.  1.
       -4    1    3    3    0  502  0.27741389167E+03  0.28941853691E+03 -0.14599786485E+04  0.15140214080E+04  0.12699999809E+01 0. -1.
</event>
<event>
 5   0  0.1595851E-08  0.3402513E+04  0.7818609E-02  0.8137290E-01
        1   -1    0    0  501    0  0.00000000000E+00  0.00000000000E+00  0.14213570487E+04  0.14213570487E+04  0.50400001928E-02 0.  1.
       -1   -1    0    0    0  501  0.00000000000E+00  0.00000000000E+00 -0.20362746929E+04  0.20362746929E+04  0.50400001928E-02 0. -1.
    10030    2    1    2    0    0  0.00000000000E+00  0.00000000000E+00 -0.61491764414E+03  0.34576317416E+04  0.34025128290E+04 0.  0.
        2    1    3    3  502    0 -0.70659539776E+02 -0.16471285472E+04 -0.73407887824E+03  0.18046875134E+04  0.25500000920E-02 0.  1.
       -2    1    3    3    0  502  0.70659539776E+02  0.16471285472E+04  0.11916123409E+03  0.16529442282E+04  0.25500000920E-02 0. -1.
</event>
<event>
 5   0  0.4775023E-08  0.3397464E+04  0.7818609E-02  0.8138529E-01
        2   -1    0    0  501    0  0.00000000000E+00  0.00000000000E+00  0.12820777662E+04  0.12820777662E+04  0.25500000920E-02 0.  1.
       -2   -1    0    0    0  501  0.00000000000E+00  0.00000000000E+00 -0.22507914010E+04  0.22507914010E+04  0.25500000920E-02 0. -1.
    10030    2    1    2    0    0  0.00000000000E+00  0.00000000000E+00 -0.96871363475E+03  0.35328691672E+04  0.33974635313E+04 0.  0.
        4    1    3    3  502    0  0.52995671446E+03 -0.54387746926E+03 -0.20644680099E+04  0.21997014792E+04  0.12699999809E+01 0. -1.
       -4    1    3    3    0  502 -0.52995671446E+03  0.54387746926E+03  0.10957543752E+04  0.13331676880E+04  0.12699999809E+01 0.  1.
</event>
<event>
 5   0  0.4764953E-08  0.3398391E+04  0.7818609E-02  0.8138301E-01
        2   -1    0    0  501    0  0.00000000000E+00  0.00000000000E+00  0.25632493335E+04  0.25632493335E+04  0.25500000920E-02 0.  1.
       -2   -1    0    0    0  501  0.00000000000E+00  0.00000000000E+00 -0.11264083268E+04  0.11264083268E+04  0.25500000920E-02 0. -1.
    10030    2    1    2    0    0  0.00000000000E+00  0.00000000000E+00  0.14368410067E+04  0.36896576603E+04  0.33983910269E+04 0.  0.
        2    1    3    3  502    0  0.12194128810E+04 -0.32955936930E+03 -0.51551249136E+03  0.13643057872E+04  0.25500000920E-02 0. -1.
       -2    1    3    3    0  502 -0.12194128810E+04  0.32955936930E+03  0.19523534980E+04  0.23253518731E+04  0.25500000920E-02 0.  1.
</event>
<event>
 5   0  0.4946315E-08  0.3400567E+04  0.7818609E-02  0.8137767E-01
       -2   -1    0    0    0  501  0.00000000000E+00  0.00000000000E+00  0.12596686852E+04  0.12596686852E+04  0.25500000920E-02 0.  1.
        2   -1    0    0  501    0  0.00000000000E+00  0.00000000000E+00 -0.22950197016E+04  0.22950197016E+04  0.25500000920E-02 0. -1.
    10030    2    1    2    0    0  0.00000000000E+00  0.00000000000E+00 -0.10353510164E+04  0.35546883869E+04  0.34005672763E+04 0.  0.
        3    1    3    3  502    0  0.76251772410E+02 -0.11516634693E+04 -0.18227891772E+04  0.21574761816E+04  0.10100000352E+00 0. -1.
       -3    1    3    3    0  502 -0.76251772410E+02  0.11516634693E+04  0.78743816082E+03  0.13972122053E+04  0.10100000352E+00 0.  1.
</event>
<event>
 5   0  0.1595851E-08  0.3400911E+04  0.7818609E-02  0.8137683E-01
        1   -1    0    0  501    0  0.00000000000E+00  0.00000000000E+00  0.11584211607E+04  0.11584211607E+04  0.50400001928E-02 0.  1.
       -1   -1    0    0    0  501  0.00000000000E+00  0.00000000000E+00 -0.24961112412E+04  0.24961112412E+04  0.50400001928E-02 0. -1.
    10030    2    1    2    0    0  0.00000000000E+00  0.00000000000E+00 -0.13376900805E+04  0.36545324019E+04  0.34009105142E+04 0.  0.
        2    1    3    3  502    0  0.15402474007E+04 -0.71407786353E+03 -0.56533481804E+03  0.17893777429E+04  0.25500000920E-02 0. -1.
       -2    1    3    3    0  502 -0.15402474007E+04  0.71407786353E+03 -0.77235526249E+03  0.18651546590E+04  0.25500000920E-02 0.  1.
</event>
<event>
 5   0  0.4775023E-08  0.3400177E+04  0.7818609E-02  0.8137863E-01
        2   -1    0    0  501    0  0.00000000000E+00  0.00000000000E+00  0.11975742056E+04  0.11975742056E+04  0.25500000920E-02 0.  1.
       -2   -1    0    0    0  501  0.00000000000E+00  0.00000000000E+00 -0.24134624786E+04  0.24134624786E+04  0.25500000920E-02 0. -1.
    10030    2    1    2    0    0  0.00000000000E+00  0.00000000000E+00 -0.12158882729E+04  0.36110366842E+04  0.34001767075E+04 0.  0.
        4    1    3    3  502    0  0.47924621394E+03 -0.31255376343E+03 -0.23081399992E+04  0.23779988766E+04  0.12699999809E+01 0. -1.
       -4    1    3    3    0  502 -0.47924621394E+03  0.31255376343E+03  0.10922517262E+04  0.12330378076E+04  0.12699999809E+01 0.  1.
</event>
<event>
 5   0  0.4946315E-08  0.3400062E+04  0.7818609E-02  0.8137891E-01
        2   -1    0    0  501    0  0.00000000000E+00  0.00000000000E+00  0.16518924291E+04  0.16518924291E+04  0.25500000920E-02 0.  1.
       -2   -1    0    0    0  501  0.00000000000E+00  0.00000000000E+00 -0.17495719858E+04  0.17495719858E+04  0.25500000920E-02 0. -1.
    10030    2    1    2    0    0  0.00000000000E+00  0.00000000000E+00 -0.97679556797E+02  0.34014644149E+04  0.34000615980E+04 0.  0.
        3    1    3    3  502    0  0.55045861094E+03 -0.41418539370E+03  0.15060055963E+04  0.16560818485E+04  0.10100000352E+00 0.  1.
       -3    1    3    3    0  502 -0.55045861094E+03  0.41418539370E+03 -0.16036851531E+04  0.17453825664E+04  0.10100000352E+00 0. -1.
</event>
<event>
 5   0  0.1630571E-08  0.3400090E+04  0.7818609E-02  0.8137884E-01
        1   -1    0    0  501    0  0.00000000000E+00  0.00000000000E+00  0.11467909131E+04  0.11467909131E+04  0.50400001928E-02 0. -1.
       -1   -1    0    0    0  501  0.00000000000E+00  0.00000000000E+00 -0.25202087654E+04  0.25202087654E+04  0.50400001928E-02 0.  1.
    10030    2    1    2    0    0  0.00000000000E+00  0.00000000000E+00 -0.13734178523E+04  0.36669996785E+04  0.34000897113E+04 0.  0.
        3    1    3    3  502    0 -0.13189339509E+04 -0.10170538871E+04 -0.10542975956E+04  0.19711744739E+04  0.10100000352E+00 0.  1.
       -3    1    3    3    0  502  0.13189339509E+04  0.10170538871E+04 -0.31912025672E+03  0.16958252046E+04  0.10100000352E+00 0. -1.
</event>
<event>
 5   0  0.4973409E-08  0.3399436E+04  0.7818609E-02  0.8138045E-01
        2   -1    0    0  501    0  0.00000000000E+00  0.00000000000E+00  0.11721471790E+04  0.11721471790E+04  0.25500000920E-02 0. -1.
       -2   -1    0    0    0  501  0.00000000000E+00  0.00000000000E+00 -0.24647430345E+04  0.24647430345E+04  0.25500000920E-02 0.  1.
    10030    2    1    2    0    0  0.00000000000E+00  0.00000000000E+00 -0.12925958555E+04  0.36368902135E+04  0.33994361855E+04 0.  0.
        1    1    3    3  502    0 -0.45233522488E+03  0.10351191176E+04  0.71243931916E+03  0.13355330497E+04  0.50400001928E-02 0. -1.
       -1    1    3    3    0  502  0.45233522488E+03 -0.10351191176E+04 -0.20050351747E+04  0.23013571638E+04  0.50400001928E-02 0.  1.
</event>
<event>
 5   0  0.1595851E-08  0.3401841E+04  0.7818609E-02  0.8137455E-01
       -1   -1    0    0    0  501  0.00000000000E+00  0.00000000000E+00  0.18051762832E+04  0.18051762832E+04  0.50400001928E-02 0.  1.
        1   -1    0    0  501    0  0.00000000000E+00  0.00000000000E+00 -0.16026857094E+04  0.16026857094E+04  0.50400001928E-02 0. -1.
    10030    2    1    2    0    0  0.00000000000E+00  0.00000000000E+00  0.20249057384E+03  0.34078619926E+04  0.34018408146E+04 0.  0.
        2    1    3    3  502    0  0.42301492663E+03 -0.14869397619E+03 -0.15424143405E+04  0.16062669530E+04  0.25500000920E-02 0. -1.
       -2    1    3    3    0  502 -0.42301492663E+03  0.14869397619E+03  0.17449049143E+04  0.18015950396E+04  0.25500000920E-02 0.  1.
</event>
<event>
 5   0  0.1625282E-08  0.3399328E+04  0.7818609E-02  0.8138071E-01
        1   -1    0    0  501    0  0.00000000000E+00  0.00000000000E+00  0.28882960127E+04  0.28882960127E+04  0.50400001928E-02 0. -1.
       -1   -1    0    0    0  501  0.00000000000E+00  0.00000000000E+00 -0.10001942853E+04  0.10001942853E+04  0.50400001928E-02 0.  1.
    10030    2    1    2    0    0  0.00000000000E+00  0.00000000000E+00  0.18881017274E+04  0.38884902981E+04  0.33993276784E+04 0.  0.
        1    1    3    3  502    0 -0.86210219426E+03  0.42711162270E+03 -0.65872081390E+03  0.11660007042E+04  0.50400001928E-02 0.  1.
       -1    1    3    3    0  502  0.86210219426E+03 -0.42711162270E+03  0.25468225413E+04  0.27224895938E+04  0.50400001928E-02 0. -1.
</event>
<event>
 5   0  0.4775023E-08  0.3399852E+04  0.7818609E-02  0.8137943E-01
        2   -1    0    0  501    0  0.00000000000E+00  0.00000000000E+00  0.22075967350E+04  0.22075967350E+04  0.25500000920E-02 0. -1.
       -2   -1    0    0    0  501  0.00000000000E+00  0.00000000000E+00 -0.13090021885E+04  0.13090021885E+04  0.25500000920E-02 0.  1.
    10030    2    1    2    0    0  0.00000000000E+00  0.00000000000E+00  0.89859454646E+03  0.35165989235E+04  0.33998523247E+04 0.  0.
        4    1    3    3  502    0  0.52007168593E+03  0.98666152916E+03 -0.87763145046E+03  0.14192301108E+04  0.12699999809E+01 0.  1.
       -4    1    3    3    0  502 -0.52007168593E+03 -0.98666152916E+03  0.17762259969E+04  0.20973688127E+04  0.12699999809E+01 0. -1.
</event>
<event>
 5   0  0.4775023E-08  0.3397441E+04  0.7818609E-02  0.8138535E-01
       -2   -1    0    0    0  501  0.00000000000E+00  0.00000000000E+00  0.16285867767E+04  0.16285867767E+04  0.25500000920E-02 0. -1.
        2   -1    0    0  501    0  0.00000000000E+00  0.00000000000E+00 -0.17718745671E+04  0.17718745671E+04  0.25500000920E-02 0.  1.
    10030    2    1    2    0    0  0.00000000000E+00  0.00000000000E+00 -0.14328779033E+03  0.34004613438E+04  0.33974410900E+04 0.  0.
        4    1    3    3  502    0 -0.14446920564E+04 -0.29905091031E+03  0.77117552375E+03  0.16647161579E+04  0.12699999809E+01 0. -1.
       -4    1    3    3    0  502  0.14446920564E+04  0.29905091031E+03 -0.91446331408E+03  0.17357451860E+04  0.12699999809E+01 0.  1.
</event>
<event>
 5   0  0.4775023E-08  0.3401155E+04  0.7818609E-02  0.8137623E-01
        2   -1    0    0  501    0  0.00000000000E+00  0.00000000000E+00  0.16465913180E+04  0.16465913180E+04  0.25500000920E-02 0. -1.
       -2   -1    0    0    0  501  0.00000000000E+00  0.00000000000E+00 -0.17563333368E+04  0.17563333368E+04  0.25500000920E-02 0.  1.
    10030    2    1    2    0    0  0.00000000000E+00  0.00000000000E+00 -0.10974201876E+03  0.34029246548E+04  0.34011546415E+04 0.  0.
        4    1    3    3  502    0 -0.70371531701E+03  0.14946941002E+04  0.34862029266E+03  0.16884500058E+04  0.12699999809E+01 0.  1.
       -4    1    3    3    0  502  0.70371531701E+03 -0.14946941002E+04 -0.45836231142E+03  0.17144746490E+04  0.12699999809E+01 0. -1.
</event>
<event>
 5   0  0.1625282E-08  0.3400120E+04  0.7818609E-02  0.8137877E-01
       -1   -1    0    0    0  501  0.00000000000E+00  0.00000000000E+00  0.96667302239E+03  0.96667302240E+03  0.50400001928E-02 0.  1.
        1   -1    0    0  501    0  0.00000000000E+00  0.00000000000E+00 -0.29898463832E+04  0.29898463832E+04  0.50400001928E-02 0. -1.
    10030    2    1    2    0    0  0.00000000000E+00  0.00000000000E+00 -0.20231733608E+04  0.39565194056E+04  0.34001199036E+04 0.  0.
        1    1    3    3  502    0  0.96850145205E+02 -0.65566334889E+03  0.81014526412E+03  0.10467137750E+04  0.50400001928E-02 0.  1.
       -1    1    3    3    0  502 -0.96850145205E+02  0.65566334889E+03 -0.28333186249E+04  0.29098056307E+04  0.50400001928E-02 0. -1.
</event>
<event>
 5   0  0.4946315E-08  0.3397363E+04  0.7818609E-02  0.8138554E-01
        2   -1    0    0  501    0  0.00000000000E+00  0.00000000000E+00  0.21035015144E+04  0.21035015144E+04  0.25500000920E-02 0.  1.
       -2   -1    0    0    0  501  0.00000000000E+00  0.00000000000E+00 -0.13717691863E+04  0.13717691863E+04  0.25500000920E-02 0. -1.
    10030    2    1    2    0    0  0.00000000000E+00  0.00000000000E+00  0.73173232802E+03  0.34752707007E+04  0.33973628366E+04 0.  0.
        3    1    3    3  502    0  0.94500100896E+03 -0.13883223992E+04  0.62676906123E+03  0.17925695126E+04  0.10100000352E+00 0.  1.
       -3    1    3    3    0  502 -0.94500100896E+03  0.13883223992E+04  0.10496326679E+03  0.16827011882E+04  0.10100000352E+00 0. -1.
</event>
<event>
 5   0  0.4973409E-08  0.3397425E+04  0.7818609E-02  0.8138538E-01
        2   -1    0    0  501    0  0.00000000000E+00  0.00000000000E+00  0.25877883981E+04  0.25877883981E+04  0.25500000920E-02 0. -1.
       -2   -1    0    0    0  501  0.00000000000E+00  0.00000000000E+00 -0.11150930491E+04  0.11150930491E+04  0.25500000920E-02 0.  1.
    10030    2    1    2    0    0  0.00000000000E+00  0.00000000000E+00  0.14726953490E+04  0.37028814473E+04  0.33974254107E+04 0.  0.
        1    1    3    3  502    0  0.49622712132E+03  0.63578587476E+03  0.23658094159E+04  0.24995037962E+04  0.50400001928E-02 0. -1.
       -1    1    3    3    0  502 -0.49622712132E+03 -0.63578587476E+03 -0.89311406697E+03  0.12033776511E+04  0.50400001928E-02 0.  1.
</event>
<event>
 5   0  0.1595851E-08  0.3399316E+04  0.7818609E-02  0.8138074E-01
       -1   -1    0    0    0  501  0.00000000000E+00  0.00000000000E+00  0.13699137015E+04  0.13699137015E+04  0.50400001928E-02 0.  1.
        1   -1    0    0  501    0  0.00000000000E+00  0.00000000000E+00 -0.21087727936E+04  0.21087727936E+04  0.50400001928E-02 0. -1.
    10030    2    1    2    0    0  0.00000000000E+00  0.00000000000E+00 -0.73885909207E+03  0.34786864951E+04  0.33993156624E+04 0.  0.
        2    1    3    3  502    0  0.13123086944E+04  0.95613724393E+03 -0.88364000140E+03  0.18485594907E+04  0.25500000920E-02 0. -1.
       -2    1    3    3    0  502 -0.13123086944E+04 -0.95613724393E+03  0.14478090933E+03  0.16301270044E+04  0.25500000920E-02 0.  1.
</event>
<event>
 5   0  0.1625282E-08  0.3402903E+04  0.7818609E-02  0.8137194E-01
       -1   -1    0    0    0  501  0.00000000000E+00  0.00000000000E+00  0.21571738736E+04  0.21571738736E+04  0.50400001928E-02 0. -1.
        1   -1    0    0  501    0  0.00000000000E+00  0.00000000000E+00 -0.13420045958E+04  0.13420045958E+04  0.50400001928E-02 0.  1.
    10030    2    1    2    0    0  0.00000000000E+00  0.00000000000E+00  0.81516927783E+03  0.34991784694E+04  0.34029030267E+04 0.  0.
        1    1    3    3  502    0 -0.99701498195E+03 -0.47894504935E+03  0.17370315897E+04  0.20592974477E+04  0.50400001928E-02 0. -1.
       -1    1    3    3    0  502  0.99701498195E+03  0.47894504935E+03 -0.92186231187E+03  0.14398810217E+04  0.50400001928E-02 0.  1.
</event>
<event>
 5   0  0.1595851E-08  0.3399763E+04  0.7818609E-02  0.8137964E-01
        1   -1    0    0  501    0  0.00000000000E+00  0.00000000000E+00  0.17246766984E+04  0.17246766984E+04  0.50400001928E-02 0.  1.
       -1   -1    0    0    0  501  0.00000000000E+00  0.00000000000E+00 -0.16754429656E+04  0.16754429656E+04  0.50400001928E-02 0. -1.
    10030    2    1    2    0    0  0.00000000000E+00  0.00000000000E+00  0.49233732763E+02  0.34001196640E+04  0.33997631931E+04 0.  0.
        2    1    3    3  502    0  0.11307457539E+04 -0.12342153902E+04 -0.27159631683E+03  0.16957706651E+04  0.25500000920E-02 0. -1.
       -2    1    3    3    0  502 -0.11307457539E+04  0.12342153902E+04  0.32083004959E+03  0.17043489989E+04  0.25500000920E-02 0.  1.
</event>
<event>
 5   0  0.4946315E-08  0.3400177E+04  0.7818609E-02  0.8137863E-01
        2   -1    0    0  501    0  0.00000000000E+00  0.00000000000E+00  0.18566304641E+04  0.18566304642E+04  0.25500000920E-02 0. -1.
       -2   -1    0    0    0  501  0.00000000000E+00  0.00000000000E+00 -0.15567458053E+04  0.15567458053E+04  0.25500000920E-02 0.  1.
    10030    2    1    2    0    0  0.00000000000E+00  0.00000000000E+00  0.29988465880E+03  0.34133762695E+04  0.34001774584E+04 0.  0.
        3    1    3    3  502    0  0.66744900259E+03  0.38736638097E+03 -0.13707847924E+04  0.15730835456E+04  0.10100000352E+00 0.  1.
       -3    1    3    3    0  502 -0.66744900259E+03 -0.38736638097E+03  0.16706694512E+04  0.18402927239E+04  0.10100000352E+00 0. -1.
</event>
<event>
 5   0  0.1595851E-08  0.3402876E+04  0.7818609E-02  0.8137201E-01
        1   -1    0    0  501    0  0.00000000000E+00  0.00000000000E+00  0.14133921980E+04  0.14133921980E+04  0.50400001928E-02 0. -1.
       -1   -1    0    0    0  501  0.00000000000E+00  0.00000000000E+00 -0.20481864010E+04  0.20481864010E+04  0.50400001928E-02 0.  1.
    10030    2    1    2    0    0  0.00000000000E+00  0.00000000000E+00 -0.63479420301E+03  0.34615785990E+04  0.34028756541E+04 0.  0.
        2    1    3    3  502    0 -0.15851449707E+04 -0.54887665539E+03 -0.60680548549E+03  0.17838618383E+04  0.25500000920E-02 0.  1.
       -2    1    3    3    0  502  0.15851449707E+04  0.54887665539E+03 -0.27988717521E+02  0.16777167607E+04  0.25500000920E-02 0. -1.
</event>
<event>
 5   0  0.4764953E-08  0.3413289E+04  0.7818609E-02  0.8134652E-01
        2   -1    0    0  501    0  0.00000000000E+00  0.00000000000E+00  0.21247198322E+04  0.21247198322E+04  0.25500000920E-02 0.  1.
       -2   -1    0    0    0  501  0.00000000000E+00  0.00000000000E+00 -0.13708330559E+04  0.13708330559E+04  0.25500000920E-02 0. -1.
    10030    2    1    2    0    0  0.00000000000E+00  0.00000000000E+00  0.75388677629E+03  0.34955528882E+04  0.34132894285E+04 0.  0.
        2    1    3    3  502    0  0.11624717240E+04 -0.10960510475E+04 -0.23748966769E+03  0.16152615114E+04  0.25500000920E-02 0. -1.
       -2    1    3    3    0  502 -0.11624717240E+04  0.10960510475E+04  0.99137644398E+03  0.18802913768E+04  0.25500000920E-02 0.  1.
</event>
<event>
 5   0  0.1630571E-08  0.3400020E+04  0.7818609E-02  0.8137901E-01
       -1   -1    0    0    0  501  0.00000000000E+00  0.00000000000E+00  0.32293454587E+04  0.32293454587E+04  0.50400001928E-02 0. -1.
        1   -1    0    0  501    0  0.00000000000E+00  0.00000000000E+00 -0.89492861000E+03  0.89492861002E+03  0.50400001928E-02 0.  1.
    10030    2    1    2    0    0  0.00000000000E+00  0.00000000000E+00  0.23344168487E+04  0.41242740687E+04  0.34000197897E+04 0.  0.
        3    1    3    3  502    0  0.16246802939E+03 -0.61980086121E+02 -0.88411253850E+03  0.90105071033E+03  0.10100000352E+00 0.  1.
       -3    1    3    3    0  502 -0.16246802939E+03  0.61980086121E+02  0.32185293872E+04  0.32232233584E+04  0.10100000352E+00 0. -1.
</event>
<event>
 5   0  0.1625282E-08  0.3401723E+04  0.7818609E-02  0.8137483E-01
       -1   -1    0    0    0  501  0.00000000000E+00  0.00000000000E+00  0.14883427775E+04  0.14883427775E+04  0.50400001928E-02 0. -1.
        1   -1    0    0  501    0  0.00000000000E+00  0.00000000000E+00 -0.19437259480E+04  0.19437259480E+04  0.50400001928E-02 0.  1.
    10030    2    1    2    0    0  0.00000000000E+00  0.00000000000E+00 -0.45538317051E+03  0.34320687255E+04  0.34017233728E+04 0.  0.
        1    1    3    3  502    0  0.61356598848E+03 -0.12677936683E+04 -0.11896995922E+04  0.18436781518E+04  0.50400001928E-02 0.  1.
       -1    1    3    3    0  502 -0.61356598848E+03  0.12677936683E+04  0.73431642174E+03  0.15883905738E+04  0.50400001928E-02 0. -1.
</event>
<event>
 5   0  0.4775023E-08  0.3407663E+04  0.7818609E-02  0.8136028E-01
       -2   -1    0    0    0  501  0.00000000000E+00  0.00000000000E+00  0.16595408121E+04  0.16595408121E+04  0.25500000920E-02 0.  1.
        2   -1    0    0  501    0  0.00000000000E+00  0.00000000000E+00 -0.17493045722E+04  0.17493045722E+04  0.25500000920E-02 0. -1.
    10030    2    1    2    0    0  0.00000000000E+00  0.00000000000E+00 -0.89763760051E+02  0.34088453843E+04  0.34076633228E+04 0.  0.
        4    1    3    3  502    0 -0.88828345261E+03  0.10351102416E+04  0.97652079175E+03  0.16775265048E+04  0.12699999809E+01 0.  1.
       -4    1    3    3    0  502  0.88828345261E+03 -0.10351102416E+04 -0.10662845518E+04  0.17313188796E+04  0.12699999809E+01 0. -1.
</event>
<event>
 5   0  0.5001197E-08  0.3399654E+04  0.7818609E-02  0.8137991E-01
       -2   -1    0    0    0  501  0.00000000000E+00  0.00000000000E+00  0.14927652787E+04  0.14927652787E+04  0.25500000920E-02 0. -1.
        2   -1    0    0  501    0  0.00000000000E+00  0.00000000000E+00 -0.19356099678E+04  0.19356099678E+04  0.25500000920E-02 0.  1.
    10030    2    1    2    0    0  0.00000000000E+00  0.00000000000E+00 -0.44284468910E+03  0.34283752465E+04  0.33996537194E+04 0.  0.
        5    1    3    3  502    0 -0.95940437609E+03  0.64961605756E+03  0.10328423764E+04  0.15521737156E+04  0.46999998093E+01 0. -1.
       -5    1    3    3    0  502  0.95940437609E+03 -0.64961605756E+03 -0.14756870655E+04  0.18762015308E+04  0.46999998093E+01 0.  1.
</event>
<event>
 5   0  0.1595851E-08  0.3398930E+04  0.7818609E-02  0.8138169E-01
        1   -1    0    0  501    0  0.00000000000E+00  0.00000000000E+00  0.20176054544E+04  0.20176054544E+04  0.50400001928E-02 0.  1.
       -1   -1    0    0    0  501  0.00000000000E+00  0.00000000000E+00 -0.14314895114E+04  0.14314895115E+04  0.50400001928E-02 0. -1.
    10030    2    1    2    0    0  0.00000000000E+00  0.00000000000E+00  0.58611594299E+03  0.34490949659E+04  0.33989298588E+04 0.  0.
        2    1    3    3  502    0 -0.43681485680E+03  0.77301453673E+03 -0.11774054546E+04  0.14746668429E+04  0.25500000920E-02 0. -1.
       -2    1    3    3    0  502  0.43681485680E+03 -0.77301453673E+03  0.17635213976E+04  0.19744281230E+04  0.25500000920E-02 0.  1.
</event>
<event>
 5   0  0.1595851E-08  0.3401751E+04  0.7818609E-02  0.8137477E-01
       -1   -1    0    0    0  501  0.00000000000E+00  0.00000000000E+00  0.22958930742E+04  0.22958930742E+04  0.50400001928E-02 0. -1.
        1   -1    0    0  501    0  0.00000000000E+00  0.00000000000E+00 -0.12600659665E+04  0.12600659665E+04  0.50400001928E-02 0.  1.
    10030    2    1    2    0    0  0.00000000000E+00  0.00000000000E+00  0.10358271077E+04  0.35559590407E+04  0.34017505644E+04 0.  0.
        2    1    3    3  502    0 -0.46151341053E+03 -0.11611384274E+04 -0.68841039404E+03  0.14265854150E+04  0.25500000920E-02 0.  1.
       -2    1    3    3    0  502  0.46151341053E+03  0.11611384274E+04  0.17242375017E+04  0.21293736257E+04  0.25500000920E-02 0. -1.
</event>
<event>
 5   0  0.1625282E-08  0.3401555E+04  0.7818609E-02  0.8137525E-01
       -1   -1    0    0    0  501  0.00000000000E+00  0.00000000000E+00  0.14478298173E+04  0.14478298173E+04  0.50400001928E-02 0. -1.
        1   -1    0    0  501    0  0.00000000000E+00  0.00000000000E+00 -0.19979170662E+04  0.19979170662E+04  0.50400001928E-02 0.  1.
    10030    2    1    2    0    0  0.00000000000E+00  0.00000000000E+00 -0.55008724892E+03  0.34457468835E+04  0.34015548803E+04 0.  0.
        1    1    3    3  502    0 -0.12697832725E+04  0.11037104246E+04 -0.22571540461E+02  0.16825681962E+04  0.50400001928E-02 0. -1.
       -1    1    3    3    0  502  0.12697832725E+04 -0.11037104246E+04 -0.52751570846E+03  0.17631786873E+04  0.50400001928E-02 0.  1.
</event>
<event>
 5   0  0.1579536E-08  0.3399685E+04  0.7818609E-02  0.8137984E-01
       -1   -1    0    0    0  501  0.00000000000E+00  0.00000000000E+00  0.13919754039E+04  0.13919754039E+04  0.50400001928E-02 0.  1.
        1   -1    0    0  501    0  0.00000000000E+00  0.00000000000E+00 -0.20758012988E+04  0.20758012988E+04  0.50400001928E-02 0. -1.
    10030    2    1    2    0    0  0.00000000000E+00  0.00000000000E+00 -0.68382589489E+03  0.34677767027E+04  0.33996848979E+04 0.  0.
        5    1    3    3  502    0 -0.14055207068E+03  0.13120487774E+04  0.75109706155E+03  0.15183529776E+04  0.46999998093E+01 0.  1.
       -5    1    3    3    0  502  0.14055207068E+03 -0.13120487774E+04 -0.14349229564E+04  0.19494237250E+04  0.46999998093E+01 0. -1.
</event>
<event>
 5   0  0.1630571E-08  0.3399657E+04  0.7818609E-02  0.8137990E-01
        1   -1    0    0  501    0  0.00000000000E+00  0.00000000000E+00  0.25536925582E+04  0.25536925582E+04  0.50400001928E-02 0. -1.
       -1   -1    0    0    0  501  0.00000000000E+00  0.00000000000E+00 -0.11314665126E+04  0.11314665126E+04  0.50400001928E-02 0.  1.
    10030    2    1    2    0    0  0.00000000000E+00  0.00000000000E+00  0.14222260457E+04  0.36851590708E+04  0.33996574022E+04 0.  0.
        3    1    3    3  502    0  0.50076336009E+03 -0.15891136103E+04  0.34612953988E+03  0.17017202114E+04  0.10100000352E+00 0. -1.
       -3    1    3    3    0  502 -0.50076336009E+03  0.15891136103E+04  0.10760965058E+04  0.19834388594E+04  0.10100000352E+00 0.  1.
</event>
<event>
 5   0  0.4973409E-08  0.3399736E+04  0.7818609E-02  0.8137971E-01
        2   -1    0    0  501    0  0.00000000000E+00  0.00000000000E+00  0.33071283286E+04  0.33071283286E+04  0.25500000920E-02 0. -1.
       -2   -1    0    0    0  501  0.00000000000E+00  0.00000000000E+00 -0.87373435260E+03  0.87373435260E+03  0.25500000920E-02 0.  1.
    10030    2    1    2    0    0  0.00000000000E+00  0.00000000000E+00  0.24333939760E+04  0.41808626812E+04  0.33997362422E+04 0.  0.
        1    1    3    3  502    0  0.41927712949E+03  0.19713830178E+03  0.32279839227E+04  0.32610637876E+04  0.50400001928E-02 0. -1.
       -1    1    3    3    0  502 -0.41927712949E+03 -0.19713830178E+03 -0.79458994669E+03  0.91979889364E+03  0.50400001928E-02 0.  1.
</event>
<event>
 5   0  0.1579536E-08  0.3399395E+04  0.7818609E-02  0.8138055E-01
       -1   -1    0    0    0  501  0.00000000000E+00  0.00000000000E+00  0.17389933068E+04  0.17389933068E+04  0.50400001928E-02 0. -1.
        1   -1    0    0  501    0  0.00000000000E+00  0.00000000000E+00 -0.16612894329E+04  0.16612894329E+04  0.50400001928E-02 0.  1.
    10030    2    1    2    0    0  0.00000000000E+00  0.00000000000E+00  0.77703873879E+02  0.34002827396E+04  0.33993947722E+04 0.  0.
        5    1    3    3  502    0 -0.14388223287E+04 -0.73736581203E+03  0.56342298314E+03  0.17121289619E+04  0.46999998093E+01 0. -1.
       -5    1    3    3    0  502  0.14388223287E+04  0.73736581203E+03 -0.48571910926E+03  0.16881537778E+04  0.46999998093E+01 0.  1.
</event>
<event>
 5   0  0.1625282E-08  0.3398709E+04  0.7818609E-02  0.8138223E-01
       -1   -1    0    0    0  501  0.00000000000E+00  0.00000000000E+00  0.11229866066E+04  0.11229866066E+04  0.50400001928E-02 0. -1.
        1   -1    0    0  501    0  0.00000000000E+00  0.00000000000E+00 -0.25715406467E+04  0.25715406467E+04  0.50400001928E-02 0.  1.
    10030    2    1    2    0    0  0.00000000000E+00  0.00000000000E+00 -0.14485540401E+04  0.36945272533E+04  0.33987089929E+04 0.  0.
        1    1    3    3  502    0 -0.32593088744E+03  0.15443867406E+03  0.10809018880E+04  0.11394872263E+04  0.50400001928E-02 0. -1.
       -1    1    3    3    0  502  0.32593088744E+03 -0.15443867406E+03 -0.25294559281E+04  0.25550400270E+04  0.50400001928E-02 0.  1.
</event>
<event>
 5   0  0.1630571E-08  0.3398385E+04  0.7818609E-02  0.8138303E-01
       -1   -1    0    0    0  501  0.00000000000E+00  0.00000000000E+00  0.13129209407E+04  0.13129209407E+04  0.50400001928E-02 0.  1.
        1   -1    0    0  501    0  0.00000000000E+00  0.00000000000E+00 -0.21991080520E+04  0.21991080520E+04  0.50400001928E-02 0. -1.
    10030    2    1    2    0    0  0.00000000000E+00  0.00000000000E+00 -0.88618711124E+03  0.35120289927E+04  0.33983849178E+04 0.  0.
        3    1    3    3  502    0 -0.10067939257E+04 -0.76367129558E+03 -0.16170507726E+04  0.20522380631E+04  0.10100000352E+00 0. -1.
       -3    1    3    3    0  502  0.10067939257E+04  0.76367129558E+03  0.73086366133E+03  0.14597909296E+04  0.10100000352E+00 0.  1.
</event>
<event>
 5   0  0.1645631E-08  0.3400004E+04  0.7818609E-02  0.8137905E-01
        1   -1    0    0  501    0  0.00000000000E+00  0.00000000000E+00  0.16620009167E+04  0.16620009167E+04  0.50400001928E-02 0.  1.
       -1   -1    0    0    0  501  0.00000000000E+00  0.00000000000E+00 -0.17388716265E+04  0.17388716265E+04  0.50400001928E-02 0. -1.
    10030    2    1    2    0    0  0.00000000000E+00  0.00000000000E+00 -0.76870709739E+02  0.34008725432E+04  0.34000036690E+04 0.  0.
        4    1    3    3  502    0  0.10476124493E+04  0.12572437990E+04 -0.49882551717E+03  0.17108425771E+04  0.12699999809E+01 0. -1.
       -4    1    3    3    0  502 -0.10476124493E+04 -0.12572437990E+04  0.42195480743E+03  0.16900299661E+04  0.12699999809E+01 0.  1.
</event>
<event>
 5   0  0.1630571E-08  0.3398120E+04  0.7818609E-02  0.8138368E-01
       -1   -1    0    0    0  501  0.00000000000E+00  0.00000000000E+00  0.10816640638E+04  0.10816640638E+04  0.50400001928E-02 0. -1.
        1   -1    0    0  501    0  0.00000000000E+00  0.00000000000E+00 -0.26688550009E+04  0.26688550009E+04  0.50400001928E-02 0.  1.
    10030    2    1    2    0    0  0.00000000000E+00  0.00000000000E+00 -0.15871909371E+04  0.37505190646E+04  0.33981198012E+04 0.  0.
        3    1    3    3  502    0  0.98524277481E+03  0.13817147837E+04 -0.88570992795E+03  0.19142416659E+04  0.10100000352E+00 0.  1.
       -3    1    3    3    0  502 -0.98524277481E+03 -0.13817147837E+04 -0.70148100915E+03  0.18362773987E+04  0.10100000352E+00 0. -1.
</event>
<event>
 5   0  0.4973409E-08  0.3400971E+04  0.7818609E-02  0.8137668E-01
       -2   -1    0    0    0  501  0.00000000000E+00  0.00000000000E+00  0.16512004131E+04  0.16512004131E+04  0.25500000920E-02 0. -1.
        2   -1    0    0  501    0  0.00000000000E+00  0.00000000000E+00 -0.17512419652E+04  0.17512419652E+04  0.25500000920E-02 0.  1.
    10030    2    1    2    0    0  0.00000000000E+00  0.00000000000E+00 -0.10004155212E+03  0.34024423783E+04  0.34009713062E+04 0.  0.
        1    1    3    3  502    0  0.15285295030E+04 -0.22855462040E+03  0.65951924731E+03  0.16803586800E+04  0.50400001928E-02 0. -1.
       -1    1    3    3    0  502 -0.15285295030E+04  0.22855462040E+03 -0.75956079942E+03  0.17220836983E+04  0.50400001928E-02 0.  1.
</event>
<event>
 5   0  0.4946315E-08  0.3399417E+04  0.7818609E-02  0.8138049E-01
        2   -1    0    0  501    0  0.00000000000E+00  0.00000000000E+00  0.13359727272E+04  0.13359727272E+04  0.25500000920E-02 0.  1.
       -2   -1    0    0    0  501  0.00000000000E+00  0.00000000000E+00 -0.21624756621E+04  0.21624756622E+04  0.25500000920E-02 0. -1.
    10030    2    1    2    0    0  0.00000000000E+00  0.00000000000E+00 -0.82650293494E+03  0.34984483894E+04  0.33994167193E+04 0.  0.
        3    1    3    3  502    0  0.79108170912E+03 -0.75945726506E+03 -0.17497063730E+04  0.20649595662E+04  0.10100000352E+00 0. -1.
       -3    1    3    3    0  502 -0.79108170912E+03  0.75945726506E+03  0.92320343807E+03  0.14334888232E+04  0.10100000352E+00 0.  1.
</event>
<event>
 5   0  0.1630571E-08  0.3401187E+04  0.7818609E-02  0.8137615E-01
        1   -1    0    0  501    0  0.00000000000E+00  0.00000000000E+00  0.19673900754E+04  0.19673900754E+04  0.50400001928E-02 0. -1.
       -1   -1    0    0    0  501  0.00000000000E+00  0.00000000000E+00 -0.14699770946E+04  0.14699770946E+04  0.50400001928E-02 0.  1.
    10030    2    1    2    0    0  0.00000000000E+00  0.00000000000E+00  0.49741298082E+03  0.34373671700E+04  0.34011870558E+04 0.  0.
        3    1    3    3  502    0  0.10633043982E+04 -0.95430531277E+03 -0.68344072748E+03  0.15837948451E+04  0.10100000352E+00 0.  1.
       -3    1    3    3    0  502 -0.10633043982E+04  0.95430531277E+03  0.11808537083E+04  0.18535723249E+04  0.10100000352E+00 0. -1.
</event>
<event>
 5   0  0.5001197E-08  0.3400550E+04  0.7818609E-02  0.8137771E-01
       -2   -1    0    0    0  501  0.00000000000E+00  0.00000000000E+00  0.12586060464E+04  0.12586060464E+04  0.25500000920E-02 0. -1.
        2   -1    0    0  501    0  0.00000000000E+00  0.00000000000E+00 -0.22969345025E+04  0.22969345025E+04  0.25500000920E-02 0.  1.
    10030    2    1    2    0    0  0.00000000000E+00  0.00000000000E+00 -0.10383284560E+04  0.35555405489E+04  0.34005503396E+04 0.  0.
        5    1    3    3  502    0 -0.12988663884E+03  0.10944362696E+04  0.83454727059E+03  0.13824444018E+04  0.46999998093E+01 0. -1.
       -5    1    3    3    0  502  0.12988663884E+03 -0.10944362696E+04 -0.18728757266E+04  0.21730961471E+04  0.46999998093E+01 0.  1.
</event>
<event>
 5   0  0.1645631E-08  0.3400654E+04  0.7818609E-02  0.8137746E-01
        1   -1    0    0  501    0  0.00000000000E+00  0.00000000000E+00  0.19438949633E+04  0.19438949633E+04  0.50400001928E-02 0.  1.
       -1   -1    0    0    0  501  0.00000000000E+00  0.00000000000E+00 -0.14872782097E+04  0.14872782097E+04  0.50400001928E-02 0. -1.
    10030    2    1    2    0    0  0.00000000000E+00  0.00000000000E+00  0.45661675363E+03  0.34311731731E+04  0.34006544199E+04 0.  0.
        4    1    3    3  502    0 -0.14226195966E+03 -0.48959092145E+03  0.18649547848E+04  0.19333896912E+04  0.12699999809E+01 0.  1.
       -4    1    3    3    0  502  0.14226195966E+03  0.48959092145E+03 -0.14083380312E+04  0.14977834819E+04  0.12699999809E+01 0. -1.
</event>
<event>
 5   0  0.1595851E-08  0.3400786E+04  0.7818609E-02  0.8137714E-01
        1   -1    0    0  501    0  0.00000000000E+00  0.00000000000E+00  0.27038643912E+04  0.27038643912E+04  0.50400001928E-02 0.  1.
       -1   -1    0    0    0  501  0.00000000000E+00  0.00000000000E+00 -0.10693346540E+04  0.10693346541E+04  0.50400001928E-02 0. -1.
    10030    2    1    2    0    0  0.00000000000E+00  0.00000000000E+00  0.16345297372E+04  0.37731990453E+04  0.34007857289E+04 0.  0.
        2    1    3    3  502    0 -0.64277942096E+03  0.11478698811E+04  0.20125326876E+04  0.24043831780E+04  0.25500000920E-02 0.  1.
       -2    1    3    3    0  502  0.64277942096E+03 -0.11478698811E+04 -0.37800295043E+03  0.13688158673E+04  0.25500000920E-02 0. -1.
</event>
<event>
 5   0  0.1625282E-08  0.3399321E+04  0.7818609E-02  0.8138073E-01
        1   -1    0    0  501    0  0.00000000000E+00  0.00000000000E+00  0.22846925531E+04  0.22846925531E+04  0.50400001928E-02 0. -1.
       -1   -1    0    0    0  501  0.00000000000E+00  0.00000000000E+00 -0.12644353731E+04  0.12644353731E+04  0.50400001928E-02 0.  1.
    10030    2    1    2    0    0  0.00000000000E+00  0.00000000000E+00  0.10202571801E+04  0.35491279262E+04  0.33993211562E+04 0.  0.
        1    1    3    3  502    0 -0.13741655522E+04 -0.53244603268E+03 -0.37395632889E+03  0.15204187181E+04  0.50400001928E-02 0.  1.
       -1    1    3    3    0  502  0.13741655522E+04  0.53244603268E+03  0.13942135090E+04  0.20287092081E+04  0.50400001928E-02 0. -1.
</event>
<event>
 5   0  0.1579536E-08  0.3398998E+04  0.7818609E-02  0.8138152E-01
       -1   -1    0    0    0  501  0.00000000000E+00  0.00000000000E+00  0.13024913301E+04  0.13024913301E+04  0.50400001928E-02 0.  1.
        1   -1    0    0  501    0  0.00000000000E+00  0.00000000000E+00 -0.22175173304E+04  0.22175173304E+04  0.50400001928E-02 0. -1.
    10030    2    1    2    0    0  0.00000000000E+00  0.00000000000E+00 -0.91502600027E+03  0.35200086605E+04  0.33989981449E+04 0.  0.
        5    1    3    3  502    0 -0.14519113189E+04  0.36166505226E+03  0.37704773457E+03  0.15430603268E+04  0.46999998093E+01 0.  1.
       -5    1    3    3    0  502  0.14519113189E+04 -0.36166505226E+03 -0.12920737348E+04  0.19769483337E+04  0.46999998093E+01 0. -1.
</event>
<event>
 5   0  0.5001197E-08  0.3399501E+04  0.7818609E-02  0.8138029E-01
        2   -1    0    0  501    0  0.00000000000E+00  0.00000000000E+00  0.28680668278E+04  0.28680668278E+04  0.25500000920E-02 0. -1.
       -2   -1    0    0    0  501  0.00000000000E+00  0.00000000000E+00 -0.10073518759E+04  0.10073518760E+04  0.25500000920E-02 0.  1.
    10030    2    1    2    0    0  0.00000000000E+00  0.00000000000E+00  0.18607149518E+04  0.38754187037E+04  0.33995014336E+04 0.  0.
        5    1    3    3  502    0 -0.11623706858E+04 -0.28365810762E+03  0.23066699670E+04  0.25985218798E+04  0.46999998093E+01 0.  1.
       -5    1    3    3    0  502  0.11623706858E+04  0.28365810762E+03 -0.44595501522E+03  0.12768968239E+04  0.46999998093E+01 0. -1.
</event>
<event>
 5   0  0.4775023E-08  0.3400106E+04  0.7818609E-02  0.8137880E-01
        2   -1    0    0  501    0  0.00000000000E+00  0.00000000000E+00  0.14381436878E+04  0.14381436878E+04  0.25500000920E-02 0.  1.
       -2   -1    0    0    0  501  0.00000000000E+00  0.00000000000E+00 -0.20096601177E+04  0.20096601177E+04  0.25500000920E-02 0. -1.
    10030    2    1    2    0    0  0.00000000000E+00  0.00000000000E+00 -0.57151642987E+03  0.34478038055E+04  0.34001058883E+04 0.  0.
        4    1    3    3  502    0  0.38390424348E+03 -0.67020787521E+03  0.12499566343E+04  0.14693380362E+04  0.12699999809E+01 0.  1.
       -4    1    3    3    0  502 -0.38390424348E+03  0.67020787521E+03 -0.18214730641E+04  0.19784657693E+04  0.12699999809E+01 0. -1.
</event>
<event>
 5   0  0.1579536E-08  0.3398936E+04  0.7818609E-02  0.8138168E-01
        1   -1    0    0  501    0  0.00000000000E+00  0.00000000000E+00  0.25726352173E+04  0.25726352173E+04  0.50400001928E-02 0. -1.
       -1   -1    0    0    0  501  0.00000000000E+00  0.00000000000E+00 -0.11226584447E+04  0.11226584447E+04  0.50400001928E-02 0.  1.
    10030    2    1    2    0    0  0.00000000000E+00  0.00000000000E+00  0.14499767726E+04  0.36952936621E+04  0.33989355110E+04 0.  0.
        5    1    3    3  502    0 -0.15181631481E+04  0.35847501455E+03  0.14582141026E+04  0.21353533991E+04  0.46999998093E+01 0. -1.
       -5    1    3    3    0  502  0.15181631481E+04 -0.35847501455E+03 -0.82373299777E+01  0.15599402629E+04  0.46999998093E+01 0.  1.
</event>
<event>
 5   0  0.1573625E-08  0.3400508E+04  0.7818609E-02  0.8137782E-01
       -3   -1    0    0    0  501  0.00000000000E+00  0.00000000000E+00  0.17346966232E+04  0.17346966261E+04  0.10100000352E+00 0. -1.
        3   -1    0    0  501    0  0.00000000000E+00  0.00000000000E+00 -0.16664947437E+04  0.16664947467E+04  0.10100000352E+00 0.  1.
    10030    2    1    2    0    0  0.00000000000E+00  0.00000000000E+00  0.68201879532E+02  0.34011913728E+04  0.34005075001E+04 0.  0.
        1    1    3    3  502    0 -0.15254011232E+04 -0.66814207785E+01  0.78523105361E+03  0.17156576103E+04  0.50400001928E-02 0. -1.
       -1    1    3    3    0  502  0.15254011232E+04  0.66814207785E+01 -0.71702917408E+03  0.16855337625E+04  0.50400001928E-02 0.  1.
</event>
<event>
 5   0  0.4973409E-08  0.3399981E+04  0.7818609E-02  0.8137911E-01
       -2   -1    0    0    0  501  0.00000000000E+00  0.00000000000E+00  0.97895612918E+03  0.97895612918E+03  0.25500000920E-02 0.  1.
        2   -1    0    0  501    0  0.00000000000E+00  0.00000000000E+00 -0.29520912999E+04  0.29520912999E+04  0.25500000920E-02 0. -1.
    10030    2    1    2    0    0  0.00000000000E+00  0.00000000000E+00 -0.19731351707E+04  0.39310474291E+04  0.33999811011E+04 0.  0.
        1    1    3    3  502    0 -0.10290520016E+04 -0.10459333878E+04  0.60415139399E+01  0.14672972342E+04  0.50400001928E-02 0.  1.
       -1    1    3    3    0  502  0.10290520016E+04  0.10459333878E+04 -0.19791766846E+04  0.24637501949E+04  0.50400001928E-02 0. -1.
</event>
<event>
 5   0  0.4775023E-08  0.3401384E+04  0.7818609E-02  0.8137567E-01
       -2   -1    0    0    0  501  0.00000000000E+00  0.00000000000E+00  0.16941460282E+04  0.16941460282E+04  0.25500000920E-02 0. -1.
        2   -1    0    0  501    0  0.00000000000E+00  0.00000000000E+00 -0.17072636487E+04  0.17072636487E+04  0.25500000920E-02 0.  1.
    10030    2    1    2    0    0  0.00000000000E+00  0.00000000000E+00 -0.13117620455E+02  0.34014096769E+04  0.34013843826E+04 0.  0.
        4    1    3    3  502    0  0.28029917848E+03  0.43626875557E+03  0.16131613133E+04  0.16944583478E+04  0.12699999809E+01 0. -1.
       -4    1    3    3    0  502 -0.28029917848E+03 -0.43626875557E+03 -0.16262789338E+04  0.17069513291E+04  0.12699999809E+01 0.  1.
</event>
<event>
 5   0  0.4775023E-08  0.3399261E+04  0.7818609E-02  0.8138088E-01
        2   -1    0    0  501    0  0.00000000000E+00  0.00000000000E+00  0.15285112506E+04  0.15285112506E+04  0.25500000920E-02 0. -1.
       -2   -1    0    0    0  501  0.00000000000E+00  0.00000000000E+00 -0.18899065119E+04  0.18899065119E+04  0.25500000920E-02 0.  1.
    10030    2    1    2    0    0  0.00000000000E+00  0.00000000000E+00 -0.36139526129E+03  0.34184177625E+04  0.33992607232E+04 0.  0.
        4    1    3    3  502    0  0.19091157287E+03 -0.16486791735E+04  0.18763351047E+03  0.16702688984E+04  0.12699999809E+01 0. -1.
       -4    1    3    3    0  502 -0.19091157287E+03  0.16486791735E+04 -0.54902877177E+03  0.17481488641E+04  0.12699999809E+01 0.  1.
</event>
<event>
 5   0  0.1625282E-08  0.3402036E+04  0.7818609E-02  0.8137407E-01
        1   -1    0    0  501    0  0.00000000000E+00  0.00000000000E+00  0.21762882788E+04  0.21762882788E+04  0.50400001928E-02 0. -1.
       -1   -1    0    0    0  501  0.00000000000E+00  0.00000000000E+00 -0.13295398873E+04  0.13295398874E+04  0.50400001928E-02 0.  1.
    10030    2    1    2    0    0  0.00000000000E+00  0.00000000000E+00  0.84674839148E+03  0.35058281662E+04  0.34020359040E+04 0.  0.
        1    1    3    3  502    0 -0.52764064332E+03 -0.47723773271E+03 -0.11688542376E+04  0.13683496376E+04  0.50400001928E-02 0.  1.
       -1    1    3    3    0  502  0.52764064332E+03  0.47723773271E+03  0.20156026290E+04  0.21374785286E+04  0.50400001928E-02 0. -1.
</event>
<event>
 5   0  0.1630571E-08  0.3395586E+04  0.7818609E-02  0.8138990E-01
       -1   -1    0    0    0  501  0.00000000000E+00  0.00000000000E+00  0.17591737556E+04  0.17591737556E+04  0.50400001928E-02 0. -1.
        1   -1    0    0  501    0  0.00000000000E+00  0.00000000000E+00 -0.16385543921E+04  0.16385543921E+04  0.50400001928E-02 0.  1.
    10030    2    1    2    0    0  0.00000000000E+00  0.00000000000E+00  0.12061936344E+03  0.33977281477E+04  0.33955864788E+04 0.  0.
        3    1    3    3  502    0  0.76351388604E+03  0.13279241657E+04 -0.67238560646E+03  0.16728533881E+04  0.10100000352E+00 0.  1.
       -3    1    3    3    0  502 -0.76351388604E+03 -0.13279241657E+04  0.79300496990E+03  0.17248747596E+04  0.10100000352E+00 0. -1.
</event>
<event>
 5   0  0.1630571E-08  0.3399409E+04  0.7818609E-02  0.8138051E-01
        1   -1    0    0  501    0  0.00000000000E+00  0.00000000000E+00  0.27644157790E+04  0.27644157790E+04  0.50400001928E-02 0.  1.
       -1   -1    0    0    0  501  0.00000000000E+00  0.00000000000E+00 -0.10450657167E+04  0.10450657167E+04  0.50400001928E-02 0. -1.
    10030    2    1    2    0    0  0.00000000000E+00  0.00000000000E+00  0.17193500623E+04  0.38094814957E+04  0.33994094530E+04 0.  0.
        3    1    3    3  502    0  0.52717430076E+03 -0.97406660146E+03 -0.58514639916E+03  0.12526431280E+04  0.10100000352E+00 0. -1.
       -3    1    3    3    0  502 -0.52717430076E+03  0.97406660146E+03  0.23044964614E+04  0.25568383677E+04  0.10100000352E+00 0.  1.
</event>
<event>
 5   0  0.4775023E-08  0.3400919E+04  0.7818609E-02  0.8137681E-01
        2   -1    0    0  501    0  0.00000000000E+00  0.00000000000E+00  0.14340112978E+04  0.14340112978E+04  0.25500000920E-02 0. -1.
       -2   -1    0    0    0  501  0.00000000000E+00  0.00000000000E+00 -0.20164156214E+04  0.20164156214E+04  0.25500000920E-02 0.  1.
    10030    2    1    2    0    0  0.00000000000E+00  0.00000000000E+00 -0.58240432357E+03  0.34504269192E+04  0.34009191593E+04 0.  0.
        4    1    3    3  502    0 -0.30566597032E+03 -0.65335301088E+03  0.12711036584E+04  0.14615087976E+04  0.12699999809E+01 0. -1.
       -4    1    3    3    0  502  0.30566597032E+03  0.65335301088E+03 -0.18535079819E+04  0.19889181216E+04  0.12699999809E+01 0.  1.
</event>
<event>
 5   0  0.1645631E-08  0.3398610E+04  0.7818609E-02  0.8138248E-01
        1   -1    0    0  501    0  0.00000000000E+00  0.00000000000E+00  0.27448748217E+04  0.27448748217E+04  0.50400001928E-02 0.  1.
       -1   -1    0    0    0  501  0.00000000000E+00  0.00000000000E+00 -0.10520106833E+04  0.10520106833E+04  0.50400001928E-02 0. -1.
    10030    2    1    2    0    0  0.00000000000E+00  0.00000000000E+00  0.16928641385E+04  0.37968855050E+04  0.33986100905E+04 0.  0.
        4    1    3    3  502    0  0.70756709470E+02  0.20429910667E+03 -0.10365816046E+04  0.10588898304E+04  0.12699999809E+01 0. -1.
       -4    1    3    3    0  502 -0.70756709470E+02 -0.20429910667E+03  0.27294457431E+04  0.27379956746E+04  0.12699999809E+01 0.  1.
</event>
<event>
 5   0  0.4973409E-08  0.3397002E+04  0.7818609E-02  0.8138643E-01
        2   -1    0    0  501    0  0.00000000000E+00  0.00000000000E+00  0.21343497324E+04  0.21343497324E+04  0.25500000920E-02 0. -1.
       -2   -1    0    0    0  501  0.00000000000E+00  0.00000000000E+00 -0.13516551968E+04  0.13516551968E+04  0.25500000920E-02 0.  1.
    10030    2    1    2    0    0  0.00000000000E+00  0.00000000000E+00  0.78269453560E+03  0.34860049292E+04  0.33970015647E+04 0.  0.
        1    1    3    3  502    0  0.13083002303E+04  0.35967773643E+03 -0.65713011235E+03  0.15075932977E+04  0.50400001928E-02 0.  1.
       -1    1    3    3    0  502 -0.13083002303E+04 -0.35967773643E+03  0.14398246479E+04  0.19784116315E+04  0.50400001928E-02 0. -1.
</event>
<event>
 5   0  0.1579536E-08  0.3400345E+04  0.7818609E-02  0.8137822E-01
        1   -1    0    0  501    0  0.00000000000E+00  0.00000000000E+00  0.18338307943E+04  0.18338307943E+04  0.50400001928E-02 0. -1.
       -1   -1    0    0    0  501  0.00000000000E+00  0.00000000000E+00 -0.15762560065E+04  0.15762560065E+04  0.50400001928E-02 0.  1.
    10030    2    1    2    0    0  0.00000000000E+00  0.00000000000E+00  0.25757478777E+03  0.34100868008E+04  0.34003451615E+04 0.  0.
        5    1    3    3  502    0 -0.10268651700E+04 -0.12555414857E+04 -0.38230803323E+03  0.16664387244E+04  0.46999998093E+01 0.  1.
       -5    1    3    3    0  502  0.10268651700E+04  0.12555414857E+04  0.63988282099E+03  0.17436480764E+04  0.46999998093E+01 0. -1.
</event>
<event>
 5   0  0.4946315E-08  0.3399393E+04  0.7818609E-02  0.8138055E-01
       -2   -1    0    0    0  501  0.00000000000E+00  0.00000000000E+00  0.13530875767E+04  0.13530875767E+04  0.25500000920E-02 0. -1.
        2   -1    0    0  501    0  0.00000000000E+00  0.00000000000E+00 -0.21350935541E+04  0.21350935541E+04  0.25500000920E-02 0.  1.
    10030    2    1    2    0    0  0.00000000000E+00  0.00000000000E+00 -0.78200597743E+03  0.34881811308E+04  0.33993932183E+04 0.  0.
        3    1    3    3  502    0 -0.27610857428E+03  0.81987099577E+03  0.11102701723E+04  0.14075241597E+04  0.10100000352E+00 0. -1.
       -3    1    3    3    0  502  0.27610857428E+03 -0.81987099577E+03 -0.18922761497E+04  0.20806569711E+04  0.10100000352E+00 0.  1.
</event>
<event>
 5   0  0.4973409E-08  0.3398536E+04  0.7818609E-02  0.8138266E-01
        2   -1    0    0  501    0  0.00000000000E+00  0.00000000000E+00  0.17358438442E+04  0.17358438442E+04  0.25500000920E-02 0.  1.
       -2   -1    0    0    0  501  0.00000000000E+00  0.00000000000E+00 -0.16634629739E+04  0.16634629739E+04  0.25500000920E-02 0. -1.
    10030    2    1    2    0    0  0.00000000000E+00  0.00000000000E+00  0.72380870276E+02  0.33993068181E+04  0.33985361339E+04 0.  0.
        1    1    3    3  502    0 -0.20713434454E+03 -0.13686720988E+04  0.10219817948E+04  0.17206436992E+04  0.50400001928E-02 0.  1.
       -1    1    3    3    0  502  0.20713434454E+03  0.13686720988E+04 -0.94960092451E+03  0.16786631189E+04  0.50400001928E-02 0. -1.
</event>
<event>
 5   0  0.1579536E-08  0.3399954E+04  0.7818609E-02  0.8137918E-01
        1   -1    0    0  501    0  0.00000000000E+00  0.00000000000E+00  0.14507090411E+04  0.14507090411E+04  0.50400001928E-02 0.  1.
       -1   -1    0    0    0  501  0.00000000000E+00  0.00000000000E+00 -0.19920756948E+04  0.19920756948E+04  0.50400001928E-02 0. -1.
    10030    2    1    2    0    0  0.00000000000E+00  0.00000000000E+00 -0.54136665378E+03  0.34427847359E+04  0.33999542473E+04 0.  0.
        5    1    3    3  502    0  0.13012954684E+03 -0.15759587186E+04 -0.90249909419E+03  0.18207433335E+04  0.46999998093E+01 0. -1.
       -5    1    3    3    0  502 -0.13012954684E+03  0.15759587186E+04  0.36113244041E+03  0.16220414024E+04  0.46999998093E+01 0.  1.
</event>
<event>
 5   0  0.1595851E-08  0.3403757E+04  0.7818609E-02  0.8136985E-01
        1   -1    0    0  501    0  0.00000000000E+00  0.00000000000E+00  0.15283267271E+04  0.15283267271E+04  0.50400001928E-02 0. -1.
       -1   -1    0    0    0  501  0.00000000000E+00  0.00000000000E+00 -0.18951378793E+04  0.18951378793E+04  0.50400001928E-02 0.  1.
    10030    2    1    2    0    0  0.00000000000E+00  0.00000000000E+00 -0.36681115225E+03  0.34234646064E+04  0.34037566732E+04 0.  0.
        2    1    3    3  502    0  0.24393648698E+03  0.61828308695E+03 -0.17591967533E+04  0.18805723071E+04  0.25500000920E-02 0.  1.
       -2    1    3    3    0  502 -0.24393648698E+03 -0.61828308695E+03  0.13923856011E+04  0.15428922993E+04  0.25500000920E-02 0. -1.
</event>
<event>
 5   0  0.4764953E-08  0.3400406E+04  0.7818609E-02  0.8137807E-01
        2   -1    0    0  501    0  0.00000000000E+00  0.00000000000E+00  0.19976250741E+04  0.19976250741E+04  0.25500000920E-02 0. -1.
       -2   -1    0    0    0  501  0.00000000000E+00  0.00000000000E+00 -0.14470638466E+04  0.14470638466E+04  0.25500000920E-02 0.  1.
    10030    2    1    2    0    0  0.00000000000E+00  0.00000000000E+00  0.55056122753E+03  0.34446889207E+04  0.34004064603E+04 0.  0.
        2    1    3    3  502    0  0.12284225710E+04  0.88838856475E+03 -0.50444077000E+03  0.15977223618E+04  0.25500000920E-02 0. -1.
       -2    1    3    3    0  502 -0.12284225710E+04 -0.88838856475E+03  0.10550019975E+04  0.18469665589E+04  0.25500000920E-02 0.  1.
</event>
<event>
 5   0  0.4764953E-08  0.3400762E+04  0.7818609E-02  0.8137719E-01
        2   -1    0    0  501    0  0.00000000000E+00  0.00000000000E+00  0.25789463060E+04  0.25789463060E+04  0.25500000920E-02 0.  1.
       -2   -1    0    0    0  501  0.00000000000E+00  0.00000000000E+00 -0.11211150997E+04  0.11211150997E+04  0.25500000920E-02 0. -1.
    10030    2    1    2    0    0  0.00000000000E+00  0.00000000000E+00  0.14578312063E+04  0.37000614057E+04  0.34007620587E+04 0.  0.
        2    1    3    3  502    0 -0.53537569009E+03  0.87261032990E+02  0.24822840111E+04  0.25408611786E+04  0.25500000920E-02 0.  1.
       -2    1    3    3    0  502  0.53537569009E+03 -0.87261032990E+02 -0.10244528047E+04  0.11592002271E+04  0.25500000920E-02 0. -1.
</event>
<event>
 5   0  0.1630571E-08  0.3418321E+04  0.7818609E-02  0.8133424E-01
        1   -1    0    0  501    0  0.00000000000E+00  0.00000000000E+00  0.27675466290E+04  0.27675466290E+04  0.50400001928E-02 0.  1.
       -1   -1    0    0    0  501  0.00000000000E+00  0.00000000000E+00 -0.10555302278E+04  0.10555302278E+04  0.50400001928E-02 0. -1.
    10030    2    1    2    0    0  0.00000000000E+00  0.00000000000E+00  0.17120164013E+04  0.38230768568E+04  0.34183207127E+04 0.  0.
        3    1    3    3  502    0  0.14759942653E+04 -0.73275180438E+03  0.13633080037E+04  0.21387129310E+04  0.10100000352E+00 0. -1.
       -3    1    3    3    0  502 -0.14759942653E+04  0.73275180438E+03  0.34870839755E+03  0.16843639258E+04  0.10100000352E+00 0.  1.
</event>
<event>
 5   0  0.1595851E-08  0.3399532E+04  0.7818609E-02  0.8138021E-01
        1   -1    0    0  501    0  0.00000000000E+00  0.00000000000E+00  0.18737783845E+04  0.18737783845E+04  0.50400001928E-02 0.  1.
       -1   -1    0    0    0  501  0.00000000000E+00  0.00000000000E+00 -0.15419133125E+04  0.15419133125E+04  0.50400001928E-02 0. -1.
    10030    2    1    2    0    0  0.00000000000E+00  0.00000000000E+00  0.33186507200E+03  0.34156916970E+04  0.33995316359E+04 0.  0.
        2    1    3    3  502    0  0.31023837743E+03 -0.10158685596E+04  0.14992549884E+04  0.18373900788E+04  0.25500000920E-02 0.  1.
       -2    1    3    3    0  502 -0.31023837743E+03  0.10158685596E+04 -0.11673899164E+04  0.15783016183E+04  0.25500000920E-02 0. -1.
</event>
<event>
 5   0  0.4973409E-08  0.3393581E+04  0.7818609E-02  0.8139484E-01
        2   -1    0    0  501    0  0.00000000000E+00  0.00000000000E+00  0.21571657378E+04  0.21571657378E+04  0.25500000920E-02 0.  1.
       -2   -1    0    0    0  501  0.00000000000E+00  0.00000000000E+00 -0.13346667676E+04  0.13346667676E+04  0.25500000920E-02 0. -1.
    10030    2    1    2    0    0  0.00000000000E+00  0.00000000000E+00  0.82249897022E+03  0.34918325054E+04  0.33935806591E+04 0.  0.
        1    1    3    3  502    0  0.15022993921E+04 -0.68215532473E+03  0.37297328116E+01  0.16499252291E+04  0.50400001928E-02 0. -1.
       -1    1    3    3    0  502 -0.15022993921E+04  0.68215532473E+03  0.81876923741E+03  0.18419072764E+04  0.50400001928E-02 0.  1.
</event>
<event>
 5   0  0.1645631E-08  0.3399920E+04  0.7818609E-02  0.8137926E-01
        1   -1    0    0  501    0  0.00000000000E+00  0.00000000000E+00  0.17683702326E+04  0.17683702326E+04  0.50400001928E-02 0.  1.
       -1   -1    0    0    0  501  0.00000000000E+00  0.00000000000E+00 -0.16341966626E+04  0.16341966626E+04  0.50400001928E-02 0. -1.
    10030    2    1    2    0    0  0.00000000000E+00  0.00000000000E+00  0.13417357003E+03  0.34025668952E+04  0.33999204299E+04 0.  0.
        4    1    3    3  502    0 -0.74756114264E+03  0.63291175164E+03  0.14575703738E+04  0.17561144481E+04  0.12699999809E+01 0. -1.
       -4    1    3    3    0  502  0.74756114264E+03 -0.63291175164E+03 -0.13233968038E+04  0.16464524471E+04  0.12699999809E+01 0.  1.
</event>
<event>
 5   0  0.4973409E-08  0.3395616E+04  0.7818609E-02  0.8138983E-01
       -2   -1    0    0    0  501  0.00000000000E+00  0.00000000000E+00  0.12939197067E+04  0.12939197067E+04  0.25500000920E-02 0.  1.
        2   -1    0    0  501    0  0.00000000000E+00  0.00000000000E+00 -0.22277675649E+04  0.22277675649E+04  0.25500000920E-02 0. -1.
    10030    2    1    2    0    0  0.00000000000E+00  0.00000000000E+00 -0.93384785815E+03  0.35216872716E+04  0.33956162057E+04 0.  0.
        1    1    3    3  502    0 -0.49674016822E+03 -0.11349305900E+04  0.73709773419E+03  0.14415725124E+04  0.50400001928E-02 0.  1.
       -1    1    3    3    0  502  0.49674016822E+03  0.11349305900E+04 -0.16709455923E+04  0.20801147592E+04  0.50400001928E-02 0. -1.
</event>
<event>
 5   0  0.1625282E-08  0.3399171E+04  0.7818609E-02  0.8138110E-01
       -1   -1    0    0    0  501  0.00000000000E+00  0.00000000000E+00  0.22467723057E+04  0.22467723057E+04  0.50400001928E-02 0.  1.
        1   -1    0    0  501    0  0.00000000000E+00  0.00000000000E+00 -0.12856626088E+04  0.12856626088E+04  0.50400001928E-02 0. -1.
    10030    2    1    2    0    0  0.00000000000E+00  0.00000000000E+00  0.96110969687E+03  0.35324349145E+04  0.33991711601E+04 0.  0.
        1    1    3    3  502    0 -0.10467853231E+04  0.15773574963E+03 -0.90121672932E+03  0.13902631667E+04  0.50400001928E-02 0. -1.
       -1    1    3    3    0  502  0.10467853231E+04 -0.15773574963E+03  0.18623264262E+04  0.21421717478E+04  0.50400001928E-02 0.  1.
</event>
<event>
 5   0  0.4775023E-08  0.3399737E+04  0.7818609E-02  0.8137971E-01
        2   -1    0    0  501    0  0.00000000000E+00  0.00000000000E+00  0.26823005856E+04  0.26823005856E+04  0.25500000920E-02 0. -1.
       -2   -1    0    0    0  501  0.00000000000E+00  0.00000000000E+00 -0.10772666562E+04  0.10772666562E+04  0.25500000920E-02 0.  1.
    10030    2    1    2    0    0  0.00000000000E+00  0.00000000000E+00  0.16050339293E+04  0.37595672418E+04  0.33997370386E+04 0.  0.
        4    1    3    3  502    0 -0.10129312024E+04 -0.51915957937E+03  0.21986796237E+04  0.24758331911E+04  0.12699999809E+01 0. -1.
       -4    1    3    3    0  502  0.10129312024E+04  0.51915957937E+03 -0.59364569433E+03  0.12837340507E+04  0.12699999809E+01 0.  1.
</event>
<event>
 5   0  0.1573625E-08  0.3400064E+04  0.7818609E-02  0.8137891E-01
        3   -1    0    0  501    0  0.00000000000E+00  0.00000000000E+00  0.18202651894E+04  0.18202651922E+04  0.10100000352E+00 0.  1.
       -3   -1    0    0    0  501  0.00000000000E+00  0.00000000000E+00 -0.15877405694E+04  0.15877405727E+04  0.10100000352E+00 0. -1.
    10030    2    1    2    0    0  0.00000000000E+00  0.00000000000E+00  0.23252461992E+03  0.34080057648E+04  0.34000640574E+04 0.  0.
        4    1    3    3  502    0  0.19586449896E+03  0.52226915145E+03 -0.14934088059E+04  0.15941767289E+04  0.12699999809E+01 0. -1.
       -4    1    3    3    0  502 -0.19586449896E+03 -0.52226915145E+03  0.17259334258E+04  0.18138290360E+04  0.12699999809E+01 0.  1.
</event>
<event>
 5   0  0.4946315E-08  0.3398485E+04  0.7818609E-02  0.8138278E-01
        2   -1    0    0  501    0  0.00000000000E+00  0.00000000000E+00  0.12867368773E+04  0.12867368773E+04  0.25500000920E-02 0.  1.
       -2   -1    0    0    0  501  0.00000000000E+00  0.00000000000E+00 -0.22439907530E+04  0.22439907530E+04  0.25500000920E-02 0. -1.
    10030    2    1    2    0    0  0.00000000000E+00  0.00000000000E+00 -0.95725387569E+03  0.35307276304E+04  0.33984853416E+04 0.  0.
        3    1    3    3  502    0 -0.92655880401E+03  0.59742361592E+03 -0.18220007575E+04  0.21295804668E+04  0.10100000352E+00 0. -1.
       -3    1    3    3    0  502  0.92655880401E+03 -0.59742361592E+03  0.86474688179E+03  0.14011471635E+04  0.10100000352E+00 0.  1.
</event>
<event>
 5   0  0.4764953E-08  0.3395925E+04  0.7818609E-02  0.8138907E-01
       -2   -1    0    0    0  501  0.00000000000E+00  0.00000000000E+00  0.13192911073E+04  0.13192911073E+04  0.25500000920E-02 0.  1.
        2   -1    0    0  501    0  0.00000000000E+00  0.00000000000E+00 -0.21853231956E+04  0.21853231956E+04  0.25500000920E-02 0. -1.
    10030    2    1    2    0    0  0.00000000000E+00  0.00000000000E+00 -0.86603208832E+03  0.35046143029E+04  0.33959254754E+04 0.  0.
        2    1    3    3  502    0  0.84034356027E+03  0.14604707218E+04 -0.21672422718E+03  0.16988588579E+04  0.25500000920E-02 0.  1.
       -2    1    3    3    0  502 -0.84034356027E+03 -0.14604707218E+04 -0.64930786113E+03  0.18057554450E+04  0.25500000920E-02 0. -1.
</event>
<event>
 5   0  0.4973409E-08  0.3400068E+04  0.7818609E-02  0.8137890E-01
        2   -1    0    0  501    0  0.00000000000E+00  0.00000000000E+00  0.17636097330E+04  0.17636097330E+04  0.25500000920E-02 0.  1.
       -2   -1    0    0    0  501  0.00000000000E+00  0.00000000000E+00 -0.16387504073E+04  0.16387504073E+04  0.25500000920E-02 0. -1.
    10030    2    1    2    0    0  0.00000000000E+00  0.00000000000E+00  0.12485932572E+03  0.34023601404E+04  0.34000683337E+04 0.  0.
        1    1    3    3  502    0 -0.16223365889E+04  0.42580392916E+03 -0.21494154195E+03  0.16910011414E+04  0.50400001928E-02 0.  1.
       -1    1    3    3    0  502  0.16223365889E+04 -0.42580392916E+03  0.33980086767E+03  0.17113589990E+04  0.50400001928E-02 0. -1.
</event>
<event>
 5   0  0.1645631E-08  0.3401796E+04  0.7818609E-02  0.8137466E-01
        1   -1    0    0  501    0  0.00000000000E+00  0.00000000000E+00  0.18330061350E+04  0.18330061350E+04  0.50400001928E-02 0.  1.
       -1   -1    0    0    0  501  0.00000000000E+00  0.00000000000E+00 -0.15783109069E+04  0.15783109069E+04  0.50400001928E-02 0. -1.
    10030    2    1    2    0    0  0.00000000000E+00  0.00000000000E+00  0.25469522811E+03  0.34113170419E+04  0.34017957465E+04 0.  0.
        4    1    3    3  502    0  0.25629985928E+03 -0.10545518427E+04  0.14407013410E+04  0.18037159348E+04  0.12699999809E+01 0.  1.
       -4    1    3    3    0  502 -0.25629985928E+03  0.10545518427E+04 -0.11860061129E+04  0.16076011070E+04  0.12699999809E+01 0. -1.
</event>
<event>
 5   0  0.4764953E-08  0.3401359E+04  0.7818609E-02  0.8137573E-01
       -2   -1    0    0    0  501  0.00000000000E+00  0.00000000000E+00  0.17481610625E+04  0.17481610625E+04  0.25500000920E-02 0.  1.
        2   -1    0    0  501    0  0.00000000000E+00  0.00000000000E+00 -0.16544875876E+04  0.16544875876E+04  0.25500000920E-02 0. -1.
    10030    2    1    2    0    0  0.00000000000E+00  0.00000000000E+00  0.93673474930E+02  0.34026486502E+04  0.34013590102E+04 0.  0.
        2    1    3    3  502    0  0.40866569317E+02  0.51328868025E+03 -0.15746342061E+04  0.16566859174E+04  0.25500000920E-02 0. -1.
       -2    1    3    3    0  502 -0.40866569317E+02 -0.51328868025E+03  0.16683076810E+04  0.17459627328E+04  0.25500000920E-02 0.  1.
</event>
<event>
 5   0  0.1630571E-08  0.3400087E+04  0.7818609E-02  0.8137885E-01
       -1   -1    0    0    0  501  0.00000000000E+00  0.00000000000E+00  0.27300478789E+04  0.27300478789E+04  0.50400001928E-02 0. -1.
        1   -1    0    0  501    0  0.00000000000E+00  0.00000000000E+00 -0.10586434506E+04  0.10586434506E+04  0.50400001928E-02 0.  1.
    10030    2    1    2    0    0  0.00000000000E+00  0.00000000000E+00  0.16714044283E+04  0.37886913295E+04  0.34000866500E+04 0.  0.
        3    1    3    3  502    0  0.11667078560E+04 -0.96144750457E+03 -0.30697903037E+02  0.15121279366E+04  0.10100000352E+00 0.  1.
       -3    1    3    3    0  502 -0.11667078560E+04  0.96144750457E+03  0.17021023314E+04  0.22765633929E+04  0.10100000352E+00 0. -1.
</event>
<event>
 5   0  0.1645631E-08  0.3402450E+04  0.7818609E-02  0.8137305E-01
       -1   -1    0    0    0  501  0.00000000000E+00  0.00000000000E+00  0.11298354373E+04  0.11298354374E+04  0.50400001928E-02 0.  1.
        1   -1    0    0  501    0  0.00000000000E+00  0.00000000000E+00 -0.25615826202E+04  0.25615826202E+04  0.50400001928E-02 0. -1.
    10030    2    1    2    0    0  0.00000000000E+00  0.00000000000E+00 -0.14317471828E+04  0.36914180576E+04  0.34024501877E+04 0.  0.
        4    1    3    3  502    0 -0.32435348050E+03  0.16544593201E+04 -0.46912815810E+03  0.17500067611E+04  0.12699999809E+01 0. -1.
       -4    1    3    3    0  502  0.32435348050E+03 -0.16544593201E+04 -0.96261902474E+03  0.19414112964E+04  0.12699999809E+01 0.  1.
</event>
<event>
 5   0  0.1595851E-08  0.3400267E+04  0.7818609E-02  0.8137841E-01
       -1   -1    0    0    0  501  0.00000000000E+00  0.00000000000E+00  0.18849109692E+04  0.18849109692E+04  0.50400001928E-02 0.  1.
        1   -1    0    0  501    0  0.00000000000E+00  0.00000000000E+00 -0.15334699538E+04  0.15334699538E+04  0.50400001928E-02 0. -1.
    10030    2    1    2    0    0  0.00000000000E+00  0.00000000000E+00  0.35144101538E+03  0.34183809230E+04  0.34002672464E+04 0.  0.
        2    1    3    3  502    0 -0.26812999212E+03 -0.10038074991E+04 -0.11771566793E+04  0.15701022373E+04  0.25500000920E-02 0. -1.
       -2    1    3    3    0  502  0.26812999212E+03  0.10038074991E+04  0.15285976946E+04  0.18482786857E+04  0.25500000920E-02 0.  1.
</event>
<event>
 5   0  0.1579536E-08  0.3399195E+04  0.7818609E-02  0.8138104E-01
       -1   -1    0    0    0  501  0.00000000000E+00  0.00000000000E+00  0.14362975772E+04  0.14362975772E+04  0.50400001928E-02 0. -1.
        1   -1    0    0  501    0  0.00000000000E+00  0.00000000000E+00 -0.20111652805E+04  0.20111652805E+04  0.50400001928E-02 0.  1.
    10030    2    1    2    0    0  0.00000000000E+00  0.00000000000E+00 -0.57486770332E+03  0.34474628577E+04  0.33991950928E+04 0.  0.
        5    1    3    3  502    0  0.64825278506E+03  0.13673611565E+02  0.13059224222E+04  0.14580377580E+04  0.46999998093E+01 0. -1.
       -5    1    3    3    0  502 -0.64825278506E+03 -0.13673611565E+02 -0.18807901255E+04  0.19894250997E+04  0.46999998093E+01 0.  1.
</event>
<event>
 5   0  0.4973409E-08  0.3403796E+04  0.7818609E-02  0.8136975E-01
       -2   -1    0    0    0  501  0.00000000000E+00  0.00000000000E+00  0.17856237469E+04  0.17856237469E+04  0.25500000920E-02 0.  1.
        2   -1    0    0  501    0  0.00000000000E+00  0.00000000000E+00 -0.16220980800E+04  0.16220980801E+04  0.25500000920E-02 0. -1.
    10030    2    1    2    0    0  0.00000000000E+00  0.00000000000E+00  0.16352566685E+03  0.34077218270E+04  0.34037960289E+04 0.  0.
        1    1    3    3  502    0 -0.95956768500E+03 -0.32518960762E+03  0.14507969221E+04  0.17695564789E+04  0.50400001928E-02 0.  1.
       -1    1    3    3    0  502  0.95956768500E+03  0.32518960762E+03 -0.12872712552E+04  0.16381653480E+04  0.50400001928E-02 0. -1.
</event>
<event>
 5   0  0.4775023E-08  0.3400508E+04  0.7818609E-02  0.8137782E-01
        2   -1    0    0  501    0  0.00000000000E+00  0.00000000000E+00  0.24181080681E+04  0.24181080681E+04  0.25500000920E-02 0. -1.
       -2   -1    0    0    0  501  0.00000000000E+00  0.00000000000E+00 -0.11955061609E+04  0.11955061609E+04  0.25500000920E-02 0.  1.
    10030    2    1    2    0    0  0.00000000000E+00  0.00000000000E+00  0.12226019072E+04  0.36136142290E+04  0.34005076640E+04 0.  0.
        4    1    3    3  502    0 -0.79938348035E+03  0.80648059356E+03 -0.73348418928E+03  0.13518230525E+04  0.12699999809E+01 0.  1.
       -4    1    3    3    0  502  0.79938348035E+03 -0.80648059356E+03  0.19560860965E+04  0.22617911765E+04  0.12699999809E+01 0. -1.
</event>
<event>
 5   0  0.4946315E-08  0.3398414E+04  0.7818609E-02  0.8138296E-01
       -2   -1    0    0    0  501  0.00000000000E+00  0.00000000000E+00  0.16400934737E+04  0.16400934737E+04  0.25500000920E-02 0. -1.
        2   -1    0    0  501    0  0.00000000000E+00  0.00000000000E+00 -0.17604513984E+04  0.17604513984E+04  0.25500000920E-02 0.  1.
    10030    2    1    2    0    0  0.00000000000E+00  0.00000000000E+00 -0.12035792472E+03  0.34005448721E+04  0.33984142474E+04 0.  0.
        3    1    3    3  502    0 -0.14428898610E+04 -0.64695340019E+03  0.56216352809E+03  0.16782454217E+04  0.10100000352E+00 0. -1.
       -3    1    3    3    0  502  0.14428898610E+04  0.64695340019E+03 -0.68252145280E+03  0.17222994504E+04  0.10100000352E+00 0.  1.
</event>
<event>
 5   0  0.1595851E-08  0.3418099E+04  0.7818609E-02  0.8133479E-01
       -1   -1    0    0    0  501  0.00000000000E+00  0.00000000000E+00  0.15733979325E+04  0.15733979325E+04  0.50400001928E-02 0.  1.
        1   -1    0    0  501    0  0.00000000000E+00  0.00000000000E+00 -0.18563959886E+04  0.18563959887E+04  0.50400001928E-02 0. -1.
    10030    2    1    2    0    0  0.00000000000E+00  0.00000000000E+00 -0.28299805617E+03  0.34297939211E+04  0.34180986589E+04 0.  0.
        2    1    3    3  502    0  0.86724959537E+03 -0.12877810259E+04 -0.85832964596E+03  0.17740438586E+04  0.25500000920E-02 0. -1.
       -2    1    3    3    0  502 -0.86724959537E+03  0.12877810259E+04  0.57533158979E+03  0.16557500625E+04  0.25500000920E-02 0.  1.
</event>
<event>
 5   0  0.1595851E-08  0.3399008E+04  0.7818609E-02  0.8138150E-01
        1   -1    0    0  501    0  0.00000000000E+00  0.00000000000E+00  0.24345120065E+04  0.24345120065E+04  0.50400001928E-02 0.  1.
       -1   -1    0    0    0  501  0.00000000000E+00  0.00000000000E+00 -0.11864036686E+04  0.11864036686E+04  0.50400001928E-02 0. -1.
    10030    2    1    2    0    0  0.00000000000E+00  0.00000000000E+00  0.12481083379E+04  0.36209156751E+04  0.33990080763E+04 0.  0.
        2    1    3    3  502    0  0.16527923426E+04 -0.21396957489E+03  0.97866556795E+03  0.19326903012E+04  0.25500000920E-02 0. -1.
       -2    1    3    3    0  502 -0.16527923426E+04  0.21396957489E+03  0.26944277000E+03  0.16882253739E+04  0.25500000920E-02 0.  1.
</event>
<event>
 5   0  0.1573625E-08  0.3402480E+04  0.7818609E-02  0.8137298E-01
       -3   -1    0    0    0  501  0.00000000000E+00  0.00000000000E+00  0.11955292215E+04  0.11955292258E+04  0.10100000352E+00 0. -1.
        3   -1    0    0  501    0  0.00000000000E+00  0.00000000000E+00 -0.24208677641E+04  0.24208677663E+04  0.10100000352E+00 0.  1.
    10030    2    1    2    0    0  0.00000000000E+00  0.00000000000E+00 -0.12253385427E+04  0.36163969920E+04  0.34024803687E+04 0.  0.
        5    1    3    3  502    0  0.11650512733E+04  0.55106024339E+02  0.70366731371E+03  0.13621860819E+04  0.46999998093E+01 0. -1.
       -5    1    3    3    0  502 -0.11650512733E+04 -0.55106024339E+02 -0.19290058564E+04  0.22542109101E+04  0.46999998093E+01 0.  1.
</event>
<event>
 5   0  0.1573625E-08  0.3399741E+04  0.7818609E-02  0.8137970E-01
        3   -1    0    0  501    0  0.00000000000E+00  0.00000000000E+00  0.22986514575E+04  0.22986514597E+04  0.10100000352E+00 0. -1.
       -3   -1    0    0    0  501  0.00000000000E+00  0.00000000000E+00 -0.12570676396E+04  0.12570676437E+04  0.10100000352E+00 0.  1.
    10030    2    1    2    0    0  0.00000000000E+00  0.00000000000E+00  0.10415838178E+04  0.35557191034E+04  0.33997413862E+04 0.  0.
        1    1    3    3  502    0 -0.15252041572E+03  0.14382239842E+04  0.14549732963E+04  0.20515111501E+04  0.50400001928E-02 0. -1.
       -1    1    3    3    0  502  0.15252041572E+03 -0.14382239842E+04 -0.41338947845E+03  0.15042079533E+04  0.50400001928E-02 0.  1.
</event>
<event>
 5   0  0.1645631E-08  0.3413762E+04  0.7818609E-02  0.8134537E-01
        1   -1    0    0  501    0  0.00000000000E+00  0.00000000000E+00  0.15230990974E+04  0.15230990975E+04  0.50400001928E-02 0. -1.
       -1   -1    0    0    0  501  0.00000000000E+00  0.00000000000E+00 -0.19128386275E+04  0.19128386275E+04  0.50400001928E-02 0.  1.
    10030    2    1    2    0    0  0.00000000000E+00  0.00000000000E+00 -0.38973953003E+03  0.34359377249E+04  0.34137620228E+04 0.  0.
        4    1    3    3  502    0  0.37242723078E+03 -0.27401509819E+03 -0.18486056995E+04  0.19055526656E+04  0.12699999809E+01 0.  1.
       -4    1    3    3    0  502 -0.37242723078E+03  0.27401509819E+03  0.14588661695E+04  0.15303850593E+04  0.12699999809E+01 0. -1.
</event>
<event>
 5   0  0.1625282E-08  0.3396395E+04  0.7818609E-02  0.8138792E-01
       -1   -1    0    0    0  501  0.00000000000E+00  0.00000000000E+00  0.14425855276E+04  0.14425855276E+04  0.50400001928E-02 0. -1.
        1   -1    0    0  501    0  0.00000000000E+00  0.00000000000E+00 -0.19991017460E+04  0.19991017461E+04  0.50400001928E-02 0.  1.
    10030    2    1    2    0    0  0.00000000000E+00  0.00000000000E+00 -0.55651621845E+03  0.34416872737E+04  0.33963952933E+04 0.  0.
        1    1    3    3  502    0  0.13284376937E+04  0.76992843474E+03 -0.10134248419E+04  0.18397191120E+04  0.50400001928E-02 0.  1.
       -1    1    3    3    0  502 -0.13284376937E+04 -0.76992843474E+03  0.45690862348E+03  0.16019681617E+04  0.50400001928E-02 0. -1.
</event>
<event>
 5   0  0.4775023E-08  0.3399931E+04  0.7818609E-02  0.8137923E-01
       -2   -1    0    0    0  501  0.00000000000E+00  0.00000000000E+00  0.17204414930E+04  0.17204414930E+04  0.25500000920E-02 0.  1.
        2   -1    0    0  501    0  0.00000000000E+00  0.00000000000E+00 -0.16797327950E+04  0.16797327950E+04  0.25500000920E-02 0. -1.
    10030    2    1    2    0    0  0.00000000000E+00  0.00000000000E+00  0.40708697957E+02  0.34001742880E+04  0.33999305861E+04 0.  0.
        4    1    3    3  502    0  0.15757095376E+04  0.31567352627E+03 -0.53409504265E+03  0.16934489805E+04  0.12699999809E+01 0. -1.
       -4    1    3    3    0  502 -0.15757095376E+04 -0.31567352627E+03  0.57480374061E+03  0.17067253075E+04  0.12699999809E+01 0.  1.
</event>
<event>
 5   0  0.5001197E-08  0.3400078E+04  0.7818609E-02  0.8137887E-01
       -2   -1    0    0    0  501  0.00000000000E+00  0.00000000000E+00  0.15319819652E+04  0.15319819652E+04  0.25500000920E-02 0. -1.
        2   -1    0    0  501    0  0.00000000000E+00  0.00000000000E+00 -0.18865319166E+04  0.18865319166E+04  0.25500000920E-02 0.  1.
    10030    2    1    2    0    0  0.00000000000E+00  0.00000000000E+00 -0.35454995133E+03  0.34185138818E+04  0.34000781597E+04 0.  0.
        5    1    3    3  502    0 -0.11651568219E+04 -0.12323100264E+04 -0.29595040952E+03  0.17215653213E+04  0.46999998093E+01 0.  1.
       -5    1    3    3    0  502  0.11651568219E+04  0.12323100264E+04 -0.58599541805E+02  0.16969485605E+04  0.46999998093E+01 0. -1.
</event>
<event>
 5   0  0.1579536E-08  0.3401583E+04  0.7818609E-02  0.8137518E-01
        1   -1    0    0  501    0  0.00000000000E+00  0.00000000000E+00  0.23245390524E+04  0.23245390524E+04  0.50400001928E-02 0.  1.
       -1   -1    0    0    0  501  0.00000000000E+00  0.00000000000E+00 -0.12444154724E+04  0.12444154724E+04  0.50400001928E-02 0. -1.
    10030    2    1    2    0    0  0.00000000000E+00  0.00000000000E+00  0.10801235800E+04  0.35689545248E+04  0.34015833742E+04 0.  0.
        5    1    3    3  502    0 -0.68439416074E+03  0.23511999179E+03  0.21549476364E+04  0.22732131848E+04  0.46999998093E+01 0.  1.
       -5    1    3    3    0  502  0.68439416074E+03 -0.23511999179E+03 -0.10748240565E+04  0.12957413400E+04  0.46999998093E+01 0. -1.
</event>
<event>
 5   0  0.4973409E-08  0.3400661E+04  0.7818609E-02  0.8137744E-01
        2   -1    0    0  501    0  0.00000000000E+00  0.00000000000E+00  0.18083122540E+04  0.18083122540E+04  0.25500000920E-02 0. -1.
       -2   -1    0    0    0  501  0.00000000000E+00  0.00000000000E+00 -0.15987971433E+04  0.15987971433E+04  0.25500000920E-02 0.  1.
    10030    2    1    2    0    0  0.00000000000E+00  0.00000000000E+00  0.20951511071E+03  0.34071093973E+04  0.34006613862E+04 0.  0.
        1    1    3    3  502    0  0.12549272843E+04 -0.40175794570E+03  0.11814451615E+04  0.17697639971E+04  0.50400001928E-02 0. -1.
       -1    1    3    3    0  502 -0.12549272843E+04  0.40175794570E+03 -0.97193005077E+03  0.16373454002E+04  0.50400001928E-02 0.  1.
</event>
<event>
 5   0  0.4764953E-08  0.3400809E+04  0.7818609E-02  0.8137708E-01
        2   -1    0    0  501    0  0.00000000000E+00  0.00000000000E+00  0.19182703998E+04  0.19182703998E+04  0.25500000920E-02 0. -1.
       -2   -1    0    0    0  501  0.00000000000E+00  0.00000000000E+00 -0.15072825509E+04  0.15072825509E+04  0.25500000920E-02 0.  1.
    10030    2    1    2    0    0  0.00000000000E+00  0.00000000000E+00  0.41098784887E+03  0.34255529507E+04  0.34008090223E+04 0.  0.
        2    1    3    3  502    0 -0.14073311602E+04 -0.10961197051E+03  0.11604317007E+04  0.18273471237E+04  0.25500000920E-02 0. -1.
       -2    1    3    3    0  502  0.14073311602E+04  0.10961197051E+03 -0.74944385186E+03  0.15982058270E+04  0.25500000920E-02 0.  1.
</event>
<event>
 5   0  0.4764953E-08  0.3400342E+04  0.7818609E-02  0.8137822E-01
       -2   -1    0    0    0  501  0.00000000000E+00  0.00000000000E+00  0.24194862967E+04  0.24194862967E+04  0.25500000920E-02 0.  1.
        2   -1    0    0  501    0  0.00000000000E+00  0.00000000000E+00 -0.11947089502E+04  0.11947089502E+04  0.25500000920E-02 0. -1.
    10030    2    1    2    0    0  0.00000000000E+00  0.00000000000E+00  0.12247773466E+04  0.36141952469E+04  0.34003422966E+04 0.  0.
        2    1    3    3  502    0 -0.56572634415E+03 -0.10087697803E+04  0.19369235490E+04  0.22559555848E+04  0.25500000920E-02 0.  1.
       -2    1    3    3    0  502  0.56572634415E+03  0.10087697803E+04 -0.71214620243E+03  0.13582396621E+04  0.25500000920E-02 0. -1.
</event>
<event>
 5   0  0.1645631E-08  0.3400026E+04  0.7818609E-02  0.8137900E-01
        1   -1    0    0  501    0  0.00000000000E+00  0.00000000000E+00  0.19365779694E+04  0.19365779694E+04  0.50400001928E-02 0. -1.
       -1   -1    0    0    0  501  0.00000000000E+00  0.00000000000E+00 -0.14923455692E+04  0.14923455692E+04  0.50400001928E-02 0.  1.
    10030    2    1    2    0    0  0.00000000000E+00  0.00000000000E+00  0.44423240025E+03  0.34289235386E+04  0.34000256187E+04 0.  0.
        4    1    3    3  502    0  0.92037573724E+03  0.33783458320E+03  0.16227392306E+04  0.18959187553E+04  0.12699999809E+01 0. -1.
       -4    1    3    3    0  502 -0.92037573724E+03 -0.33783458320E+03 -0.11785068304E+04  0.15330047832E+04  0.12699999809E+01 0.  1.
</event>
<event>
 5   0  0.1625282E-08  0.3400181E+04  0.7818609E-02  0.8137862E-01
       -1   -1    0    0    0  501  0.00000000000E+00  0.00000000000E+00  0.16024329522E+04  0.16024329522E+04  0.50400001928E-02 0.  1.
        1   -1    0    0  501    0  0.00000000000E+00  0.00000000000E+00 -0.18036997865E+04  0.18036997865E+04  0.50400001928E-02 0. -1.
    10030    2    1    2    0    0  0.00000000000E+00  0.00000000000E+00 -0.20126683424E+03  0.34061327387E+04  0.34001811562E+04 0.  0.
        1    1    3    3  502    0 -0.16876660776E+04  0.19812816567E+03 -0.47282198842E+02  0.16999138701E+04  0.50400001928E-02 0. -1.
       -1    1    3    3    0  502  0.16876660776E+04 -0.19812816567E+03 -0.15398463540E+03  0.17062188686E+04  0.50400001928E-02 0.  1.
</event>
<event>
 5   0  0.5001197E-08  0.3401099E+04  0.7818609E-02  0.8137637E-01
       -2   -1    0    0    0  501  0.00000000000E+00  0.00000000000E+00  0.13172065495E+04  0.13172065495E+04  0.25500000920E-02 0. -1.
        2   -1    0    0  501    0  0.00000000000E+00  0.00000000000E+00 -0.21954551706E+04  0.21954551706E+04  0.25500000920E-02 0.  1.
    10030    2    1    2    0    0  0.00000000000E+00  0.00000000000E+00 -0.87824862112E+03  0.35126617201E+04  0.34010986048E+04 0.  0.
        5    1    3    3  502    0  0.97729405536E+03  0.20981380553E+03 -0.18600138891E+04  0.21115869059E+04  0.46999998093E+01 0.  1.
       -5    1    3    3    0  502 -0.97729405536E+03 -0.20981380553E+03  0.98176526797E+03  0.14010748142E+04  0.46999998093E+01 0. -1.
</event>
<event>
 5   0  0.1579536E-08  0.3400144E+04  0.7818609E-02  0.8137871E-01
       -1   -1    0    0    0  501  0.00000000000E+00  0.00000000000E+00  0.10293283207E+04  0.10293283207E+04  0.50400001928E-02 0. -1.
        1   -1    0    0  501    0  0.00000000000E+00  0.00000000000E+00 -0.28078931986E+04  0.28078931986E+04  0.50400001928E-02 0.  1.
    10030    2    1    2    0    0  0.00000000000E+00  0.00000000000E+00 -0.17785648779E+04  0.38372215194E+04  0.34001435210E+04 0.  0.
        5    1    3    3  502    0 -0.46247100879E+02 -0.13389680519E+04  0.29178797289E+03  0.13711807137E+04  0.46999998093E+01 0.  1.
       -5    1    3    3    0  502  0.46247100879E+02  0.13389680519E+04 -0.20703528508E+04  0.24660408057E+04  0.46999998093E+01 0. -1.
</event>
<event>
 5   0  0.4764953E-08  0.3400519E+04  0.7818609E-02  0.8137779E-01
        2   -1    0    0  501    0  0.00000000000E+00  0.00000000000E+00  0.14463565273E+04  0.14463565273E+04  0.25500000920E-02 0.  1.
       -2   -1    0    0    0  501  0.00000000000E+00  0.00000000000E+00 -0.19987340234E+04  0.19987340234E+04  0.25500000920E-02 0. -1.
    10030    2    1    2    0    0  0.00000000000E+00  0.00000000000E+00 -0.55237749609E+03  0.34450905507E+04  0.34005187846E+04 0.  0.
        2    1    3    3  502    0 -0.12697308284E+04  0.67306884659E+03  0.64437075398E+03  0.15749449887E+04  0.25500000920E-02 0.  1.
       -2    1    3    3    0  502  0.12697308284E+04 -0.67306884659E+03 -0.11967482501E+04  0.18701455620E+04  0.25500000920E-02 0. -1.
</event>
<event>
 5   0  0.4775023E-08  0.3399563E+04  0.7818609E-02  0.8138014E-01
        2   -1    0    0  501    0  0.00000000000E+00  0.00000000000E+00  0.19828492887E+04  0.19828492887E+04  0.25500000920E-02 0. -1.
       -2   -1    0    0    0  501  0.00000000000E+00  0.00000000000E+00 -0.14571240267E+04  0.14571240267E+04  0.25500000920E-02 0.  1.
    10030    2    1    2    0    0  0.00000000000E+00  0.00000000000E+00  0.52572526199E+03  0.34399733154E+04  0.33995631130E+04 0.  0.
        4    1    3    3  502    0  0.15422883082E+04 -0.69091131105E+03  0.44735950173E+03  0.17481830002E+04  0.12699999809E+01 0.  1.
       -4    1    3    3    0  502 -0.15422883082E+04  0.69091131105E+03  0.78365760254E+02  0.16917903152E+04  0.12699999809E+01 0. -1.
</event>
<event>
 5   0  0.1645631E-08  0.3400522E+04  0.7818609E-02  0.8137778E-01
       -1   -1    0    0    0  501  0.00000000000E+00  0.00000000000E+00  0.26381689447E+04  0.26381689447E+04  0.50400001928E-02 0. -1.
        1   -1    0    0  501    0  0.00000000000E+00  0.00000000000E+00 -0.10957933694E+04  0.10957933694E+04  0.50400001928E-02 0.  1.
    10030    2    1    2    0    0  0.00000000000E+00  0.00000000000E+00  0.15423755753E+04  0.37339623141E+04  0.34005223345E+04 0.  0.
        4    1    3    3  502    0 -0.77189248711E+02  0.75315555030E+02  0.26344090210E+04  0.26366158454E+04  0.12699999809E+01 0. -1.
       -4    1    3    3    0  502  0.77189248711E+02 -0.75315555030E+02 -0.10920334457E+04  0.10973464687E+04  0.12699999809E+01 0.  1.
</event>
<event>
 5   0  0.5001197E-08  0.3394339E+04  0.7818609E-02  0.8139297E-01
       -2   -1    0    0    0  501  0.00000000000E+00  0.00000000000E+00  0.10135054117E+04  0.10135054117E+04  0.25500000920E-02 0.  1.
        2   -1    0    0  501    0  0.00000000000E+00  0.00000000000E+00 -0.28420025106E+04  0.28420025106E+04  0.25500000920E-02 0. -1.
    10030    2    1    2    0    0  0.00000000000E+00  0.00000000000E+00 -0.18284970988E+04  0.38555079223E+04  0.33943393612E+04 0.  0.
        5    1    3    3  502    0  0.11101917853E+04  0.74536653439E+03 -0.21013572833E+04  0.24907471957E+04  0.46999998093E+01 0. -1.
       -5    1    3    3    0  502 -0.11101917853E+04 -0.74536653439E+03  0.27286018448E+03  0.13647607266E+04  0.46999998093E+01 0.  1.
</event>
<event>
 5   0  0.4946315E-08  0.3397757E+04  0.7818609E-02  0.8138457E-01
       -2   -1    0    0    0  501  0.00000000000E+00  0.00000000000E+00  0.13174176462E+04  0.13174176462E+04  0.25500000920E-02 0. -1.
        2   -1    0    0  501    0  0.00000000000E+00  0.00000000000E+00 -0.21907921977E+04  0.21907921977E+04  0.25500000920E-02 0.  1.
    10030    2    1    2    0    0  0.00000000000E+00  0.00000000000E+00 -0.87337455153E+03  0.35082098439E+04  0.33977570840E+04 0.  0.
        3    1    3    3  502    0  0.15349790392E+04 -0.55080688025E+01  0.31498765291E+03  0.15669742248E+04  0.10100000352E+00 0. -1.
       -3    1    3    3    0  502 -0.15349790392E+04  0.55080688025E+01 -0.11883622044E+04  0.19412356191E+04  0.10100000352E+00 0.  1.
</event>
<event>
 5   0  0.4775023E-08  0.3418637E+04  0.7818609E-02  0.8133347E-01
        2   -1    0    0  501    0  0.00000000000E+00  0.00000000000E+00  0.18849715649E+04  0.18849715649E+04  0.25500000920E-02 0.  1.
       -2   -1    0    0    0  501  0.00000000000E+00  0.00000000000E+00 -0.15500336035E+04  0.15500336035E+04  0.25500000920E-02 0. -1.
    10030    2    1    2    0    0  0.00000000000E+00  0.00000000000E+00  0.33493796140E+03  0.34350051685E+04  0.34186367267E+04 0.  0.
        4    1    3    3  502    0 -0.34460836541E+03  0.51219146104E+03  0.17690495674E+04  0.18736683279E+04  0.12699999809E+01 0.  1.
       -4    1    3    3    0  502  0.34460836541E+03 -0.51219146104E+03 -0.14341116060E+04  0.15613368405E+04  0.12699999809E+01 0. -1.
</event>
<event>
 5   0  0.1595851E-08  0.3400219E+04  0.7818609E-02  0.8137853E-01
        1   -1    0    0  501    0  0.00000000000E+00  0.00000000000E+00  0.30085005038E+04  0.30085005038E+04  0.50400001928E-02 0. -1.
       -1   -1    0    0    0  501  0.00000000000E+00  0.00000000000E+00 -0.96073522239E+03  0.96073522240E+03  0.50400001928E-02 0.  1.
    10030    2    1    2    0    0  0.00000000000E+00  0.00000000000E+00  0.20477652814E+04  0.39692357262E+04  0.34002190521E+04 0.  0.
        2    1    3    3  502    0 -0.10391203022E+04  0.34140841810E+03 -0.49548209497E+03  0.12007635974E+04  0.25500000920E-02 0.  1.
       -2    1    3    3    0  502  0.10391203022E+04 -0.34140841810E+03  0.25432473764E+04  0.27684721288E+04  0.25500000920E-02 0. -1.
</event>
<event>
 5   0  0.4946315E-08  0.3399791E+04  0.7818609E-02  0.8137958E-01
       -2   -1    0    0    0  501  0.00000000000E+00  0.00000000000E+00  0.14544272141E+04  0.14544272141E+04  0.25500000920E-02 0. -1.
        2   -1    0    0  501    0  0.00000000000E+00  0.00000000000E+00 -0.19867919489E+04  0.19867919489E+04  0.25500000920E-02 0.  1.
    10030    2    1    2    0    0  0.00000000000E+00  0.00000000000E+00 -0.53236473481E+03  0.34412191630E+04  0.33997907461E+04 0.  0.
        3    1    3    3  502    0 -0.66111840283E+03 -0.48587527211E+03  0.12407481362E+04  0.14874838723E+04  0.10100000352E+00 0. -1.
       -3    1    3    3    0  502  0.66111840283E+03  0.48587527211E+03 -0.17731128710E+04  0.19537352907E+04  0.10100000352E+00 0.  1.
</event>
<event>
 5   0  0.1579536E-08  0.3398629E+04  0.7818609E-02  0.8138243E-01
        1   -1    0    0  501    0  0.00000000000E+00  0.00000000000E+00  0.27787532259E+04  0.27787532259E+04  0.50400001928E-02 0.  1.
       -1   -1    0    0    0  501  0.00000000000E+00  0.00000000000E+00 -0.10391963654E+04  0.10391963654E+04  0.50400001928E-02 0. -1.
    10030    2    1    2    0    0  0.00000000000E+00  0.00000000000E+00  0.17395568604E+04  0.38179495913E+04  0.33986292842E+04 0.  0.
        5    1    3    3  502    0  0.10356161636E+04 -0.11767667331E+04  0.13281477854E+03  0.15731950412E+04  0.46999998093E+01 0. -1.
       -5    1    3    3    0  502 -0.10356161636E+04  0.11767667331E+04  0.16067420819E+04  0.22447545501E+04  0.46999998093E+01 0.  1.
</event>
<event>
 5   0  0.4775023E-08  0.3399519E+04  0.7818609E-02  0.8138024E-01
        2   -1    0    0  501    0  0.00000000000E+00  0.00000000000E+00  0.18249766496E+04  0.18249766496E+04  0.25500000920E-02 0. -1.
       -2   -1    0    0    0  501  0.00000000000E+00  0.00000000000E+00 -0.15831342510E+04  0.15831342510E+04  0.25500000920E-02 0.  1.
    10030    2    1    2    0    0  0.00000000000E+00  0.00000000000E+00  0.24184239861E+03  0.34081109007E+04  0.33995194022E+04 0.  0.
        4    1    3    3  502    0  0.61170426582E+03  0.56790222265E+03 -0.13635256312E+04  0.15987178623E+04  0.12699999809E+01 0.  1.
       -4    1    3    3    0  502 -0.61170426582E+03 -0.56790222265E+03  0.16053680298E+04  0.18093930384E+04  0.12699999809E+01 0. -1.
</event>
<event>
 5   0  0.1625282E-08  0.3400044E+04  0.7818609E-02  0.8137896E-01
       -1   -1    0    0    0  501  0.00000000000E+00  0.00000000000E+00  0.15507079803E+04  0.15507079803E+04  0.50400001928E-02 0.  1.
        1   -1    0    0  501    0  0.00000000000E+00  0.00000000000E+00 -0.18637126134E+04  0.18637126134E+04  0.50400001928E-02 0. -1.
    10030    2    1    2    0    0  0.00000000000E+00  0.00000000000E+00 -0.31300463305E+03  0.34144205937E+04  0.34000435424E+04 0.  0.
        1    1    3    3  502    0  0.18054430076E+03 -0.61509246265E+03  0.14246837569E+04  0.15622607942E+04  0.50400001928E-02 0.  1.
       -1    1    3    3    0  502 -0.18054430076E+03  0.61509246265E+03 -0.17376883899E+04  0.18521597994E+04  0.50400001928E-02 0. -1.
</event>
<event>
 5   0  0.5001197E-08  0.3400159E+04  0.7818609E-02  0.8137867E-01
       -2   -1    0    0    0  501  0.00000000000E+00  0.00000000000E+00  0.18901262385E+04  0.18901262385E+04  0.25500000920E-02 0. -1.
        2   -1    0    0  501    0  0.00000000000E+00  0.00000000000E+00 -0.15291417819E+04  0.15291417819E+04  0.25500000920E-02 0.  1.
    10030    2    1    2    0    0  0.00000000000E+00  0.00000000000E+00  0.36098445655E+03  0.34192680204E+04  0.34001594106E+04 0.  0.
        5    1    3    3  502    0 -0.40301414865E+03  0.11519024893E+03  0.18373436539E+04  0.18845537906E+04  0.46999998093E+01 0. -1.
       -5    1    3    3    0  502  0.40301414865E+03 -0.11519024893E+03 -0.14763591973E+04  0.15347142297E+04  0.46999998093E+01 0.  1.
</event>
<event>
 5   0  0.1579536E-08  0.3397365E+04  0.7818609E-02  0.8138553E-01
       -1   -1    0    0    0  501  0.00000000000E+00  0.00000000000E+00  0.17668898543E+04  0.17668898543E+04  0.50400001928E-02 0.  1.
        1   -1    0    0  501    0  0.00000000000E+00  0.00000000000E+00 -0.16331081903E+04  0.16331081903E+04  0.50400001928E-02 0. -1.
    10030    2    1    2    0    0  0.00000000000E+00  0.00000000000E+00  0.13378166402E+03  0.33999980446E+04  0.33973650333E+04 0.  0.
        5    1    3    3  502    0 -0.14708437428E+04  0.80747921317E+03 -0.19807124146E+03  0.16895734083E+04  0.46999998093E+01 0.  1.
       -5    1    3    3    0  502  0.14708437428E+04 -0.80747921317E+03  0.33185290548E+03  0.17104246363E+04  0.46999998093E+01 0. -1.
</event>
<event>
 5   0  0.1579536E-08  0.3399484E+04  0.7818609E-02  0.8138033E-01
       -1   -1    0    0    0  501  0.00000000000E+00  0.00000000000E+00  0.25062979804E+04  0.25062979804E+04  0.50400001928E-02 0. -1.
        1   -1    0    0  501    0  0.00000000000E+00  0.00000000000E+00 -0.11527451936E+04  0.11527451936E+04  0.50400001928E-02 0.  1.
    10030    2    1    2    0    0  0.00000000000E+00  0.00000000000E+00  0.13535527868E+04  0.36590431740E+04  0.33994840494E+04 0.  0.
        5    1    3    3  502    0  0.15940899190E+02  0.16385326821E+04  0.19055876759E+03  0.16496600245E+04  0.46999998093E+01 0.  1.
       -5    1    3    3    0  502 -0.15940899190E+02 -0.16385326821E+04  0.11629940192E+04  0.20093831494E+04  0.46999998093E+01 0. -1.
</event>
<event>
 5   0  0.5001197E-08  0.3398234E+04  0.7818609E-02  0.8138340E-01
       -2   -1    0    0    0  501  0.00000000000E+00  0.00000000000E+00  0.20313320411E+04  0.20313320411E+04  0.25500000920E-02 0.  1.
        2   -1    0    0  501    0  0.00000000000E+00  0.00000000000E+00 -0.14212341349E+04  0.14212341349E+04  0.25500000920E-02 0. -1.
    10030    2    1    2    0    0  0.00000000000E+00  0.00000000000E+00  0.61009790623E+03  0.34525661759E+04  0.33982339154E+04 0.  0.
        5    1    3    3  502    0  0.43414819904E+03  0.12948420822E+04  0.13320899289E+04  0.19077699928E+04  0.46999998093E+01 0.  1.
       -5    1    3    3    0  502 -0.43414819904E+03 -0.12948420822E+04 -0.72199202271E+03  0.15447961832E+04  0.46999998093E+01 0. -1.
</event>
<event>
 5   0  0.1645631E-08  0.3402639E+04  0.7818609E-02  0.8137259E-01
        1   -1    0    0  501    0  0.00000000000E+00  0.00000000000E+00  0.21094158840E+04  0.21094158840E+04  0.50400001928E-02 0. -1.
       -1   -1    0    0    0  501  0.00000000000E+00  0.00000000000E+00 -0.13721753578E+04  0.13721753578E+04  0.50400001928E-02 0.  1.
    10030    2    1    2    0    0  0.00000000000E+00  0.00000000000E+00  0.73724052624E+03  0.34815912418E+04  0.34026392670E+04 0.  0.
        4    1    3    3  502    0 -0.16665446824E+04  0.29653358193E+03  0.19382452163E+03  0.17037819408E+04  0.12699999809E+01 0.  1.
       -4    1    3    3    0  502  0.16665446824E+04 -0.29653358193E+03  0.54341600461E+03  0.17778093010E+04  0.12699999809E+01 0. -1.
</event>
<event>
 5   0  0.1645631E-08  0.3401369E+04  0.7818609E-02  0.8137571E-01
       -1   -1    0    0    0  501  0.00000000000E+00  0.00000000000E+00  0.12242409933E+04  0.12242409933E+04  0.50400001928E-02 0.  1.
        1   -1    0    0  501    0  0.00000000000E+00  0.00000000000E+00 -0.23625471436E+04  0.23625471436E+04  0.50400001928E-02 0. -1.
    10030    2    1    2    0    0  0.00000000000E+00  0.00000000000E+00 -0.11383061504E+04  0.35867881369E+04  0.34013685844E+04 0.  0.
        4    1    3    3  502    0  0.19405752820E+03 -0.16873269750E+04 -0.66105197552E+03  0.18225591820E+04  0.12699999809E+01 0.  1.
       -4    1    3    3    0  502 -0.19405752820E+03  0.16873269750E+04 -0.47725417486E+03  0.17642289549E+04  0.12699999809E+01 0. -1.
</event>
<event>
 5   0  0.1579536E-08  0.3392469E+04  0.7818609E-02  0.8139757E-01
        1   -1    0    0  501    0  0.00000000000E+00  0.00000000000E+00  0.16632436249E+04  0.16632436249E+04  0.50400001928E-02 0.  1.
       -1   -1    0    0    0  501  0.00000000000E+00  0.00000000000E+00 -0.17298800072E+04  0.17298800072E+04  0.50400001928E-02 0. -1.
    10030    2    1    2    0    0  0.00000000000E+00  0.00000000000E+00 -0.66636382297E+02  0.33931236321E+04  0.33924692446E+04 0.  0.
        5    1    3    3  502    0 -0.12395853411E+04  0.29152447066E+03 -0.11540839667E+04  0.17185721478E+04  0.46999998093E+01 0. -1.
       -5    1    3    3    0  502  0.12395853411E+04 -0.29152447066E+03  0.10874475844E+04  0.16745514843E+04  0.46999998093E+01 0.  1.
</event>
<event>
 5   0  0.1645631E-08  0.3398123E+04  0.7818609E-02  0.8138367E-01
        1   -1    0    0  501    0  0.00000000000E+00  0.00000000000E+00  0.24906293216E+04  0.24906293216E+04  0.50400001928E-02 0.  1.
       -1   -1    0    0    0  501  0.00000000000E+00  0.00000000000E+00 -0.11590682819E+04  0.11590682819E+04  0.50400001928E-02 0. -1.
    10030    2    1    2    0    0  0.00000000000E+00  0.00000000000E+00  0.13315610397E+04  0.36496976036E+04  0.33981226869E+04 0.  0.
        4    1    3    3  502    0 -0.23364887230E+02 -0.46939436989E+03 -0.10878668463E+04  0.11850455184E+04  0.12699999809E+01 0. -1.
       -4    1    3    3    0  502  0.23364887230E+02  0.46939436989E+03  0.24194278860E+04  0.24646520852E+04  0.12699999809E+01 0.  1.
</event>
<event>
 5   0  0.1645631E-08  0.3400074E+04  0.7818609E-02  0.8137888E-01
        1   -1    0    0  501    0  0.00000000000E+00  0.00000000000E+00  0.20929192251E+04  0.20929192251E+04  0.50400001928E-02 0.  1.
       -1   -1    0    0    0  501  0.00000000000E+00  0.00000000000E+00 -0.13809062156E+04  0.13809062156E+04  0.50400001928E-02 0. -1.
    10030    2    1    2    0    0  0.00000000000E+00  0.00000000000E+00  0.71201300947E+03  0.34738254407E+04  0.34000736267E+04 0.  0.
        4    1    3    3  502    0 -0.25818656849E+03  0.16335156878E+04 -0.46350173807E+02  0.16544436400E+04  0.12699999809E+01 0.  1.
       -4    1    3    3    0  502  0.25818656849E+03 -0.16335156878E+04  0.75836318328E+03  0.18193818008E+04  0.12699999809E+01 0. -1.
</event>
<event>
 5   0  0.1645631E-08  0.3411403E+04  0.7818609E-02  0.8135113E-01
       -1   -1    0    0    0  501  0.00000000000E+00  0.00000000000E+00  0.32393497918E+04  0.32393497918E+04  0.50400001928E-02 0.  1.
        1   -1    0    0  501    0  0.00000000000E+00  0.00000000000E+00 -0.89814862559E+03  0.89814862561E+03  0.50400001928E-02 0. -1.
    10030    2    1    2    0    0  0.00000000000E+00  0.00000000000E+00  0.23412011662E+04  0.41374984174E+04  0.34114029743E+04 0.  0.
        4    1    3    3  502    0  0.46697814773E+03  0.13509389385E+04  0.41736078093E+02  0.14299818597E+04  0.12699999809E+01 0. -1.
       -4    1    3    3    0  502 -0.46697814773E+03 -0.13509389385E+04  0.22994650881E+04  0.27075165577E+04  0.12699999809E+01 0.  1.
</event>
<event>
 5   0  0.1625282E-08  0.3397851E+04  0.7818609E-02  0.8138434E-01
        1   -1    0    0  501    0  0.00000000000E+00  0.00000000000E+00  0.12325519123E+04  0.12325519123E+04  0.50400001928E-02 0.  1.
       -1   -1    0    0    0  501  0.00000000000E+00  0.00000000000E+00 -0.23417660509E+04  0.23417660509E+04  0.50400001928E-02 0. -1.
    10030    2    1    2    0    0  0.00000000000E+00  0.00000000000E+00 -0.11092141387E+04  0.35743179632E+04  0.33978512176E+04 0.  0.
        1    1    3    3  502    0  0.10639944747E+04  0.11879625129E+04 -0.11706934590E+04  0.19783483892E+04  0.50400001928E-02 0. -1.
       -1    1    3    3    0  502 -0.10639944747E+04 -0.11879625129E+04  0.61479320297E+02  0.15959695740E+04  0.50400001928E-02 0.  1.
</event>
<event>
 5   0  0.4764953E-08  0.3398000E+04  0.7818609E-02  0.8138397E-01
        2   -1    0    0  501    0  0.00000000000E+00  0.00000000000E+00  0.20811429106E+04  0.20811429106E+04  0.25500000920E-02 0. -1.
       -2   -1    0    0    0  501  0.00000000000E+00  0.00000000000E+00 -0.13870268005E+04  0.13870268005E+04  0.25500000920E-02 0.  1.
    10030    2    1    2    0    0  0.00000000000E+00  0.00000000000E+00  0.69411611007E+03  0.34681697111E+04  0.33979999957E+04 0.  0.
        2    1    3    3  502    0  0.28319143973E+03  0.64759498098E+03  0.19239625494E+04  0.20496849861E+04  0.25500000920E-02 0. -1.
       -2    1    3    3    0  502 -0.28319143973E+03 -0.64759498098E+03 -0.12298464393E+04  0.14184847250E+04  0.25500000920E-02 0.  1.
</event>
<event>
 5   0  0.1625282E-08  0.3397607E+04  0.7818609E-02  0.8138494E-01
        1   -1    0    0  501    0  0.00000000000E+00  0.00000000000E+00  0.21671689150E+04  0.21671689150E+04  0.50400001928E-02 0.  1.
       -1   -1    0    0    0  501  0.00000000000E+00  0.00000000000E+00 -0.13316602455E+04  0.13316602455E+04  0.50400001928E-02 0. -1.
    10030    2    1    2    0    0  0.00000000000E+00  0.00000000000E+00  0.83550866951E+03  0.34988291605E+04  0.33976066219E+04 0.  0.
        1    1    3    3  502    0  0.54895537102E+03  0.46406911387E+03  0.20028387219E+04  0.21279274160E+04  0.50400001928E-02 0.  1.
       -1    1    3    3    0  502 -0.54895537102E+03 -0.46406911387E+03 -0.11673300524E+04  0.13709017445E+04  0.50400001928E-02 0. -1.
</event>
<event>
 5   0  0.1625282E-08  0.3396648E+04  0.7818609E-02  0.8138730E-01
        1   -1    0    0  501    0  0.00000000000E+00  0.00000000000E+00  0.13359406957E+04  0.13359406957E+04  0.50400001928E-02 0. -1.
       -1   -1    0    0    0  501  0.00000000000E+00  0.00000000000E+00 -0.21590057659E+04  0.21590057659E+04  0.50400001928E-02 0.  1.
    10030    2    1    2    0    0  0.00000000000E+00  0.00000000000E+00 -0.82306507015E+03  0.34949464616E+04  0.33966475619E+04 0.  0.
        1    1    3    3  502    0  0.86595628365E+03  0.38516483373E+03 -0.18615975438E+04  0.20889656889E+04  0.50400001928E-02 0.  1.
       -1    1    3    3    0  502 -0.86595628365E+03 -0.38516483373E+03  0.10385324737E+04  0.14059807727E+04  0.50400001928E-02 0. -1.
</event>
<event>
 5   0  0.5001197E-08  0.3399271E+04  0.7818609E-02  0.8138085E-01
        2   -1    0    0  501    0  0.00000000000E+00  0.00000000000E+00  0.10583649352E+04  0.10583649352E+04  0.25500000920E-02 0.  1.
       -2   -1    0    0    0  501  0.00000000000E+00  0.00000000000E+00 -0.27294561773E+04  0.27294561773E+04  0.25500000920E-02 0. -1.
    10030    2    1    2    0    0  0.00000000000E+00  0.00000000000E+00 -0.16710912421E+04  0.37878211124E+04  0.33992709277E+04 0.  0.
        5    1    3    3  502    0  0.21078910344E+03 -0.10390413723E+04 -0.23158092695E+04  0.25469655832E+04  0.46999998093E+01 0.  1.
       -5    1    3    3    0  502 -0.21078910344E+03  0.10390413723E+04  0.64471802737E+03  0.12408555292E+04  0.46999998093E+01 0. -1.
</event>
<event>
 5   0  0.1573625E-08  0.3400589E+04  0.7818609E-02  0.8137762E-01
        4   -1    0    0  501    0  0.00000000000E+00  0.00000000000E+00  0.19207202397E+04  0.19207206595E+04  0.12699999809E+01 0. -1.
       -4   -1    0    0    0  501  0.00000000000E+00  0.00000000000E+00 -0.15051643928E+04  0.15051649285E+04  0.12699999809E+01 0.  1.
    10030    2    1    2    0    0  0.00000000000E+00  0.00000000000E+00  0.41555584689E+03  0.34258855881E+04  0.34005889785E+04 0.  0.
        2    1    3    3  502    0 -0.50883064163E+02  0.16845493956E+04  0.43463204046E+03  0.17404599286E+04  0.25500000920E-02 0.  1.
       -2    1    3    3    0  502  0.50883064163E+02 -0.16845493956E+04 -0.19076193566E+02  0.16854256595E+04  0.25500000920E-02 0. -1.
</event>
<event>
 5   0  0.1630571E-08  0.3400379E+04  0.7818609E-02  0.8137813E-01
        1   -1    0    0  501    0  0.00000000000E+00  0.00000000000E+00  0.16746080612E+04  0.16746080612E+04  0.50400001928E-02 0. -1.
       -1   -1    0    0    0  501  0.00000000000E+00  0.00000000000E+00 -0.17261619896E+04  0.17261619896E+04  0.50400001928E-02 0.  1.
    10030    2    1    2    0    0  0.00000000000E+00  0.00000000000E+00 -0.51553928352E+02  0.34007700509E+04  0.34003792629E+04 0.  0.
        3    1    3    3  502    0  0.15741097131E+04 -0.39487078500E+03  0.48113476268E+03  0.16927005038E+04  0.10100000352E+00 0.  1.
       -3    1    3    3    0  502 -0.15741097131E+04  0.39487078500E+03 -0.53268869103E+03  0.17080695470E+04  0.10100000352E+00 0. -1.
</event>
<event>
 5   0  0.1645631E-08  0.3399919E+04  0.7818609E-02  0.8137926E-01
       -1   -1    0    0    0  501  0.00000000000E+00  0.00000000000E+00  0.13369717541E+04  0.13369717541E+04  0.50400001928E-02 0.  1.
        1   -1    0    0  501    0  0.00000000000E+00  0.00000000000E+00 -0.21614985870E+04  0.21614985870E+04  0.50400001928E-02 0. -1.
    10030    2    1    2    0    0  0.00000000000E+00  0.00000000000E+00 -0.82452683287E+03  0.34984703411E+04  0.33999191504E+04 0.  0.
        4    1    3    3  502    0  0.10314653225E+02  0.11479311310E+04 -0.17024041142E+04  0.20532982380E+04  0.12699999809E+01 0. -1.
       -4    1    3    3    0  502 -0.10314653225E+02 -0.11479311310E+04  0.87787728131E+03  0.14451721031E+04  0.12699999809E+01 0.  1.
</event>
<event>
 5   0  0.1645631E-08  0.3400846E+04  0.7818609E-02  0.8137699E-01
       -1   -1    0    0    0  501  0.00000000000E+00  0.00000000000E+00  0.20007270532E+04  0.20007270532E+04  0.50400001928E-02 0. -1.
        1   -1    0    0  501    0  0.00000000000E+00  0.00000000000E+00 -0.14451936467E+04  0.14451936467E+04  0.50400001928E-02 0.  1.
    10030    2    1    2    0    0  0.00000000000E+00  0.00000000000E+00  0.55553340647E+03  0.34459206999E+04  0.34008457924E+04 0.  0.
        4    1    3    3  502    0 -0.12735774697E+04  0.11230287226E+04  0.36976285916E+03  0.17377914915E+04  0.12699999809E+01 0. -1.
       -4    1    3    3    0  502  0.12735774697E+04 -0.11230287226E+04  0.18577054730E+03  0.17081292083E+04  0.12699999809E+01 0.  1.
</event>
<event>
 5   0  0.4775023E-08  0.3399825E+04  0.7818609E-02  0.8137949E-01
        2   -1    0    0  501    0  0.00000000000E+00  0.00000000000E+00  0.21221310818E+04  0.21221310818E+04  0.25500000920E-02 0.  1.
       -2   -1    0    0    0  501  0.00000000000E+00  0.00000000000E+00 -0.13616983493E+04  0.13616983493E+04  0.25500000920E-02 0. -1.
    10030    2    1    2    0    0  0.00000000000E+00  0.00000000000E+00  0.76043273250E+03  0.34838294312E+04  0.33998249315E+04 0.  0.
        4    1    3    3  502    0  0.20960524708E+03  0.11224068495E+04 -0.91025304666E+03  0.14602375551E+04  0.12699999809E+01 0. -1.
       -4    1    3    3    0  502 -0.20960524708E+03 -0.11224068495E+04  0.16706857792E+04  0.20235918761E+04  0.12699999809E+01 0.  1.
</event>
<event>
 5   0  0.1573625E-08  0.3401322E+04  0.7818609E-02  0.8137582E-01
        3   -1    0    0  501    0  0.00000000000E+00  0.00000000000E+00  0.14954035500E+04  0.14954035534E+04  0.10100000352E+00 0.  1.
       -3   -1    0    0    0  501  0.00000000000E+00  0.00000000000E+00 -0.19340922736E+04  0.19340922762E+04  0.10100000352E+00 0. -1.
    10030    2    1    2    0    0  0.00000000000E+00  0.00000000000E+00 -0.43868872366E+03  0.34294958296E+04  0.34013223677E+04 0.  0.
        3    1    3    3  502    0  0.68630533781E+03 -0.28360217820E+03  0.13232968838E+04  0.15174188167E+04  0.10100000352E+00 0.  1.
       -3    1    3    3    0  502 -0.68630533781E+03  0.28360217820E+03 -0.17619856075E+04  0.19120770129E+04  0.10100000352E+00 0. -1.
</event>
<event>
 5   0  0.1630571E-08  0.3398558E+04  0.7818609E-02  0.8138260E-01
       -1   -1    0    0    0  501  0.00000000000E+00  0.00000000000E+00  0.10419094830E+04  0.10419094830E+04  0.50400001928E-02 0.  1.
        1   -1    0    0  501    0  0.00000000000E+00  0.00000000000E+00 -0.27714013190E+04  0.27714013190E+04  0.50400001928E-02 0. -1.
    10030    2    1    2    0    0  0.00000000000E+00  0.00000000000E+00 -0.17294918361E+04  0.38133108020E+04  0.33985581151E+04 0.  0.
        3    1    3    3  502    0 -0.60787002435E+02  0.42149044289E+03 -0.27105578623E+04  0.27438063321E+04  0.10100000352E+00 0. -1.
       -3    1    3    3    0  502  0.60787002435E+02 -0.42149044289E+03  0.98106602623E+03  0.10695044699E+04  0.10100000352E+00 0.  1.
</event>
<event>
 5   0  0.4764953E-08  0.3396233E+04  0.7818609E-02  0.8138831E-01
       -2   -1    0    0    0  501  0.00000000000E+00  0.00000000000E+00  0.16938542584E+04  0.16938542584E+04  0.25500000920E-02 0. -1.
        2   -1    0    0  501    0  0.00000000000E+00  0.00000000000E+00 -0.17023899637E+04  0.17023899637E+04  0.25500000920E-02 0.  1.
    10030    2    1    2    0    0  0.00000000000E+00  0.00000000000E+00 -0.85357053008E+01  0.33962442221E+04  0.33962334958E+04 0.  0.
        2    1    3    3  502    0  0.18294013411E+03 -0.27690679967E+03 -0.16696427474E+04  0.17023076609E+04  0.25500000920E-02 0.  1.
       -2    1    3    3    0  502 -0.18294013411E+03  0.27690679967E+03  0.16611070421E+04  0.16939365613E+04  0.25500000920E-02 0. -1.
</event>
<event>
 5   0  0.5001197E-08  0.3400420E+04  0.7818609E-02  0.8137803E-01
        2   -1    0    0  501    0  0.00000000000E+00  0.00000000000E+00  0.22451214838E+04  0.22451214838E+04  0.25500000920E-02 0.  1.
       -2   -1    0    0    0  501  0.00000000000E+00  0.00000000000E+00 -0.12875535622E+04  0.12875535622E+04  0.25500000920E-02 0. -1.
    10030    2    1    2    0    0  0.00000000000E+00  0.00000000000E+00  0.95756792153E+03  0.35326750460E+04  0.34004200706E+04 0.  0.
        5    1    3    3  502    0  0.15024413601E+04  0.65416261709E+03  0.94965994939E+03  0.18939733049E+04  0.46999998093E+01 0.  1.
       -5    1    3    3    0  502 -0.15024413601E+04 -0.65416261709E+03  0.79079721477E+01  0.16387017411E+04  0.46999998093E+01 0. -1.
</event>
<event>
 5   0  0.4946315E-08  0.3400610E+04  0.7818609E-02  0.8137757E-01
       -2   -1    0    0    0  501  0.00000000000E+00  0.00000000000E+00  0.14314925415E+04  0.14314925415E+04  0.25500000920E-02 0.  1.
        2   -1    0    0  501    0  0.00000000000E+00  0.00000000000E+00 -0.20195968534E+04  0.20195968535E+04  0.25500000920E-02 0. -1.
    10030    2    1    2    0    0  0.00000000000E+00  0.00000000000E+00 -0.58810431196E+03  0.34510893949E+04  0.34006104349E+04 0.  0.
        3    1    3    3  502    0  0.79865426148E+02  0.83126640258E+03 -0.17971371500E+04  0.19816872267E+04  0.10100000352E+00 0. -1.
       -3    1    3    3    0  502 -0.79865426148E+02 -0.83126640258E+03  0.12090328380E+04  0.14694021682E+04  0.10100000352E+00 0.  1.
</event>
<event>
 5   0  0.1595851E-08  0.3399482E+04  0.7818609E-02  0.8138034E-01
        1   -1    0    0  501    0  0.00000000000E+00  0.00000000000E+00  0.18115464290E+04  0.18115464290E+04  0.50400001928E-02 0.  1.
       -1   -1    0    0    0  501  0.00000000000E+00  0.00000000000E+00 -0.15948355999E+04  0.15948355999E+04  0.50400001928E-02 0. -1.
    10030    2    1    2    0    0  0.00000000000E+00  0.00000000000E+00  0.21671082908E+03  0.34063820289E+04  0.33994815698E+04 0.  0.
        2    1    3    3  502    0 -0.12380090318E+04  0.37446156109E+03  0.12134225943E+04  0.17734943518E+04  0.25500000920E-02 0.  1.
       -2    1    3    3    0  502  0.12380090318E+04 -0.37446156109E+03 -0.99671176518E+03  0.16328876772E+04  0.25500000920E-02 0. -1.
</event>
<event>
 5   0  0.4946315E-08  0.3400380E+04  0.7818609E-02  0.8137813E-01
       -2   -1    0    0    0  501  0.00000000000E+00  0.00000000000E+00  0.15356511797E+04  0.15356511797E+04  0.25500000920E-02 0. -1.
        2   -1    0    0  501    0  0.00000000000E+00  0.00000000000E+00 -0.18823582267E+04  0.18823582267E+04  0.25500000920E-02 0.  1.
    10030    2    1    2    0    0  0.00000000000E+00  0.00000000000E+00 -0.34670704699E+03  0.34180094064E+04  0.34003797620E+04 0.  0.
        3    1    3    3  502    0  0.88570224581E+03 -0.10412287349E+03 -0.16283857914E+04  0.18565964389E+04  0.10100000352E+00 0.  1.
       -3    1    3    3    0  502 -0.88570224581E+03  0.10412287349E+03  0.12816787444E+04  0.15614129675E+04  0.10100000352E+00 0. -1.
</event>
<event>
 5   0  0.1579536E-08  0.3400413E+04  0.7818609E-02  0.8137805E-01
        1   -1    0    0  501    0  0.00000000000E+00  0.00000000000E+00  0.15704260085E+04  0.15704260085E+04  0.50400001928E-02 0. -1.
       -1   -1    0    0    0  501  0.00000000000E+00  0.00000000000E+00 -0.18407119248E+04  0.18407119248E+04  0.50400001928E-02 0.  1.
    10030    2    1    2    0    0  0.00000000000E+00  0.00000000000E+00 -0.27028591634E+03  0.34111379333E+04  0.34004128460E+04 0.  0.
        5    1    3    3  502    0 -0.10313470677E+04  0.93437298313E+02  0.12175434198E+04  0.15983871158E+04  0.46999998093E+01 0. -1.
       -5    1    3    3    0  502  0.10313470677E+04 -0.93437298313E+02 -0.14878293362E+04  0.18127508175E+04  0.46999998093E+01 0.  1.
</event>
<event>
 5   0  0.1630571E-08  0.3401597E+04  0.7818609E-02  0.8137514E-01
       -1   -1    0    0    0  501  0.00000000000E+00  0.00000000000E+00  0.12495822210E+04  0.12495822210E+04  0.50400001928E-02 0. -1.
        1   -1    0    0  501    0  0.00000000000E+00  0.00000000000E+00 -0.23149465438E+04  0.23149465438E+04  0.50400001928E-02 0.  1.
    10030    2    1    2    0    0  0.00000000000E+00  0.00000000000E+00 -0.10653643228E+04  0.35645287649E+04  0.34015972976E+04 0.  0.
        3    1    3    3  502    0  0.13056642805E+04 -0.85786974591E+03 -0.12372069580E+04  0.19928323515E+04  0.10100000352E+00 0.  1.
       -3    1    3    3    0  502 -0.13056642805E+04  0.85786974591E+03  0.17184263512E+03  0.15716964133E+04  0.10100000352E+00 0. -1.
</event>
<event>
 5   0  0.1645631E-08  0.3399761E+04  0.7818609E-02  0.8137965E-01
        1   -1    0    0  501    0  0.00000000000E+00  0.00000000000E+00  0.21208575716E+04  0.21208575716E+04  0.50400001928E-02 0.  1.
       -1   -1    0    0    0  501  0.00000000000E+00  0.00000000000E+00 -0.13624646829E+04  0.13624646829E+04  0.50400001928E-02 0. -1.
    10030    2    1    2    0    0  0.00000000000E+00  0.00000000000E+00  0.75839288864E+03  0.34833222545E+04  0.33997608968E+04 0.  0.
        4    1    3    3  502    0 -0.77504614562E+03  0.75011046117E+03  0.17253499033E+04  0.20347471916E+04  0.12699999809E+01 0.  1.
       -4    1    3    3    0  502  0.77504614562E+03 -0.75011046117E+03 -0.96695701469E+03  0.14485750629E+04  0.12699999809E+01 0. -1.
</event>
<event>
 5   0  0.4775023E-08  0.3398831E+04  0.7818609E-02  0.8138193E-01
       -2   -1    0    0    0  501  0.00000000000E+00  0.00000000000E+00  0.12883200586E+04  0.12883200586E+04  0.25500000920E-02 0.  1.
        2   -1    0    0  501    0  0.00000000000E+00  0.00000000000E+00 -0.22416897492E+04  0.22416897492E+04  0.25500000920E-02 0. -1.
    10030    2    1    2    0    0  0.00000000000E+00  0.00000000000E+00 -0.95336969060E+03  0.35300098078E+04  0.33988314869E+04 0.  0.
        4    1    3    3  502    0  0.28540454319E+03 -0.12046850157E+04 -0.16857855623E+04  0.20915535650E+04  0.12699999809E+01 0. -1.
       -4    1    3    3    0  502 -0.28540454319E+03  0.12046850157E+04  0.73241587174E+03  0.14384562428E+04  0.12699999809E+01 0.  1.
</event>
<event>
 5   0  0.1645631E-08  0.3397486E+04  0.7818609E-02  0.8138524E-01
        1   -1    0    0  501    0  0.00000000000E+00  0.00000000000E+00  0.24400128026E+04  0.24400128026E+04  0.50400001928E-02 0. -1.
       -1   -1    0    0    0  501  0.00000000000E+00  0.00000000000E+00 -0.11826693933E+04  0.11826693933E+04  0.50400001928E-02 0.  1.
    10030    2    1    2    0    0  0.00000000000E+00  0.00000000000E+00  0.12573434093E+04  0.36226821959E+04  0.33974864008E+04 0.  0.
        4    1    3    3  502    0  0.11766658751E+04 -0.35785352818E+03  0.18781466890E+04  0.22450029683E+04  0.12699999809E+01 0. -1.
       -4    1    3    3    0  502 -0.11766658751E+04  0.35785352818E+03 -0.62080327975E+03  0.13776792276E+04  0.12699999809E+01 0.  1.
</event>
<event>
 5   0  0.5001197E-08  0.3400541E+04  0.7818609E-02  0.8137774E-01
        2   -1    0    0  501    0  0.00000000000E+00  0.00000000000E+00  0.24329251189E+04  0.24329251189E+04  0.25500000920E-02 0. -1.
       -2   -1    0    0    0  501  0.00000000000E+00  0.00000000000E+00 -0.11882486942E+04  0.11882486942E+04  0.25500000920E-02 0.  1.
    10030    2    1    2    0    0  0.00000000000E+00  0.00000000000E+00  0.12446764247E+04  0.36211738131E+04  0.34005411897E+04 0.  0.
        5    1    3    3  502    0 -0.14188968966E+04  0.39623719069E+03  0.15263127586E+04  0.21213026756E+04  0.46999998093E+01 0. -1.
       -5    1    3    3    0  502  0.14188968966E+04 -0.39623719069E+03 -0.28163633393E+03  0.14998711375E+04  0.46999998093E+01 0.  1.
</event>
<event>
 5   0  0.1630571E-08  0.3401874E+04  0.7818609E-02  0.8137447E-01
       -1   -1    0    0    0  501  0.00000000000E+00  0.00000000000E+00  0.11958652112E+04  0.11958652113E+04  0.50400001928E-02 0.  1.
        1   -1    0    0  501    0  0.00000000000E+00  0.00000000000E+00 -0.24193244008E+04  0.24193244008E+04  0.50400001928E-02 0. -1.
    10030    2    1    2    0    0  0.00000000000E+00  0.00000000000E+00 -0.12234591896E+04  0.36151896121E+04  0.34018735342E+04 0.  0.
        3    1    3    3  502    0  0.13098724697E+04 -0.38060102992E+03  0.46813962562E+03  0.14421434569E+04  0.10100000352E+00 0.  1.
       -3    1    3    3    0  502 -0.13098724697E+04  0.38060102992E+03 -0.16915988152E+04  0.21730461552E+04  0.10100000352E+00 0. -1.
</event>
<event>
 5   0  0.4764953E-08  0.3399873E+04  0.7818609E-02  0.8137937E-01
        2   -1    0    0  501    0  0.00000000000E+00  0.00000000000E+00  0.21046342881E+04  0.21046342881E+04  0.25500000920E-02 0. -1.
       -2   -1    0    0    0  501  0.00000000000E+00  0.00000000000E+00 -0.13730577516E+04  0.13730577516E+04  0.25500000920E-02 0.  1.
    10030    2    1    2    0    0  0.00000000000E+00  0.00000000000E+00  0.73157653648E+03  0.34776920397E+04  0.33998731880E+04 0.  0.
        2    1    3    3  502    0  0.10726989981E+04  0.13187050000E+04  0.35465775216E+03  0.17365045749E+04  0.25500000920E-02 0.  1.
       -2    1    3    3    0  502 -0.10726989981E+04 -0.13187050000E+04  0.37691878432E+03  0.17411874648E+04  0.25500000920E-02 0. -1.
</event>
<event>
 5   0  0.4775023E-08  0.3400505E+04  0.7818609E-02  0.8137783E-01
       -2   -1    0    0    0  501  0.00000000000E+00  0.00000000000E+00  0.18106569957E+04  0.18106569957E+04  0.25500000920E-02 0.  1.
        2   -1    0    0  501    0  0.00000000000E+00  0.00000000000E+00 -0.15965794528E+04  0.15965794528E+04  0.25500000920E-02 0. -1.
    10030    2    1    2    0    0  0.00000000000E+00  0.00000000000E+00  0.21407754294E+03  0.34072364485E+04  0.34005045246E+04 0.  0.
        4    1    3    3  502    0 -0.16431984837E+01 -0.10595058176E+04 -0.12253685043E+04  0.16199027322E+04  0.12699999809E+01 0. -1.
       -4    1    3    3    0  502  0.16431984837E+01  0.10595058176E+04  0.14394460473E+04  0.17873337163E+04  0.12699999809E+01 0.  1.
</event>
<event>
 5   0  0.4764953E-08  0.3405619E+04  0.7818609E-02  0.8136529E-01
       -2   -1    0    0    0  501  0.00000000000E+00  0.00000000000E+00  0.25776321128E+04  0.25776321128E+04  0.25500000920E-02 0. -1.
        2   -1    0    0  501    0  0.00000000000E+00  0.00000000000E+00 -0.11248927679E+04  0.11248927679E+04  0.25500000920E-02 0.  1.
    10030    2    1    2    0    0  0.00000000000E+00  0.00000000000E+00  0.14527393449E+04  0.37025248808E+04  0.34056187233E+04 0.  0.
        2    1    3    3  502    0  0.16797865347E+04  0.79594242555E+02  0.10171610451E+04  0.19653586536E+04  0.25500000920E-02 0. -1.
       -2    1    3    3    0  502 -0.16797865347E+04 -0.79594242555E+02  0.43557829972E+03  0.17371662271E+04  0.25500000920E-02 0.  1.
</event>
<event>
 5   0  0.1645631E-08  0.3399861E+04  0.7818609E-02  0.8137941E-01
       -1   -1    0    0    0  501  0.00000000000E+00  0.00000000000E+00  0.17857624396E+04  0.17857624396E+04  0.50400001928E-02 0. -1.
        1   -1    0    0  501    0  0.00000000000E+00  0.00000000000E+00 -0.16182235971E+04  0.16182235971E+04  0.50400001928E-02 0.  1.
    10030    2    1    2    0    0  0.00000000000E+00  0.00000000000E+00  0.16753884249E+03  0.34039860367E+04  0.33998605374E+04 0.  0.
        4    1    3    3  502    0  0.14228648909E+04  0.35409504810E+03  0.94494888524E+03  0.17443789180E+04  0.12699999809E+01 0. -1.
       -4    1    3    3    0  502 -0.14228648909E+04 -0.35409504810E+03 -0.77741004275E+03  0.16596071187E+04  0.12699999809E+01 0.  1.
</event>
<event>
 5   0  0.5001197E-08  0.3400900E+04  0.7818609E-02  0.8137685E-01
       -2   -1    0    0    0  501  0.00000000000E+00  0.00000000000E+00  0.14784681861E+04  0.14784681861E+04  0.25500000920E-02 0. -1.
        2   -1    0    0  501    0  0.00000000000E+00  0.00000000000E+00 -0.19557608225E+04  0.19557608225E+04  0.25500000920E-02 0.  1.
    10030    2    1    2    0    0  0.00000000000E+00  0.00000000000E+00 -0.47729263643E+03  0.34342290087E+04  0.34008999725E+04 0.  0.
        5    1    3    3  502    0 -0.66710602252E+03 -0.59161318284E+03 -0.17007557251E+04  0.19203199550E+04  0.46999998093E+01 0.  1.
       -5    1    3    3    0  502  0.66710602252E+03  0.59161318284E+03  0.12234630886E+04  0.15139090536E+04  0.46999998093E+01 0. -1.
</event>
<event>
 5   0  0.1595851E-08  0.3388201E+04  0.7818609E-02  0.8140808E-01
       -1   -1    0    0    0  501  0.00000000000E+00  0.00000000000E+00  0.16994161957E+04  0.16994161957E+04  0.50400001928E-02 0. -1.
        1   -1    0    0  501    0  0.00000000000E+00  0.00000000000E+00 -0.16888011466E+04  0.16888011466E+04  0.50400001928E-02 0.  1.
    10030    2    1    2    0    0  0.00000000000E+00  0.00000000000E+00  0.10615049103E+02  0.33882173423E+04  0.33882007142E+04 0.  0.
        2    1    3    3  502    0  0.28841527066E+03  0.16674573836E+04 -0.74558538223E+02  0.16938584563E+04  0.25500000920E-02 0. -1.
       -2    1    3    3    0  502 -0.28841527066E+03 -0.16674573836E+04  0.85173587326E+02  0.16943588860E+04  0.25500000920E-02 0.  1.
</event>
<event>
 5   0  0.1625282E-08  0.3399790E+04  0.7818609E-02  0.8137958E-01
        1   -1    0    0  501    0  0.00000000000E+00  0.00000000000E+00  0.92962257247E+03  0.92962257249E+03  0.50400001928E-02 0. -1.
       -1   -1    0    0    0  501  0.00000000000E+00  0.00000000000E+00 -0.31084042453E+04  0.31084042453E+04  0.50400001928E-02 0.  1.
    10030    2    1    2    0    0  0.00000000000E+00  0.00000000000E+00 -0.21787816728E+04  0.40380268178E+04  0.33997898469E+04 0.  0.
        1    1    3    3  502    0  0.94543292921E+03 -0.10667350647E+04  0.10701885470E+02  0.14254408624E+04  0.50400001928E-02 0. -1.
       -1    1    3    3    0  502 -0.94543292921E+03  0.10667350647E+04 -0.21894835583E+04  0.26125859553E+04  0.50400001928E-02 0.  1.
</event>
<event>
 5   0  0.1579536E-08  0.3400568E+04  0.7818609E-02  0.8137767E-01
       -1   -1    0    0    0  501  0.00000000000E+00  0.00000000000E+00  0.13746573280E+04  0.13746573280E+04  0.50400001928E-02 0.  1.
        1   -1    0    0  501    0  0.00000000000E+00  0.00000000000E+00 -0.21030449199E+04  0.21030449199E+04  0.50400001928E-02 0. -1.
    10030    2    1    2    0    0  0.00000000000E+00  0.00000000000E+00 -0.72838759187E+03  0.34777022479E+04  0.34005682527E+04 0.  0.
        5    1    3    3  502    0 -0.10946073181E+04  0.66892264688E+03 -0.15054459594E+04  0.19778807636E+04  0.46999998093E+01 0. -1.
       -5    1    3    3    0  502  0.10946073181E+04 -0.66892264688E+03  0.77705836749E+03  0.14998214843E+04  0.46999998093E+01 0.  1.
</event>
<event>
 5   0  0.1645631E-08  0.3399306E+04  0.7818609E-02  0.8138077E-01
       -1   -1    0    0    0  501  0.00000000000E+00  0.00000000000E+00  0.14778247655E+04  0.14778247655E+04  0.50400001928E-02 0. -1.
        1   -1    0    0  501    0  0.00000000000E+00  0.00000000000E+00 -0.19547787450E+04  0.19547787450E+04  0.50400001928E-02 0.  1.
    10030    2    1    2    0    0  0.00000000000E+00  0.00000000000E+00 -0.47695397943E+03  0.34326035105E+04  0.33993060706E+04 0.  0.
        4    1    3    3  502    0  0.12536297107E+04 -0.93211135444E+03  0.43770885818E+03  0.16223469684E+04  0.12699999809E+01 0. -1.
       -4    1    3    3    0  502 -0.12536297107E+04  0.93211135444E+03 -0.91466283761E+03  0.18102565420E+04  0.12699999809E+01 0.  1.
</event>
<event>
 5   0  0.4973409E-08  0.3405130E+04  0.7818609E-02  0.8136648E-01
       -2   -1    0    0    0  501  0.00000000000E+00  0.00000000000E+00  0.16558803959E+04  0.16558803959E+04  0.25500000920E-02 0. -1.
        2   -1    0    0  501    0  0.00000000000E+00  0.00000000000E+00 -0.17505661379E+04  0.17505661379E+04  0.25500000920E-02 0.  1.
    10030    2    1    2    0    0  0.00000000000E+00  0.00000000000E+00 -0.94685742052E+02  0.34064465338E+04  0.34051303350E+04 0.  0.
        1    1    3    3  502    0 -0.13993643252E+04  0.88225356163E+03  0.35547427679E+03  0.16920265432E+04  0.50400001928E-02 0. -1.
       -1    1    3    3    0  502  0.13993643252E+04 -0.88225356163E+03 -0.45016001884E+03  0.17144199906E+04  0.50400001928E-02 0.  1.
</event>
<event>
 5   0  0.1625282E-08  0.3397641E+04  0.7818609E-02  0.8138486E-01
        1   -1    0    0  501    0  0.00000000000E+00  0.00000000000E+00  0.16473027165E+04  0.16473027165E+04  0.50400001928E-02 0. -1.
       -1   -1    0    0    0  501  0.00000000000E+00  0.00000000000E+00 -0.17519491361E+04  0.17519491361E+04  0.50400001928E-02 0.  1.
    10030    2    1    2    0    0  0.00000000000E+00  0.00000000000E+00 -0.10464641958E+03  0.33992518526E+04  0.33976406938E+04 0.  0.
        1    1    3    3  502    0  0.16640817345E+04 -0.66763366297E+02 -0.38769136142E+03  0.17099502794E+04  0.50400001928E-02 0.  1.
       -1    1    3    3    0  502 -0.16640817345E+04  0.66763366297E+02  0.28304494183E+03  0.16893015732E+04  0.50400001928E-02 0. -1.
</event>
<event>
 5   0  0.4946315E-08  0.3400061E+04  0.7818609E-02  0.8137891E-01
        2   -1    0    0  501    0  0.00000000000E+00  0.00000000000E+00  0.15924933441E+04  0.15924933441E+04  0.25500000920E-02 0.  1.
       -2   -1    0    0    0  501  0.00000000000E+00  0.00000000000E+00 -0.18148292770E+04  0.18148292770E+04  0.25500000920E-02 0. -1.
    10030    2    1    2    0    0  0.00000000000E+00  0.00000000000E+00 -0.22233593289E+03  0.34073226211E+04  0.34000609079E+04 0.  0.
        3    1    3    3  502    0 -0.15515243265E+04 -0.67482160657E+03  0.54992058811E+02  0.16928189724E+04  0.10100000352E+00 0.  1.
       -3    1    3    3    0  502  0.15515243265E+04  0.67482160657E+03 -0.27732799170E+03  0.17145036488E+04  0.10100000352E+00 0. -1.
</event>
<event>
 5   0  0.4973409E-08  0.3397819E+04  0.7818609E-02  0.8138442E-01
        2   -1    0    0  501    0  0.00000000000E+00  0.00000000000E+00  0.17752848480E+04  0.17752848480E+04  0.25500000920E-02 0.  1.
       -2   -1    0    0    0  501  0.00000000000E+00  0.00000000000E+00 -0.16258198271E+04  0.16258198271E+04  0.25500000920E-02 0. -1.
    10030    2    1    2    0    0  0.00000000000E+00  0.00000000000E+00  0.14946502086E+03  0.34011046752E+04  0.33978188914E+04 0.  0.
        1    1    3    3  502    0 -0.88961336655E+03  0.12633268336E+04  0.78173464265E+03  0.17316222688E+04  0.50400001928E-02 0. -1.
       -1    1    3    3    0  502  0.88961336655E+03 -0.12633268336E+04 -0.63226962178E+03  0.16694824063E+04  0.50400001928E-02 0.  1.
</event>
<event>
 5   0  0.4973409E-08  0.3382263E+04  0.7818609E-02  0.8142273E-01
       -2   -1    0    0    0  501  0.00000000000E+00  0.00000000000E+00  0.18741615292E+04  0.18741615292E+04  0.25500000920E-02 0.  1.
        2   -1    0    0  501    0  0.00000000000E+00  0.00000000000E+00 -0.15259759804E+04  0.15259759804E+04  0.25500000920E-02 0. -1.
    10030    2    1    2    0    0  0.00000000000E+00  0.00000000000E+00  0.34818554879E+03  0.34001375097E+04  0.33822628384E+04 0.  0.
        1    1    3    3  502    0 -0.23987447214E+03  0.16032752937E+04 -0.31000593807E+03  0.16504954139E+04  0.50400001928E-02 0.  1.
       -1    1    3    3    0  502  0.23987447214E+03 -0.16032752937E+04  0.65819148687E+03  0.17496420957E+04  0.50400001928E-02 0. -1.
</event>
<event>
 5   0  0.5001197E-08  0.3399943E+04  0.7818609E-02  0.8137920E-01
       -2   -1    0    0    0  501  0.00000000000E+00  0.00000000000E+00  0.13584903118E+04  0.13584903118E+04  0.25500000920E-02 0. -1.
        2   -1    0    0  501    0  0.00000000000E+00  0.00000000000E+00 -0.21272895710E+04  0.21272895710E+04  0.25500000920E-02 0.  1.
    10030    2    1    2    0    0  0.00000000000E+00  0.00000000000E+00 -0.76879925919E+03  0.34857798828E+04  0.33999425128E+04 0.  0.
        5    1    3    3  502    0  0.71080740446E+03 -0.23322204706E+03 -0.19494515783E+04  0.20880668657E+04  0.46999998093E+01 0.  1.
       -5    1    3    3    0  502 -0.71080740446E+03  0.23322204706E+03  0.11806523191E+04  0.13977130171E+04  0.46999998093E+01 0. -1.
</event>
<event>
 5   0  0.1579536E-08  0.3398817E+04  0.7818609E-02  0.8138197E-01
       -1   -1    0    0    0  501  0.00000000000E+00  0.00000000000E+00  0.31203795573E+04  0.31203795573E+04  0.50400001928E-02 0.  1.
        1   -1    0    0  501    0  0.00000000000E+00  0.00000000000E+00 -0.92552509401E+03  0.92552509403E+03  0.50400001928E-02 0. -1.
    10030    2    1    2    0    0  0.00000000000E+00  0.00000000000E+00  0.21948544633E+04  0.40459046514E+04  0.33988171961E+04 0.  0.
        5    1    3    3  502    0 -0.12468058304E+04 -0.63332452603E+00 -0.27716837940E+03  0.12772507899E+04  0.46999998093E+01 0. -1.
       -5    1    3    3    0  502  0.12468058304E+04  0.63332452603E+00  0.24720228427E+04  0.27686538615E+04  0.46999998093E+01 0.  1.
</event>
<event>
 5   0  0.4946315E-08  0.3399457E+04  0.7818609E-02  0.8138039E-01
        2   -1    0    0  501    0  0.00000000000E+00  0.00000000000E+00  0.19986077084E+04  0.19986077084E+04  0.25500000920E-02 0.  1.
       -2   -1    0    0    0  501  0.00000000000E+00  0.00000000000E+00 -0.14455451693E+04  0.14455451693E+04  0.25500000920E-02 0. -1.
    10030    2    1    2    0    0  0.00000000000E+00  0.00000000000E+00  0.55306253909E+03  0.34441528777E+04  0.33994574380E+04 0.  0.
        3    1    3    3  502    0  0.69524451319E+03 -0.52165177249E+03 -0.12033556115E+04  0.14844360015E+04  0.10100000352E+00 0. -1.
       -3    1    3    3    0  502 -0.69524451319E+03  0.52165177249E+03  0.17564181506E+04  0.19597168761E+04  0.10100000352E+00 0.  1.
</event>
<event>
 5   0  0.1595851E-08  0.3400734E+04  0.7818609E-02  0.8137726E-01
        1   -1    0    0  501    0  0.00000000000E+00  0.00000000000E+00  0.30451150047E+04  0.30451150047E+04  0.50400001928E-02 0. -1.
       -1   -1    0    0    0  501  0.00000000000E+00  0.00000000000E+00 -0.94947086436E+03  0.94947086438E+03  0.50400001928E-02 0.  1.
    10030    2    1    2    0    0  0.00000000000E+00  0.00000000000E+00  0.20956441404E+04  0.39945858691E+04  0.34007340241E+04 0.  0.
        2    1    3    3  502    0 -0.67233847229E+03  0.76435381229E+03 -0.55198568588E+03  0.11579999867E+04  0.25500000920E-02 0.  1.
       -2    1    3    3    0  502  0.67233847229E+03 -0.76435381229E+03  0.26476298262E+04  0.28365858824E+04  0.25500000920E-02 0. -1.
</event>
<event>
 5   0  0.1625282E-08  0.3400209E+04  0.7818609E-02  0.8137855E-01
       -1   -1    0    0    0  501  0.00000000000E+00  0.00000000000E+00  0.16102557517E+04  0.16102557518E+04  0.50400001928E-02 0.  1.
        1   -1    0    0  501    0  0.00000000000E+00  0.00000000000E+00 -0.17949666915E+04  0.17949666916E+04  0.50400001928E-02 0. -1.
    10030    2    1    2    0    0  0.00000000000E+00  0.00000000000E+00 -0.18471093980E+03  0.34052224433E+04  0.34002090755E+04 0.  0.
        1    1    3    3  502    0  0.69609288608E+03 -0.69904590383E+03  0.12942960778E+04  0.16273944877E+04  0.50400001928E-02 0.  1.
       -1    1    3    3    0  502 -0.69609288608E+03  0.69904590383E+03 -0.14790070176E+04  0.17778279556E+04  0.50400001928E-02 0. -1.
</event>
<event>
 5   0  0.1630571E-08  0.3399662E+04  0.7818609E-02  0.8137989E-01
        1   -1    0    0  501    0  0.00000000000E+00  0.00000000000E+00  0.29638110330E+04  0.29638110330E+04  0.50400001928E-02 0. -1.
       -1   -1    0    0    0  501  0.00000000000E+00  0.00000000000E+00 -0.97490177764E+03  0.97490177765E+03  0.50400001928E-02 0.  1.
    10030    2    1    2    0    0  0.00000000000E+00  0.00000000000E+00  0.19889092554E+04  0.39387128107E+04  0.33996615389E+04 0.  0.
        3    1    3    3  502    0 -0.35502844863E+03  0.44102214472E+02  0.29196996149E+04  0.29415363428E+04  0.10100000352E+00 0. -1.
       -3    1    3    3    0  502  0.35502844863E+03 -0.44102214472E+02 -0.93079035947E+03  0.99717646790E+03  0.10100000352E+00 0.  1.
</event>
<event>
 5   0  0.1630571E-08  0.3399908E+04  0.7818609E-02  0.8137929E-01
       -1   -1    0    0    0  501  0.00000000000E+00  0.00000000000E+00  0.32228454801E+04  0.32228454801E+04  0.50400001928E-02 0. -1.
        1   -1    0    0  501    0  0.00000000000E+00  0.00000000000E+00 -0.89667459897E+03  0.89667459899E+03  0.50400001928E-02 0.  1.
    10030    2    1    2    0    0  0.00000000000E+00  0.00000000000E+00  0.23261708811E+04  0.41195200790E+04  0.33999080449E+04 0.  0.
        3    1    3    3  502    0  0.52435244871E+03 -0.15863599053E+04  0.15430907453E+04  0.22743377713E+04  0.10100000352E+00 0. -1.
       -3    1    3    3    0  502 -0.52435244871E+03  0.15863599053E+04  0.78308013579E+03  0.18451823077E+04  0.10100000352E+00 0.  1.
</event>
<event>
 5   0  0.4764953E-08  0.3402884E+04  0.7818609E-02  0.8137199E-01
       -2   -1    0    0    0  501  0.00000000000E+00  0.00000000000E+00  0.10722224493E+04  0.10722224493E+04  0.25500000920E-02 0. -1.
        2   -1    0    0  501    0  0.00000000000E+00  0.00000000000E+00 -0.26999108701E+04  0.26999108701E+04  0.25500000920E-02 0.  1.
    10030    2    1    2    0    0  0.00000000000E+00  0.00000000000E+00 -0.16276884208E+04  0.37721333193E+04  0.34028840979E+04 0.  0.
        2    1    3    3  502    0 -0.56765649184E+03  0.51147415058E+03  0.87133459825E+03  0.11589062436E+04  0.25500000920E-02 0. -1.
       -2    1    3    3    0  502  0.56765649184E+03 -0.51147415058E+03 -0.24990230190E+04  0.26132270757E+04  0.25500000920E-02 0.  1.
</event>
<event>
 5   0  0.1579536E-08  0.3398226E+04  0.7818609E-02  0.8138342E-01
        1   -1    0    0  501    0  0.00000000000E+00  0.00000000000E+00  0.11511102992E+04  0.11511102992E+04  0.50400001928E-02 0. -1.
       -1   -1    0    0    0  501  0.00000000000E+00  0.00000000000E+00 -0.25080002181E+04  0.25080002181E+04  0.50400001928E-02 0.  1.
    10030    2    1    2    0    0  0.00000000000E+00  0.00000000000E+00 -0.13568899189E+04  0.36591105173E+04  0.33982259380E+04 0.  0.
        5    1    3    3  502    0 -0.16384719216E+04 -0.23806131552E+03 -0.26743522866E+03  0.16771425459E+04  0.46999998093E+01 0.  1.
       -5    1    3    3    0  502  0.16384719216E+04  0.23806131552E+03 -0.10894546902E+04  0.19819679714E+04  0.46999998093E+01 0. -1.
</event>
<event>
 5   0  0.5001197E-08  0.3397954E+04  0.7818609E-02  0.8138409E-01
        2   -1    0    0  501    0  0.00000000000E+00  0.00000000000E+00  0.16034465615E+04  0.16034465615E+04  0.25500000920E-02 0. -1.
       -2   -1    0    0    0  501  0.00000000000E+00  0.00000000000E+00 -0.18001993940E+04  0.18001993940E+04  0.25500000920E-02 0.  1.
    10030    2    1    2    0    0  0.00000000000E+00  0.00000000000E+00 -0.19675283248E+03  0.34036459554E+04  0.33979544012E+04 0.  0.
        5    1    3    3  502    0 -0.10009265308E+04  0.13612452665E+04 -0.27660376580E+03  0.17121256756E+04  0.46999998093E+01 0. -1.
       -5    1    3    3    0  502  0.10009265308E+04 -0.13612452665E+04  0.79850933317E+02  0.16915202799E+04  0.46999998093E+01 0.  1.
</event>
<event>
 5   0  0.1595851E-08  0.3400337E+04  0.7818609E-02  0.8137824E-01
        1   -1    0    0  501    0  0.00000000000E+00  0.00000000000E+00  0.20832782411E+04  0.20832782411E+04  0.50400001928E-02 0. -1.
       -1   -1    0    0    0  501  0.00000000000E+00  0.00000000000E+00 -0.13875115302E+04  0.13875115302E+04  0.50400001928E-02 0.  1.
    10030    2    1    2    0    0  0.00000000000E+00  0.00000000000E+00  0.69576671086E+03  0.34707897713E+04  0.34003367951E+04 0.  0.
        2    1    3    3  502    0 -0.82739064939E+03 -0.23570832102E+03  0.18447045558E+04  0.20354529220E+04  0.25500000920E-02 0. -1.
       -2    1    3    3    0  502  0.82739064939E+03  0.23570832102E+03 -0.11489378450E+04  0.14353368493E+04  0.25500000920E-02 0.  1.
</event>
<event>
 5   0  0.1595851E-08  0.3399097E+04  0.7818609E-02  0.8138128E-01
       -1   -1    0    0    0  501  0.00000000000E+00  0.00000000000E+00  0.14789207046E+04  0.14789207046E+04  0.50400001928E-02 0. -1.
        1   -1    0    0  501    0  0.00000000000E+00  0.00000000000E+00 -0.19530893984E+04  0.19530893984E+04  0.50400001928E-02 0.  1.
    10030    2    1    2    0    0  0.00000000000E+00  0.00000000000E+00 -0.47416869380E+03  0.34320101030E+04  0.33990965559E+04 0.  0.
        2    1    3    3  502    0 -0.16713330610E+04 -0.23140547580E+03 -0.31243543418E+02  0.16875659554E+04  0.25500000920E-02 0. -1.
       -2    1    3    3    0  502  0.16713330610E+04  0.23140547580E+03 -0.44292515039E+03  0.17444441475E+04  0.25500000920E-02 0.  1.
</event>
<event>
 5   0  0.1625282E-08  0.3399892E+04  0.7818609E-02  0.8137933E-01
       -1   -1    0    0    0  501  0.00000000000E+00  0.00000000000E+00  0.15986590601E+04  0.15986590601E+04  0.50400001928E-02 0.  1.
        1   -1    0    0  501    0  0.00000000000E+00  0.00000000000E+00 -0.18076498044E+04  0.18076498044E+04  0.50400001928E-02 0. -1.
    10030    2    1    2    0    0  0.00000000000E+00  0.00000000000E+00 -0.20899074427E+03  0.34063088645E+04  0.33998916085E+04 0.  0.
        1    1    3    3  502    0 -0.33878457709E+03  0.15966557785E+04  0.37151303791E+03  0.16739494025E+04  0.50400001928E-02 0.  1.
       -1    1    3    3    0  502  0.33878457709E+03 -0.15966557785E+04 -0.58050378218E+03  0.17323594621E+04  0.50400001928E-02 0. -1.
</event>
<event>
 5   0  0.1595851E-08  0.3399502E+04  0.7818609E-02  0.8138029E-01
       -1   -1    0    0    0  501  0.00000000000E+00  0.00000000000E+00  0.88662996457E+03  0.88662996458E+03  0.50400001928E-02 0. -1.
        1   -1    0    0  501    0  0.00000000000E+00  0.00000000000E+00 -0.32585779569E+04  0.32585779569E+04  0.50400001928E-02 0.  1.
    10030    2    1    2    0    0  0.00000000000E+00  0.00000000000E+00 -0.23719479923E+04  0.41452079215E+04  0.33995016449E+04 0.  0.
        2    1    3    3  502    0 -0.13565458626E+04 -0.94071152428E+03 -0.16797731619E+04  0.23551629933E+04  0.25500000920E-02 0.  1.
       -2    1    3    3    0  502  0.13565458626E+04  0.94071152428E+03 -0.69217483038E+03  0.17900449282E+04  0.25500000920E-02 0. -1.
</event>
<event>
 5   0  0.4973409E-08  0.3401580E+04  0.7818609E-02  0.8137519E-01
       -2   -1    0    0    0  501  0.00000000000E+00  0.00000000000E+00  0.16024159024E+04  0.16024159024E+04  0.25500000920E-02 0. -1.
        2   -1    0    0  501    0  0.00000000000E+00  0.00000000000E+00 -0.18052032988E+04  0.18052032988E+04  0.25500000920E-02 0.  1.
    10030    2    1    2    0    0  0.00000000000E+00  0.00000000000E+00 -0.20278739634E+03  0.34076192012E+04  0.34015799112E+04 0.  0.
        1    1    3    3  502    0  0.12292413180E+04  0.18348949361E+03  0.10616947036E+04  0.16345942174E+04  0.50400001928E-02 0. -1.
       -1    1    3    3    0  502 -0.12292413180E+04 -0.18348949361E+03 -0.12644820999E+04  0.17730249838E+04  0.50400001928E-02 0.  1.
</event>
<event>
 5   0  0.4973409E-08  0.3399035E+04  0.7818609E-02  0.8138143E-01
        2   -1    0    0  501    0  0.00000000000E+00  0.00000000000E+00  0.25988839615E+04  0.25988839615E+04  0.25500000920E-02 0. -1.
       -2   -1    0    0    0  501  0.00000000000E+00  0.00000000000E+00 -0.11113845142E+04  0.11113845142E+04  0.25500000920E-02 0.  1.
    10030    2    1    2    0    0  0.00000000000E+00  0.00000000000E+00  0.14874994473E+04  0.37102684758E+04  0.33990347978E+04 0.  0.
        1    1    3    3  502    0 -0.10926453457E+04 -0.12507634680E+04  0.35006479657E+03  0.16973003465E+04  0.50400001928E-02 0.  1.
       -1    1    3    3    0  502  0.10926453457E+04  0.12507634680E+04  0.11374346507E+04  0.20129681292E+04  0.50400001928E-02 0. -1.
</event>
<event>
 5   0  0.1573625E-08  0.3397387E+04  0.7818609E-02  0.8138548E-01
        3   -1    0    0  501    0  0.00000000000E+00  0.00000000000E+00  0.12264268657E+04  0.12264268698E+04  0.10100000352E+00 0.  1.
       -3   -1    0    0    0  501  0.00000000000E+00  0.00000000000E+00 -0.23528187248E+04  0.23528187270E+04  0.10100000352E+00 0. -1.
    10030    2    1    2    0    0  0.00000000000E+00  0.00000000000E+00 -0.11263918591E+04  0.35792455968E+04  0.33973872935E+04 0.  0.
        5    1    3    3  502    0 -0.26176419613E+03 -0.72953365363E+03 -0.21556626394E+04  0.22907735268E+04  0.46999998093E+01 0. -1.
       -5    1    3    3    0  502  0.26176419613E+03  0.72953365363E+03  0.10292707802E+04  0.12884720700E+04  0.46999998093E+01 0.  1.
</event>
<event>
 5   0  0.1645631E-08  0.3400863E+04  0.7818609E-02  0.8137695E-01
        1   -1    0    0  501    0  0.00000000000E+00  0.00000000000E+00  0.21443030803E+04  0.21443030803E+04  0.50400001928E-02 0.  1.
       -1   -1    0    0    0  501  0.00000000000E+00  0.00000000000E+00 -0.13484411427E+04  0.13484411428E+04  0.50400001928E-02 0. -1.
    10030    2    1    2    0    0  0.00000000000E+00  0.00000000000E+00  0.79586193759E+03  0.34927442231E+04  0.34008625353E+04 0.  0.
        4    1    3    3  502    0 -0.14061926663E+04  0.93997002696E+03  0.57741942156E+03  0.17872706196E+04  0.12699999809E+01 0.  1.
       -4    1    3    3    0  502  0.14061926663E+04 -0.93997002696E+03  0.21844251603E+03  0.17054736035E+04  0.12699999809E+01 0. -1.
</event>
<event>
 5   0  0.5001197E-08  0.3400287E+04  0.7818609E-02  0.8137836E-01
       -2   -1    0    0    0  501  0.00000000000E+00  0.00000000000E+00  0.11486166719E+04  0.11486166719E+04  0.25500000920E-02 0.  1.
        2   -1    0    0  501    0  0.00000000000E+00  0.00000000000E+00 -0.25164940979E+04  0.25164940979E+04  0.25500000920E-02 0. -1.
    10030    2    1    2    0    0  0.00000000000E+00  0.00000000000E+00 -0.13678774260E+04  0.36651107698E+04  0.34002865030E+04 0.  0.
        5    1    3    3  502    0  0.16647436252E+04 -0.32570514018E+03 -0.56099479071E+03  0.17866707646E+04  0.46999998093E+01 0.  1.
       -5    1    3    3    0  502 -0.16647436252E+04  0.32570514018E+03 -0.80688263533E+03  0.18784400052E+04  0.46999998093E+01 0. -1.
</event>
<event>
 5   0  0.1579536E-08  0.3401353E+04  0.7818609E-02  0.8137574E-01
        1   -1    0    0  501    0  0.00000000000E+00  0.00000000000E+00  0.18913035038E+04  0.18913035038E+04  0.50400001928E-02 0.  1.
       -1   -1    0    0    0  501  0.00000000000E+00  0.00000000000E+00 -0.15292634345E+04  0.15292634345E+04  0.50400001928E-02 0. -1.
    10030    2    1    2    0    0  0.00000000000E+00  0.00000000000E+00  0.36204006933E+03  0.34205669384E+04  0.34013534318E+04 0.  0.
        5    1    3    3  502    0 -0.14954854048E+04  0.72772731514E+01  0.99537803092E+03  0.17964768490E+04  0.46999998093E+01 0.  1.
       -5    1    3    3    0  502  0.14954854048E+04 -0.72772731514E+01 -0.63333796159E+03  0.16240900893E+04  0.46999998093E+01 0. -1.
</event>
<event>
 5   0  0.1595851E-08  0.3400016E+04  0.7818609E-02  0.8137902E-01
        1   -1    0    0  501    0  0.00000000000E+00  0.00000000000E+00  0.16586019038E+04  0.16586019038E+04  0.50400001928E-02 0.  1.
       -1   -1    0    0    0  501  0.00000000000E+00  0.00000000000E+00 -0.17424475281E+04  0.17424475281E+04  0.50400001928E-02 0. -1.
    10030    2    1    2    0    0  0.00000000000E+00  0.00000000000E+00 -0.83845624334E+02  0.34010494319E+04  0.34000157572E+04 0.  0.
        2    1    3    3  502    0  0.50728957943E+02  0.10129136564E+04 -0.14066906681E+04  0.17341701584E+04  0.25500000920E-02 0. -1.
       -2    1    3    3    0  502 -0.50728957943E+02 -0.10129136564E+04  0.13228450438E+04  0.16668792735E+04  0.25500000920E-02 0.  1.
</event>
<event>
 5   0  0.5001197E-08  0.3398666E+04  0.7818609E-02  0.8138234E-01
       -2   -1    0    0    0  501  0.00000000000E+00  0.00000000000E+00  0.24632499260E+04  0.24632499260E+04  0.25500000920E-02 0. -1.
        2   -1    0    0  501    0  0.00000000000E+00  0.00000000000E+00 -0.11723263500E+04  0.11723263500E+04  0.25500000920E-02 0.  1.
    10030    2    1    2    0    0  0.00000000000E+00  0.00000000000E+00  0.12909235760E+04  0.36355762761E+04  0.33986660883E+04 0.  0.
        5    1    3    3  502    0  0.15863078898E+04 -0.60066924851E+03  0.75525372423E+03  0.18567731539E+04  0.46999998093E+01 0. -1.
       -5    1    3    3    0  502 -0.15863078898E+04  0.60066924851E+03  0.53566985180E+03  0.17788031221E+04  0.46999998093E+01 0.  1.
</event>
<event>
 5   0  0.4973409E-08  0.3399138E+04  0.7818609E-02  0.8138118E-01
        2   -1    0    0  501    0  0.00000000000E+00  0.00000000000E+00  0.17842309191E+04  0.17842309191E+04  0.25500000920E-02 0. -1.
       -2   -1    0    0    0  501  0.00000000000E+00  0.00000000000E+00 -0.16189241367E+04  0.16189241367E+04  0.25500000920E-02 0.  1.
    10030    2    1    2    0    0  0.00000000000E+00  0.00000000000E+00  0.16530678241E+03  0.34031550558E+04  0.33991378321E+04 0.  0.
        1    1    3    3  502    0  0.75349955944E+02 -0.64431362569E+03 -0.14900999768E+04  0.16251817145E+04  0.50400001928E-02 0.  1.
       -1    1    3    3    0  502 -0.75349955944E+02  0.64431362569E+03  0.16554067592E+04  0.17779733414E+04  0.50400001928E-02 0. -1.
</event>
<event>
 5   0  0.1595851E-08  0.3400148E+04  0.7818609E-02  0.8137870E-01
        1   -1    0    0  501    0  0.00000000000E+00  0.00000000000E+00  0.15540933259E+04  0.15540933259E+04  0.50400001928E-02 0. -1.
       -1   -1    0    0    0  501  0.00000000000E+00  0.00000000000E+00 -0.18597667322E+04  0.18597667322E+04  0.50400001928E-02 0.  1.
    10030    2    1    2    0    0  0.00000000000E+00  0.00000000000E+00 -0.30567340631E+03  0.34138600581E+04  0.34001476828E+04 0.  0.
        2    1    3    3  502    0  0.45082210261E+03 -0.10248821582E+04 -0.14373032489E+04  0.18219398003E+04  0.25500000920E-02 0.  1.
       -2    1    3    3    0  502 -0.45082210261E+03  0.10248821582E+04  0.11316298426E+04  0.15919202578E+04  0.25500000920E-02 0. -1.
</event>
<event>
 5   0  0.1579536E-08  0.3399941E+04  0.7818609E-02  0.8137921E-01
        1   -1    0    0  501    0  0.00000000000E+00  0.00000000000E+00  0.23170904511E+04  0.23170904511E+04  0.50400001928E-02 0. -1.
       -1   -1    0    0    0  501  0.00000000000E+00  0.00000000000E+00 -0.12472107726E+04  0.12472107726E+04  0.50400001928E-02 0.  1.
    10030    2    1    2    0    0  0.00000000000E+00  0.00000000000E+00  0.10698796785E+04  0.35643012237E+04  0.33999412770E+04 0.  0.
        5    1    3    3  502    0  0.12521740482E+04 -0.11496659964E+04  0.51988120010E+03  0.17776305304E+04  0.46999998093E+01 0. -1.
       -5    1    3    3    0  502 -0.12521740482E+04  0.11496659964E+04  0.54999847837E+03  0.17866706933E+04  0.46999998093E+01 0.  1.
</event>
<event>
 5   0  0.1630571E-08  0.3400253E+04  0.7818609E-02  0.8137844E-01
        1   -1    0    0  501    0  0.00000000000E+00  0.00000000000E+00  0.20635505489E+04  0.20635505489E+04  0.50400001928E-02 0.  1.
       -1   -1    0    0    0  501  0.00000000000E+00  0.00000000000E+00 -0.14007070612E+04  0.14007070612E+04  0.50400001928E-02 0. -1.
    10030    2    1    2    0    0  0.00000000000E+00  0.00000000000E+00  0.66284348769E+03  0.34642576101E+04  0.34002528288E+04 0.  0.
        3    1    3    3  502    0  0.11193322059E+04 -0.42466497587E+03 -0.89844001571E+03  0.14968097411E+04  0.10100000352E+00 0. -1.
       -3    1    3    3    0  502 -0.11193322059E+04  0.42466497587E+03  0.15612835034E+04  0.19674478690E+04  0.10100000352E+00 0.  1.
</event>
<event>
 5   0  0.1630571E-08  0.3398940E+04  0.7818609E-02  0.8138167E-01
       -1   -1    0    0    0  501  0.00000000000E+00  0.00000000000E+00  0.14297233317E+04  0.14297233317E+04  0.50400001928E-02 0. -1.
        1   -1    0    0  501    0  0.00000000000E+00  0.00000000000E+00 -0.20201100032E+04  0.20201100032E+04  0.50400001928E-02 0.  1.
    10030    2    1    2    0    0  0.00000000000E+00  0.00000000000E+00 -0.59038667148E+03  0.34498333349E+04  0.33989400725E+04 0.  0.
        3    1    3    3  502    0 -0.98893067446E+03 -0.11640750152E+04  0.46104272520E+03  0.15954983311E+04  0.10100000352E+00 0. -1.
       -3    1    3    3    0  502  0.98893067446E+03  0.11640750152E+04 -0.10514293967E+04  0.18543350038E+04  0.10100000352E+00 0.  1.
</event>
<event>
 5   0  0.1579536E-08  0.3397983E+04  0.7818609E-02  0.8138402E-01
       -1   -1    0    0    0  501  0.00000000000E+00  0.00000000000E+00  0.13506655161E+04  0.13506655161E+04  0.50400001928E-02 0.  1.
        1   -1    0    0  501    0  0.00000000000E+00  0.00000000000E+00 -0.21371479199E+04  0.21371479199E+04  0.50400001928E-02 0. -1.
    10030    2    1    2    0    0  0.00000000000E+00  0.00000000000E+00 -0.78648240381E+03  0.34878134360E+04  0.33979829301E+04 0.  0.
        5    1    3    3  502    0  0.13189707140E+04  0.95814225469E+02 -0.14880624610E+04  0.19907827828E+04  0.46999998093E+01 0. -1.
       -5    1    3    3    0  502 -0.13189707140E+04 -0.95814225469E+02  0.70158005721E+03  0.14970306533E+04  0.46999998093E+01 0.  1.
</event>
<event>
 5   0  0.1645631E-08  0.3403105E+04  0.7818609E-02  0.8137145E-01
        1   -1    0    0  501    0  0.00000000000E+00  0.00000000000E+00  0.19334019546E+04  0.19334019546E+04  0.50400001928E-02 0.  1.
       -1   -1    0    0    0  501  0.00000000000E+00  0.00000000000E+00 -0.14975055545E+04  0.14975055545E+04  0.50400001928E-02 0. -1.
    10030    2    1    2    0    0  0.00000000000E+00  0.00000000000E+00  0.43589640006E+03  0.34309075091E+04  0.34031045626E+04 0.  0.
        4    1    3    3  502    0 -0.16359240885E+04  0.80347524960E+02 -0.24687738075E+03  0.16563977186E+04  0.12699999809E+01 0. -1.
       -4    1    3    3    0  502  0.16359240885E+04 -0.80347524960E+02  0.68277378081E+03  0.17745097905E+04  0.12699999809E+01 0.  1.
</event>
<event>
 5   0  0.1579536E-08  0.3394511E+04  0.7818609E-02  0.8139255E-01
       -1   -1    0    0    0  501  0.00000000000E+00  0.00000000000E+00  0.18302328010E+04  0.18302328010E+04  0.50400001928E-02 0. -1.
        1   -1    0    0  501    0  0.00000000000E+00  0.00000000000E+00 -0.15739399734E+04  0.15739399734E+04  0.50400001928E-02 0.  1.
    10030    2    1    2    0    0  0.00000000000E+00  0.00000000000E+00  0.25629282758E+03  0.34041727745E+04  0.33945111968E+04 0.  0.
        5    1    3    3  502    0  0.15101657831E+03  0.39530088109E+03  0.17764747384E+04  0.18261854724E+04  0.46999998093E+01 0. -1.
       -5    1    3    3    0  502 -0.15101657831E+03 -0.39530088109E+03 -0.15201819108E+04  0.15779873021E+04  0.46999998093E+01 0.  1.
</event>
<event>
 5   0  0.4775023E-08  0.3400026E+04  0.7818609E-02  0.8137900E-01
       -2   -1    0    0    0  501  0.00000000000E+00  0.00000000000E+00  0.18166622298E+04  0.18166622298E+04  0.25500000920E-02 0.  1.
        2   -1    0    0  501    0  0.00000000000E+00  0.00000000000E+00 -0.15908537354E+04  0.15908537354E+04  0.25500000920E-02 0. -1.
    10030    2    1    2    0    0  0.00000000000E+00  0.00000000000E+00  0.22580849445E+03  0.34075159652E+04  0.34000258201E+04 0.  0.
        4    1    3    3  502    0  0.14160914264E+04  0.11190848014E+03  0.10488801825E+04  0.17657830234E+04  0.12699999809E+01 0.  1.
       -4    1    3    3    0  502 -0.14160914264E+04 -0.11190848014E+03 -0.82307168801E+03  0.16417329418E+04  0.12699999809E+01 0. -1.
</event>
<event>
 5   0  0.1579536E-08  0.3400385E+04  0.7818609E-02  0.8137812E-01
       -1   -1    0    0    0  501  0.00000000000E+00  0.00000000000E+00  0.17747204416E+04  0.17747204416E+04  0.50400001928E-02 0. -1.
        1   -1    0    0  501    0  0.00000000000E+00  0.00000000000E+00 -0.16287944881E+04  0.16287944881E+04  0.50400001928E-02 0.  1.
    10030    2    1    2    0    0  0.00000000000E+00  0.00000000000E+00  0.14592595358E+03  0.34035149297E+04  0.34003851977E+04 0.  0.
        5    1    3    3  502    0 -0.76589024868E+03 -0.11696199410E+04  0.10413420130E+04  0.17432767874E+04  0.46999998093E+01 0. -1.
       -5    1    3    3    0  502  0.76589024868E+03  0.11696199410E+04 -0.89541605946E+03  0.16602381423E+04  0.46999998093E+01 0.  1.
</event>
<event>
 5   0  0.4946315E-08  0.3400191E+04  0.7818609E-02  0.8137859E-01
        2   -1    0    0  501    0  0.00000000000E+00  0.00000000000E+00  0.17298761887E+04  0.17298761887E+04  0.25500000920E-02 0.  1.
       -2   -1    0    0    0  501  0.00000000000E+00  0.00000000000E+00 -0.16708274170E+04  0.16708274170E+04  0.25500000920E-02 0. -1.
    10030    2    1    2    0    0  0.00000000000E+00  0.00000000000E+00  0.59048771699E+02  0.34007036057E+04  0.34001909147E+04 0.  0.
        3    1    3    3  502    0  0.15988055412E+04  0.10574427674E+03  0.59790889076E+03  0.17102210566E+04  0.10100000352E+00 0.  1.
       -3    1    3    3    0  502 -0.15988055412E+04 -0.10574427674E+03 -0.53886011906E+03  0.16904825491E+04  0.10100000352E+00 0. -1.
</event>
<event>
 5   0  0.4946315E-08  0.3400448E+04  0.7818609E-02  0.8137796E-01
        2   -1    0    0  501    0  0.00000000000E+00  0.00000000000E+00  0.16995271863E+04  0.16995271863E+04  0.25500000920E-02 0.  1.
       -2   -1    0    0    0  501  0.00000000000E+00  0.00000000000E+00 -0.17009212029E+04  0.17009212029E+04  0.25500000920E-02 0. -1.
    10030    2    1    2    0    0  0.00000000000E+00  0.00000000000E+00 -0.13940166626E+01  0.34004483892E+04  0.34004481035E+04 0.  0.
        3    1    3    3  502    0 -0.14767200250E+04 -0.28005949795E+03  0.79405236569E+03  0.16998983864E+04  0.10100000352E+00 0.  1.
       -3    1    3    3    0  502  0.14767200250E+04  0.28005949795E+03 -0.79544638235E+03  0.17005500028E+04  0.10100000352E+00 0. -1.
</event>
<event>
 5   0  0.1595851E-08  0.3400936E+04  0.7818609E-02  0.8137677E-01
        1   -1    0    0  501    0  0.00000000000E+00  0.00000000000E+00  0.15606581585E+04  0.15606581585E+04  0.50400001928E-02 0.  1.
       -1   -1    0    0    0  501  0.00000000000E+00  0.00000000000E+00 -0.18528030101E+04  0.18528030101E+04  0.50400001928E-02 0. -1.
    10030    2    1    2    0    0  0.00000000000E+00  0.00000000000E+00 -0.29214485167E+03  0.34134611686E+04  0.34009364203E+04 0.  0.
        2    1    3    3  502    0 -0.23370125072E+02  0.16630895348E+04  0.20903723548E+03  0.16763381309E+04  0.25500000920E-02 0. -1.
       -2    1    3    3    0  502  0.23370125072E+02 -0.16630895348E+04 -0.50118208715E+03  0.17371230377E+04  0.25500000920E-02 0.  1.
</event>
<event>
 5   0  0.5001197E-08  0.3399764E+04  0.7818609E-02  0.8137964E-01
       -2   -1    0    0    0  501  0.00000000000E+00  0.00000000000E+00  0.15325849007E+04  0.15325849007E+04  0.25500000920E-02 0. -1.
        2   -1    0    0  501    0  0.00000000000E+00  0.00000000000E+00 -0.18854412337E+04  0.18854412337E+04  0.25500000920E-02 0.  1.
    10030    2    1    2    0    0  0.00000000000E+00  0.00000000000E+00 -0.35285633301E+03  0.34180261345E+04  0.33997639718E+04 0.  0.
        5    1    3    3  502    0 -0.15090930228E+04 -0.65367384286E+03  0.25591134992E+03  0.16643809520E+04  0.46999998093E+01 0. -1.
       -5    1    3    3    0  502  0.15090930228E+04  0.65367384286E+03 -0.60876768293E+03  0.17536451825E+04  0.46999998093E+01 0.  1.
</event>
<event>
 5   0  0.1579536E-08  0.3399277E+04  0.7818609E-02  0.8138084E-01
       -1   -1    0    0    0  501  0.00000000000E+00  0.00000000000E+00  0.14248136230E+04  0.14248136230E+04  0.50400001928E-02 0.  1.
        1   -1    0    0  501    0  0.00000000000E+00  0.00000000000E+00 -0.20274728414E+04  0.20274728414E+04  0.50400001928E-02 0. -1.
    10030    2    1    2    0    0  0.00000000000E+00  0.00000000000E+00 -0.60265921837E+03  0.34522864644E+04  0.33992769376E+04 0.  0.
        5    1    3    3  502    0 -0.76029299014E+02 -0.16031964687E+04  0.26661329430E+03  0.16269984973E+04  0.46999998093E+01 0. -1.
       -5    1    3    3    0  502  0.76029299014E+02  0.16031964687E+04 -0.86927251267E+03  0.18252879671E+04  0.46999998093E+01 0.  1.
</event>
<event>
 5   0  0.1595851E-08  0.3398819E+04  0.7818609E-02  0.8138196E-01
        1   -1    0    0  501    0  0.00000000000E+00  0.00000000000E+00  0.19210110108E+04  0.19210110109E+04  0.50400001928E-02 0.  1.
       -1   -1    0    0    0  501  0.00000000000E+00  0.00000000000E+00 -0.15033710117E+04  0.15033710117E+04  0.50400001928E-02 0. -1.
    10030    2    1    2    0    0  0.00000000000E+00  0.00000000000E+00  0.41763999915E+03  0.34243820226E+04  0.33988187753E+04 0.  0.
        2    1    3    3  502    0  0.84912901008E+03  0.50699850923E+03  0.16012145751E+04  0.18820084164E+04  0.25500000920E-02 0.  1.
       -2    1    3    3    0  502 -0.84912901008E+03 -0.50699850923E+03 -0.11835745759E+04  0.15423736061E+04  0.25500000920E-02 0. -1.
</event>
<event>
 5   0  0.5001197E-08  0.3400090E+04  0.7818609E-02  0.8137884E-01
       -2   -1    0    0    0  501  0.00000000000E+00  0.00000000000E+00  0.18087653998E+04  0.18087653998E+04  0.25500000920E-02 0. -1.
        2   -1    0    0  501    0  0.00000000000E+00  0.00000000000E+00 -0.15978594072E+04  0.15978594072E+04  0.25500000920E-02 0.  1.
    10030    2    1    2    0    0  0.00000000000E+00  0.00000000000E+00  0.21090599268E+03  0.34066248070E+04  0.34000898867E+04 0.  0.
        5    1    3    3  502    0  0.95481288745E+03 -0.11085392620E+04  0.97291365648E+03  0.17570173643E+04  0.46999998093E+01 0. -1.
       -5    1    3    3    0  502 -0.95481288745E+03  0.11085392620E+04 -0.76200766380E+03  0.16496074427E+04  0.46999998093E+01 0.  1.
</event>
<event>
 5   0  0.4973409E-08  0.3399339E+04  0.7818609E-02  0.8138069E-01
       -2   -1    0    0    0  501  0.00000000000E+00  0.00000000000E+00  0.29453999544E+04  0.29453999544E+04  0.25500000920E-02 0.  1.
        2   -1    0    0  501    0  0.00000000000E+00  0.00000000000E+00 -0.98080968478E+03  0.98080968478E+03  0.25500000920E-02 0. -1.
    10030    2    1    2    0    0  0.00000000000E+00  0.00000000000E+00  0.19645902697E+04  0.39262096392E+04  0.33993392304E+04 0.  0.
        1    1    3    3  502    0 -0.43456515903E+03 -0.35258503357E+02 -0.91512394848E+03  0.10136774046E+04  0.50400001928E-02 0. -1.
       -1    1    3    3    0  502  0.43456515903E+03  0.35258503357E+02  0.28797142181E+04  0.29125322346E+04  0.50400001928E-02 0.  1.
</event>
<event>
 5   0  0.1595851E-08  0.3401291E+04  0.7818609E-02  0.8137590E-01
        1   -1    0    0  501    0  0.00000000000E+00  0.00000000000E+00  0.16157082230E+04  0.16157082230E+04  0.50400001928E-02 0. -1.
       -1   -1    0    0    0  501  0.00000000000E+00  0.00000000000E+00 -0.17900476823E+04  0.17900476824E+04  0.50400001928E-02 0.  1.
    10030    2    1    2    0    0  0.00000000000E+00  0.00000000000E+00 -0.17433945940E+03  0.34057559053E+04  0.34012907902E+04 0.  0.
        2    1    3    3  502    0 -0.15754799648E+03 -0.16126407886E+04 -0.60433888274E+03  0.17293516616E+04  0.25500000920E-02 0. -1.
       -2    1    3    3    0  502  0.15754799648E+03  0.16126407886E+04  0.42999942335E+03  0.16764042437E+04  0.25500000920E-02 0.  1.
</event>
<event>
 5   0  0.4973409E-08  0.3399364E+04  0.7818609E-02  0.8138062E-01
        2   -1    0    0  501    0  0.00000000000E+00  0.00000000000E+00  0.12815059136E+04  0.12815059136E+04  0.25500000920E-02 0.  1.
       -2   -1    0    0    0  501  0.00000000000E+00  0.00000000000E+00 -0.22543159960E+04  0.22543159960E+04  0.25500000920E-02 0. -1.
    10030    2    1    2    0    0  0.00000000000E+00  0.00000000000E+00 -0.97281008231E+03  0.35358219096E+04  0.33993642229E+04 0.  0.
        1    1    3    3  502    0  0.12030979667E+04  0.12003937613E+04 -0.51033691232E+03  0.17744953265E+04  0.50400001928E-02 0.  1.
       -1    1    3    3    0  502 -0.12030979667E+04 -0.12003937613E+04 -0.46247317000E+03  0.17613265831E+04  0.50400001928E-02 0. -1.
</event>
<event>
 5   0  0.1645631E-08  0.3399552E+04  0.7818609E-02  0.8138016E-01
        1   -1    0    0  501    0  0.00000000000E+00  0.00000000000E+00  0.18845896429E+04  0.18845896429E+04  0.50400001928E-02 0. -1.
       -1   -1    0    0    0  501  0.00000000000E+00  0.00000000000E+00 -0.15330861066E+04  0.15330861066E+04  0.50400001928E-02 0.  1.
    10030    2    1    2    0    0  0.00000000000E+00  0.00000000000E+00  0.35150353629E+03  0.34176757495E+04  0.33995518517E+04 0.  0.
        4    1    3    3  502    0 -0.12936502933E+04 -0.94571589951E+03  0.74563090419E+03  0.17674492078E+04  0.12699999809E+01 0. -1.
       -4    1    3    3    0  502  0.12936502933E+04  0.94571589951E+03 -0.39412736790E+03  0.16502265417E+04  0.12699999809E+01 0.  1.
</event>
<event>
 5   0  0.4946315E-08  0.3400870E+04  0.7818609E-02  0.8137693E-01
       -2   -1    0    0    0  501  0.00000000000E+00  0.00000000000E+00  0.10848522018E+04  0.10848522018E+04  0.25500000920E-02 0.  1.
        2   -1    0    0  501    0  0.00000000000E+00  0.00000000000E+00 -0.26653205248E+04  0.26653205248E+04  0.25500000920E-02 0. -1.
    10030    2    1    2    0    0  0.00000000000E+00  0.00000000000E+00 -0.15804683230E+04  0.37501727266E+04  0.34008697946E+04 0.  0.
        3    1    3    3  502    0 -0.10059147536E+04  0.13396749640E+04 -0.46895867919E+03  0.17396884071E+04  0.10100000352E+00 0.  1.
       -3    1    3    3    0  502  0.10059147536E+04 -0.13396749640E+04 -0.11115096438E+04  0.20104843196E+04  0.10100000352E+00 0. -1.
</event>
<event>
 5   0  0.1645631E-08  0.3399828E+04  0.7818609E-02  0.8137949E-01
        1   -1    0    0  501    0  0.00000000000E+00  0.00000000000E+00  0.17001878724E+04  0.17001878724E+04  0.50400001928E-02 0. -1.
       -1   -1    0    0    0  501  0.00000000000E+00  0.00000000000E+00 -0.16996397977E+04  0.16996397977E+04  0.50400001928E-02 0.  1.
    10030    2    1    2    0    0  0.00000000000E+00  0.00000000000E+00  0.54807468624E+00  0.33998276702E+04  0.33998276260E+04 0.  0.
        4    1    3    3  502    0 -0.65561245915E+03  0.14805224043E+04 -0.51734655683E+03  0.16998303912E+04  0.12699999809E+01 0.  1.
       -4    1    3    3    0  502  0.65561245915E+03 -0.14805224043E+04  0.51789463151E+03  0.16999972789E+04  0.12699999809E+01 0. -1.
</event>
<event>
 5   0  0.4946315E-08  0.3397952E+04  0.7818609E-02  0.8138409E-01
       -2   -1    0    0    0  501  0.00000000000E+00  0.00000000000E+00  0.14743475987E+04  0.14743475987E+04  0.25500000920E-02 0.  1.
        2   -1    0    0  501    0  0.00000000000E+00  0.00000000000E+00 -0.19578278706E+04  0.19578278706E+04  0.25500000920E-02 0. -1.
    10030    2    1    2    0    0  0.00000000000E+00  0.00000000000E+00 -0.48348027185E+03  0.34321754693E+04  0.33979516299E+04 0.  0.
        3    1    3    3  502    0  0.54503706696E+03 -0.78365178886E+01  0.13836259400E+04  0.14871272869E+04  0.10100000352E+00 0.  1.
       -3    1    3    3    0  502 -0.54503706696E+03  0.78365178886E+01 -0.18671062119E+04  0.19450481824E+04  0.10100000352E+00 0. -1.
</event>
<event>
 5   0  0.4775023E-08  0.3395967E+04  0.7818609E-02  0.8138897E-01
       -2   -1    0    0    0  501  0.00000000000E+00  0.00000000000E+00  0.27514711045E+04  0.27514711045E+04  0.25500000920E-02 0. -1.
        2   -1    0    0  501    0  0.00000000000E+00  0.00000000000E+00 -0.10478566866E+04  0.10478566866E+04  0.25500000920E-02 0.  1.
    10030    2    1    2    0    0  0.00000000000E+00  0.00000000000E+00  0.17036144179E+04  0.37993277911E+04  0.33959666635E+04 0.  0.
        4    1    3    3  502    0  0.65457120301E+02  0.10105794749E+04 -0.67301184462E+03  0.12159367030E+04  0.12699999809E+01 0.  1.
       -4    1    3    3    0  502 -0.65457120301E+02 -0.10105794749E+04  0.23766262625E+04  0.25833910881E+04  0.12699999809E+01 0. -1.
</event>
<event>
 5   0  0.4764953E-08  0.3397349E+04  0.7818609E-02  0.8138557E-01
        2   -1    0    0  501    0  0.00000000000E+00  0.00000000000E+00  0.18433577767E+04  0.18433577767E+04  0.25500000920E-02 0.  1.
       -2   -1    0    0    0  501  0.00000000000E+00  0.00000000000E+00 -0.15653473508E+04  0.15653473508E+04  0.25500000920E-02 0. -1.
    10030    2    1    2    0    0  0.00000000000E+00  0.00000000000E+00  0.27801042586E+03  0.34087051275E+04  0.33973490914E+04 0.  0.
        2    1    3    3  502    0  0.12846294111E+04  0.93127745224E+03 -0.46960689951E+03  0.16547147962E+04  0.25500000920E-02 0. -1.
       -2    1    3    3    0  502 -0.12846294111E+04 -0.93127745224E+03  0.74761732537E+03  0.17539903312E+04  0.25500000920E-02 0.  1.
</event>
<event>
 5   0  0.4764953E-08  0.3403675E+04  0.7818609E-02  0.8137005E-01
        2   -1    0    0  501    0  0.00000000000E+00  0.00000000000E+00  0.18760282499E+04  0.18760282499E+04  0.25500000920E-02 0.  1.
       -2   -1    0    0    0  501  0.00000000000E+00  0.00000000000E+00 -0.15438201314E+04  0.15438201314E+04  0.25500000920E-02 0. -1.
    10030    2    1    2    0    0  0.00000000000E+00  0.00000000000E+00  0.33220811853E+03  0.34198483812E+04  0.34036745903E+04 0.  0.
        2    1    3    3  502    0  0.35130382658E+02  0.58019410831E+02 -0.15424615722E+04  0.15439521034E+04  0.25500000920E-02 0. -1.
       -2    1    3    3    0  502 -0.35130382658E+02 -0.58019410831E+02  0.18746696907E+04  0.18758962778E+04  0.25500000920E-02 0.  1.
</event>
<event>
 5   0  0.1645631E-08  0.3407120E+04  0.7818609E-02  0.8136161E-01
       -1   -1    0    0    0  501  0.00000000000E+00  0.00000000000E+00  0.11590423335E+04  0.11590423335E+04  0.50400001928E-02 0.  1.
        1   -1    0    0  501    0  0.00000000000E+00  0.00000000000E+00 -0.25038925584E+04  0.25038925584E+04  0.50400001928E-02 0. -1.
    10030    2    1    2    0    0  0.00000000000E+00  0.00000000000E+00 -0.13448502249E+04  0.36629348920E+04  0.34071204697E+04 0.  0.
        4    1    3    3  502    0 -0.60453833940E+03 -0.14566817286E+04  0.19920872552E+02  0.15772719221E+04  0.12699999809E+01 0.  1.
       -4    1    3    3    0  502  0.60453833940E+03  0.14566817286E+04 -0.13647710975E+04  0.20856629698E+04  0.12699999809E+01 0. -1.
</event>
<event>
 5   0  0.4764953E-08  0.3399700E+04  0.7818609E-02  0.8137980E-01
       -2   -1    0    0    0  501  0.00000000000E+00  0.00000000000E+00  0.13920674438E+04  0.13920674438E+04  0.25500000920E-02 0. -1.
        2   -1    0    0  501    0  0.00000000000E+00  0.00000000000E+00 -0.20756826751E+04  0.20756826751E+04  0.25500000920E-02 0.  1.
    10030    2    1    2    0    0  0.00000000000E+00  0.00000000000E+00 -0.68361523132E+03  0.34677501190E+04  0.33997001490E+04 0.  0.
        2    1    3    3  502    0 -0.98752006526E+03  0.32557869888E+03  0.10298368971E+04  0.14634757952E+04  0.25500000920E-02 0. -1.
       -2    1    3    3    0  502  0.98752006526E+03 -0.32557869888E+03 -0.17134521284E+04  0.20042743238E+04  0.25500000920E-02 0.  1.
</event>
<event>
 5   0  0.5001197E-08  0.3398673E+04  0.7818609E-02  0.8138232E-01
       -2   -1    0    0    0  501  0.00000000000E+00  0.00000000000E+00  0.15068442116E+04  0.15068442116E+04  0.25500000920E-02 0.  1.
        2   -1    0    0  501    0  0.00000000000E+00  0.00000000000E+00 -0.19164183845E+04  0.19164183845E+04  0.25500000920E-02 0. -1.
    10030    2    1    2    0    0  0.00000000000E+00  0.00000000000E+00 -0.40957417287E+03  0.34232625961E+04  0.33986726525E+04 0.  0.
        5    1    3    3  502    0 -0.19402815354E+03 -0.16882097616E+04 -0.19998435244E+03  0.17110566779E+04  0.46999998093E+01 0.  1.
       -5    1    3    3    0  502  0.19402815354E+03  0.16882097616E+04 -0.20958982044E+03  0.17122059182E+04  0.46999998093E+01 0. -1.
</event>
<event>
 5   0  0.5001197E-08  0.3387297E+04  0.7818609E-02  0.8141031E-01
        2   -1    0    0  501    0  0.00000000000E+00  0.00000000000E+00  0.18800850118E+04  0.18800850118E+04  0.25500000920E-02 0. -1.
       -2   -1    0    0    0  501  0.00000000000E+00  0.00000000000E+00 -0.15256996146E+04  0.15256996146E+04  0.25500000920E-02 0.  1.
    10030    2    1    2    0    0  0.00000000000E+00  0.00000000000E+00  0.35438539722E+03  0.34057846264E+04  0.33872968443E+04 0.  0.
        5    1    3    3  502    0 -0.11148161182E+04  0.80302625372E+03  0.11729295386E+04  0.18065026803E+04  0.46999998093E+01 0. -1.
       -5    1    3    3    0  502  0.11148161182E+04 -0.80302625372E+03 -0.81854414142E+03  0.15992819460E+04  0.46999998093E+01 0.  1.
</event>
<event>
 5   0  0.4946315E-08  0.3397171E+04  0.7818609E-02  0.8138601E-01
        2   -1    0    0  501    0  0.00000000000E+00  0.00000000000E+00  0.13263468974E+04  0.13263468974E+04  0.25500000920E-02 0. -1.
       -2   -1    0    0    0  501  0.00000000000E+00  0.00000000000E+00 -0.21752922675E+04  0.21752922675E+04  0.25500000920E-02 0.  1.
    10030    2    1    2    0    0  0.00000000000E+00  0.00000000000E+00 -0.84894537012E+03  0.35016391649E+04  0.33971706757E+04 0.  0.
        3    1    3    3  502    0 -0.15790066646E+03 -0.39880035329E+03  0.12696069656E+04  0.13401030556E+04  0.10100000352E+00 0. -1.
       -3    1    3    3    0  502  0.15790066646E+03  0.39880035329E+03 -0.21185523357E+04  0.21615361093E+04  0.10100000352E+00 0.  1.
</event>
<event>
 5   0  0.1579536E-08  0.3398086E+04  0.7818609E-02  0.8138376E-01
       -1   -1    0    0    0  501  0.00000000000E+00  0.00000000000E+00  0.10337677674E+04  0.10337677674E+04  0.50400001928E-02 0. -1.
        1   -1    0    0  501    0  0.00000000000E+00  0.00000000000E+00 -0.27924514725E+04  0.27924514725E+04  0.50400001928E-02 0.  1.
    10030    2    1    2    0    0  0.00000000000E+00  0.00000000000E+00 -0.17586837051E+04  0.38262192399E+04  0.33980855342E+04 0.  0.
        5    1    3    3  502    0 -0.43948000482E+02 -0.15134431338E+04 -0.17473665548E+04  0.23120885607E+04  0.46999998093E+01 0.  1.
       -5    1    3    3    0  502  0.43948000482E+02  0.15134431338E+04 -0.11317150317E+02  0.15141306792E+04  0.46999998093E+01 0. -1.
</event>
<event>
 5   0  0.1625282E-08  0.3381733E+04  0.7818609E-02  0.8142404E-01
       -1   -1    0    0    0  501  0.00000000000E+00  0.00000000000E+00  0.14699205862E+04  0.14699205862E+04  0.50400001928E-02 0. -1.
        1   -1    0    0  501    0  0.00000000000E+00  0.00000000000E+00 -0.19450231515E+04  0.19450231515E+04  0.50400001928E-02 0.  1.
    10030    2    1    2    0    0  0.00000000000E+00  0.00000000000E+00 -0.47510256530E+03  0.34149437378E+04  0.33817330298E+04 0.  0.
        1    1    3    3  502    0 -0.12296883513E+04 -0.42156441854E+02 -0.14087338014E+04  0.18704121285E+04  0.50400001928E-02 0.  1.
       -1    1    3    3    0  502  0.12296883513E+04  0.42156441854E+02  0.93363123615E+03  0.15445316093E+04  0.50400001928E-02 0. -1.
</event>
<event>
 5   0  0.4946315E-08  0.3399161E+04  0.7818609E-02  0.8138112E-01
        2   -1    0    0  501    0  0.00000000000E+00  0.00000000000E+00  0.25906265347E+04  0.25906265347E+04  0.25500000920E-02 0.  1.
       -2   -1    0    0    0  501  0.00000000000E+00  0.00000000000E+00 -0.11150095900E+04  0.11150095900E+04  0.25500000920E-02 0. -1.
    10030    2    1    2    0    0  0.00000000000E+00  0.00000000000E+00  0.14756169447E+04  0.37056361247E+04  0.33991607378E+04 0.  0.
        3    1    3    3  502    0  0.15121282847E+04 -0.68900859989E+03  0.34883500795E+03  0.16979254027E+04  0.10100000352E+00 0.  1.
       -3    1    3    3    0  502 -0.15121282847E+04  0.68900859989E+03  0.11267819367E+04  0.20077107220E+04  0.10100000352E+00 0. -1.
</event>
<event>
 5   0  0.1595851E-08  0.3403091E+04  0.7818609E-02  0.8137148E-01
       -1   -1    0    0    0  501  0.00000000000E+00  0.00000000000E+00  0.26361714362E+04  0.26361714362E+04  0.50400001928E-02 0.  1.
        1   -1    0    0  501    0  0.00000000000E+00  0.00000000000E+00 -0.10982807998E+04  0.10982807999E+04  0.50400001928E-02 0. -1.
    10030    2    1    2    0    0  0.00000000000E+00  0.00000000000E+00  0.15378906364E+04  0.37344522361E+04  0.34030906385E+04 0.  0.
        2    1    3    3  502    0 -0.12017189575E+04  0.20771720201E+03  0.20710679285E+04  0.24034552738E+04  0.25500000920E-02 0.  1.
       -2    1    3    3    0  502  0.12017189575E+04 -0.20771720201E+03 -0.53317729213E+03  0.13309969623E+04  0.25500000920E-02 0. -1.
</event>
<event>
 5   0  0.4775023E-08  0.3400130E+04  0.7818609E-02  0.8137874E-01
       -2   -1    0    0    0  501  0.00000000000E+00  0.00000000000E+00  0.14945112055E+04  0.14945112055E+04  0.25500000920E-02 0. -1.
        2   -1    0    0  501    0  0.00000000000E+00  0.00000000000E+00 -0.19338906725E+04  0.19338906725E+04  0.25500000920E-02 0.  1.
    10030    2    1    2    0    0  0.00000000000E+00  0.00000000000E+00 -0.43937946706E+03  0.34284018780E+04  0.34001301623E+04 0.  0.
        4    1    3    3  502    0  0.12308554313E+04 -0.11374384837E+04 -0.50745416603E+03  0.17510804495E+04  0.12699999809E+01 0.  1.
       -4    1    3    3    0  502 -0.12308554313E+04  0.11374384837E+04  0.68074698967E+02  0.16773214285E+04  0.12699999809E+01 0. -1.
</event>
<event>
 5   0  0.1645631E-08  0.3401266E+04  0.7818609E-02  0.8137596E-01
        1   -1    0    0  501    0  0.00000000000E+00  0.00000000000E+00  0.80171356815E+03  0.80171356816E+03  0.50400001928E-02 0. -1.
       -1   -1    0    0    0  501  0.00000000000E+00  0.00000000000E+00 -0.36074629419E+04  0.36074629419E+04  0.50400001928E-02 0.  1.
    10030    2    1    2    0    0  0.00000000000E+00  0.00000000000E+00 -0.28057493738E+04  0.44091765101E+04  0.34012656392E+04 0.  0.
        4    1    3    3  502    0 -0.41733644044E+02 -0.10546151790E+04  0.32577378640E+03  0.11045745994E+04  0.12699999809E+01 0. -1.
       -4    1    3    3    0  502  0.41733644044E+02  0.10546151790E+04 -0.31315231602E+04  0.33046019107E+04  0.12699999809E+01 0.  1.
</event>
<event>
 5   0  0.4775023E-08  0.3399562E+04  0.7818609E-02  0.8138014E-01
       -2   -1    0    0    0  501  0.00000000000E+00  0.00000000000E+00  0.12701644584E+04  0.12701644584E+04  0.25500000920E-02 0.  1.
        2   -1    0    0  501    0  0.00000000000E+00  0.00000000000E+00 -0.22747097922E+04  0.22747097922E+04  0.25500000920E-02 0. -1.
    10030    2    1    2    0    0  0.00000000000E+00  0.00000000000E+00 -0.10045453338E+04  0.35448742506E+04  0.33995620490E+04 0.  0.
        4    1    3    3  502    0  0.65880142696E+03 -0.30082913312E+03  0.11012283236E+04  0.13180375264E+04  0.12699999809E+01 0.  1.
       -4    1    3    3    0  502 -0.65880142696E+03  0.30082913312E+03 -0.21057736573E+04  0.22268367242E+04  0.12699999809E+01 0. -1.
</event>
<event>
 5   0  0.4973409E-08  0.3399363E+04  0.7818609E-02  0.8138063E-01
       -2   -1    0    0    0  501  0.00000000000E+00  0.00000000000E+00  0.11917302071E+04  0.11917302071E+04  0.25500000920E-02 0.  1.
        2   -1    0    0  501    0  0.00000000000E+00  0.00000000000E+00 -0.24241363280E+04  0.24241363280E+04  0.25500000920E-02 0. -1.
    10030    2    1    2    0    0  0.00000000000E+00  0.00000000000E+00 -0.12324061208E+04  0.36158665351E+04  0.33993625804E+04 0.  0.
        1    1    3    3  502    0 -0.91209682922E+03 -0.13082063904E+03  0.90300552639E+03  0.12901370649E+04  0.50400001928E-02 0.  1.
       -1    1    3    3    0  502  0.91209682922E+03  0.13082063904E+03 -0.21354116472E+04  0.23257294702E+04  0.50400001928E-02 0. -1.
</event>
<event>
 5   0  0.4764953E-08  0.3400490E+04  0.7818609E-02  0.8137786E-01
       -2   -1    0    0    0  501  0.00000000000E+00  0.00000000000E+00  0.14968614876E+04  0.14968614876E+04  0.25500000920E-02 0.  1.
        2   -1    0    0  501    0  0.00000000000E+00  0.00000000000E+00 -0.19312627965E+04  0.19312627965E+04  0.25500000920E-02 0. -1.
    10030    2    1    2    0    0  0.00000000000E+00  0.00000000000E+00 -0.43440130890E+03  0.34281242842E+04  0.34004899074E+04 0.  0.
        2    1    3    3  502    0 -0.47269773773E+02 -0.15568969765E+04 -0.90440755917E+03  0.18011428761E+04  0.25500000920E-02 0. -1.
       -2    1    3    3    0  502  0.47269773773E+02  0.15568969765E+04  0.47000625027E+03  0.16269814081E+04  0.25500000920E-02 0.  1.
</event>
<event>
 5   0  0.1630571E-08  0.3399688E+04  0.7818609E-02  0.8137983E-01
       -1   -1    0    0    0  501  0.00000000000E+00  0.00000000000E+00  0.14868952720E+04  0.14868952721E+04  0.50400001928E-02 0.  1.
        1   -1    0    0  501    0  0.00000000000E+00  0.00000000000E+00 -0.19432911638E+04  0.19432911638E+04  0.50400001928E-02 0. -1.
    10030    2    1    2    0    0  0.00000000000E+00  0.00000000000E+00 -0.45639589179E+03  0.34301864359E+04  0.33996884821E+04 0.  0.
        3    1    3    3  502    0  0.56814809555E+03 -0.98532045677E+03 -0.15027887899E+04  0.18846810919E+04  0.10100000352E+00 0. -1.
       -3    1    3    3    0  502 -0.56814809555E+03  0.98532045677E+03  0.10463928981E+04  0.15455053440E+04  0.10100000352E+00 0.  1.
</event>
<event>
 5   0  0.1625282E-08  0.3398927E+04  0.7818609E-02  0.8138170E-01
       -1   -1    0    0    0  501  0.00000000000E+00  0.00000000000E+00  0.11770387222E+04  0.11770387222E+04  0.50400001928E-02 0.  1.
        1   -1    0    0  501    0  0.00000000000E+00  0.00000000000E+00 -0.24537644820E+04  0.24537644820E+04  0.50400001928E-02 0. -1.
    10030    2    1    2    0    0  0.00000000000E+00  0.00000000000E+00 -0.12767257598E+04  0.36308032042E+04  0.33989267780E+04 0.  0.
        1    1    3    3  502    0 -0.48181587416E+03  0.10499150381E+04 -0.19698763319E+04  0.22836113695E+04  0.50400001928E-02 0. -1.
       -1    1    3    3    0  502  0.48181587416E+03 -0.10499150381E+04  0.69315057215E+03  0.13471918347E+04  0.50400001928E-02 0.  1.
</event>
<event>
 5   0  0.1595851E-08  0.3394455E+04  0.7818609E-02  0.8139269E-01
       -1   -1    0    0    0  501  0.00000000000E+00  0.00000000000E+00  0.13588428707E+04  0.13588428708E+04  0.50400001928E-02 0. -1.
        1   -1    0    0  501    0  0.00000000000E+00  0.00000000000E+00 -0.21198781724E+04  0.21198781724E+04  0.50400001928E-02 0.  1.
    10030    2    1    2    0    0  0.00000000000E+00  0.00000000000E+00 -0.76103530162E+03  0.34787210431E+04  0.33944550911E+04 0.  0.
        2    1    3    3  502    0  0.22953144354E+02  0.28562531288E+03  0.13338741159E+04  0.13643052530E+04  0.25500000920E-02 0. -1.
       -2    1    3    3    0  502 -0.22953144354E+02 -0.28562531288E+03 -0.20949094175E+04  0.21144157902E+04  0.25500000920E-02 0.  1.
</event>
<event>
 5   0  0.4764953E-08  0.3399599E+04  0.7818609E-02  0.8138005E-01
        2   -1    0    0  501    0  0.00000000000E+00  0.00000000000E+00  0.18673807255E+04  0.18673807255E+04  0.25500000920E-02 0.  1.
       -2   -1    0    0    0  501  0.00000000000E+00  0.00000000000E+00 -0.15472572118E+04  0.15472572118E+04  0.25500000920E-02 0. -1.
    10030    2    1    2    0    0  0.00000000000E+00  0.00000000000E+00  0.32012351370E+03  0.34146379372E+04  0.33995989732E+04 0.  0.
        2    1    3    3  502    0 -0.50360177449E+03 -0.67547811134E+03 -0.13227592155E+04  0.15683039783E+04  0.25500000920E-02 0. -1.
       -2    1    3    3    0  502  0.50360177449E+03  0.67547811134E+03  0.16428827292E+04  0.18463339590E+04  0.25500000920E-02 0.  1.
</event>
<event>
 5   0  0.5001197E-08  0.3400582E+04  0.7818609E-02  0.8137764E-01
       -2   -1    0    0    0  501  0.00000000000E+00  0.00000000000E+00  0.12067608091E+04  0.12067608091E+04  0.25500000920E-02 0. -1.
        2   -1    0    0  501    0  0.00000000000E+00  0.00000000000E+00 -0.23956604547E+04  0.23956604547E+04  0.25500000920E-02 0.  1.
    10030    2    1    2    0    0  0.00000000000E+00  0.00000000000E+00 -0.11888996456E+04  0.36024212638E+04  0.34005818023E+04 0.  0.
        5    1    3    3  502    0 -0.11054916710E+04  0.11657978659E+04 -0.11840550720E+04  0.19957968339E+04  0.46999998093E+01 0.  1.
       -5    1    3    3    0  502  0.11054916710E+04 -0.11657978659E+04 -0.48445736450E+01  0.16066244299E+04  0.46999998093E+01 0. -1.
</event>
<event>
 5   0  0.1625282E-08  0.3400662E+04  0.7818609E-02  0.8137744E-01
       -1   -1    0    0    0  501  0.00000000000E+00  0.00000000000E+00  0.20207416621E+04  0.20207416621E+04  0.50400001928E-02 0. -1.
        1   -1    0    0  501    0  0.00000000000E+00  0.00000000000E+00 -0.14307250143E+04  0.14307250143E+04  0.50400001928E-02 0.  1.
    10030    2    1    2    0    0  0.00000000000E+00  0.00000000000E+00  0.59001664776E+03  0.34514666764E+04  0.34006620787E+04 0.  0.
        1    1    3    3  502    0 -0.12659825718E+04 -0.11279648556E+04  0.16619071015E+03  0.17037123994E+04  0.50400001928E-02 0. -1.
       -1    1    3    3    0  502  0.12659825718E+04  0.11279648556E+04  0.42382593761E+03  0.17477542771E+04  0.50400001928E-02 0.  1.
</event>
<event>
 5   0  0.4973409E-08  0.3399158E+04  0.7818609E-02  0.8138113E-01
       -2   -1    0    0    0  501  0.00000000000E+00  0.00000000000E+00  0.13398397650E+04  0.13398397650E+04  0.25500000920E-02 0.  1.
        2   -1    0    0  501    0  0.00000000000E+00  0.00000000000E+00 -0.21559062395E+04  0.21559062395E+04  0.25500000920E-02 0. -1.
    10030    2    1    2    0    0  0.00000000000E+00  0.00000000000E+00 -0.81606647447E+03  0.34957460045E+04  0.33991580777E+04 0.  0.
        1    1    3    3  502    0  0.40199294391E+02 -0.16078915434E+04 -0.97285487529E+03  0.18797281205E+04  0.50400001928E-02 0.  1.
       -1    1    3    3    0  502 -0.40199294391E+02  0.16078915434E+04  0.15678840082E+03  0.16160178840E+04  0.50400001928E-02 0. -1.
</event>
<event>
 5   0  0.1625282E-08  0.3400124E+04  0.7818609E-02  0.8137876E-01
        1   -1    0    0  501    0  0.00000000000E+00  0.00000000000E+00  0.25866576661E+04  0.25866576661E+04  0.50400001928E-02 0. -1.
       -1   -1    0    0    0  501  0.00000000000E+00  0.00000000000E+00 -0.11173534996E+04  0.11173534997E+04  0.50400001928E-02 0.  1.
    10030    2    1    2    0    0  0.00000000000E+00  0.00000000000E+00  0.14693041665E+04  0.37040111658E+04  0.34001241128E+04 0.  0.
        1    1    3    3  502    0 -0.38396126883E+03  0.11531714575E+04  0.20295799441E+04  0.23656765240E+04  0.50400001928E-02 0. -1.
       -1    1    3    3    0  502  0.38396126883E+03 -0.11531714575E+04 -0.56027577766E+03  0.13383346418E+04  0.50400001928E-02 0.  1.
</event>
<event>
 5   0  0.5001197E-08  0.3398052E+04  0.7818609E-02  0.8138385E-01
       -2   -1    0    0    0  501  0.00000000000E+00  0.00000000000E+00  0.15941355401E+04  0.15941355401E+04  0.25500000920E-02 0.  1.
        2   -1    0    0  501    0  0.00000000000E+00  0.00000000000E+00 -0.18108175291E+04  0.18108175291E+04  0.25500000920E-02 0. -1.
    10030    2    1    2    0    0  0.00000000000E+00  0.00000000000E+00 -0.21668198908E+03  0.34049530692E+04  0.33980515474E+04 0.  0.
        5    1    3    3  502    0 -0.13873921636E+04  0.79853945162E+03 -0.67883397819E+03  0.17387811626E+04  0.46999998093E+01 0. -1.
       -5    1    3    3    0  502  0.13873921636E+04 -0.79853945162E+03  0.46215198911E+03  0.16661719066E+04  0.46999998093E+01 0.  1.
</event>
<event>
 5   0  0.4775023E-08  0.3401337E+04  0.7818609E-02  0.8137578E-01
        2   -1    0    0  501    0  0.00000000000E+00  0.00000000000E+00  0.16686815977E+04  0.16686815977E+04  0.25500000920E-02 0. -1.
       -2   -1    0    0    0  501  0.00000000000E+00  0.00000000000E+00 -0.17332681079E+04  0.17332681079E+04  0.25500000920E-02 0.  1.
    10030    2    1    2    0    0  0.00000000000E+00  0.00000000000E+00 -0.64586510273E+02  0.34019497056E+04  0.34013365582E+04 0.  0.
        4    1    3    3  502    0  0.15155987483E+04 -0.64066348358E+03  0.39764667501E+03  0.16928123806E+04  0.12699999809E+01 0. -1.
       -4    1    3    3    0  502 -0.15155987483E+04  0.64066348358E+03 -0.46223318529E+03  0.17091373249E+04  0.12699999809E+01 0.  1.
</event>
<event>
 5   0  0.5001197E-08  0.3398465E+04  0.7818609E-02  0.8138283E-01
       -2   -1    0    0    0  501  0.00000000000E+00  0.00000000000E+00  0.22872635092E+04  0.22872635092E+04  0.25500000920E-02 0.  1.
        2   -1    0    0  501    0  0.00000000000E+00  0.00000000000E+00 -0.12623776235E+04  0.12623776235E+04  0.25500000920E-02 0. -1.
    10030    2    1    2    0    0  0.00000000000E+00  0.00000000000E+00  0.10248858857E+04  0.35496411327E+04  0.33984645197E+04 0.  0.
        5    1    3    3  502    0 -0.59785357189E+03 -0.78405329481E+03  0.19579118124E+04  0.21921699792E+04  0.46999998093E+01 0.  1.
       -5    1    3    3    0  502  0.59785357189E+03  0.78405329481E+03 -0.93302592672E+03  0.13574711534E+04  0.46999998093E+01 0. -1.
</event>
<event>
 5   0  0.5001197E-08  0.3399825E+04  0.7818609E-02  0.8137949E-01
       -2   -1    0    0    0  501  0.00000000000E+00  0.00000000000E+00  0.13804840582E+04  0.13804840582E+04  0.25500000920E-02 0. -1.
        2   -1    0    0  501    0  0.00000000000E+00  0.00000000000E+00 -0.20932535398E+04  0.20932535398E+04  0.25500000920E-02 0.  1.
    10030    2    1    2    0    0  0.00000000000E+00  0.00000000000E+00 -0.71276948158E+03  0.34737375980E+04  0.33998253728E+04 0.  0.
        5    1    3    3  502    0 -0.43995464415E+03  0.98461988471E+03 -0.16989700217E+04  0.20123512693E+04  0.46999998093E+01 0.  1.
       -5    1    3    3    0  502  0.43995464415E+03 -0.98461988471E+03  0.98620054016E+03  0.14613863287E+04  0.46999998093E+01 0. -1.
</event>
<event>
 5   0  0.1595851E-08  0.3402169E+04  0.7818609E-02  0.8137374E-01
        1   -1    0    0  501    0  0.00000000000E+00  0.00000000000E+00  0.14598916428E+04  0.14598916428E+04  0.50400001928E-02 0.  1.
       -1   -1    0    0    0  501  0.00000000000E+00  0.00000000000E+00 -0.19821258388E+04  0.19821258388E+04  0.50400001928E-02 0. -1.
    10030    2    1    2    0    0  0.00000000000E+00  0.00000000000E+00 -0.52223419597E+03  0.34420174816E+04  0.34021692768E+04 0.  0.
        2    1    3    3  502    0  0.11118700383E+03  0.15368770063E+04 -0.99020710174E+03  0.18316286705E+04  0.25500000920E-02 0. -1.
       -2    1    3    3    0  502 -0.11118700383E+03 -0.15368770063E+04  0.46797290576E+03  0.16103888111E+04  0.25500000920E-02 0.  1.
</event>
<event>
 5   0  0.4973409E-08  0.3401863E+04  0.7818609E-02  0.8137449E-01
       -2   -1    0    0    0  501  0.00000000000E+00  0.00000000000E+00  0.11381263334E+04  0.11381263334E+04  0.25500000920E-02 0.  1.
        2   -1    0    0  501    0  0.00000000000E+00  0.00000000000E+00 -0.25420446202E+04  0.25420446202E+04  0.25500000920E-02 0. -1.
    10030    2    1    2    0    0  0.00000000000E+00  0.00000000000E+00 -0.14039182868E+04  0.36801709537E+04  0.34018629738E+04 0.  0.
        1    1    3    3  502    0 -0.58437272986E+02  0.10922689593E+04 -0.21110983629E+04  0.23776464608E+04  0.50400001928E-02 0. -1.
       -1    1    3    3    0  502  0.58437272986E+02 -0.10922689593E+04  0.70718007618E+03  0.13025244929E+04  0.50400001928E-02 0.  1.
</event>
<event>
 5   0  0.1595851E-08  0.3398823E+04  0.7818609E-02  0.8138195E-01
       -1   -1    0    0    0  501  0.00000000000E+00  0.00000000000E+00  0.32602718855E+04  0.32602718855E+04  0.50400001928E-02 0. -1.
        1   -1    0    0  501    0  0.00000000000E+00  0.00000000000E+00 -0.88581574364E+03  0.88581574365E+03  0.50400001928E-02 0.  1.
    10030    2    1    2    0    0  0.00000000000E+00  0.00000000000E+00  0.23744561419E+04  0.41460876292E+04  0.33988234227E+04 0.  0.
        2    1    3    3  502    0  0.18028720647E+03 -0.12367756083E+04 -0.21740354637E+03  0.12686140801E+04  0.25500000920E-02 0.  1.
       -2    1    3    3    0  502 -0.18028720647E+03  0.12367756083E+04  0.25918596882E+04  0.28774735491E+04  0.25500000920E-02 0. -1.
</event>
<event>
 5   0  0.4775023E-08  0.3401027E+04  0.7818609E-02  0.8137654E-01
        2   -1    0    0  501    0  0.00000000000E+00  0.00000000000E+00  0.18028069170E+04  0.18028069170E+04  0.25500000920E-02 0. -1.
       -2   -1    0    0    0  501  0.00000000000E+00  0.00000000000E+00 -0.16040245104E+04  0.16040245104E+04  0.25500000920E-02 0.  1.
    10030    2    1    2    0    0  0.00000000000E+00  0.00000000000E+00  0.19878240659E+03  0.34068314274E+04  0.34010271875E+04 0.  0.
        4    1    3    3  502    0 -0.79619134734E+03 -0.55719890585E+03 -0.12984664504E+04  0.16218532665E+04  0.12699999809E+01 0.  1.
       -4    1    3    3    0  502  0.79619134734E+03  0.55719890585E+03  0.14972488570E+04  0.17849781609E+04  0.12699999809E+01 0. -1.
</event>
<event>
 5   0  0.1630571E-08  0.3399872E+04  0.7818609E-02  0.8137938E-01
        1   -1    0    0  501    0  0.00000000000E+00  0.00000000000E+00  0.16499858922E+04  0.16499858922E+04  0.50400001928E-02 0. -1.
       -1   -1    0    0    0  501  0.00000000000E+00  0.00000000000E+00 -0.17513981333E+04  0.17513981333E+04  0.50400001928E-02 0.  1.
    10030    2    1    2    0    0  0.00000000000E+00  0.00000000000E+00 -0.10141224107E+03  0.34013840256E+04  0.33998718868E+04 0.  0.
        3    1    3    3  502    0  0.13764940947E+03 -0.23610383229E+03  0.16278630550E+04  0.16506454845E+04  0.10100000352E+00 0. -1.
       -3    1    3    3    0  502 -0.13764940947E+03  0.23610383229E+03 -0.17292752960E+04  0.17507385411E+04  0.10100000352E+00 0.  1.
</event>
<event>
 5   0  0.4946315E-08  0.3397201E+04  0.7818609E-02  0.8138594E-01
        2   -1    0    0  501    0  0.00000000000E+00  0.00000000000E+00  0.17600761453E+04  0.17600761453E+04  0.25500000920E-02 0. -1.
       -2   -1    0    0    0  501  0.00000000000E+00  0.00000000000E+00 -0.16392721990E+04  0.16392721990E+04  0.25500000920E-02 0.  1.
    10030    2    1    2    0    0  0.00000000000E+00  0.00000000000E+00  0.12080394625E+03  0.33993483443E+04  0.33972011381E+04 0.  0.
        3    1    3    3  502    0 -0.93155743641E+03  0.12693307726E+04  0.69817756992E+03  0.17223390482E+04  0.10100000352E+00 0. -1.
       -3    1    3    3    0  502  0.93155743641E+03 -0.12693307726E+04 -0.57737362367E+03  0.16770092961E+04  0.10100000352E+00 0.  1.
</event>
<event>
 5   0  0.1645631E-08  0.3404948E+04  0.7818609E-02  0.8136693E-01
       -1   -1    0    0    0  501  0.00000000000E+00  0.00000000000E+00  0.15611760423E+04  0.15611760423E+04  0.50400001928E-02 0.  1.
        1   -1    0    0  501    0  0.00000000000E+00  0.00000000000E+00 -0.18565602650E+04  0.18565602650E+04  0.50400001928E-02 0. -1.
    10030    2    1    2    0    0  0.00000000000E+00  0.00000000000E+00 -0.29538422273E+03  0.34177363073E+04  0.34049478157E+04 0.  0.
        4    1    3    3  502    0 -0.14915908750E+03  0.14122796176E+03 -0.18440757438E+04  0.18554812671E+04  0.12699999809E+01 0. -1.
       -4    1    3    3    0  502  0.14915908750E+03 -0.14122796176E+03  0.15486915211E+04  0.15622550403E+04  0.12699999809E+01 0.  1.
</event>
<event>
 5   0  0.4973409E-08  0.3403294E+04  0.7818609E-02  0.8137098E-01
       -2   -1    0    0    0  501  0.00000000000E+00  0.00000000000E+00  0.12493939878E+04  0.12493939878E+04  0.25500000920E-02 0.  1.
        2   -1    0    0  501    0  0.00000000000E+00  0.00000000000E+00 -0.23176054113E+04  0.23176054114E+04  0.25500000920E-02 0. -1.
    10030    2    1    2    0    0  0.00000000000E+00  0.00000000000E+00 -0.10682114235E+04  0.35669993992E+04  0.34032938557E+04 0.  0.
        1    1    3    3  502    0 -0.10470477106E+04  0.13381991952E+04 -0.63082840154E+03  0.18124653008E+04  0.50400001928E-02 0. -1.
       -1    1    3    3    0  502  0.10470477106E+04 -0.13381991952E+04 -0.43738302200E+03  0.17545340984E+04  0.50400001928E-02 0.  1.
</event>
<event>
 5   0  0.1579536E-08  0.3396670E+04  0.7818609E-02  0.8138724E-01
        1   -1    0    0  501    0  0.00000000000E+00  0.00000000000E+00  0.91908671344E+03  0.91908671345E+03  0.50400001928E-02 0. -1.
       -1   -1    0    0    0  501  0.00000000000E+00  0.00000000000E+00 -0.31382696911E+04  0.31382696911E+04  0.50400001928E-02 0.  1.
    10030    2    1    2    0    0  0.00000000000E+00  0.00000000000E+00 -0.22191829777E+04  0.40573564046E+04  0.33966701202E+04 0.  0.
        5    1    3    3  502    0  0.15961565457E+04 -0.43614972122E+03 -0.65258003789E+03  0.17787144497E+04  0.46999998093E+01 0.  1.
       -5    1    3    3    0  502 -0.15961565457E+04  0.43614972122E+03 -0.15666029398E+04  0.22786419549E+04  0.46999998093E+01 0. -1.
</event>
<event>
 5   0  0.1645631E-08  0.3400344E+04  0.7818609E-02  0.8137822E-01
       -1   -1    0    0    0  501  0.00000000000E+00  0.00000000000E+00  0.10066355506E+04  0.10066355506E+04  0.50400001928E-02 0.  1.
        1   -1    0    0  501    0  0.00000000000E+00  0.00000000000E+00 -0.28715310674E+04  0.28715310674E+04  0.50400001928E-02 0. -1.
    10030    2    1    2    0    0  0.00000000000E+00  0.00000000000E+00 -0.18648955168E+04  0.38781666180E+04  0.34003442514E+04 0.  0.
        4    1    3    3  502    0  0.19554387517E+02  0.19981339087E+03  0.99306776935E+03  0.10131598949E+04  0.12699999809E+01 0.  1.
       -4    1    3    3    0  502 -0.19554387517E+02 -0.19981339087E+03 -0.28579632862E+04  0.28650067231E+04  0.12699999809E+01 0. -1.
</event>
<event>
 5   0  0.4946315E-08  0.3401435E+04  0.7818609E-02  0.8137554E-01
       -2   -1    0    0    0  501  0.00000000000E+00  0.00000000000E+00  0.20605850560E+04  0.20605850560E+04  0.25500000920E-02 0. -1.
        2   -1    0    0  501    0  0.00000000000E+00  0.00000000000E+00 -0.14036980718E+04  0.14036980718E+04  0.25500000920E-02 0.  1.
    10030    2    1    2    0    0  0.00000000000E+00  0.00000000000E+00  0.65688698418E+03  0.34642831278E+04  0.34014345620E+04 0.  0.
        3    1    3    3  502    0 -0.14487830732E+04 -0.30024003118E+03  0.11825825931E+04  0.18941008604E+04  0.10100000352E+00 0. -1.
       -3    1    3    3    0  502  0.14487830732E+04  0.30024003118E+03 -0.52569560893E+03  0.15701822674E+04  0.10100000352E+00 0.  1.
</event>
<event>
 5   0  0.1579536E-08  0.3418975E+04  0.7818609E-02  0.8133265E-01
        1   -1    0    0  501    0  0.00000000000E+00  0.00000000000E+00  0.18125650262E+04  0.18125650262E+04  0.50400001928E-02 0.  1.
       -1   -1    0    0    0  501  0.00000000000E+00  0.00000000000E+00 -0.16122722353E+04  0.16122722353E+04  0.50400001928E-02 0. -1.
    10030    2    1    2    0    0  0.00000000000E+00  0.00000000000E+00  0.20029279085E+03  0.34248372615E+04  0.34189754409E+04 0.  0.
        5    1    3    3  502    0  0.52197552912E+03 -0.10284276180E+03  0.17275212623E+04  0.18075914606E+04  0.46999998093E+01 0.  1.
       -5    1    3    3    0  502 -0.52197552912E+03  0.10284276180E+03 -0.15272284714E+04  0.16172458009E+04  0.46999998093E+01 0. -1.
</event>
<event>
 5   0  0.1630571E-08  0.3398377E+04  0.7818609E-02  0.8138305E-01
        1   -1    0    0  501    0  0.00000000000E+00  0.00000000000E+00  0.13405731366E+04  0.13405731366E+04  0.50400001928E-02 0.  1.
       -1   -1    0    0    0  501  0.00000000000E+00  0.00000000000E+00 -0.21537372002E+04  0.21537372002E+04  0.50400001928E-02 0. -1.
    10030    2    1    2    0    0  0.00000000000E+00  0.00000000000E+00 -0.81316406361E+03  0.34943103368E+04  0.33983773975E+04 0.  0.
        3    1    3    3  502    0 -0.49072043642E+03 -0.12981904071E+04  0.60146917106E+03  0.15125706772E+04  0.10100000352E+00 0.  1.
       -3    1    3    3    0  502  0.49072043642E+03  0.12981904071E+04 -0.14146332347E+04  0.19817396596E+04  0.10100000352E+00 0. -1.
</event>
<event>
 5   0  0.1595851E-08  0.3400290E+04  0.7818609E-02  0.8137835E-01
       -1   -1    0    0    0  501  0.00000000000E+00  0.00000000000E+00  0.15317229976E+04  0.15317229976E+04  0.50400001928E-02 0. -1.
        1   -1    0    0  501    0  0.00000000000E+00  0.00000000000E+00 -0.18870863355E+04  0.18870863355E+04  0.50400001928E-02 0.  1.
    10030    2    1    2    0    0  0.00000000000E+00  0.00000000000E+00 -0.35536333798E+03  0.34188093331E+04  0.34002903044E+04 0.  0.
        2    1    3    3  502    0  0.46133702653E+03 -0.66107975958E+03 -0.16827092701E+04  0.18658426483E+04  0.25500000920E-02 0.  1.
       -2    1    3    3    0  502 -0.46133702653E+03  0.66107975958E+03  0.13273459321E+04  0.15529666848E+04  0.25500000920E-02 0. -1.
</event>
<event>
 5   0  0.4764953E-08  0.3399882E+04  0.7818609E-02  0.8137935E-01
       -2   -1    0    0    0  501  0.00000000000E+00  0.00000000000E+00  0.11456128510E+04  0.11456128510E+04  0.25500000920E-02 0.  1.
        2   -1    0    0  501    0  0.00000000000E+00  0.00000000000E+00 -0.25224915801E+04  0.25224915801E+04  0.25500000920E-02 0. -1.
    10030    2    1    2    0    0  0.00000000000E+00  0.00000000000E+00 -0.13768787291E+04  0.36681044312E+04  0.33998816279E+04 0.  0.
        2    1    3    3  502    0  0.14211922151E+04 -0.52137325178E+03  0.14599915518E+03  0.15208330393E+04  0.25500000920E-02 0.  1.
       -2    1    3    3    0  502 -0.14211922151E+04  0.52137325178E+03 -0.15228778843E+04  0.21472713919E+04  0.25500000920E-02 0. -1.
</event>
<event>
 5   0  0.1595851E-08  0.3400377E+04  0.7818609E-02  0.8137814E-01
       -1   -1    0    0    0  501  0.00000000000E+00  0.00000000000E+00  0.12998256122E+04  0.12998256122E+04  0.50400001928E-02 0.  1.
        1   -1    0    0  501    0  0.00000000000E+00  0.00000000000E+00 -0.22238677276E+04  0.22238677276E+04  0.50400001928E-02 0. -1.
    10030    2    1    2    0    0  0.00000000000E+00  0.00000000000E+00 -0.92404211545E+03  0.35236933398E+04  0.34003765853E+04 0.  0.
        2    1    3    3  502    0 -0.10644682238E+04  0.10856285254E+04  0.32646631765E+03  0.15550762526E+04  0.25500000920E-02 0. -1.
       -2    1    3    3    0  502  0.10644682238E+04 -0.10856285254E+04 -0.12505084331E+04  0.19686170872E+04  0.25500000920E-02 0.  1.
</event>
<event>
 5   0  0.1595851E-08  0.3399475E+04  0.7818609E-02  0.8138035E-01
        1   -1    0    0  501    0  0.00000000000E+00  0.00000000000E+00  0.17059477750E+04  0.17059477750E+04  0.50400001928E-02 0.  1.
       -1   -1    0    0    0  501  0.00000000000E+00  0.00000000000E+00 -0.16935502692E+04  0.16935502692E+04  0.50400001928E-02 0. -1.
    10030    2    1    2    0    0  0.00000000000E+00  0.00000000000E+00  0.12397505830E+02  0.33994980442E+04  0.33994754381E+04 0.  0.
        2    1    3    3  502    0  0.11570623325E+04  0.11030681256E+04  0.58374547730E+03  0.17018552563E+04  0.25500000920E-02 0. -1.
       -2    1    3    3    0  502 -0.11570623325E+04 -0.11030681256E+04 -0.57134797147E+03  0.16976427879E+04  0.25500000920E-02 0.  1.
</event>
<event>
 5   0  0.1630571E-08  0.3401217E+04  0.7818609E-02  0.8137608E-01
       -1   -1    0    0    0  501  0.00000000000E+00  0.00000000000E+00  0.15797546147E+04  0.15797546147E+04  0.50400001928E-02 0. -1.
        1   -1    0    0  501    0  0.00000000000E+00  0.00000000000E+00 -0.18307079349E+04  0.18307079349E+04  0.50400001928E-02 0.  1.
    10030    2    1    2    0    0  0.00000000000E+00  0.00000000000E+00 -0.25095332021E+03  0.34104625496E+04  0.34012170224E+04 0.  0.
        3    1    3    3  502    0 -0.47009967231E+03  0.13654205783E+04  0.77513086726E+03  0.16389615399E+04  0.10100000352E+00 0. -1.
       -3    1    3    3    0  502  0.47009967231E+03 -0.13654205783E+04 -0.10260841875E+04  0.17715010098E+04  0.10100000352E+00 0.  1.
</event>
<event>
 5   0  0.4973409E-08  0.3401356E+04  0.7818609E-02  0.8137574E-01
       -2   -1    0    0    0  501  0.00000000000E+00  0.00000000000E+00  0.12104761792E+04  0.12104761792E+04  0.25500000920E-02 0. -1.
        2   -1    0    0  501    0  0.00000000000E+00  0.00000000000E+00 -0.23893950566E+04  0.23893950566E+04  0.25500000920E-02 0.  1.
    10030    2    1    2    0    0  0.00000000000E+00  0.00000000000E+00 -0.11789188774E+04  0.35998712358E+04  0.34013560818E+04 0.  0.
        1    1    3    3  502    0  0.83342982897E+03  0.14701170640E+04 -0.38738034655E+03  0.17337569018E+04  0.50400001928E-02 0. -1.
       -1    1    3    3    0  502 -0.83342982897E+03 -0.14701170640E+04 -0.79153853081E+03  0.18661143340E+04  0.50400001928E-02 0.  1.
</event>
<event>
 5   0  0.4775023E-08  0.3401560E+04  0.7818609E-02  0.8137523E-01
       -2   -1    0    0    0  501  0.00000000000E+00  0.00000000000E+00  0.32650365346E+04  0.32650365346E+04  0.25500000920E-02 0.  1.
        2   -1    0    0  501    0  0.00000000000E+00  0.00000000000E+00 -0.88594818353E+03  0.88594818354E+03  0.25500000920E-02 0. -1.
    10030    2    1    2    0    0  0.00000000000E+00  0.00000000000E+00  0.23790883511E+04  0.41509847182E+04  0.34015603402E+04 0.  0.
        4    1    3    3  502    0 -0.26350757659E+03  0.91498988375E+03 -0.53019880027E+03  0.10898417825E+04  0.12699999809E+01 0. -1.
       -4    1    3    3    0  502  0.26350757659E+03 -0.91498988375E+03  0.29092871514E+04  0.30611429356E+04  0.12699999809E+01 0.  1.
</event>
<event>
 5   0  0.1625282E-08  0.3399315E+04  0.7818609E-02  0.8138074E-01
       -1   -1    0    0    0  501  0.00000000000E+00  0.00000000000E+00  0.18260719112E+04  0.18260719112E+04  0.50400001928E-02 0.  1.
        1   -1    0    0  501    0  0.00000000000E+00  0.00000000000E+00 -0.15819944482E+04  0.15819944482E+04  0.50400001928E-02 0. -1.
    10030    2    1    2    0    0  0.00000000000E+00  0.00000000000E+00  0.24407746304E+03  0.34080663594E+04  0.33993150048E+04 0.  0.
        1    1    3    3  502    0  0.86881128192E+03 -0.93706755324E+03  0.12455964012E+04  0.17844996603E+04  0.50400001928E-02 0.  1.
       -1    1    3    3    0  502 -0.86881128192E+03  0.93706755324E+03 -0.10015189381E+04  0.16235666991E+04  0.50400001928E-02 0. -1.
</event>
<event>
 5   0  0.4973409E-08  0.3400490E+04  0.7818609E-02  0.8137786E-01
       -2   -1    0    0    0  501  0.00000000000E+00  0.00000000000E+00  0.12007726539E+04  0.12007726539E+04  0.25500000920E-02 0. -1.
        2   -1    0    0  501    0  0.00000000000E+00  0.00000000000E+00 -0.24074781068E+04  0.24074781068E+04  0.25500000920E-02 0.  1.
    10030    2    1    2    0    0  0.00000000000E+00  0.00000000000E+00 -0.12067054529E+04  0.36082507607E+04  0.34004904796E+04 0.  0.
        1    1    3    3  502    0 -0.79038157112E+03  0.58637208219E+03 -0.20745319283E+04  0.22961310870E+04  0.50400001928E-02 0.  1.
       -1    1    3    3    0  502  0.79038157112E+03 -0.58637208219E+03  0.86782647545E+03  0.13121196738E+04  0.50400001928E-02 0. -1.
</event>
<event>
 5   0  0.4775023E-08  0.3403431E+04  0.7818609E-02  0.8137065E-01
       -2   -1    0    0    0  501  0.00000000000E+00  0.00000000000E+00  0.22215674874E+04  0.22215674875E+04  0.25500000920E-02 0. -1.
        2   -1    0    0  501    0  0.00000000000E+00  0.00000000000E+00 -0.13035103740E+04  0.13035103740E+04  0.25500000920E-02 0.  1.
    10030    2    1    2    0    0  0.00000000000E+00  0.00000000000E+00  0.91805711347E+03  0.35250778614E+04  0.34034313664E+04 0.  0.
        4    1    3    3  502    0 -0.10044301467E+04 -0.11764249910E+04 -0.27553035597E+03  0.15712333592E+04  0.12699999809E+01 0.  1.
       -4    1    3    3    0  502  0.10044301467E+04  0.11764249910E+04  0.11935874694E+04  0.19538445023E+04  0.12699999809E+01 0. -1.
</event>
<event>
 5   0  0.5001197E-08  0.3400462E+04  0.7818609E-02  0.8137793E-01
        2   -1    0    0  501    0  0.00000000000E+00  0.00000000000E+00  0.21103435218E+04  0.21103435218E+04  0.25500000920E-02 0.  1.
       -2   -1    0    0    0  501  0.00000000000E+00  0.00000000000E+00 -0.13698171070E+04  0.13698171070E+04  0.25500000920E-02 0. -1.
    10030    2    1    2    0    0  0.00000000000E+00  0.00000000000E+00  0.74052641476E+03  0.34801606289E+04  0.34004615322E+04 0.  0.
        5    1    3    3  502    0 -0.12448362711E+04  0.54988818231E+03  0.14133507266E+04  0.19620338227E+04  0.46999998093E+01 0.  1.
       -5    1    3    3    0  502  0.12448362711E+04 -0.54988818231E+03 -0.67282431187E+03  0.15181268062E+04  0.46999998093E+01 0. -1.
</event>
<event>
 5   0  0.4973409E-08  0.3400153E+04  0.7818609E-02  0.8137869E-01
        2   -1    0    0  501    0  0.00000000000E+00  0.00000000000E+00  0.25552733852E+04  0.25552733852E+04  0.25500000920E-02 0. -1.
       -2   -1    0    0    0  501  0.00000000000E+00  0.00000000000E+00 -0.11310965193E+04  0.11310965193E+04  0.25500000920E-02 0.  1.
    10030    2    1    2    0    0  0.00000000000E+00  0.00000000000E+00  0.14241768659E+04  0.36863699045E+04  0.34001534270E+04 0.  0.
        1    1    3    3  502    0 -0.12647972693E+04  0.64563697074E+03 -0.30131404829E+03  0.14516712390E+04  0.50400001928E-02 0.  1.
       -1    1    3    3    0  502  0.12647972693E+04 -0.64563697074E+03  0.17254909142E+04  0.22346986655E+04  0.50400001928E-02 0. -1.
</event>
<event>
 5   0  0.5001197E-08  0.3399269E+04  0.7818609E-02  0.8138086E-01
       -2   -1    0    0    0  501  0.00000000000E+00  0.00000000000E+00  0.17030940848E+04  0.17030940848E+04  0.25500000920E-02 0. -1.
        2   -1    0    0  501    0  0.00000000000E+00  0.00000000000E+00 -0.16961821168E+04  0.16961821168E+04  0.25500000920E-02 0.  1.
    10030    2    1    2    0    0  0.00000000000E+00  0.00000000000E+00  0.69119679877E+01  0.33992762015E+04  0.33992691743E+04 0.  0.
        5    1    3    3  502    0  0.95935556613E+03  0.12942318200E+04  0.54506261847E+03  0.17007393845E+04  0.46999998093E+01 0. -1.
       -5    1    3    3    0  502 -0.95935556613E+03 -0.12942318200E+04 -0.53815065048E+03  0.16985368170E+04  0.46999998093E+01 0.  1.
</event>
<event>
 5   0  0.4973409E-08  0.3399753E+04  0.7818609E-02  0.8137967E-01
        2   -1    0    0  501    0  0.00000000000E+00  0.00000000000E+00  0.23205748846E+04  0.23205748846E+04  0.25500000920E-02 0.  1.
       -2   -1    0    0    0  501  0.00000000000E+00  0.00000000000E+00 -0.12451998067E+04  0.12451998067E+04  0.25500000920E-02 0. -1.
    10030    2    1    2    0    0  0.00000000000E+00  0.00000000000E+00  0.10753750779E+04  0.35657746913E+04  0.33997525779E+04 0.  0.
        1    1    3    3  502    0 -0.53584995463E+03 -0.50970820744E+03 -0.10676247395E+04  0.12987533311E+04  0.50400001928E-02 0. -1.
       -1    1    3    3    0  502  0.53584995463E+03  0.50970820744E+03  0.21429998173E+04  0.22670213602E+04  0.50400001928E-02 0.  1.
</event>
<event>
 5   0  0.1645631E-08  0.3399696E+04  0.7818609E-02  0.8137981E-01
       -1   -1    0    0    0  501  0.00000000000E+00  0.00000000000E+00  0.11661567812E+04  0.11661567812E+04  0.50400001928E-02 0.  1.
        1   -1    0    0  501    0  0.00000000000E+00  0.00000000000E+00 -0.24777829922E+04  0.24777829922E+04  0.50400001928E-02 0. -1.
    10030    2    1    2    0    0  0.00000000000E+00  0.00000000000E+00 -0.13116262109E+04  0.36439397734E+04  0.33996961269E+04 0.  0.
        4    1    3    3  502    0  0.15210117259E+04 -0.25981853408E+03 -0.14201350847E+04  0.20970855044E+04  0.12699999809E+01 0. -1.
       -4    1    3    3    0  502 -0.15210117259E+04  0.25981853408E+03  0.10850887378E+03  0.15468542690E+04  0.12699999809E+01 0.  1.
</event>
<event>
 5   0  0.1630571E-08  0.3399890E+04  0.7818609E-02  0.8137933E-01
        1   -1    0    0  501    0  0.00000000000E+00  0.00000000000E+00  0.24421802753E+04  0.24421802753E+04  0.50400001928E-02 0. -1.
       -1   -1    0    0    0  501  0.00000000000E+00  0.00000000000E+00 -0.11832920934E+04  0.11832920934E+04  0.50400001928E-02 0.  1.
    10030    2    1    2    0    0  0.00000000000E+00  0.00000000000E+00  0.12588881819E+04  0.36254723687E+04  0.33998897690E+04 0.  0.
        3    1    3    3  502    0 -0.14280484955E+04 -0.24375282023E+03 -0.31899293228E+03  0.14834063651E+04  0.10100000352E+00 0. -1.
       -3    1    3    3    0  502  0.14280484955E+04  0.24375282023E+03  0.15778811142E+04  0.21420660036E+04  0.10100000352E+00 0.  1.
</event>
<event>
 5   0  0.4973409E-08  0.3400714E+04  0.7818609E-02  0.8137731E-01
        2   -1    0    0  501    0  0.00000000000E+00  0.00000000000E+00  0.14331711939E+04  0.14331711940E+04  0.25500000920E-02 0.  1.
       -2   -1    0    0    0  501  0.00000000000E+00  0.00000000000E+00 -0.20173546707E+04  0.20173546707E+04  0.25500000920E-02 0. -1.
    10030    2    1    2    0    0  0.00000000000E+00  0.00000000000E+00 -0.58418347671E+03  0.34505258646E+04  0.34007143967E+04 0.  0.
        1    1    3    3  502    0  0.51366806446E+03 -0.17729023421E+03 -0.19268797331E+04  0.20020370160E+04  0.50400001928E-02 0. -1.
       -1    1    3    3    0  502 -0.51366806446E+03  0.17729023421E+03  0.13426962564E+04  0.14484888486E+04  0.50400001928E-02 0.  1.
</event>
<event>
 5   0  0.1595851E-08  0.3400837E+04  0.7818609E-02  0.8137701E-01
       -1   -1    0    0    0  501  0.00000000000E+00  0.00000000000E+00  0.15405944530E+04  0.15405944530E+04  0.50400001928E-02 0. -1.
        1   -1    0    0  501    0  0.00000000000E+00  0.00000000000E+00 -0.18768234980E+04  0.18768234980E+04  0.50400001928E-02 0.  1.
    10030    2    1    2    0    0  0.00000000000E+00  0.00000000000E+00 -0.33622904496E+03  0.34174179510E+04  0.34008374676E+04 0.  0.
        2    1    3    3  502    0  0.58986706542E+03  0.96327642961E+03  0.11091367706E+04  0.15830442226E+04  0.25500000920E-02 0. -1.
       -2    1    3    3    0  502 -0.58986706542E+03 -0.96327642961E+03 -0.14453658156E+04  0.18343737284E+04  0.25500000920E-02 0.  1.
</event>
<event>
 5   0  0.4764953E-08  0.3399757E+04  0.7818609E-02  0.8137966E-01
       -2   -1    0    0    0  501  0.00000000000E+00  0.00000000000E+00  0.17138531120E+04  0.17138531120E+04  0.25500000920E-02 0.  1.
        2   -1    0    0  501    0  0.00000000000E+00  0.00000000000E+00 -0.16860179876E+04  0.16860179876E+04  0.25500000920E-02 0. -1.
    10030    2    1    2    0    0  0.00000000000E+00  0.00000000000E+00  0.27835124441E+02  0.33998710996E+04  0.33997571531E+04 0.  0.
        2    1    3    3  502    0  0.15872321647E+04 -0.58025957714E+03  0.19717231518E+03  0.17014358770E+04  0.25500000920E-02 0. -1.
       -2    1    3    3    0  502 -0.15872321647E+04  0.58025957714E+03 -0.16933719074E+03  0.16984352227E+04  0.25500000920E-02 0.  1.
</event>
<event>
 5   0  0.1645631E-08  0.3400968E+04  0.7818609E-02  0.8137669E-01
        1   -1    0    0  501    0  0.00000000000E+00  0.00000000000E+00  0.16216799408E+04  0.16216799408E+04  0.50400001928E-02 0. -1.
       -1   -1    0    0    0  501  0.00000000000E+00  0.00000000000E+00 -0.17831178335E+04  0.17831178335E+04  0.50400001928E-02 0.  1.
    10030    2    1    2    0    0  0.00000000000E+00  0.00000000000E+00 -0.16143789266E+03  0.34047977743E+04  0.34009683460E+04 0.  0.
        4    1    3    3  502    0  0.67045775082E+03 -0.12555363267E+04 -0.10122287441E+04  0.17465662617E+04  0.12699999809E+01 0.  1.
       -4    1    3    3    0  502 -0.67045775082E+03  0.12555363267E+04  0.85079085143E+03  0.16582315125E+04  0.12699999809E+01 0. -1.
</event>
<event>
 5   0  0.5001197E-08  0.3399749E+04  0.7818609E-02  0.8137968E-01
        2   -1    0    0  501    0  0.00000000000E+00  0.00000000000E+00  0.16960840545E+04  0.16960840545E+04  0.25500000920E-02 0.  1.
       -2   -1    0    0    0  501  0.00000000000E+00  0.00000000000E+00 -0.17036733127E+04  0.17036733127E+04  0.25500000920E-02 0. -1.
    10030    2    1    2    0    0  0.00000000000E+00  0.00000000000E+00 -0.75892581528E+01  0.33997573672E+04  0.33997488965E+04 0.  0.
        5    1    3    3  502    0  0.10977406538E+04  0.67657985277E+03 -0.11113876602E+04  0.17023511569E+04  0.46999998093E+01 0. -1.
       -5    1    3    3    0  502 -0.10977406538E+04 -0.67657985277E+03  0.11037984021E+04  0.16974062103E+04  0.46999998093E+01 0.  1.
</event>
<event>
 5   0  0.1625282E-08  0.3400139E+04  0.7818609E-02  0.8137872E-01
       -1   -1    0    0    0  501  0.00000000000E+00  0.00000000000E+00  0.11180652038E+04  0.11180652039E+04  0.50400001928E-02 0.  1.
        1   -1    0    0  501    0  0.00000000000E+00  0.00000000000E+00 -0.25850344099E+04  0.25850344099E+04  0.50400001928E-02 0. -1.
    10030    2    1    2    0    0  0.00000000000E+00  0.00000000000E+00 -0.14669692060E+04  0.37030996137E+04  0.34001394233E+04 0.  0.
        1    1    3    3  502    0 -0.15911214231E+04 -0.49751942824E+02 -0.13833916293E+04  0.21090080699E+04  0.50400001928E-02 0. -1.
       -1    1    3    3    0  502  0.15911214231E+04  0.49751942824E+02 -0.83577576738E+02  0.15940915438E+04  0.50400001928E-02 0.  1.
</event>
<event>
 5   0  0.4973409E-08  0.3401067E+04  0.7818609E-02  0.8137644E-01
       -2   -1    0    0    0  501  0.00000000000E+00  0.00000000000E+00  0.18763424080E+04  0.18763424080E+04  0.25500000920E-02 0. -1.
        2   -1    0    0  501    0  0.00000000000E+00  0.00000000000E+00 -0.15411977397E+04  0.15411977397E+04  0.25500000920E-02 0.  1.
    10030    2    1    2    0    0  0.00000000000E+00  0.00000000000E+00  0.33514466835E+03  0.34175401477E+04  0.34010672902E+04 0.  0.
        1    1    3    3  502    0  0.35967579347E+03  0.24503030101E+03  0.18194347497E+04  0.18707616987E+04  0.50400001928E-02 0. -1.
       -1    1    3    3    0  502 -0.35967579347E+03 -0.24503030101E+03 -0.14842900813E+04  0.15467784490E+04  0.50400001928E-02 0.  1.
</event>
<event>
 5   0  0.1595851E-08  0.3399993E+04  0.7818609E-02  0.8137908E-01
       -1   -1    0    0    0  501  0.00000000000E+00  0.00000000000E+00  0.15917823462E+04  0.15917823463E+04  0.50400001928E-02 0.  1.
        1   -1    0    0  501    0  0.00000000000E+00  0.00000000000E+00 -0.18155673360E+04  0.18155673360E+04  0.50400001928E-02 0. -1.
    10030    2    1    2    0    0  0.00000000000E+00  0.00000000000E+00 -0.22378498971E+03  0.34073496822E+04  0.33999929611E+04 0.  0.
        2    1    3    3  502    0  0.38123905457E+03  0.15080357119E+04 -0.79928705403E+03  0.17488209513E+04  0.25500000920E-02 0. -1.
       -2    1    3    3    0  502 -0.38123905457E+03 -0.15080357119E+04  0.57550206432E+03  0.16585287309E+04  0.25500000920E-02 0.  1.
</event>
<event>
 5   0  0.1595851E-08  0.3399816E+04  0.7818609E-02  0.8137951E-01
        1   -1    0    0  501    0  0.00000000000E+00  0.00000000000E+00  0.12186227215E+04  0.12186227215E+04  0.50400001928E-02 0. -1.
       -1   -1    0    0    0  501  0.00000000000E+00  0.00000000000E+00 -0.23712734734E+04  0.23712734734E+04  0.50400001928E-02 0.  1.
    10030    2    1    2    0    0  0.00000000000E+00  0.00000000000E+00 -0.11526507520E+04  0.35898961949E+04  0.33998163089E+04 0.  0.
        2    1    3    3  502    0  0.16163948518E+04  0.33619065578E+03 -0.14880450047E+03  0.16576788752E+04  0.25500000920E-02 0. -1.
       -2    1    3    3    0  502 -0.16163948518E+04 -0.33619065578E+03 -0.10038462515E+04  0.19322173197E+04  0.25500000920E-02 0.  1.
</event>
<event>
 5   0  0.1630571E-08  0.3400521E+04  0.7818609E-02  0.8137779E-01
        1   -1    0    0  501    0  0.00000000000E+00  0.00000000000E+00  0.17334649675E+04  0.17334649675E+04  0.50400001928E-02 0.  1.
       -1   -1    0    0    0  501  0.00000000000E+00  0.00000000000E+00 -0.16676917675E+04  0.16676917675E+04  0.50400001928E-02 0. -1.
    10030    2    1    2    0    0  0.00000000000E+00  0.00000000000E+00  0.65773199933E+02  0.34011567350E+04  0.34005206987E+04 0.  0.
        3    1    3    3  502    0  0.15805879846E+04 -0.16626749161E+03  0.63713699137E+03  0.17122636513E+04  0.10100000352E+00 0.  1.
       -3    1    3    3    0  502 -0.15805879846E+04  0.16626749161E+03 -0.57136379144E+03  0.16888930837E+04  0.10100000352E+00 0. -1.
</event>
<event>
 5   0  0.1579536E-08  0.3398894E+04  0.7818609E-02  0.8138178E-01
       -1   -1    0    0    0  501  0.00000000000E+00  0.00000000000E+00  0.16152851870E+04  0.16152851870E+04  0.50400001928E-02 0. -1.
        1   -1    0    0  501    0  0.00000000000E+00  0.00000000000E+00 -0.17879939024E+04  0.17879939024E+04  0.50400001928E-02 0.  1.
    10030    2    1    2    0    0  0.00000000000E+00  0.00000000000E+00 -0.17270871536E+03  0.34032790894E+04  0.33988939759E+04 0.  0.
        5    1    3    3  502    0  0.21190993360E+03  0.41149701444E+03 -0.17236589193E+04  0.17847290475E+04  0.46999998093E+01 0.  1.
       -5    1    3    3    0  502 -0.21190993360E+03 -0.41149701444E+03  0.15509502040E+04  0.16185500419E+04  0.46999998093E+01 0. -1.
</event>
<event>
 5   0  0.1645631E-08  0.3406409E+04  0.7818609E-02  0.8136335E-01
       -1   -1    0    0    0  501  0.00000000000E+00  0.00000000000E+00  0.87111014525E+03  0.87111014526E+03  0.50400001928E-02 0. -1.
        1   -1    0    0  501    0  0.00000000000E+00  0.00000000000E+00 -0.33301239194E+04  0.33301239194E+04  0.50400001928E-02 0.  1.
    10030    2    1    2    0    0  0.00000000000E+00  0.00000000000E+00 -0.24590137742E+04  0.42012340647E+04  0.34064085082E+04 0.  0.
        4    1    3    3  502    0 -0.10970346321E+04  0.12072050035E+04 -0.62520645213E+03  0.17469154603E+04  0.12699999809E+01 0.  1.
       -4    1    3    3    0  502  0.10970346321E+04 -0.12072050035E+04 -0.18338073220E+04  0.24543186044E+04  0.12699999809E+01 0. -1.
</event>
<event>
 5   0  0.4775023E-08  0.3401869E+04  0.7818609E-02  0.8137448E-01
       -2   -1    0    0    0  501  0.00000000000E+00  0.00000000000E+00  0.16397802013E+04  0.16397802013E+04  0.25500000920E-02 0. -1.
        2   -1    0    0  501    0  0.00000000000E+00  0.00000000000E+00 -0.17643696457E+04  0.17643696457E+04  0.25500000920E-02 0.  1.
    10030    2    1    2    0    0  0.00000000000E+00  0.00000000000E+00 -0.12458944436E+03  0.34041498470E+04  0.34018691408E+04 0.  0.
        4    1    3    3  502    0 -0.13961815365E+04  0.68303796055E+03  0.62904693245E+03  0.16767723145E+04  0.12699999809E+01 0. -1.
       -4    1    3    3    0  502  0.13961815365E+04 -0.68303796055E+03 -0.75363637680E+03  0.17273775325E+04  0.12699999809E+01 0.  1.
</event>
<event>
 5   0  0.4973409E-08  0.3401024E+04  0.7818609E-02  0.8137655E-01
       -2   -1    0    0    0  501  0.00000000000E+00  0.00000000000E+00  0.16809959758E+04  0.16809959758E+04  0.25500000920E-02 0.  1.
        2   -1    0    0  501    0  0.00000000000E+00  0.00000000000E+00 -0.17202541161E+04  0.17202541161E+04  0.25500000920E-02 0. -1.
    10030    2    1    2    0    0  0.00000000000E+00  0.00000000000E+00 -0.39258140323E+02  0.34012500918E+04  0.34010235203E+04 0.  0.
        1    1    3    3  502    0 -0.12934004852E+03  0.16693853022E+04  0.27731513040E+03  0.16971976364E+04  0.50400001928E-02 0. -1.
       -1    1    3    3    0  502  0.12934004852E+03 -0.16693853022E+04 -0.31657327072E+03  0.17040524555E+04  0.50400001928E-02 0.  1.
</event>
<event>
 5   0  0.5001197E-08  0.3400415E+04  0.7818609E-02  0.8137804E-01
       -2   -1    0    0    0  501  0.00000000000E+00  0.00000000000E+00  0.14062669502E+04  0.14062669502E+04  0.25500000920E-02 0.  1.
        2   -1    0    0  501    0  0.00000000000E+00  0.00000000000E+00 -0.20555879971E+04  0.20555879971E+04  0.25500000920E-02 0. -1.
    10030    2    1    2    0    0  0.00000000000E+00  0.00000000000E+00 -0.64932104691E+03  0.34618549473E+04  0.34004149533E+04 0.  0.
        5    1    3    3  502    0 -0.14770653579E+04 -0.76272278002E+03 -0.68777750475E+03  0.17990353239E+04  0.46999998093E+01 0. -1.
       -5    1    3    3    0  502  0.14770653579E+04  0.76272278002E+03  0.38456457843E+02  0.16628196234E+04  0.46999998093E+01 0.  1.
</event>
<event>
 5   0  0.4764953E-08  0.3399678E+04  0.7818609E-02  0.8137985E-01
       -2   -1    0    0    0  501  0.00000000000E+00  0.00000000000E+00  0.13810668306E+04  0.13810668306E+04  0.25500000920E-02 0. -1.
        2   -1    0    0  501    0  0.00000000000E+00  0.00000000000E+00 -0.20921887347E+04  0.20921887347E+04  0.25500000920E-02 0.  1.
    10030    2    1    2    0    0  0.00000000000E+00  0.00000000000E+00 -0.71112190409E+03  0.34732555653E+04  0.33996779053E+04 0.  0.
        2    1    3    3  502    0 -0.23815330891E+03  0.50026488729E+03 -0.19973473485E+04  0.20727707029E+04  0.25500000920E-02 0.  1.
       -2    1    3    3    0  502  0.23815330891E+03 -0.50026488729E+03  0.12862254444E+04  0.14004848624E+04  0.25500000920E-02 0. -1.
</event>
<event>
 5   0  0.1595851E-08  0.3399805E+04  0.7818609E-02  0.8137954E-01
        1   -1    0    0  501    0  0.00000000000E+00  0.00000000000E+00  0.25635771025E+04  0.25635771025E+04  0.50400001928E-02 0. -1.
       -1   -1    0    0    0  501  0.00000000000E+00  0.00000000000E+00 -0.11272018146E+04  0.11272018146E+04  0.50400001928E-02 0.  1.
    10030    2    1    2    0    0  0.00000000000E+00  0.00000000000E+00  0.14363752879E+04  0.36907789171E+04  0.33998051485E+04 0.  0.
        2    1    3    3  502    0 -0.13287734406E+04  0.10584114183E+04  0.78506512351E+03  0.18714167989E+04  0.25500000920E-02 0. -1.
       -2    1    3    3    0  502  0.13287734406E+04 -0.10584114183E+04  0.65131016436E+03  0.18193621182E+04  0.25500000920E-02 0.  1.
</event>
<event>
 5   0  0.1625282E-08  0.3399504E+04  0.7818609E-02  0.8138028E-01
       -1   -1    0    0    0  501  0.00000000000E+00  0.00000000000E+00  0.19378963559E+04  0.19378963559E+04  0.50400001928E-02 0. -1.
        1   -1    0    0  501    0  0.00000000000E+00  0.00000000000E+00 -0.14908727443E+04  0.14908727444E+04  0.50400001928E-02 0.  1.
    10030    2    1    2    0    0  0.00000000000E+00  0.00000000000E+00  0.44702361153E+03  0.34287691002E+04  0.33995039982E+04 0.  0.
        1    1    3    3  502    0 -0.55061435313E+03 -0.15573716035E+04  0.62767876971E+03  0.17670775634E+04  0.50400001928E-02 0. -1.
       -1    1    3    3    0  502  0.55061435313E+03  0.15573716035E+04 -0.18065515818E+03  0.16616915368E+04  0.50400001928E-02 0.  1.
</event>
<event>
 5   0  0.5001197E-08  0.3380233E+04  0.7818609E-02  0.8142775E-01
        2   -1    0    0  501    0  0.00000000000E+00  0.00000000000E+00  0.16425446846E+04  0.16425446846E+04  0.25500000920E-02 0.  1.
       -2   -1    0    0    0  501  0.00000000000E+00  0.00000000000E+00 -0.17390657299E+04  0.17390657299E+04  0.25500000920E-02 0. -1.
    10030    2    1    2    0    0  0.00000000000E+00  0.00000000000E+00 -0.96521045341E+02  0.33816104145E+04  0.33802326374E+04 0.  0.
        5    1    3    3  502    0 -0.10969376748E+03  0.10348641234E+02  0.16389414289E+04  0.16426475320E+04  0.46999998093E+01 0.  1.
       -5    1    3    3    0  502  0.10969376748E+03 -0.10348641234E+02 -0.17354624743E+04  0.17389628825E+04  0.46999998093E+01 0. -1.
</event>
<event>
 5   0  0.4973409E-08  0.3400510E+04  0.7818609E-02  0.8137781E-01
        2   -1    0    0  501    0  0.00000000000E+00  0.00000000000E+00  0.21919786824E+04  0.21919786824E+04  0.25500000920E-02 0.  1.
       -2   -1    0    0    0  501  0.00000000000E+00  0.00000000000E+00 -0.13188392697E+04  0.13188392697E+04  0.25500000920E-02 0. -1.
    10030    2    1    2    0    0  0.00000000000E+00  0.00000000000E+00  0.87313941266E+03  0.35108179521E+04  0.34005102939E+04 0.  0.
        1    1    3    3  502    0 -0.14902546582E+02 -0.31389191385E+02 -0.13184726593E+04  0.13189304456E+04  0.50400001928E-02 0. -1.
       -1    1    3    3    0  502  0.14902546582E+02  0.31389191385E+02  0.21916120719E+04  0.21918875065E+04  0.50400001928E-02 0.  1.
</event>
<event>
 5   0  0.1579536E-08  0.3397347E+04  0.7818609E-02  0.8138558E-01
        1   -1    0    0  501    0  0.00000000000E+00  0.00000000000E+00  0.18343421121E+04  0.18343421121E+04  0.50400001928E-02 0. -1.
       -1   -1    0    0    0  501  0.00000000000E+00  0.00000000000E+00 -0.15730389153E+04  0.15730389154E+04  0.50400001928E-02 0.  1.
    10030    2    1    2    0    0  0.00000000000E+00  0.00000000000E+00  0.26130319676E+03  0.34073810275E+04  0.33973469216E+04 0.  0.
        5    1    3    3  502    0  0.94219681329E+03  0.51236040654E+03  0.14518202279E+04  0.18050075028E+04  0.46999998093E+01 0. -1.
       -5    1    3    3    0  502 -0.94219681329E+03 -0.51236040654E+03 -0.11905170311E+04  0.16023735247E+04  0.46999998093E+01 0.  1.
</event>
<event>
 5   0  0.1630571E-08  0.3402172E+04  0.7818609E-02  0.8137373E-01
       -1   -1    0    0    0  501  0.00000000000E+00  0.00000000000E+00  0.14929683880E+04  0.14929683880E+04  0.50400001928E-02 0.  1.
        1   -1    0    0  501    0  0.00000000000E+00  0.00000000000E+00 -0.19382149256E+04  0.19382149256E+04  0.50400001928E-02 0. -1.
    10030    2    1    2    0    0  0.00000000000E+00  0.00000000000E+00 -0.44524653764E+03  0.34311833136E+04  0.34021720198E+04 0.  0.
        3    1    3    3  502    0 -0.11345720731E+04  0.11611974310E+04  0.28970495918E+03  0.16491095284E+04  0.10100000352E+00 0.  1.
       -3    1    3    3    0  502  0.11345720731E+04 -0.11611974310E+04 -0.73495149683E+03  0.17820737852E+04  0.10100000352E+00 0. -1.
</event>
<event>
 5   0  0.5001197E-08  0.3399110E+04  0.7818609E-02  0.8138125E-01
       -2   -1    0    0    0  501  0.00000000000E+00  0.00000000000E+00  0.30616336802E+04  0.30616336802E+04  0.25500000920E-02 0. -1.
        2   -1    0    0  501    0  0.00000000000E+00  0.00000000000E+00 -0.94344619650E+03  0.94344619650E+03  0.25500000920E-02 0.  1.
    10030    2    1    2    0    0  0.00000000000E+00  0.00000000000E+00  0.21181874837E+04  0.40050798767E+04  0.33991096779E+04 0.  0.
        5    1    3    3  502    0 -0.41968569584E+03  0.16443985598E+04  0.95186535171E+03  0.19458295004E+04  0.46999998093E+01 0. -1.
       -5    1    3    3    0  502  0.41968569584E+03 -0.16443985598E+04  0.11663221320E+04  0.20592503763E+04  0.46999998093E+01 0.  1.
</event>
<event>
 5   0  0.1630571E-08  0.3402577E+04  0.7818609E-02  0.8137274E-01
       -1   -1    0    0    0  501  0.00000000000E+00  0.00000000000E+00  0.11703907235E+04  0.11703907235E+04  0.50400001928E-02 0.  1.
        1   -1    0    0  501    0  0.00000000000E+00  0.00000000000E+00 -0.24730047037E+04  0.24730047037E+04  0.50400001928E-02 0. -1.
    10030    2    1    2    0    0  0.00000000000E+00  0.00000000000E+00 -0.13026139802E+04  0.36433954272E+04  0.34025765322E+04 0.  0.
        3    1    3    3  502    0 -0.93393669817E+03 -0.13058352103E+04 -0.48489508628E+02  0.16061738994E+04  0.10100000352E+00 0.  1.
       -3    1    3    3    0  502  0.93393669817E+03  0.13058352103E+04 -0.12541244716E+04  0.20372215277E+04  0.10100000352E+00 0. -1.
</event>
<event>
 5   0  0.4946315E-08  0.3400169E+04  0.7818609E-02  0.8137865E-01
       -2   -1    0    0    0  501  0.00000000000E+00  0.00000000000E+00  0.24220816214E+04  0.24220816214E+04  0.25500000920E-02 0. -1.
        2   -1    0    0  501    0  0.00000000000E+00  0.00000000000E+00 -0.11933073529E+04  0.11933073529E+04  0.25500000920E-02 0.  1.
    10030    2    1    2    0    0  0.00000000000E+00  0.00000000000E+00  0.12287742685E+04  0.36153889744E+04  0.34001692948E+04 0.  0.
        3    1    3    3  502    0 -0.55250761795E+03 -0.81930602510E+03 -0.85656422427E+03  0.13077573594E+04  0.10100000352E+00 0.  1.
       -3    1    3    3    0  502  0.55250761795E+03  0.81930602510E+03  0.20853384927E+04  0.23076316149E+04  0.10100000352E+00 0. -1.
</event>
<event>
 5   0  0.1595851E-08  0.3401490E+04  0.7818609E-02  0.8137541E-01
       -1   -1    0    0    0  501  0.00000000000E+00  0.00000000000E+00  0.15307802329E+04  0.15307802329E+04  0.50400001928E-02 0.  1.
        1   -1    0    0  501    0  0.00000000000E+00  0.00000000000E+00 -0.18895815446E+04  0.18895815446E+04  0.50400001928E-02 0. -1.
    10030    2    1    2    0    0  0.00000000000E+00  0.00000000000E+00 -0.35880131172E+03  0.34203617775E+04  0.34014903069E+04 0.  0.
        2    1    3    3  502    0 -0.62193873682E+03 -0.36246900376E+03 -0.17288396823E+04  0.18727194713E+04  0.25500000920E-02 0. -1.
       -2    1    3    3    0  502  0.62193873682E+03  0.36246900376E+03  0.13700383706E+04  0.15476423062E+04  0.25500000920E-02 0.  1.
</event>
<event>
 5   0  0.4973409E-08  0.3399352E+04  0.7818609E-02  0.8138065E-01
        2   -1    0    0  501    0  0.00000000000E+00  0.00000000000E+00  0.15650319335E+04  0.15650319335E+04  0.25500000920E-02 0.  1.
       -2   -1    0    0    0  501  0.00000000000E+00  0.00000000000E+00 -0.18459038932E+04  0.18459038932E+04  0.25500000920E-02 0. -1.
    10030    2    1    2    0    0  0.00000000000E+00  0.00000000000E+00 -0.28087195971E+03  0.34109358268E+04  0.33993520201E+04 0.  0.
        1    1    3    3  502    0  0.11509512151E+04  0.16436160111E+03 -0.13844976358E+04  0.18079096048E+04  0.50400001928E-02 0. -1.
       -1    1    3    3    0  502 -0.11509512151E+04 -0.16436160111E+03  0.11036256761E+04  0.16030262220E+04  0.50400001928E-02 0.  1.
</event>
<event>
 5   0  0.1595851E-08  0.3402047E+04  0.7818609E-02  0.8137404E-01
       -1   -1    0    0    0  501  0.00000000000E+00  0.00000000000E+00  0.23356219496E+04  0.23356219497E+04  0.50400001928E-02 0. -1.
        1   -1    0    0  501    0  0.00000000000E+00  0.00000000000E+00 -0.12388481120E+04  0.12388481120E+04  0.50400001928E-02 0.  1.
    10030    2    1    2    0    0  0.00000000000E+00  0.00000000000E+00  0.10967738376E+04  0.35744700617E+04  0.34020469384E+04 0.  0.
        2    1    3    3  502    0 -0.12757472909E+04 -0.42972421834E+03  0.16409381506E+04  0.21224683904E+04  0.25500000920E-02 0. -1.
       -2    1    3    3    0  502  0.12757472909E+04  0.42972421834E+03 -0.54416431300E+03  0.14520016713E+04  0.25500000920E-02 0.  1.
</event>
<event>
 5   0  0.4775023E-08  0.3399627E+04  0.7818609E-02  0.8137998E-01
        2   -1    0    0  501    0  0.00000000000E+00  0.00000000000E+00  0.15872679567E+04  0.15872679567E+04  0.25500000920E-02 0.  1.
       -2   -1    0    0    0  501  0.00000000000E+00  0.00000000000E+00 -0.18203393542E+04  0.18203393542E+04  0.25500000920E-02 0. -1.
    10030    2    1    2    0    0  0.00000000000E+00  0.00000000000E+00 -0.23307139750E+03  0.34076073109E+04  0.33996272309E+04 0.  0.
        4    1    3    3  502    0  0.55959852691E+03 -0.37412138993E+03  0.14479764338E+04  0.15967951313E+04  0.12699999809E+01 0.  1.
       -4    1    3    3    0  502 -0.55959852691E+03  0.37412138993E+03 -0.16810478313E+04  0.18108121796E+04  0.12699999809E+01 0. -1.
</event>
<event>
 5   0  0.1645631E-08  0.3398810E+04  0.7818609E-02  0.8138198E-01
        1   -1    0    0  501    0  0.00000000000E+00  0.00000000000E+00  0.13465111965E+04  0.13465111965E+04  0.50400001928E-02 0. -1.
       -1   -1    0    0    0  501  0.00000000000E+00  0.00000000000E+00 -0.21447855368E+04  0.21447855368E+04  0.50400001928E-02 0.  1.
    10030    2    1    2    0    0  0.00000000000E+00  0.00000000000E+00 -0.79827434031E+03  0.34912967333E+04  0.33988102267E+04 0.  0.
        4    1    3    3  502    0 -0.27113833974E+03  0.35829644299E+03 -0.20826623773E+04  0.21305812660E+04  0.12699999809E+01 0.  1.
       -4    1    3    3    0  502  0.27113833974E+03 -0.35829644299E+03  0.12843880370E+04  0.13607154673E+04  0.12699999809E+01 0. -1.
</event>
<event>
 5   0  0.1595851E-08  0.3399463E+04  0.7818609E-02  0.8138038E-01
        1   -1    0    0  501    0  0.00000000000E+00  0.00000000000E+00  0.21353751671E+04  0.21353751671E+04  0.50400001928E-02 0. -1.
       -1   -1    0    0    0  501  0.00000000000E+00  0.00000000000E+00 -0.13529646514E+04  0.13529646514E+04  0.50400001928E-02 0.  1.
    10030    2    1    2    0    0  0.00000000000E+00  0.00000000000E+00  0.78241051572E+03  0.34883398186E+04  0.33994629686E+04 0.  0.
        2    1    3    3  502    0 -0.97092499277E+03 -0.80031924146E+03  0.15638332410E+04  0.20071822627E+04  0.25500000920E-02 0. -1.
       -2    1    3    3    0  502  0.97092499277E+03  0.80031924146E+03 -0.78142272529E+03  0.14811575559E+04  0.25500000920E-02 0.  1.
</event>
<event>
 5   0  0.1579536E-08  0.3401304E+04  0.7818609E-02  0.8137586E-01
        1   -1    0    0  501    0  0.00000000000E+00  0.00000000000E+00  0.20052814372E+04  0.20052814372E+04  0.50400001928E-02 0.  1.
       -1   -1    0    0    0  501  0.00000000000E+00  0.00000000000E+00 -0.14423001326E+04  0.14423001326E+04  0.50400001928E-02 0. -1.
    10030    2    1    2    0    0  0.00000000000E+00  0.00000000000E+00  0.56298130458E+03  0.34475815699E+04  0.34013042692E+04 0.  0.
        5    1    3    3  502    0  0.80562460105E+03  0.35602569959E+03 -0.11930915882E+04  0.14829952543E+04  0.46999998093E+01 0. -1.
       -5    1    3    3    0  502 -0.80562460105E+03 -0.35602569959E+03  0.17560728927E+04  0.19645863155E+04  0.46999998093E+01 0.  1.
</event>
<event>
 5   0  0.1595851E-08  0.3398833E+04  0.7818609E-02  0.8138193E-01
       -1   -1    0    0    0  501  0.00000000000E+00  0.00000000000E+00  0.12773193330E+04  0.12773193331E+04  0.50400001928E-02 0. -1.
        1   -1    0    0  501    0  0.00000000000E+00  0.00000000000E+00 -0.22609985629E+04  0.22609985629E+04  0.50400001928E-02 0.  1.
    10030    2    1    2    0    0  0.00000000000E+00  0.00000000000E+00 -0.98367922986E+03  0.35383178960E+04  0.33988334331E+04 0.  0.
        2    1    3    3  502    0  0.51545614466E+03 -0.15245539670E+04  0.76511712584E+02  0.16111529653E+04  0.25500000920E-02 0. -1.
       -2    1    3    3    0  502 -0.51545614466E+03  0.15245539670E+04 -0.10601909424E+04  0.19271649306E+04  0.25500000920E-02 0.  1.
</event>
<event>
 5   0  0.1630571E-08  0.3400652E+04  0.7818609E-02  0.8137746E-01
        1   -1    0    0  501    0  0.00000000000E+00  0.00000000000E+00  0.17141308009E+04  0.17141308009E+04  0.50400001928E-02 0.  1.
       -1   -1    0    0    0  501  0.00000000000E+00  0.00000000000E+00 -0.16866326394E+04  0.16866326394E+04  0.50400001928E-02 0. -1.
    10030    2    1    2    0    0  0.00000000000E+00  0.00000000000E+00  0.27498161557E+02  0.34007634403E+04  0.34006522651E+04 0.  0.
        3    1    3    3  502    0  0.10497362207E+04  0.10119586250E+03 -0.13200569498E+04  0.16895967260E+04  0.10100000352E+00 0. -1.
       -3    1    3    3    0  502 -0.10497362207E+04 -0.10119586250E+03  0.13475551114E+04  0.17111667143E+04  0.10100000352E+00 0.  1.
</event>
<event>
 5   0  0.1579536E-08  0.3399798E+04  0.7818609E-02  0.8137956E-01
       -1   -1    0    0    0  501  0.00000000000E+00  0.00000000000E+00  0.15935595049E+04  0.15935595049E+04  0.50400001928E-02 0.  1.
        1   -1    0    0  501    0  0.00000000000E+00  0.00000000000E+00 -0.18133344349E+04  0.18133344350E+04  0.50400001928E-02 0. -1.
    10030    2    1    2    0    0  0.00000000000E+00  0.00000000000E+00 -0.21977493002E+03  0.34068939399E+04  0.33997978319E+04 0.  0.
        5    1    3    3  502    0  0.15860589909E+04 -0.56867093352E+03  0.11567006013E+03  0.16888965055E+04  0.46999998093E+01 0.  1.
       -5    1    3    3    0  502 -0.15860589909E+04  0.56867093352E+03 -0.33544499014E+03  0.17179974344E+04  0.46999998093E+01 0. -1.
</event>
<event>
 5   0  0.1579536E-08  0.3400288E+04  0.7818609E-02  0.8137836E-01
       -1   -1    0    0    0  501  0.00000000000E+00  0.00000000000E+00  0.30080417969E+04  0.30080417969E+04  0.50400001928E-02 0. -1.
        1   -1    0    0  501    0  0.00000000000E+00  0.00000000000E+00 -0.96092077495E+03  0.96092077496E+03  0.50400001928E-02 0.  1.
    10030    2    1    2    0    0  0.00000000000E+00  0.00000000000E+00  0.20471210219E+04  0.39689625718E+04  0.34002881375E+04 0.  0.
        5    1    3    3  502    0 -0.94706240297E+03  0.10212823799E+04  0.21615613137E+04  0.25714420657E+04  0.46999998093E+01 0. -1.
       -5    1    3    3    0  502  0.94706240297E+03 -0.10212823799E+04 -0.11444029181E+03  0.13975205061E+04  0.46999998093E+01 0.  1.
</event>
<event>
 5   0  0.1579536E-08  0.3400718E+04  0.7818609E-02  0.8137730E-01
        1   -1    0    0  501    0  0.00000000000E+00  0.00000000000E+00  0.20373429293E+04  0.20373429293E+04  0.50400001928E-02 0. -1.
       -1   -1    0    0    0  501  0.00000000000E+00  0.00000000000E+00 -0.14191132257E+04  0.14191132257E+04  0.50400001928E-02 0.  1.
    10030    2    1    2    0    0  0.00000000000E+00  0.00000000000E+00  0.61822970362E+03  0.34564561550E+04  0.34007177456E+04 0.  0.
        5    1    3    3  502    0 -0.13900649589E+04 -0.23246492142E+03  0.12759566151E+04  0.19011596207E+04  0.46999998093E+01 0.  1.
       -5    1    3    3    0  502  0.13900649589E+04  0.23246492142E+03 -0.65772691149E+03  0.15552965343E+04  0.46999998093E+01 0. -1.
</event>
<event>
 5   0  0.4775023E-08  0.3400343E+04  0.7818609E-02  0.8137822E-01
        2   -1    0    0  501    0  0.00000000000E+00  0.00000000000E+00  0.22899862012E+04  0.22899862012E+04  0.25500000920E-02 0. -1.
       -2   -1    0    0    0  501  0.00000000000E+00  0.00000000000E+00 -0.12622708394E+04  0.12622708394E+04  0.25500000920E-02 0.  1.
    10030    2    1    2    0    0  0.00000000000E+00  0.00000000000E+00  0.10277153618E+04  0.35522570406E+04  0.34003428088E+04 0.  0.
        4    1    3    3  502    0 -0.76144353721E+03 -0.14561333652E+04  0.96977301795E+03  0.19080309109E+04  0.12699999809E+01 0. -1.
       -4    1    3    3    0  502  0.76144353721E+03  0.14561333652E+04  0.57942343853E+02  0.16442261297E+04  0.12699999809E+01 0.  1.
</event>
<event>
 5   0  0.1645631E-08  0.3403441E+04  0.7818609E-02  0.8137062E-01
        1   -1    0    0  501    0  0.00000000000E+00  0.00000000000E+00  0.12008687385E+04  0.12008687385E+04  0.50400001928E-02 0.  1.
       -1   -1    0    0    0  501  0.00000000000E+00  0.00000000000E+00 -0.24114650719E+04  0.24114650719E+04  0.50400001928E-02 0. -1.
    10030    2    1    2    0    0  0.00000000000E+00  0.00000000000E+00 -0.12105963334E+04  0.36123338104E+04  0.34034412109E+04 0.  0.
        4    1    3    3  502    0  0.12140502856E+04  0.59671516445E+03  0.49047480889E+03  0.14389420539E+04  0.12699999809E+01 0.  1.
       -4    1    3    3    0  502 -0.12140502856E+04 -0.59671516445E+03 -0.17010711422E+04  0.21733917565E+04  0.12699999809E+01 0. -1.
</event>
<event>
 5   0  0.4946315E-08  0.3398078E+04  0.7818609E-02  0.8138378E-01
        2   -1    0    0  501    0  0.00000000000E+00  0.00000000000E+00  0.19629676772E+04  0.19629676772E+04  0.25500000920E-02 0. -1.
       -2   -1    0    0    0  501  0.00000000000E+00  0.00000000000E+00 -0.14705964132E+04  0.14705964132E+04  0.25500000920E-02 0.  1.
    10030    2    1    2    0    0  0.00000000000E+00  0.00000000000E+00  0.49237126401E+03  0.34335640904E+04  0.33980778245E+04 0.  0.
        3    1    3    3  502    0  0.64448379616E+03 -0.21141991943E+03 -0.13278613362E+04  0.14910645473E+04  0.10100000352E+00 0.  1.
       -3    1    3    3    0  502 -0.64448379616E+03  0.21141991943E+03  0.18202326002E+04  0.19424995431E+04  0.10100000352E+00 0. -1.
</event>
<event>
 5   0  0.4973409E-08  0.3400107E+04  0.7818609E-02  0.8137880E-01
        2   -1    0    0  501    0  0.00000000000E+00  0.00000000000E+00  0.28990451915E+04  0.28990451915E+04  0.25500000920E-02 0.  1.
       -2   -1    0    0    0  501  0.00000000000E+00  0.00000000000E+00 -0.99694241309E+03  0.99694241310E+03  0.25500000920E-02 0. -1.
    10030    2    1    2    0    0  0.00000000000E+00  0.00000000000E+00  0.19021027785E+04  0.38959876046E+04  0.34001065330E+04 0.  0.
        1    1    3    3  502    0  0.15728479865E+04 -0.16172955425E+03  0.23531329373E+03  0.15985554677E+04  0.50400001928E-02 0. -1.
       -1    1    3    3    0  502 -0.15728479865E+04  0.16172955425E+03  0.16667894847E+04  0.22974321369E+04  0.50400001928E-02 0.  1.
</event>
<event>
 5   0  0.1645631E-08  0.3401556E+04  0.7818609E-02  0.8137524E-01
       -1   -1    0    0    0  501  0.00000000000E+00  0.00000000000E+00  0.15828045405E+04  0.15828045405E+04  0.50400001928E-02 0.  1.
        1   -1    0    0  501    0  0.00000000000E+00  0.00000000000E+00 -0.18275450656E+04  0.18275450656E+04  0.50400001928E-02 0. -1.
    10030    2    1    2    0    0  0.00000000000E+00  0.00000000000E+00 -0.24474052514E+03  0.34103496061E+04  0.34015564836E+04 0.  0.
        4    1    3    3  502    0 -0.16464682871E+04 -0.29241343186E+03 -0.43346510977E+03  0.17275002315E+04  0.12699999809E+01 0.  1.
       -4    1    3    3    0  502  0.16464682871E+04  0.29241343186E+03  0.18872458463E+03  0.16828493746E+04  0.12699999809E+01 0. -1.
</event>
<event>
 5   0  0.4973409E-08  0.3398749E+04  0.7818609E-02  0.8138213E-01
       -2   -1    0    0    0  501  0.00000000000E+00  0.00000000000E+00  0.14268223419E+04  0.14268223419E+04  0.25500000920E-02 0. -1.
        2   -1    0    0  501    0  0.00000000000E+00  0.00000000000E+00 -0.20239893803E+04  0.20239893803E+04  0.25500000920E-02 0.  1.
    10030    2    1    2    0    0  0.00000000000E+00  0.00000000000E+00 -0.59716703836E+03  0.34508117222E+04  0.33987487507E+04 0.  0.
        1    1    3    3  502    0 -0.13031166766E+04  0.32878801255E+03  0.75737611042E+03  0.15426708018E+04  0.50400001928E-02 0. -1.
       -1    1    3    3    0  502  0.13031166766E+04 -0.32878801255E+03 -0.13545431488E+04  0.19081409204E+04  0.50400001928E-02 0.  1.
</event>
<event>
 5   0  0.4973409E-08  0.3404341E+04  0.7818609E-02  0.8136842E-01
        2   -1    0    0  501    0  0.00000000000E+00  0.00000000000E+00  0.30371822927E+04  0.30371822927E+04  0.25500000920E-02 0.  1.
       -2   -1    0    0    0  501  0.00000000000E+00  0.00000000000E+00 -0.95397109401E+03  0.95397109401E+03  0.25500000920E-02 0. -1.
    10030    2    1    2    0    0  0.00000000000E+00  0.00000000000E+00  0.20832111987E+04  0.39911533867E+04  0.34043408257E+04 0.  0.
        1    1    3    3  502    0  0.26899600648E+03 -0.69806220508E+03 -0.75091011427E+03  0.10599602320E+04  0.50400001928E-02 0. -1.
       -1    1    3    3    0  502 -0.26899600648E+03  0.69806220508E+03  0.28341213129E+04  0.29311931547E+04  0.50400001928E-02 0.  1.
</event>
<event>
 5   0  0.1595851E-08  0.3399701E+04  0.7818609E-02  0.8137980E-01
        1   -1    0    0  501    0  0.00000000000E+00  0.00000000000E+00  0.18968827809E+04  0.18968827809E+04  0.50400001928E-02 0. -1.
       -1   -1    0    0    0  501  0.00000000000E+00  0.00000000000E+00 -0.15232840727E+04  0.15232840727E+04  0.50400001928E-02 0.  1.
    10030    2    1    2    0    0  0.00000000000E+00  0.00000000000E+00  0.37359870822E+03  0.34201668536E+04  0.33997007679E+04 0.  0.
        2    1    3    3  502    0  0.20124783196E+03 -0.92651557535E+03 -0.12325659508E+04  0.15550403932E+04  0.25500000920E-02 0.  1.
       -2    1    3    3    0  502 -0.20124783196E+03  0.92651557535E+03  0.16061646591E+04  0.18651264604E+04  0.25500000920E-02 0. -1.
</event>
<event>
 5   0  0.4973409E-08  0.3405898E+04  0.7818609E-02  0.8136460E-01
        2   -1    0    0  501    0  0.00000000000E+00  0.00000000000E+00  0.16382547649E+04  0.16382547649E+04  0.25500000920E-02 0.  1.
       -2   -1    0    0    0  501  0.00000000000E+00  0.00000000000E+00 -0.17701975225E+04  0.17701975225E+04  0.25500000920E-02 0. -1.
    10030    2    1    2    0    0  0.00000000000E+00  0.00000000000E+00 -0.13194275753E+03  0.34084522874E+04  0.34058975475E+04 0.  0.
        1    1    3    3  502    0 -0.69871594636E+03  0.48112323081E+03 -0.15436801281E+04  0.17614289298E+04  0.50400001928E-02 0. -1.
       -1    1    3    3    0  502  0.69871594636E+03 -0.48112323081E+03  0.14117373706E+04  0.16470233576E+04  0.50400001928E-02 0.  1.
</event>
<event>
 5   0  0.1645631E-08  0.3401578E+04  0.7818609E-02  0.8137519E-01
        1   -1    0    0  501    0  0.00000000000E+00  0.00000000000E+00  0.22289902121E+04  0.22289902121E+04  0.50400001928E-02 0. -1.
       -1   -1    0    0    0  501  0.00000000000E+00  0.00000000000E+00 -0.12977548788E+04  0.12977548788E+04  0.50400001928E-02 0.  1.
    10030    2    1    2    0    0  0.00000000000E+00  0.00000000000E+00  0.93123533336E+03  0.35267450909E+04  0.34015778237E+04 0.  0.
        4    1    3    3  502    0 -0.82224295629E+03 -0.10852300447E+04 -0.59113903320E+03  0.14843364506E+04  0.12699999809E+01 0.  1.
       -4    1    3    3    0  502  0.82224295629E+03  0.10852300447E+04  0.15223743666E+04  0.20424086403E+04  0.12699999809E+01 0. -1.
</event>
<event>
 5   0  0.1595851E-08  0.3398359E+04  0.7818609E-02  0.8138309E-01
        1   -1    0    0  501    0  0.00000000000E+00  0.00000000000E+00  0.26326739169E+04  0.26326739169E+04  0.50400001928E-02 0. -1.
       -1   -1    0    0    0  501  0.00000000000E+00  0.00000000000E+00 -0.10966836489E+04  0.10966836489E+04  0.50400001928E-02 0.  1.
    10030    2    1    2    0    0  0.00000000000E+00  0.00000000000E+00  0.15359902681E+04  0.37293575658E+04  0.33983586847E+04 0.  0.
        2    1    3    3  502    0  0.34822805364E+03 -0.25693946528E+03 -0.10351930116E+04  0.11220094641E+04  0.25500000920E-02 0.  1.
       -2    1    3    3    0  502 -0.34822805364E+03  0.25693946528E+03  0.25711832797E+04  0.26073481018E+04  0.25500000920E-02 0. -1.
</event>
<event>
 5   0  0.1625282E-08  0.3401715E+04  0.7818609E-02  0.8137485E-01
        1   -1    0    0  501    0  0.00000000000E+00  0.00000000000E+00  0.12254529631E+04  0.12254529631E+04  0.50400001928E-02 0. -1.
       -1   -1    0    0    0  501  0.00000000000E+00  0.00000000000E+00 -0.23606919222E+04  0.23606919222E+04  0.50400001928E-02 0.  1.
    10030    2    1    2    0    0  0.00000000000E+00  0.00000000000E+00 -0.11352389591E+04  0.35861448854E+04  0.34017153974E+04 0.  0.
        1    1    3    3  502    0  0.14870906172E+04 -0.71571920549E+03 -0.13394748141E+03  0.16557881545E+04  0.50400001928E-02 0. -1.
       -1    1    3    3    0  502 -0.14870906172E+04  0.71571920549E+03 -0.10012914777E+04  0.19303567308E+04  0.50400001928E-02 0.  1.
</event>
<event>
 5   0  0.4973409E-08  0.3399881E+04  0.7818609E-02  0.8137935E-01
        2   -1    0    0  501    0  0.00000000000E+00  0.00000000000E+00  0.77822568051E+03  0.77822568052E+03  0.25500000920E-02 0. -1.
       -2   -1    0    0    0  501  0.00000000000E+00  0.00000000000E+00 -0.37133165380E+04  0.37133165380E+04  0.25500000920E-02 0.  1.
    10030    2    1    2    0    0  0.00000000000E+00  0.00000000000E+00 -0.29350908575E+04  0.44915422185E+04  0.33998813448E+04 0.  0.
        1    1    3    3  502    0  0.26705475594E+03 -0.16319000759E+04 -0.19882991045E+04  0.25860683342E+04  0.50400001928E-02 0. -1.
       -1    1    3    3    0  502 -0.26705475594E+03  0.16319000759E+04 -0.94679175302E+03  0.19054738843E+04  0.50400001928E-02 0.  1.
</event>
<event>
 5   0  0.1625282E-08  0.3399598E+04  0.7818609E-02  0.8138005E-01
       -1   -1    0    0    0  501  0.00000000000E+00  0.00000000000E+00  0.11240186150E+04  0.11240186150E+04  0.50400001928E-02 0. -1.
        1   -1    0    0  501    0  0.00000000000E+00  0.00000000000E+00 -0.25705237136E+04  0.25705237136E+04  0.50400001928E-02 0.  1.
    10030    2    1    2    0    0  0.00000000000E+00  0.00000000000E+00 -0.14465050986E+04  0.36945423287E+04  0.33995979201E+04 0.  0.
        1    1    3    3  502    0 -0.96648906022E+03  0.13735650196E+04 -0.10077561952E+04  0.19586614091E+04  0.50400001928E-02 0.  1.
       -1    1    3    3    0  502  0.96648906022E+03 -0.13735650196E+04 -0.43874890341E+03  0.17358809196E+04  0.50400001928E-02 0. -1.
</event>
<event>
 5   0  0.1645631E-08  0.3399943E+04  0.7818609E-02  0.8137920E-01
       -1   -1    0    0    0  501  0.00000000000E+00  0.00000000000E+00  0.20545935261E+04  0.20545935261E+04  0.50400001928E-02 0. -1.
        1   -1    0    0  501    0  0.00000000000E+00  0.00000000000E+00 -0.14065569604E+04  0.14065569604E+04  0.50400001928E-02 0.  1.
    10030    2    1    2    0    0  0.00000000000E+00  0.00000000000E+00  0.64803656572E+03  0.34611504866E+04  0.33999428378E+04 0.  0.
        4    1    3    3  502    0  0.16100254523E+04  0.21946720796E+03 -0.18452814998E+03  0.16353593071E+04  0.12699999809E+01 0.  1.
       -4    1    3    3    0  502 -0.16100254523E+04 -0.21946720796E+03  0.83256471570E+03  0.18257911795E+04  0.12699999809E+01 0. -1.
</event>
<event>
 5   0  0.4764953E-08  0.3413236E+04  0.7818609E-02  0.8134665E-01
       -2   -1    0    0    0  501  0.00000000000E+00  0.00000000000E+00  0.14945852681E+04  0.14945852681E+04  0.25500000920E-02 0. -1.
        2   -1    0    0  501    0  0.00000000000E+00  0.00000000000E+00 -0.19487313607E+04  0.19487313607E+04  0.25500000920E-02 0.  1.
    10030    2    1    2    0    0  0.00000000000E+00  0.00000000000E+00 -0.45414609262E+03  0.34433166287E+04  0.34132361085E+04 0.  0.
        2    1    3    3  502    0 -0.46081504298E+03  0.11009869315E+04 -0.14576686838E+04  0.18839640970E+04  0.25500000920E-02 0.  1.
       -2    1    3    3    0  502  0.46081504298E+03 -0.11009869315E+04  0.10035225912E+04  0.15593525317E+04  0.25500000920E-02 0. -1.
</event>
<event>
 5   0  0.4764953E-08  0.3403878E+04  0.7818609E-02  0.8136955E-01
        2   -1    0    0  501    0  0.00000000000E+00  0.00000000000E+00  0.21627337733E+04  0.21627337733E+04  0.25500000920E-02 0.  1.
       -2   -1    0    0    0  501  0.00000000000E+00  0.00000000000E+00 -0.13393217358E+04  0.13393217358E+04  0.25500000920E-02 0. -1.
    10030    2    1    2    0    0  0.00000000000E+00  0.00000000000E+00  0.82341203753E+03  0.35020555091E+04  0.34038779951E+04 0.  0.
        2    1    3    3  502    0  0.24925539976E+02 -0.10441081924E+04  0.17942706610E+04  0.20760998062E+04  0.25500000920E-02 0.  1.
       -2    1    3    3    0  502 -0.24925539976E+02  0.10441081924E+04 -0.97085862351E+03  0.14259557030E+04  0.25500000920E-02 0. -1.
</event>
<event>
 5   0  0.5001197E-08  0.3398724E+04  0.7818609E-02  0.8138220E-01
        2   -1    0    0  501    0  0.00000000000E+00  0.00000000000E+00  0.21076765783E+04  0.21076765783E+04  0.25500000920E-02 0.  1.
       -2   -1    0    0    0  501  0.00000000000E+00  0.00000000000E+00 -0.13701491190E+04  0.13701491190E+04  0.25500000920E-02 0. -1.
    10030    2    1    2    0    0  0.00000000000E+00  0.00000000000E+00  0.73752745927E+03  0.34778256974E+04  0.33987240000E+04 0.  0.
        5    1    3    3  502    0  0.12802274497E+04 -0.10988073710E+04  0.16043471646E+03  0.16947334156E+04  0.46999998093E+01 0. -1.
       -5    1    3    3    0  502 -0.12802274497E+04  0.10988073710E+04  0.57709274282E+03  0.17830922818E+04  0.46999998093E+01 0.  1.
</event>
<event>
 5   0  0.4973409E-08  0.3393678E+04  0.7818609E-02  0.8139460E-01
        2   -1    0    0  501    0  0.00000000000E+00  0.00000000000E+00  0.20714188254E+04  0.20714188254E+04  0.25500000920E-02 0.  1.
       -2   -1    0    0    0  501  0.00000000000E+00  0.00000000000E+00 -0.13899951406E+04  0.13899951406E+04  0.25500000920E-02 0. -1.
    10030    2    1    2    0    0  0.00000000000E+00  0.00000000000E+00  0.68142368484E+03  0.34614139660E+04  0.33936777110E+04 0.  0.
        1    1    3    3  502    0 -0.11650017748E+04  0.15859229686E+03  0.15886028315E+04  0.19763703115E+04  0.50400001928E-02 0.  1.
       -1    1    3    3    0  502  0.11650017748E+04 -0.15859229686E+03 -0.90717914662E+03  0.14850436546E+04  0.50400001928E-02 0. -1.
</event>
<event>
 5   0  0.1630571E-08  0.3395250E+04  0.7818609E-02  0.8139073E-01
       -1   -1    0    0    0  501  0.00000000000E+00  0.00000000000E+00  0.19156115260E+04  0.19156115260E+04  0.50400001928E-02 0. -1.
        1   -1    0    0  501    0  0.00000000000E+00  0.00000000000E+00 -0.15044442090E+04  0.15044442090E+04  0.50400001928E-02 0.  1.
    10030    2    1    2    0    0  0.00000000000E+00  0.00000000000E+00  0.41116731701E+03  0.34200557350E+04  0.33952500156E+04 0.  0.
        3    1    3    3  502    0  0.75565287634E+03  0.88495330317E+03 -0.10394795875E+04  0.15603433729E+04  0.10100000352E+00 0.  1.
       -3    1    3    3    0  502 -0.75565287634E+03 -0.88495330317E+03  0.14506469045E+04  0.18597123622E+04  0.10100000352E+00 0. -1.
</event>
<event>
 5   0  0.4775023E-08  0.3400556E+04  0.7818609E-02  0.8137770E-01
       -2   -1    0    0    0  501  0.00000000000E+00  0.00000000000E+00  0.18714414173E+04  0.18714414173E+04  0.25500000920E-02 0.  1.
        2   -1    0    0  501    0  0.00000000000E+00  0.00000000000E+00 -0.15447696980E+04  0.15447696980E+04  0.25500000920E-02 0. -1.
    10030    2    1    2    0    0  0.00000000000E+00  0.00000000000E+00  0.32667171930E+03  0.34162111152E+04  0.34005564209E+04 0.  0.
        4    1    3    3  502    0  0.46871208047E+02 -0.59966151190E+03  0.17609883262E+04  0.18608794526E+04  0.12699999809E+01 0.  1.
       -4    1    3    3    0  502 -0.46871208047E+02  0.59966151190E+03 -0.14343166069E+04  0.15553316627E+04  0.12699999809E+01 0. -1.
</event>
<event>
 5   0  0.5001197E-08  0.3397940E+04  0.7818609E-02  0.8138412E-01
       -2   -1    0    0    0  501  0.00000000000E+00  0.00000000000E+00  0.14402732814E+04  0.14402732814E+04  0.25500000920E-02 0.  1.
        2   -1    0    0  501    0  0.00000000000E+00  0.00000000000E+00 -0.20041325187E+04  0.20041325187E+04  0.25500000920E-02 0. -1.
    10030    2    1    2    0    0  0.00000000000E+00  0.00000000000E+00 -0.56385923733E+03  0.34444058001E+04  0.33979396810E+04 0.  0.
        5    1    3    3  502    0  0.87681265112E+03  0.88701606486E+03  0.88748320523E+03  0.15307666230E+04  0.46999998093E+01 0.  1.
       -5    1    3    3    0  502 -0.87681265112E+03 -0.88701606486E+03 -0.14513424426E+04  0.19136391771E+04  0.46999998093E+01 0. -1.
</event>
<event>
 5   0  0.4973409E-08  0.3400249E+04  0.7818609E-02  0.8137845E-01
        2   -1    0    0  501    0  0.00000000000E+00  0.00000000000E+00  0.19041358021E+04  0.19041358021E+04  0.25500000920E-02 0.  1.
       -2   -1    0    0    0  501  0.00000000000E+00  0.00000000000E+00 -0.15179711733E+04  0.15179711733E+04  0.25500000920E-02 0. -1.
    10030    2    1    2    0    0  0.00000000000E+00  0.00000000000E+00  0.38616462873E+03  0.34221069754E+04  0.34002489660E+04 0.  0.
        1    1    3    3  502    0 -0.75148968880E+03  0.11118320872E+03  0.17238213984E+04  0.18837883830E+04  0.50400001928E-02 0.  1.
       -1    1    3    3    0  502  0.75148968880E+03 -0.11118320872E+03 -0.13376567697E+04  0.15383185924E+04  0.50400001928E-02 0. -1.
</event>
<event>
 5   0  0.1625282E-08  0.3399823E+04  0.7818609E-02  0.8137950E-01
        1   -1    0    0  501    0  0.00000000000E+00  0.00000000000E+00  0.17382357116E+04  0.17382357116E+04  0.50400001928E-02 0. -1.
       -1   -1    0    0    0  501  0.00000000000E+00  0.00000000000E+00 -0.16624322440E+04  0.16624322440E+04  0.50400001928E-02 0.  1.
    10030    2    1    2    0    0  0.00000000000E+00  0.00000000000E+00  0.75803467602E+02  0.34006679555E+04  0.33998229922E+04 0.  0.
        1    1    3    3  502    0  0.17327964395E+03  0.16909357942E+04  0.58140386235E+02  0.17007851127E+04  0.50400001928E-02 0.  1.
       -1    1    3    3    0  502 -0.17327964395E+03 -0.16909357942E+04  0.17663081367E+02  0.16998828429E+04  0.50400001928E-02 0. -1.
</event>
<event>
 5   0  0.1595851E-08  0.3419310E+04  0.7818609E-02  0.8133183E-01
        1   -1    0    0  501    0  0.00000000000E+00  0.00000000000E+00  0.20032588972E+04  0.20032588973E+04  0.50400001928E-02 0.  1.
       -1   -1    0    0    0  501  0.00000000000E+00  0.00000000000E+00 -0.14590827001E+04  0.14590827001E+04  0.50400001928E-02 0. -1.
    10030    2    1    2    0    0  0.00000000000E+00  0.00000000000E+00  0.54417619713E+03  0.34623415974E+04  0.34193101064E+04 0.  0.
        2    1    3    3  502    0  0.59136415417E+03  0.45504381395E+03  0.18296739954E+04  0.19759765598E+04  0.25500000920E-02 0.  1.
       -2    1    3    3    0  502 -0.59136415417E+03 -0.45504381395E+03 -0.12854977983E+04  0.14863650376E+04  0.25500000920E-02 0. -1.
</event>
<event>
 5   0  0.1595851E-08  0.3400764E+04  0.7818609E-02  0.8137719E-01
        1   -1    0    0  501    0  0.00000000000E+00  0.00000000000E+00  0.15981206494E+04  0.15981206494E+04  0.50400001928E-02 0. -1.
       -1   -1    0    0    0  501  0.00000000000E+00  0.00000000000E+00 -0.18091871610E+04  0.18091871610E+04  0.50400001928E-02 0.  1.
    10030    2    1    2    0    0  0.00000000000E+00  0.00000000000E+00 -0.21106651163E+03  0.34073078103E+04  0.34007642438E+04 0.  0.
        2    1    3    3  502    0  0.14448076402E+04 -0.51747315337E+03 -0.83909760010E+03  0.17490947270E+04  0.25500000920E-02 0.  1.
       -2    1    3    3    0  502 -0.14448076402E+04  0.51747315337E+03  0.62803108848E+03  0.16582130833E+04  0.25500000920E-02 0. -1.
</event>
<event>
 5   0  0.4764953E-08  0.3400970E+04  0.7818609E-02  0.8137668E-01
       -2   -1    0    0    0  501  0.00000000000E+00  0.00000000000E+00  0.14928129583E+04  0.14928129583E+04  0.25500000920E-02 0. -1.
        2   -1    0    0  501    0  0.00000000000E+00  0.00000000000E+00 -0.19370471878E+04  0.19370471878E+04  0.25500000920E-02 0.  1.
    10030    2    1    2    0    0  0.00000000000E+00  0.00000000000E+00 -0.44423422946E+03  0.34298601461E+04  0.34009699456E+04 0.  0.
        2    1    3    3  502    0  0.25518713703E+02  0.89447187264E+03 -0.16804011428E+04  0.19038064861E+04  0.25500000920E-02 0.  1.
       -2    1    3    3    0  502 -0.25518713703E+02 -0.89447187264E+03  0.12361669133E+04  0.15260536600E+04  0.25500000920E-02 0. -1.
</event>
<event>
 5   0  0.4775023E-08  0.3401193E+04  0.7818609E-02  0.8137613E-01
        2   -1    0    0  501    0  0.00000000000E+00  0.00000000000E+00  0.15643418645E+04  0.15643418645E+04  0.25500000920E-02 0. -1.
       -2   -1    0    0    0  501  0.00000000000E+00  0.00000000000E+00 -0.18487193925E+04  0.18487193925E+04  0.25500000920E-02 0.  1.
    10030    2    1    2    0    0  0.00000000000E+00  0.00000000000E+00 -0.28437752796E+03  0.34130612570E+04  0.34011934032E+04 0.  0.
        4    1    3    3  502    0 -0.11924755858E+04 -0.44229637737E+03 -0.12750226180E+04  0.18009187648E+04  0.12699999809E+01 0.  1.
       -4    1    3    3    0  502  0.11924755858E+04  0.44229637737E+03  0.99064509002E+03  0.16121424922E+04  0.12699999809E+01 0. -1.
</event>
<event>
 5   0  0.5001197E-08  0.3400541E+04  0.7818609E-02  0.8137774E-01
        2   -1    0    0  501    0  0.00000000000E+00  0.00000000000E+00  0.21071926169E+04  0.21071926169E+04  0.25500000920E-02 0.  1.
       -2   -1    0    0    0  501  0.00000000000E+00  0.00000000000E+00 -0.13719294774E+04  0.13719294774E+04  0.25500000920E-02 0. -1.
    10030    2    1    2    0    0  0.00000000000E+00  0.00000000000E+00  0.73526313956E+03  0.34791220943E+04  0.34005409367E+04 0.  0.
        5    1    3    3  502    0 -0.30777641564E+03 -0.13133428792E+04  0.14265867195E+04  0.19633562078E+04  0.46999998093E+01 0.  1.
       -5    1    3    3    0  502  0.30777641564E+03  0.13133428792E+04 -0.69132357995E+03  0.15157658865E+04  0.46999998093E+01 0. -1.
</event>
<event>
 5   0  0.1625282E-08  0.3396889E+04  0.7818609E-02  0.8138670E-01
        1   -1    0    0  501    0  0.00000000000E+00  0.00000000000E+00  0.25644649522E+04  0.25644649522E+04  0.50400001928E-02 0.  1.
       -1   -1    0    0    0  501  0.00000000000E+00  0.00000000000E+00 -0.11248793233E+04  0.11248793234E+04  0.50400001928E-02 0. -1.
    10030    2    1    2    0    0  0.00000000000E+00  0.00000000000E+00  0.14395856289E+04  0.36893442756E+04  0.33968889297E+04 0.  0.
        1    1    3    3  502    0  0.70994884283E+03 -0.49894788064E+03  0.23055426481E+04  0.24634332240E+04  0.50400001928E-02 0.  1.
       -1    1    3    3    0  502 -0.70994884283E+03  0.49894788064E+03 -0.86595701925E+03  0.12259110515E+04  0.50400001928E-02 0. -1.
</event>
<event>
 5   0  0.1645631E-08  0.3398474E+04  0.7818609E-02  0.8138281E-01
       -1   -1    0    0    0  501  0.00000000000E+00  0.00000000000E+00  0.22708282098E+04  0.22708282098E+04  0.50400001928E-02 0.  1.
        1   -1    0    0  501    0  0.00000000000E+00  0.00000000000E+00 -0.12715210643E+04  0.12715210643E+04  0.50400001928E-02 0. -1.
    10030    2    1    2    0    0  0.00000000000E+00  0.00000000000E+00  0.99930714555E+03  0.35423492741E+04  0.33984737175E+04 0.  0.
        4    1    3    3  502    0 -0.15977125167E+03 -0.66723627707E+03 -0.11207247567E+04  0.13140611460E+04  0.12699999809E+01 0. -1.
       -4    1    3    3    0  502  0.15977125167E+03  0.66723627707E+03  0.21200319023E+04  0.22282881281E+04  0.12699999809E+01 0.  1.
</event>
<event>
 5   0  0.4764953E-08  0.3399564E+04  0.7818609E-02  0.8138013E-01
        2   -1    0    0  501    0  0.00000000000E+00  0.00000000000E+00  0.17630293965E+04  0.17630293965E+04  0.25500000920E-02 0. -1.
       -2   -1    0    0    0  501  0.00000000000E+00  0.00000000000E+00 -0.16388034858E+04  0.16388034858E+04  0.25500000920E-02 0.  1.
    10030    2    1    2    0    0  0.00000000000E+00  0.00000000000E+00  0.12422591070E+03  0.34018328823E+04  0.33995639253E+04 0.  0.
        2    1    3    3  502    0  0.46611701206E+03 -0.80524989245E+03  0.14855834766E+04  0.17528978077E+04  0.25500000920E-02 0. -1.
       -2    1    3    3    0  502 -0.46611701206E+03  0.80524989245E+03 -0.13613575659E+04  0.16489350746E+04  0.25500000920E-02 0.  1.
</event>
<event>
 5   0  0.4973409E-08  0.3398463E+04  0.7818609E-02  0.8138284E-01
       -2   -1    0    0    0  501  0.00000000000E+00  0.00000000000E+00  0.20193759869E+04  0.20193759869E+04  0.25500000920E-02 0. -1.
        2   -1    0    0  501    0  0.00000000000E+00  0.00000000000E+00 -0.14298415321E+04  0.14298415321E+04  0.25500000920E-02 0.  1.
    10030    2    1    2    0    0  0.00000000000E+00  0.00000000000E+00  0.58953445477E+03  0.34492175190E+04  0.33984629791E+04 0.  0.
        1    1    3    3  502    0 -0.95509052351E+03 -0.91962242188E+03 -0.78387681340E+03  0.15402487350E+04  0.50400001928E-02 0.  1.
       -1    1    3    3    0  502  0.95509052351E+03  0.91962242188E+03  0.13734112682E+04  0.19089687841E+04  0.50400001928E-02 0. -1.
</event>
<event>
 5   0  0.4775023E-08  0.3400596E+04  0.7818609E-02  0.8137760E-01
        2   -1    0    0  501    0  0.00000000000E+00  0.00000000000E+00  0.22581563507E+04  0.22581563507E+04  0.25500000920E-02 0. -1.
       -2   -1    0    0    0  501  0.00000000000E+00  0.00000000000E+00 -0.12802539956E+04  0.12802539956E+04  0.25500000920E-02 0.  1.
    10030    2    1    2    0    0  0.00000000000E+00  0.00000000000E+00  0.97790235513E+03  0.35384103463E+04  0.34005962363E+04 0.  0.
        4    1    3    3  502    0 -0.63803420327E+03  0.10643154996E+04 -0.72054925002E+03  0.14349383129E+04  0.12699999809E+01 0. -1.
       -4    1    3    3    0  502  0.63803420327E+03 -0.10643154996E+04  0.16984516052E+04  0.21034720334E+04  0.12699999809E+01 0.  1.
</event>
<event>
 5   0  0.1595851E-08  0.3395676E+04  0.7818609E-02  0.8138968E-01
        1   -1    0    0  501    0  0.00000000000E+00  0.00000000000E+00  0.14976760871E+04  0.14976760871E+04  0.50400001928E-02 0. -1.
       -1   -1    0    0    0  501  0.00000000000E+00  0.00000000000E+00 -0.19247510830E+04  0.19247510830E+04  0.50400001928E-02 0.  1.
    10030    2    1    2    0    0  0.00000000000E+00  0.00000000000E+00 -0.42707499592E+03  0.34224271702E+04  0.33956758801E+04 0.  0.
        2    1    3    3  502    0  0.32954419891E+03  0.47514436982E+03  0.13953756133E+04  0.15104418736E+04  0.25500000920E-02 0. -1.
       -2    1    3    3    0  502 -0.32954419891E+03 -0.47514436982E+03 -0.18224506092E+04  0.19119852966E+04  0.25500000920E-02 0.  1.
</event>
<event>
 5   0  0.5001197E-08  0.3401361E+04  0.7818609E-02  0.8137572E-01
        2   -1    0    0  501    0  0.00000000000E+00  0.00000000000E+00  0.28655951988E+04  0.28655951988E+04  0.25500000920E-02 0. -1.
       -2   -1    0    0    0  501  0.00000000000E+00  0.00000000000E+00 -0.10093241723E+04  0.10093241723E+04  0.25500000920E-02 0.  1.
    10030    2    1    2    0    0  0.00000000000E+00  0.00000000000E+00  0.18562710265E+04  0.38749193711E+04  0.34013611993E+04 0.  0.
        5    1    3    3  502    0  0.42812875041E+03  0.14543252118E+04  0.18061059142E+04  0.23580493447E+04  0.46999998093E+01 0. -1.
       -5    1    3    3    0  502 -0.42812875041E+03 -0.14543252118E+04  0.50165112310E+02  0.15168700264E+04  0.46999998093E+01 0.  1.
</event>
<event>
 5   0  0.1645631E-08  0.3399013E+04  0.7818609E-02  0.8138148E-01
        1   -1    0    0  501    0  0.00000000000E+00  0.00000000000E+00  0.20518943735E+04  0.20518943735E+04  0.50400001928E-02 0.  1.
       -1   -1    0    0    0  501  0.00000000000E+00  0.00000000000E+00 -0.14076372937E+04  0.14076372937E+04  0.50400001928E-02 0. -1.
    10030    2    1    2    0    0  0.00000000000E+00  0.00000000000E+00  0.64425707978E+03  0.34595316672E+04  0.33990134115E+04 0.  0.
        4    1    3    3  502    0 -0.12637721117E+04 -0.96672269050E+03 -0.28570514847E+03  0.16165709868E+04  0.12699999809E+01 0. -1.
       -4    1    3    3    0  502  0.12637721117E+04  0.96672269050E+03  0.92996222825E+03  0.18429606804E+04  0.12699999809E+01 0.  1.
</event>
<event>
 5   0  0.1625282E-08  0.3401098E+04  0.7818609E-02  0.8137637E-01
       -1   -1    0    0    0  501  0.00000000000E+00  0.00000000000E+00  0.22974701187E+04  0.22974701187E+04  0.50400001928E-02 0.  1.
        1   -1    0    0  501    0  0.00000000000E+00  0.00000000000E+00 -0.12587180914E+04  0.12587180914E+04  0.50400001928E-02 0. -1.
    10030    2    1    2    0    0  0.00000000000E+00  0.00000000000E+00  0.10387520273E+04  0.35561882100E+04  0.34010981772E+04 0.  0.
        1    1    3    3  502    0  0.76010405788E+03 -0.90063684522E+03 -0.76248108345E+03  0.14036674494E+04  0.50400001928E-02 0. -1.
       -1    1    3    3    0  502 -0.76010405788E+03  0.90063684522E+03  0.18012331108E+04  0.21525207607E+04  0.50400001928E-02 0.  1.
</event>
<event>
 5   0  0.1625282E-08  0.3399861E+04  0.7818609E-02  0.8137940E-01
        1   -1    0    0  501    0  0.00000000000E+00  0.00000000000E+00  0.19447693422E+04  0.19447693422E+04  0.50400001928E-02 0. -1.
       -1   -1    0    0    0  501  0.00000000000E+00  0.00000000000E+00 -0.14859162102E+04  0.14859162103E+04  0.50400001928E-02 0.  1.
    10030    2    1    2    0    0  0.00000000000E+00  0.00000000000E+00  0.45885313198E+03  0.34306855525E+04  0.33998613447E+04 0.  0.
        1    1    3    3  502    0  0.87245918934E+03  0.10476938529E+04  0.12539727160E+04  0.18523755071E+04  0.50400001928E-02 0. -1.
       -1    1    3    3    0  502 -0.87245918934E+03 -0.10476938529E+04 -0.79511958407E+03  0.15783100454E+04  0.50400001928E-02 0.  1.
</event>
<event>
 5   0  0.1595851E-08  0.3398425E+04  0.7818609E-02  0.8138293E-01
       -1   -1    0    0    0  501  0.00000000000E+00  0.00000000000E+00  0.22805989224E+04  0.22805989224E+04  0.50400001928E-02 0.  1.
        1   -1    0    0  501    0  0.00000000000E+00  0.00000000000E+00 -0.12660375284E+04  0.12660375284E+04  0.50400001928E-02 0. -1.
    10030    2    1    2    0    0  0.00000000000E+00  0.00000000000E+00  0.10145613940E+04  0.35466364508E+04  0.33984254136E+04 0.  0.
        2    1    3    3  502    0 -0.86402228605E+03  0.12451033831E+04  0.13092383027E+04  0.20027286083E+04  0.25500000920E-02 0.  1.
       -2    1    3    3    0  502  0.86402228605E+03 -0.12451033831E+04 -0.29467690866E+03  0.15439078424E+04  0.25500000920E-02 0. -1.
</event>
<event>
 5   0  0.1630571E-08  0.3400603E+04  0.7818609E-02  0.8137758E-01
       -1   -1    0    0    0  501  0.00000000000E+00  0.00000000000E+00  0.13756259470E+04  0.13756259471E+04  0.50400001928E-02 0.  1.
        1   -1    0    0  501    0  0.00000000000E+00  0.00000000000E+00 -0.21016067842E+04  0.21016067842E+04  0.50400001928E-02 0. -1.
    10030    2    1    2    0    0  0.00000000000E+00  0.00000000000E+00 -0.72598083715E+03  0.34772327313E+04  0.34006027835E+04 0.  0.
        3    1    3    3  502    0 -0.90764183147E+03 -0.46023247366E+02  0.11064353721E+04  0.14318278795E+04  0.10100000352E+00 0.  1.
       -3    1    3    3    0  502  0.90764183147E+03  0.46023247366E+02 -0.18324162093E+04  0.20454048518E+04  0.10100000352E+00 0. -1.
</event>
<event>
 5   0  0.4973409E-08  0.3399900E+04  0.7818609E-02  0.8137931E-01
       -2   -1    0    0    0  501  0.00000000000E+00  0.00000000000E+00  0.11133914396E+04  0.11133914396E+04  0.25500000920E-02 0.  1.
        2   -1    0    0  501    0  0.00000000000E+00  0.00000000000E+00 -0.25955198708E+04  0.25955198708E+04  0.25500000920E-02 0. -1.
    10030    2    1    2    0    0  0.00000000000E+00  0.00000000000E+00 -0.14821284312E+04  0.37089113104E+04  0.33998997664E+04 0.  0.
        1    1    3    3  502    0 -0.12155080173E+04  0.11731663573E+04 -0.53393738339E+03  0.17716851219E+04  0.50400001928E-02 0. -1.
       -1    1    3    3    0  502  0.12155080173E+04 -0.11731663573E+04 -0.94819104783E+03  0.19372261884E+04  0.50400001928E-02 0.  1.
</event>
<event>
 5   0  0.1630571E-08  0.3400027E+04  0.7818609E-02  0.8137900E-01
        1   -1    0    0  501    0  0.00000000000E+00  0.00000000000E+00  0.26984039088E+04  0.26984039088E+04  0.50400001928E-02 0.  1.
       -1   -1    0    0    0  501  0.00000000000E+00  0.00000000000E+00 -0.10710208085E+04  0.10710208085E+04  0.50400001928E-02 0. -1.
    10030    2    1    2    0    0  0.00000000000E+00  0.00000000000E+00  0.16273831003E+04  0.37694247172E+04  0.34000274916E+04 0.  0.
        3    1    3    3  502    0  0.99134945170E+03 -0.13558279167E+04  0.11049165671E+04  0.20104436589E+04  0.10100000352E+00 0. -1.
       -3    1    3    3    0  502 -0.99134945170E+03  0.13558279167E+04  0.52246653324E+03  0.17589810584E+04  0.10100000352E+00 0.  1.
</event>
<event>
 5   0  0.4775023E-08  0.3400883E+04  0.7818609E-02  0.8137690E-01
        2   -1    0    0  501    0  0.00000000000E+00  0.00000000000E+00  0.13888096396E+04  0.13888096396E+04  0.25500000920E-02 0.  1.
       -2   -1    0    0    0  501  0.00000000000E+00  0.00000000000E+00 -0.20819999898E+04  0.20819999898E+04  0.25500000920E-02 0. -1.
    10030    2    1    2    0    0  0.00000000000E+00  0.00000000000E+00 -0.69319035023E+03  0.34708096294E+04  0.34008832120E+04 0.  0.
        4    1    3    3  502    0  0.16085622395E+04  0.54930565470E+03 -0.29774810527E+03  0.17256490744E+04  0.12699999809E+01 0.  1.
       -4    1    3    3    0  502 -0.16085622395E+04 -0.54930565470E+03 -0.39544224496E+03  0.17451605550E+04  0.12699999809E+01 0. -1.
</event>
<event>
 5   0  0.4946315E-08  0.3392580E+04  0.7818609E-02  0.8139730E-01
       -2   -1    0    0    0  501  0.00000000000E+00  0.00000000000E+00  0.14791388676E+04  0.14791388676E+04  0.25500000920E-02 0.  1.
        2   -1    0    0  501    0  0.00000000000E+00  0.00000000000E+00 -0.19453209694E+04  0.19453209694E+04  0.25500000920E-02 0. -1.
    10030    2    1    2    0    0  0.00000000000E+00  0.00000000000E+00 -0.46618210181E+03  0.34244598371E+04  0.33925800541E+04 0.  0.
        3    1    3    3  502    0  0.31677073610E+02  0.46819350510E+03 -0.18784981984E+04  0.19362241830E+04  0.10100000352E+00 0. -1.
       -3    1    3    3    0  502 -0.31677073610E+02 -0.46819350510E+03  0.14123160966E+04  0.14882356541E+04  0.10100000352E+00 0.  1.
</event>
<event>
 5   0  0.4764953E-08  0.3404026E+04  0.7818609E-02  0.8136919E-01
       -2   -1    0    0    0  501  0.00000000000E+00  0.00000000000E+00  0.20693165165E+04  0.20693165165E+04  0.25500000920E-02 0.  1.
        2   -1    0    0  501    0  0.00000000000E+00  0.00000000000E+00 -0.13999061520E+04  0.13999061520E+04  0.25500000920E-02 0. -1.
    10030    2    1    2    0    0  0.00000000000E+00  0.00000000000E+00  0.66941036449E+03  0.34692226686E+04  0.34040263936E+04 0.  0.
        2    1    3    3  502    0 -0.77785773030E+03 -0.11897322969E+04  0.12887558611E+04  0.19187019718E+04  0.25500000920E-02 0.  1.
       -2    1    3    3    0  502  0.77785773030E+03  0.11897322969E+04 -0.61934549664E+03  0.15505206968E+04  0.25500000920E-02 0. -1.
</event>
<event>
 5   0  0.1579536E-08  0.3399401E+04  0.7818609E-02  0.8138053E-01
       -1   -1    0    0    0  501  0.00000000000E+00  0.00000000000E+00  0.18208130592E+04  0.18208130592E+04  0.50400001928E-02 0. -1.
        1   -1    0    0  501    0  0.00000000000E+00  0.00000000000E+00 -0.15866435566E+04  0.15866435566E+04  0.50400001928E-02 0.  1.
    10030    2    1    2    0    0  0.00000000000E+00  0.00000000000E+00  0.23416950265E+03  0.34074566158E+04  0.33994007167E+04 0.  0.
        5    1    3    3  502    0 -0.32191691798E+03  0.15783787064E+04 -0.42646350142E+03  0.16663742229E+04  0.46999998093E+01 0.  1.
       -5    1    3    3    0  502  0.32191691798E+03 -0.15783787064E+04  0.66063300407E+03  0.17410823929E+04  0.46999998093E+01 0. -1.
</event>
<event>
 5   0  0.1625282E-08  0.3400764E+04  0.7818609E-02  0.8137719E-01
        1   -1    0    0  501    0  0.00000000000E+00  0.00000000000E+00  0.18795322834E+04  0.18795322834E+04  0.50400001928E-02 0. -1.
       -1   -1    0    0    0  501  0.00000000000E+00  0.00000000000E+00 -0.15383076411E+04  0.15383076412E+04  0.50400001928E-02 0.  1.
    10030    2    1    2    0    0  0.00000000000E+00  0.00000000000E+00  0.34122464228E+03  0.34178399246E+04  0.34007639573E+04 0.  0.
        1    1    3    3  502    0 -0.85728772271E+03 -0.11629467748E+04 -0.73050083826E+03  0.16189561190E+04  0.50400001928E-02 0.  1.
       -1    1    3    3    0  502  0.85728772271E+03  0.11629467748E+04  0.10717254805E+04  0.17988838056E+04  0.50400001928E-02 0. -1.
</event>
<event>
 5   0  0.4775023E-08  0.3399886E+04  0.7818609E-02  0.8137934E-01
       -2   -1    0    0    0  501  0.00000000000E+00  0.00000000000E+00  0.15776141985E+04  0.15776141985E+04  0.25500000920E-02 0.  1.
        2   -1    0    0  501    0  0.00000000000E+00  0.00000000000E+00 -0.18317573286E+04  0.18317573286E+04  0.25500000920E-02 0. -1.
    10030    2    1    2    0    0  0.00000000000E+00  0.00000000000E+00 -0.25414313005E+03  0.34093715271E+04  0.33998860979E+04 0.  0.
        4    1    3    3  502    0  0.69874913049E+03  0.12206291040E+04  0.83037963158E+03  0.16333149428E+04  0.12699999809E+01 0.  1.
       -4    1    3    3    0  502 -0.69874913049E+03 -0.12206291040E+04 -0.10845227616E+04  0.17760565842E+04  0.12699999809E+01 0. -1.
</event>
<event>
 5   0  0.4775023E-08  0.3400196E+04  0.7818609E-02  0.8137858E-01
       -2   -1    0    0    0  501  0.00000000000E+00  0.00000000000E+00  0.13685998834E+04  0.13685998834E+04  0.25500000920E-02 0. -1.
        2   -1    0    0  501    0  0.00000000000E+00  0.00000000000E+00 -0.21118907517E+04  0.21118907517E+04  0.25500000920E-02 0.  1.
    10030    2    1    2    0    0  0.00000000000E+00  0.00000000000E+00 -0.74329086827E+03  0.34804906351E+04  0.34001961335E+04 0.  0.
        4    1    3    3  502    0  0.74970392844E+02 -0.16578002511E+04  0.64130202800E+01  0.16595074486E+04  0.12699999809E+01 0. -1.
       -4    1    3    3    0  502 -0.74970392844E+02  0.16578002511E+04 -0.74970388855E+03  0.18209831865E+04  0.12699999809E+01 0.  1.
</event>
<event>
 5   0  0.5001197E-08  0.3400590E+04  0.7818609E-02  0.8137762E-01
        2   -1    0    0  501    0  0.00000000000E+00  0.00000000000E+00  0.26075359500E+04  0.26075359500E+04  0.25500000920E-02 0. -1.
       -2   -1    0    0    0  501  0.00000000000E+00  0.00000000000E+00 -0.11087104987E+04  0.11087104987E+04  0.25500000920E-02 0.  1.
    10030    2    1    2    0    0  0.00000000000E+00  0.00000000000E+00  0.14988254513E+04  0.37162464486E+04  0.34005896450E+04 0.  0.
        5    1    3    3  502    0 -0.14597607523E+03  0.46772167666E+03 -0.10298807720E+04  0.11405038693E+04  0.46999998093E+01 0.  1.
       -5    1    3    3    0  502  0.14597607523E+03 -0.46772167666E+03  0.25287062233E+04  0.25757425794E+04  0.46999998093E+01 0. -1.
</event>
<event>
 5   0  0.4946315E-08  0.3402793E+04  0.7818609E-02  0.8137221E-01
       -2   -1    0    0    0  501  0.00000000000E+00  0.00000000000E+00  0.23552104738E+04  0.23552104738E+04  0.25500000920E-02 0. -1.
        2   -1    0    0  501    0  0.00000000000E+00  0.00000000000E+00 -0.12290835293E+04  0.12290835293E+04  0.25500000920E-02 0.  1.
    10030    2    1    2    0    0  0.00000000000E+00  0.00000000000E+00  0.11261269445E+04  0.35842940031E+04  0.34027932064E+04 0.  0.
        3    1    3    3  502    0  0.39632069455E+03 -0.15180172061E+04 -0.13030557094E+03  0.15743017128E+04  0.10100000352E+00 0.  1.
       -3    1    3    3    0  502 -0.39632069455E+03  0.15180172061E+04  0.12564325154E+04  0.20099922903E+04  0.10100000352E+00 0. -1.
</event>
<event>
 5   0  0.4775023E-08  0.3400929E+04  0.7818609E-02  0.8137678E-01
        2   -1    0    0  501    0  0.00000000000E+00  0.00000000000E+00  0.24663422965E+04  0.24663422965E+04  0.25500000920E-02 0. -1.
       -2   -1    0    0    0  501  0.00000000000E+00  0.00000000000E+00 -0.11724158276E+04  0.11724158276E+04  0.25500000920E-02 0.  1.
    10030    2    1    2    0    0  0.00000000000E+00  0.00000000000E+00  0.12939264689E+04  0.36387581241E+04  0.34009285465E+04 0.  0.
        4    1    3    3  502    0 -0.76188599051E+03  0.13980252926E+04  0.12859118400E+04  0.20465863907E+04  0.12699999809E+01 0. -1.
       -4    1    3    3    0  502  0.76188599051E+03 -0.13980252926E+04  0.80146289319E+01  0.15921717334E+04  0.12699999809E+01 0.  1.
</event>
<event>
 5   0  0.1579536E-08  0.3399313E+04  0.7818609E-02  0.8138075E-01
        1   -1    0    0  501    0  0.00000000000E+00  0.00000000000E+00  0.20584863492E+04  0.20584863492E+04  0.50400001928E-02 0. -1.
       -1   -1    0    0    0  501  0.00000000000E+00  0.00000000000E+00 -0.14033771738E+04  0.14033771738E+04  0.50400001928E-02 0.  1.
    10030    2    1    2    0    0  0.00000000000E+00  0.00000000000E+00  0.65510917543E+03  0.34618635231E+04  0.33993133160E+04 0.  0.
        5    1    3    3  502    0 -0.67470176203E+03  0.90645379010E+03 -0.96542538798E+03  0.14862534141E+04  0.46999998093E+01 0.  1.
       -5    1    3    3    0  502  0.67470176203E+03 -0.90645379010E+03  0.16205345634E+04  0.19756101089E+04  0.46999998093E+01 0. -1.
</event>
<event>
 5   0  0.1595851E-08  0.3401294E+04  0.7818609E-02  0.8137589E-01
        1   -1    0    0  501    0  0.00000000000E+00  0.00000000000E+00  0.87814259888E+03  0.87814259889E+03  0.50400001928E-02 0.  1.
       -1   -1    0    0    0  501  0.00000000000E+00  0.00000000000E+00 -0.32935437381E+04  0.32935437381E+04  0.50400001928E-02 0. -1.
    10030    2    1    2    0    0  0.00000000000E+00  0.00000000000E+00 -0.24154011392E+04  0.41716863370E+04  0.34012944934E+04 0.  0.
        2    1    3    3  502    0  0.97564525185E+03 -0.28904409700E+03 -0.28789703976E+04  0.30535062957E+04  0.25500000920E-02 0. -1.
       -2    1    3    3    0  502 -0.97564525185E+03  0.28904409700E+03  0.46356925838E+03  0.11181800413E+04  0.25500000920E-02 0.  1.
</event>
<event>
 5   0  0.4775023E-08  0.3402883E+04  0.7818609E-02  0.8137199E-01
        2   -1    0    0  501    0  0.00000000000E+00  0.00000000000E+00  0.21240410261E+04  0.21240410261E+04  0.25500000920E-02 0. -1.
       -2   -1    0    0    0  501  0.00000000000E+00  0.00000000000E+00 -0.13629223383E+04  0.13629223383E+04  0.25500000920E-02 0.  1.
    10030    2    1    2    0    0  0.00000000000E+00  0.00000000000E+00  0.76111868782E+03  0.34869633644E+04  0.34028828730E+04 0.  0.
        4    1    3    3  502    0 -0.35235842308E+03  0.17698767975E+01  0.20862426878E+04  0.21157905747E+04  0.12699999809E+01 0. -1.
       -4    1    3    3    0  502  0.35235842308E+03 -0.17698767975E+01 -0.13251240000E+04  0.13711727896E+04  0.12699999809E+01 0.  1.
</event>
<event>
 5   0  0.4946315E-08  0.3399272E+04  0.7818609E-02  0.8138085E-01
       -2   -1    0    0    0  501  0.00000000000E+00  0.00000000000E+00  0.10808135529E+04  0.10808135529E+04  0.25500000920E-02 0. -1.
        2   -1    0    0  501    0  0.00000000000E+00  0.00000000000E+00 -0.26727660793E+04  0.26727660793E+04  0.25500000920E-02 0.  1.
    10030    2    1    2    0    0  0.00000000000E+00  0.00000000000E+00 -0.15919525264E+04  0.37535796322E+04  0.33992715703E+04 0.  0.
        3    1    3    3  502    0  0.57367874089E+02 -0.16103920382E+04 -0.19917236974E+03  0.16236758398E+04  0.10100000352E+00 0. -1.
       -3    1    3    3    0  502 -0.57367874089E+02  0.16103920382E+04 -0.13927801567E+04  0.21299037924E+04  0.10100000352E+00 0.  1.
</event>
<event>
 5   0  0.1573625E-08  0.3399877E+04  0.7818609E-02  0.8137937E-01
       -3   -1    0    0    0  501  0.00000000000E+00  0.00000000000E+00  0.13287235185E+04  0.13287235224E+04  0.10100000352E+00 0. -1.
        3   -1    0    0  501    0  0.00000000000E+00  0.00000000000E+00 -0.21748623172E+04  0.21748623196E+04  0.10100000352E+00 0.  1.
    10030    2    1    2    0    0  0.00000000000E+00  0.00000000000E+00 -0.84613879872E+03  0.35035858420E+04  0.33998768927E+04 0.  0.
        1    1    3    3  502    0 -0.88722659211E+02  0.10991496984E+04  0.91014476567E+03  0.14298130173E+04  0.50400001928E-02 0. -1.
       -1    1    3    3    0  502  0.88722659211E+02 -0.10991496984E+04 -0.17562835644E+04  0.20737728247E+04  0.50400001928E-02 0.  1.
</event>
<event>
 5   0  0.4764953E-08  0.3404349E+04  0.7818609E-02  0.8136840E-01
       -2   -1    0    0    0  501  0.00000000000E+00  0.00000000000E+00  0.14389830747E+04  0.14389830747E+04  0.25500000920E-02 0.  1.
        2   -1    0    0  501    0  0.00000000000E+00  0.00000000000E+00 -0.20135044591E+04  0.20135044591E+04  0.25500000920E-02 0. -1.
    10030    2    1    2    0    0  0.00000000000E+00  0.00000000000E+00 -0.57452138439E+03  0.34524875338E+04  0.34043494753E+04 0.  0.
        2    1    3    3  502    0  0.13792282038E+04 -0.99577309459E+03 -0.34780701279E+03  0.17363191562E+04  0.25500000920E-02 0.  1.
       -2    1    3    3    0  502 -0.13792282038E+04  0.99577309459E+03 -0.22671437160E+03  0.17161683776E+04  0.25500000920E-02 0. -1.
</event>
<event>
 5   0  0.4775023E-08  0.3403504E+04  0.7818609E-02  0.8137047E-01
       -2   -1    0    0    0  501  0.00000000000E+00  0.00000000000E+00  0.13665908161E+04  0.13665908161E+04  0.25500000920E-02 0. -1.
        2   -1    0    0  501    0  0.00000000000E+00  0.00000000000E+00 -0.21191127315E+04  0.21191127315E+04  0.25500000920E-02 0.  1.
    10030    2    1    2    0    0  0.00000000000E+00  0.00000000000E+00 -0.75252191537E+03  0.34857035476E+04  0.34035040750E+04 0.  0.
        4    1    3    3  502    0 -0.72847489537E+03  0.13104273128E+04  0.44820509160E+03  0.15648593651E+04  0.12699999809E+01 0. -1.
       -4    1    3    3    0  502  0.72847489537E+03 -0.13104273128E+04 -0.12007270070E+04  0.19208441825E+04  0.12699999809E+01 0.  1.
</event>
<event>
 5   0  0.1625282E-08  0.3399750E+04  0.7818609E-02  0.8137968E-01
        1   -1    0    0  501    0  0.00000000000E+00  0.00000000000E+00  0.16670158884E+04  0.16670158884E+04  0.50400001928E-02 0.  1.
       -1   -1    0    0    0  501  0.00000000000E+00  0.00000000000E+00 -0.17333814954E+04  0.17333814954E+04  0.50400001928E-02 0. -1.
    10030    2    1    2    0    0  0.00000000000E+00  0.00000000000E+00 -0.66365606940E+02  0.34003973838E+04  0.33997496928E+04 0.  0.
        1    1    3    3  502    0 -0.14445002034E+04 -0.48245673286E+03  0.72209624938E+03  0.16854578992E+04  0.50400001928E-02 0.  1.
       -1    1    3    3    0  502  0.14445002034E+04  0.48245673286E+03 -0.78846185632E+03  0.17149394845E+04  0.50400001928E-02 0. -1.
</event>
<event>
 5   0  0.4764953E-08  0.3414558E+04  0.7818609E-02  0.8134342E-01
        2   -1    0    0  501    0  0.00000000000E+00  0.00000000000E+00  0.20377507274E+04  0.20377507274E+04  0.25500000920E-02 0. -1.
       -2   -1    0    0    0  501  0.00000000000E+00  0.00000000000E+00 -0.14304017386E+04  0.14304017386E+04  0.25500000920E-02 0.  1.
    10030    2    1    2    0    0  0.00000000000E+00  0.00000000000E+00  0.60734898880E+03  0.34681524660E+04  0.34145583511E+04 0.  0.
        2    1    3    3  502    0 -0.82602378926E+03  0.10388136048E+04  0.13944736700E+04  0.19250989123E+04  0.25500000920E-02 0. -1.
       -2    1    3    3    0  502  0.82602378926E+03 -0.10388136048E+04 -0.78712468117E+03  0.15430535537E+04  0.25500000920E-02 0.  1.
</event>
<event>
 5   0  0.1579536E-08  0.3392557E+04  0.7818609E-02  0.8139736E-01
       -1   -1    0    0    0  501  0.00000000000E+00  0.00000000000E+00  0.20287684455E+04  0.20287684455E+04  0.50400001928E-02 0.  1.
        1   -1    0    0  501    0  0.00000000000E+00  0.00000000000E+00 -0.14182791309E+04  0.14182791309E+04  0.50400001928E-02 0. -1.
    10030    2    1    2    0    0  0.00000000000E+00  0.00000000000E+00  0.61048931459E+03  0.34470475765E+04  0.33925565273E+04 0.  0.
        5    1    3    3  502    0  0.15982258900E+04 -0.51078986695E+03  0.55845735194E+03  0.17683690191E+04  0.46999998093E+01 0.  1.
       -5    1    3    3    0  502 -0.15982258900E+04  0.51078986695E+03  0.52031962656E+02  0.16786785574E+04  0.46999998093E+01 0. -1.
</event>
<event>
 5   0  0.1630571E-08  0.3399783E+04  0.7818609E-02  0.8137960E-01
       -1   -1    0    0    0  501  0.00000000000E+00  0.00000000000E+00  0.27177659754E+04  0.27177659754E+04  0.50400001928E-02 0. -1.
        1   -1    0    0  501    0  0.00000000000E+00  0.00000000000E+00 -0.10632373913E+04  0.10632373913E+04  0.50400001928E-02 0.  1.
    10030    2    1    2    0    0  0.00000000000E+00  0.00000000000E+00  0.16545285841E+04  0.37810033667E+04  0.33997825847E+04 0.  0.
        3    1    3    3  502    0  0.71779053950E+03  0.10891936815E+04 -0.38494018905E+03  0.13600533422E+04  0.10100000352E+00 0.  1.
       -3    1    3    3    0  502 -0.71779053950E+03 -0.10891936815E+04  0.20394687731E+04  0.24209500245E+04  0.10100000352E+00 0. -1.
</event>
<event>
 5   0  0.5001197E-08  0.3399990E+04  0.7818609E-02  0.8137909E-01
        2   -1    0    0  501    0  0.00000000000E+00  0.00000000000E+00  0.19989520256E+04  0.19989520256E+04  0.25500000920E-02 0. -1.
       -2   -1    0    0    0  501  0.00000000000E+00  0.00000000000E+00 -0.14457491798E+04  0.14457491798E+04  0.25500000920E-02 0.  1.
    10030    2    1    2    0    0  0.00000000000E+00  0.00000000000E+00  0.55320284586E+03  0.34447012054E+04  0.33999901479E+04 0.  0.
        5    1    3    3  502    0  0.15993416513E+04 -0.20495236686E+03 -0.26905502968E+03  0.16347207374E+04  0.46999998093E+01 0.  1.
       -5    1    3    3    0  502 -0.15993416513E+04  0.20495236686E+03  0.82225787554E+03  0.18099804679E+04  0.46999998093E+01 0. -1.
</event>
<event>
 5   0  0.1579536E-08  0.3401412E+04  0.7818609E-02  0.8137560E-01
        1   -1    0    0  501    0  0.00000000000E+00  0.00000000000E+00  0.21277966091E+04  0.21277966091E+04  0.50400001928E-02 0. -1.
       -1   -1    0    0    0  501  0.00000000000E+00  0.00000000000E+00 -0.13593407760E+04  0.13593407760E+04  0.50400001928E-02 0.  1.
    10030    2    1    2    0    0  0.00000000000E+00  0.00000000000E+00  0.76845583312E+03  0.34871373850E+04  0.34014118796E+04 0.  0.
        5    1    3    3  502    0 -0.11625347484E+03  0.98411344802E+01 -0.13552266226E+04  0.13602474065E+04  0.46999998093E+01 0.  1.
       -5    1    3    3    0  502  0.11625347484E+03 -0.98411344802E+01  0.21236824557E+04  0.21268899786E+04  0.46999998093E+01 0. -1.
</event>
<event>
 5   0  0.4946315E-08  0.3397679E+04  0.7818609E-02  0.8138476E-01
        2   -1    0    0  501    0  0.00000000000E+00  0.00000000000E+00  0.10239800147E+04  0.10239800147E+04  0.25500000920E-02 0.  1.
       -2   -1    0    0    0  501  0.00000000000E+00  0.00000000000E+00 -0.28184687250E+04  0.28184687250E+04  0.25500000920E-02 0. -1.
    10030    2    1    2    0    0  0.00000000000E+00  0.00000000000E+00 -0.17944887104E+04  0.38424487397E+04  0.33976789998E+04 0.  0.
        3    1    3    3  502    0 -0.13222411580E+04 -0.69601804471E+03  0.16826127806E+02  0.14943379562E+04  0.10100000352E+00 0.  1.
       -3    1    3    3    0  502  0.13222411580E+04  0.69601804471E+03 -0.18113148382E+04  0.23481107835E+04  0.10100000352E+00 0. -1.
</event>
<event>
 5   0  0.1625282E-08  0.3400534E+04  0.7818609E-02  0.8137775E-01
       -1   -1    0    0    0  501  0.00000000000E+00  0.00000000000E+00  0.15767947315E+04  0.15767947315E+04  0.50400001928E-02 0.  1.
        1   -1    0    0  501    0  0.00000000000E+00  0.00000000000E+00 -0.18334079302E+04  0.18334079302E+04  0.50400001928E-02 0. -1.
    10030    2    1    2    0    0  0.00000000000E+00  0.00000000000E+00 -0.25661319868E+03  0.34102026616E+04  0.34005340551E+04 0.  0.
        1    1    3    3  502    0 -0.11781268407E+04 -0.82832604488E+03  0.77803353348E+03  0.16369004455E+04  0.50400001928E-02 0.  1.
       -1    1    3    3    0  502  0.11781268407E+04  0.82832604488E+03 -0.10346467322E+04  0.17733022161E+04  0.50400001928E-02 0. -1.
</event>
<event>
 5   0  0.1579536E-08  0.3400180E+04  0.7818609E-02  0.8137862E-01
       -1   -1    0    0    0  501  0.00000000000E+00  0.00000000000E+00  0.15885646107E+04  0.15885646107E+04  0.50400001928E-02 0. -1.
        1   -1    0    0  501    0  0.00000000000E+00  0.00000000000E+00 -0.18194445836E+04  0.18194445837E+04  0.50400001928E-02 0.  1.
    10030    2    1    2    0    0  0.00000000000E+00  0.00000000000E+00 -0.23087997296E+03  0.34080091944E+04  0.34001795698E+04 0.  0.
        5    1    3    3  502    0  0.93472090628E+03  0.88934572958E+03 -0.12250774455E+04  0.17791784162E+04  0.46999998093E+01 0.  1.
       -5    1    3    3    0  502 -0.93472090628E+03 -0.88934572958E+03  0.99419747253E+03  0.16288307781E+04  0.46999998093E+01 0. -1.
</event>
<event>
 5   0  0.4946315E-08  0.3400182E+04  0.7818609E-02  0.8137862E-01
       -2   -1    0    0    0  501  0.00000000000E+00  0.00000000000E+00  0.29907744425E+04  0.29907744425E+04  0.25500000920E-02 0.  1.
        2   -1    0    0  501    0  0.00000000000E+00  0.00000000000E+00 -0.96640838020E+03  0.96640838020E+03  0.25500000920E-02 0. -1.
    10030    2    1    2    0    0  0.00000000000E+00  0.00000000000E+00  0.20243660623E+04  0.39571828227E+04  0.34001820448E+04 0.  0.
        3    1    3    3  502    0 -0.84520189242E+03  0.73158668478E+03  0.25029224378E+04  0.27412052197E+04  0.10100000352E+00 0.  1.
       -3    1    3    3    0  502  0.84520189242E+03 -0.73158668478E+03 -0.47855637554E+03  0.12159776030E+04  0.10100000352E+00 0. -1.
</event>
<event>
 5   0  0.5001197E-08  0.3399847E+04  0.7818609E-02  0.8137944E-01
       -2   -1    0    0    0  501  0.00000000000E+00  0.00000000000E+00  0.13703038093E+04  0.13703038093E+04  0.25500000920E-02 0.  1.
        2   -1    0    0  501    0  0.00000000000E+00  0.00000000000E+00 -0.21088309791E+04  0.21088309791E+04  0.25500000920E-02 0. -1.
    10030    2    1    2    0    0  0.00000000000E+00  0.00000000000E+00 -0.73852716983E+03  0.34791347884E+04  0.33998465400E+04 0.  0.
        5    1    3    3  502    0  0.19590560249E+03 -0.16100439128E+04  0.15162257703E+03  0.16289972075E+04  0.46999998093E+01 0. -1.
       -5    1    3    3    0  502 -0.19590560249E+03  0.16100439128E+04 -0.89014974686E+03  0.18501375809E+04  0.46999998093E+01 0.  1.
</event>
<event>
 5   0  0.5001197E-08  0.3414342E+04  0.7818609E-02  0.8134395E-01
        2   -1    0    0  501    0  0.00000000000E+00  0.00000000000E+00  0.23200074563E+04  0.23200074563E+04  0.25500000920E-02 0.  1.
       -2   -1    0    0    0  501  0.00000000000E+00  0.00000000000E+00 -0.12562167498E+04  0.12562167498E+04  0.25500000920E-02 0. -1.
    10030    2    1    2    0    0  0.00000000000E+00  0.00000000000E+00  0.10637907065E+04  0.35762242061E+04  0.34143416504E+04 0.  0.
        5    1    3    3  502    0  0.10140792942E+04  0.47142324951E+03 -0.81915046250E+03  0.13862273498E+04  0.46999998093E+01 0. -1.
       -5    1    3    3    0  502 -0.10140792942E+04 -0.47142324951E+03  0.18829411690E+04  0.21899968564E+04  0.46999998093E+01 0.  1.
</event>
<event>
 5   0  0.1645631E-08  0.3401065E+04  0.7818609E-02  0.8137645E-01
       -1   -1    0    0    0  501  0.00000000000E+00  0.00000000000E+00  0.12451331407E+04  0.12451331407E+04  0.50400001928E-02 0.  1.
        1   -1    0    0  501    0  0.00000000000E+00  0.00000000000E+00 -0.23224909956E+04  0.23224909956E+04  0.50400001928E-02 0. -1.
    10030    2    1    2    0    0  0.00000000000E+00  0.00000000000E+00 -0.10773578549E+04  0.35676241364E+04  0.34010648378E+04 0.  0.
        4    1    3    3  502    0 -0.19096483256E+03 -0.37932667999E+03 -0.22659686550E+04  0.23054222728E+04  0.12699999809E+01 0. -1.
       -4    1    3    3    0  502  0.19096483256E+03  0.37932667999E+03  0.11886108001E+04  0.12622018636E+04  0.12699999809E+01 0.  1.
</event>
<event>
 5   0  0.1573625E-08  0.3400180E+04  0.7818609E-02  0.8137862E-01
       -3   -1    0    0    0  501  0.00000000000E+00  0.00000000000E+00  0.16473276206E+04  0.16473276237E+04  0.10100000352E+00 0.  1.
        3   -1    0    0  501    0  0.00000000000E+00  0.00000000000E+00 -0.17545424087E+04  0.17545424116E+04  0.10100000352E+00 0. -1.
    10030    2    1    2    0    0  0.00000000000E+00  0.00000000000E+00 -0.10721478812E+03  0.34018700352E+04  0.34001801020E+04 0.  0.
        2    1    3    3  502    0  0.34640955099E+03 -0.12217788152E+04 -0.11844625472E+04  0.17365755313E+04  0.25500000920E-02 0. -1.
       -2    1    3    3    0  502 -0.34640955099E+03  0.12217788152E+04  0.10772477591E+04  0.16652945039E+04  0.25500000920E-02 0.  1.
</event>
<event>
 5   0  0.1645631E-08  0.3400558E+04  0.7818609E-02  0.8137769E-01
        1   -1    0    0  501    0  0.00000000000E+00  0.00000000000E+00  0.21079331722E+04  0.21079331722E+04  0.50400001928E-02 0.  1.
       -1   -1    0    0    0  501  0.00000000000E+00  0.00000000000E+00 -0.13714611103E+04  0.13714611103E+04  0.50400001928E-02 0. -1.
    10030    2    1    2    0    0  0.00000000000E+00  0.00000000000E+00  0.73647206191E+03  0.34793942826E+04  0.34005578183E+04 0.  0.
        4    1    3    3  502    0 -0.14547457750E+04  0.71492454219E+03  0.89350333215E+03  0.18508787611E+04  0.12699999809E+01 0.  1.
       -4    1    3    3    0  502  0.14547457750E+04 -0.71492454219E+03 -0.15703127024E+03  0.16285155214E+04  0.12699999809E+01 0. -1.
</event>
<event>
 5   0  0.1630571E-08  0.3406108E+04  0.7818609E-02  0.8136409E-01
        1   -1    0    0  501    0  0.00000000000E+00  0.00000000000E+00  0.12655634914E+04  0.12655634914E+04  0.50400001928E-02 0.  1.
       -1   -1    0    0    0  501  0.00000000000E+00  0.00000000000E+00 -0.22917799658E+04  0.22917799658E+04  0.50400001928E-02 0. -1.
    10030    2    1    2    0    0  0.00000000000E+00  0.00000000000E+00 -0.10262164744E+04  0.35573434572E+04  0.34061080752E+04 0.  0.
        3    1    3    3  502    0  0.99191693710E+03  0.12371448624E+04 -0.11619549923E+04  0.19658499523E+04  0.10100000352E+00 0. -1.
       -3    1    3    3    0  502 -0.99191693710E+03 -0.12371448624E+04  0.13573851789E+03  0.15914935049E+04  0.10100000352E+00 0.  1.
</event>
<event>
 5   0  0.1625282E-08  0.3398488E+04  0.7818609E-02  0.8138277E-01
       -1   -1    0    0    0  501  0.00000000000E+00  0.00000000000E+00  0.22292885612E+04  0.22292885612E+04  0.50400001928E-02 0. -1.
        1   -1    0    0  501    0  0.00000000000E+00  0.00000000000E+00 -0.12952251884E+04  0.12952251884E+04  0.50400001928E-02 0.  1.
    10030    2    1    2    0    0  0.00000000000E+00  0.00000000000E+00  0.93406337281E+03  0.35245137496E+04  0.33984883091E+04 0.  0.
        1    1    3    3  502    0 -0.97955615001E+03  0.13862748894E+04  0.54831130449E+03  0.17837975240E+04  0.50400001928E-02 0.  1.
       -1    1    3    3    0  502  0.97955615001E+03 -0.13862748894E+04  0.38575206831E+03  0.17407162256E+04  0.50400001928E-02 0. -1.
</event>
<event>
 5   0  0.4946315E-08  0.3397684E+04  0.7818609E-02  0.8138475E-01
        2   -1    0    0  501    0  0.00000000000E+00  0.00000000000E+00  0.17428578788E+04  0.17428578788E+04  0.25500000920E-02 0.  1.
       -2   -1    0    0    0  501  0.00000000000E+00  0.00000000000E+00 -0.16559372948E+04  0.16559372948E+04  0.25500000920E-02 0. -1.
    10030    2    1    2    0    0  0.00000000000E+00  0.00000000000E+00  0.86920584065E+02  0.33987951736E+04  0.33976835409E+04 0.  0.
        3    1    3    3  502    0 -0.15770152877E+04 -0.13953940665E+03  0.65979082667E+03  0.17151595870E+04  0.10100000352E+00 0. -1.
       -3    1    3    3    0  502  0.15770152877E+04  0.13953940665E+03 -0.57287024260E+03  0.16836355867E+04  0.10100000352E+00 0.  1.
</event>
<event>
 5   0  0.5001197E-08  0.3400120E+04  0.7818609E-02  0.8137877E-01
       -2   -1    0    0    0  501  0.00000000000E+00  0.00000000000E+00  0.15723839448E+04  0.15723839448E+04  0.25500000920E-02 0. -1.
        2   -1    0    0  501    0  0.00000000000E+00  0.00000000000E+00 -0.18381036048E+04  0.18381036048E+04  0.25500000920E-02 0.  1.
    10030    2    1    2    0    0  0.00000000000E+00  0.00000000000E+00 -0.26571965999E+03  0.34104875496E+04  0.34001203491E+04 0.  0.
        5    1    3    3  502    0  0.57854817082E+03  0.15410399889E+04 -0.55919730724E+03  0.17384607996E+04  0.46999998093E+01 0.  1.
       -5    1    3    3    0  502 -0.57854817082E+03 -0.15410399889E+04  0.29347764725E+03  0.16720267500E+04  0.46999998093E+01 0. -1.
</event>
<event>
 5   0  0.5001197E-08  0.3401173E+04  0.7818609E-02  0.8137618E-01
       -2   -1    0    0    0  501  0.00000000000E+00  0.00000000000E+00  0.14833469490E+04  0.14833469490E+04  0.25500000920E-02 0. -1.
        2   -1    0    0  501    0  0.00000000000E+00  0.00000000000E+00 -0.19496417202E+04  0.19496417202E+04  0.25500000920E-02 0.  1.
    10030    2    1    2    0    0  0.00000000000E+00  0.00000000000E+00 -0.46629477120E+03  0.34329886692E+04  0.34011733842E+04 0.  0.
        5    1    3    3  502    0 -0.16361128017E+04 -0.46296615862E+03 -0.26116025467E+03  0.17202992567E+04  0.46999998093E+01 0. -1.
       -5    1    3    3    0  502  0.16361128017E+04  0.46296615862E+03 -0.20513451653E+03  0.17126894125E+04  0.46999998093E+01 0.  1.
</event>
<event>
 5   0  0.1625282E-08  0.3397372E+04  0.7818609E-02  0.8138552E-01
       -1   -1    0    0    0  501  0.00000000000E+00  0.00000000000E+00  0.17476737949E+04  0.17476737949E+04  0.50400001928E-02 0.  1.
        1   -1    0    0  501    0  0.00000000000E+00  0.00000000000E+00 -0.16510714746E+04  0.16510714746E+04  0.50400001928E-02 0. -1.
    10030    2    1    2    0    0  0.00000000000E+00  0.00000000000E+00  0.96602320285E+02  0.33987452695E+04  0.33973721313E+04 0.  0.
        1    1    3    3  502    0 -0.85813939792E+01 -0.13283621414E+04  0.11074616809E+04  0.17294770868E+04  0.50400001928E-02 0.  1.
       -1    1    3    3    0  502  0.85813939792E+01  0.13283621414E+04 -0.10108593606E+04  0.16692681828E+04  0.50400001928E-02 0. -1.
</event>
<event>
 5   0  0.4973409E-08  0.3401207E+04  0.7818609E-02  0.8137610E-01
       -2   -1    0    0    0  501  0.00000000000E+00  0.00000000000E+00  0.11110728419E+04  0.11110728419E+04  0.25500000920E-02 0. -1.
        2   -1    0    0  501    0  0.00000000000E+00  0.00000000000E+00 -0.26029365201E+04  0.26029365201E+04  0.25500000920E-02 0.  1.
    10030    2    1    2    0    0  0.00000000000E+00  0.00000000000E+00 -0.14918636782E+04  0.37140093620E+04  0.34012068897E+04 0.  0.
        1    1    3    3  502    0  0.64772290877E+03  0.11529647075E+04 -0.19134594411E+04  0.23259835803E+04  0.50400001928E-02 0.  1.
       -1    1    3    3    0  502 -0.64772290877E+03 -0.11529647075E+04  0.42159576284E+03  0.13880257817E+04  0.50400001928E-02 0. -1.
</event>
<event>
 5   0  0.4973409E-08  0.3399643E+04  0.7818609E-02  0.8137994E-01
       -2   -1    0    0    0  501  0.00000000000E+00  0.00000000000E+00  0.20566120080E+04  0.20566120080E+04  0.25500000920E-02 0.  1.
        2   -1    0    0  501    0  0.00000000000E+00  0.00000000000E+00 -0.14049283819E+04  0.14049283819E+04  0.25500000920E-02 0. -1.
    10030    2    1    2    0    0  0.00000000000E+00  0.00000000000E+00  0.65168362605E+03  0.34615403899E+04  0.33996426757E+04 0.  0.
        1    1    3    3  502    0  0.58020753295E+03  0.12058353913E+04  0.13931214533E+04  0.19317005865E+04  0.50400001928E-02 0.  1.
       -1    1    3    3    0  502 -0.58020753295E+03 -0.12058353913E+04 -0.74143782728E+03  0.15298398034E+04  0.50400001928E-02 0. -1.
</event>
<event>
 5   0  0.1630571E-08  0.3392664E+04  0.7818609E-02  0.8139709E-01
       -1   -1    0    0    0  501  0.00000000000E+00  0.00000000000E+00  0.13912311270E+04  0.13912311270E+04  0.50400001928E-02 0.  1.
        1   -1    0    0  501    0  0.00000000000E+00  0.00000000000E+00 -0.20683424933E+04  0.20683424933E+04  0.50400001928E-02 0. -1.
    10030    2    1    2    0    0  0.00000000000E+00  0.00000000000E+00 -0.67711136631E+03  0.34595736204E+04  0.33926641202E+04 0.  0.
        3    1    3    3  502    0  0.16897301186E+04  0.70162785017E+02 -0.47318892482E+03  0.17561373690E+04  0.10100000352E+00 0.  1.
       -3    1    3    3    0  502 -0.16897301186E+04 -0.70162785017E+02 -0.20392244149E+03  0.17034362513E+04  0.10100000352E+00 0. -1.
</event>
<event>
 5   0  0.4775023E-08  0.3395392E+04  0.7818609E-02  0.8139038E-01
        2   -1    0    0  501    0  0.00000000000E+00  0.00000000000E+00  0.14149866297E+04  0.14149866297E+04  0.25500000920E-02 0.  1.
       -2   -1    0    0    0  501  0.00000000000E+00  0.00000000000E+00 -0.20368891739E+04  0.20368891739E+04  0.25500000920E-02 0. -1.
    10030    2    1    2    0    0  0.00000000000E+00  0.00000000000E+00 -0.62190254415E+03  0.34518758036E+04  0.33953915516E+04 0.  0.
        4    1    3    3  502    0 -0.14383051050E+04  0.62528264982E+03  0.34983788801E+03  0.16068877148E+04  0.12699999809E+01 0.  1.
       -4    1    3    3    0  502  0.14383051050E+04 -0.62528264982E+03 -0.97174043216E+03  0.18449880888E+04  0.12699999809E+01 0. -1.
</event>
<event>
 5   0  0.1595851E-08  0.3397787E+04  0.7818609E-02  0.8138450E-01
       -1   -1    0    0    0  501  0.00000000000E+00  0.00000000000E+00  0.18718584673E+04  0.18718584673E+04  0.50400001928E-02 0.  1.
        1   -1    0    0  501    0  0.00000000000E+00  0.00000000000E+00 -0.15419113057E+04  0.15419113057E+04  0.50400001928E-02 0. -1.
    10030    2    1    2    0    0  0.00000000000E+00  0.00000000000E+00  0.32994716162E+03  0.34137697731E+04  0.33977873586E+04 0.  0.
        2    1    3    3  502    0  0.16813349449E+04 -0.14244506733E+02  0.40932454166E+03  0.17305018588E+04  0.25500000920E-02 0. -1.
       -2    1    3    3    0  502 -0.16813349449E+04  0.14244506733E+02 -0.79377380041E+02  0.16832679143E+04  0.25500000920E-02 0.  1.
</event>
<event>
 5   0  0.4764953E-08  0.3400115E+04  0.7818609E-02  0.8137878E-01
        2   -1    0    0  501    0  0.00000000000E+00  0.00000000000E+00  0.12635199660E+04  0.12635199660E+04  0.25500000920E-02 0.  1.
       -2   -1    0    0    0  501  0.00000000000E+00  0.00000000000E+00 -0.22874164066E+04  0.22874164066E+04  0.25500000920E-02 0. -1.
    10030    2    1    2    0    0  0.00000000000E+00  0.00000000000E+00 -0.10238964407E+04  0.35509363726E+04  0.34001154688E+04 0.  0.
        2    1    3    3  502    0 -0.12364973945E+04  0.11639330668E+04 -0.59634310333E+03  0.17998030691E+04  0.25500000920E-02 0.  1.
       -2    1    3    3    0  502  0.12364973945E+04 -0.11639330668E+04 -0.42755333736E+03  0.17511333035E+04  0.25500000920E-02 0. -1.
</event>
<event>
 5   0  0.1625282E-08  0.3400457E+04  0.7818609E-02  0.8137794E-01
        1   -1    0    0  501    0  0.00000000000E+00  0.00000000000E+00  0.25065819933E+04  0.25065819934E+04  0.50400001928E-02 0. -1.
       -1   -1    0    0    0  501  0.00000000000E+00  0.00000000000E+00 -0.11532741512E+04  0.11532741512E+04  0.50400001928E-02 0.  1.
    10030    2    1    2    0    0  0.00000000000E+00  0.00000000000E+00  0.13533078421E+04  0.36598561446E+04  0.34004565699E+04 0.  0.
        1    1    3    3  502    0  0.85881620040E+03  0.84657378763E+03 -0.61332671783E+03  0.13529309320E+04  0.50400001928E-02 0.  1.
       -1    1    3    3    0  502 -0.85881620040E+03 -0.84657378763E+03  0.19666345600E+04  0.23069252126E+04  0.50400001928E-02 0. -1.
</event>
<event>
 5   0  0.4764953E-08  0.3401035E+04  0.7818609E-02  0.8137652E-01
        2   -1    0    0  501    0  0.00000000000E+00  0.00000000000E+00  0.21961102836E+04  0.21961102836E+04  0.25500000920E-02 0.  1.
       -2   -1    0    0    0  501  0.00000000000E+00  0.00000000000E+00 -0.13167640630E+04  0.13167640630E+04  0.25500000920E-02 0. -1.
    10030    2    1    2    0    0  0.00000000000E+00  0.00000000000E+00  0.87934622063E+03  0.35128743466E+04  0.34010346072E+04 0.  0.
        2    1    3    3  502    0  0.46686351997E+03  0.21398208944E+03 -0.12347492181E+04  0.13372941010E+04  0.25500000920E-02 0. -1.
       -2    1    3    3    0  502 -0.46686351997E+03 -0.21398208944E+03  0.21140954388E+04  0.21755802456E+04  0.25500000920E-02 0.  1.
</event>
<event>
 5   0  0.5001197E-08  0.3399037E+04  0.7818609E-02  0.8138143E-01
       -2   -1    0    0    0  501  0.00000000000E+00  0.00000000000E+00  0.18953115301E+04  0.18953115301E+04  0.25500000920E-02 0. -1.
        2   -1    0    0  501    0  0.00000000000E+00  0.00000000000E+00 -0.15239514856E+04  0.15239514856E+04  0.25500000920E-02 0.  1.
    10030    2    1    2    0    0  0.00000000000E+00  0.00000000000E+00  0.37136004449E+03  0.34192630157E+04  0.33990368177E+04 0.  0.
        5    1    3    3  502    0  0.12154211299E+04  0.52923863906E+03 -0.88413252559E+03  0.15934410792E+04  0.46999998093E+01 0.  1.
       -5    1    3    3    0  502 -0.12154211299E+04 -0.52923863906E+03  0.12554925701E+04  0.18258219365E+04  0.46999998093E+01 0. -1.
</event>
<event>
 5   0  0.5001197E-08  0.3400234E+04  0.7818609E-02  0.8137849E-01
        2   -1    0    0  501    0  0.00000000000E+00  0.00000000000E+00  0.17296476074E+04  0.17296476074E+04  0.25500000920E-02 0. -1.
       -2   -1    0    0    0  501  0.00000000000E+00  0.00000000000E+00 -0.16710905659E+04  0.16710905659E+04  0.25500000920E-02 0.  1.
    10030    2    1    2    0    0  0.00000000000E+00  0.00000000000E+00  0.58557041523E+02  0.34007381733E+04  0.34002339914E+04 0.  0.
        5    1    3    3  502    0 -0.31458337396E+03  0.16071956206E+04  0.48578376178E+03  0.17082296143E+04  0.46999998093E+01 0. -1.
       -5    1    3    3    0  502  0.31458337396E+03 -0.16071956206E+04 -0.42722672025E+03  0.16925085590E+04  0.46999998093E+01 0.  1.
</event>
<event>
 5   0  0.5001197E-08  0.3400466E+04  0.7818609E-02  0.8137792E-01
       -2   -1    0    0    0  501  0.00000000000E+00  0.00000000000E+00  0.17269846449E+04  0.17269846449E+04  0.25500000920E-02 0.  1.
        2   -1    0    0  501    0  0.00000000000E+00  0.00000000000E+00 -0.16738952583E+04  0.16738952583E+04  0.25500000920E-02 0. -1.
    10030    2    1    2    0    0  0.00000000000E+00  0.00000000000E+00  0.53089386617E+02  0.34008799031E+04  0.34004655023E+04 0.  0.
        5    1    3    3  502    0  0.16807692794E+04 -0.22636278801E+03  0.14715721676E+03  0.17023227716E+04  0.46999998093E+01 0.  1.
       -5    1    3    3    0  502 -0.16807692794E+04  0.22636278801E+03 -0.94067830141E+02  0.16985571315E+04  0.46999998093E+01 0. -1.
</event>
<event>
 5   0  0.1630571E-08  0.3400410E+04  0.7818609E-02  0.8137806E-01
       -1   -1    0    0    0  501  0.00000000000E+00  0.00000000000E+00  0.11869207535E+04  0.11869207535E+04  0.50400001928E-02 0.  1.
        1   -1    0    0  501    0  0.00000000000E+00  0.00000000000E+00 -0.24354595506E+04  0.24354595506E+04  0.50400001928E-02 0. -1.
    10030    2    1    2    0    0  0.00000000000E+00  0.00000000000E+00 -0.12485387971E+04  0.36223803041E+04  0.34004102605E+04 0.  0.
        3    1    3    3  502    0  0.32912484640E+03 -0.49554481607E+03 -0.23209756735E+04  0.23959999825E+04  0.10100000352E+00 0. -1.
       -3    1    3    3    0  502 -0.32912484640E+03  0.49554481607E+03  0.10724368763E+04  0.12263803216E+04  0.10100000352E+00 0.  1.
</event>
<event>
 5   0  0.1630571E-08  0.3405655E+04  0.7818609E-02  0.8136520E-01
       -1   -1    0    0    0  501  0.00000000000E+00  0.00000000000E+00  0.13607993449E+04  0.13607993449E+04  0.50400001928E-02 0.  1.
        1   -1    0    0  501    0  0.00000000000E+00  0.00000000000E+00 -0.21308218819E+04  0.21308218819E+04  0.50400001928E-02 0. -1.
    10030    2    1    2    0    0  0.00000000000E+00  0.00000000000E+00 -0.77002253706E+03  0.34916212268E+04  0.34056547218E+04 0.  0.
        3    1    3    3  502    0 -0.27864542665E+03  0.13677747485E+04 -0.13849089833E+04  0.19663224402E+04  0.10100000352E+00 0. -1.
       -3    1    3    3    0  502  0.27864542665E+03 -0.13677747485E+04  0.61488644625E+03  0.15252987866E+04  0.10100000352E+00 0.  1.
</event>
<event>
 5   0  0.1630571E-08  0.3397317E+04  0.7818609E-02  0.8138565E-01
        1   -1    0    0  501    0  0.00000000000E+00  0.00000000000E+00  0.15244791055E+04  0.15244791055E+04  0.50400001928E-02 0.  1.
       -1   -1    0    0    0  501  0.00000000000E+00  0.00000000000E+00 -0.18927392189E+04  0.18927392189E+04  0.50400001928E-02 0. -1.
    10030    2    1    2    0    0  0.00000000000E+00  0.00000000000E+00 -0.36826011341E+03  0.34172183243E+04  0.33973174072E+04 0.  0.
        3    1    3    3  502    0  0.34984176567E+03 -0.95650808803E+03 -0.15515583206E+04  0.18559715019E+04  0.10100000352E+00 0. -1.
       -3    1    3    3    0  502 -0.34984176567E+03  0.95650808803E+03  0.11832982071E+04  0.15612468225E+04  0.10100000352E+00 0.  1.
</event>
<event>
 5   0  0.4973409E-08  0.3394700E+04  0.7818609E-02  0.8139208E-01
        2   -1    0    0  501    0  0.00000000000E+00  0.00000000000E+00  0.20000323962E+04  0.20000323962E+04  0.25500000920E-02 0. -1.
       -2   -1    0    0    0  501  0.00000000000E+00  0.00000000000E+00 -0.14404755082E+04  0.14404755082E+04  0.25500000920E-02 0.  1.
    10030    2    1    2    0    0  0.00000000000E+00  0.00000000000E+00  0.55955688802E+03  0.34405079044E+04  0.33947003888E+04 0.  0.
        1    1    3    3  502    0  0.17066464295E+03 -0.10665319401E+04  0.16067901913E+04  0.19360763204E+04  0.50400001928E-02 0. -1.
       -1    1    3    3    0  502 -0.17066464295E+03  0.10665319401E+04 -0.10472333032E+04  0.15044315840E+04  0.50400001928E-02 0.  1.
</event>
<event>
 5   0  0.1579536E-08  0.3395347E+04  0.7818609E-02  0.8139049E-01
       -1   -1    0    0    0  501  0.00000000000E+00  0.00000000000E+00  0.19393534500E+04  0.19393534500E+04  0.50400001928E-02 0. -1.
        1   -1    0    0  501    0  0.00000000000E+00  0.00000000000E+00 -0.14861118053E+04  0.14861118053E+04  0.50400001928E-02 0.  1.
    10030    2    1    2    0    0  0.00000000000E+00  0.00000000000E+00  0.45324164475E+03  0.34254652553E+04  0.33953474383E+04 0.  0.
        5    1    3    3  502    0  0.66888796591E+03 -0.83346116635E+03  0.15574142154E+04  0.18888170253E+04  0.46999998093E+01 0. -1.
       -5    1    3    3    0  502 -0.66888796591E+03  0.83346116635E+03 -0.11041725707E+04  0.15366482299E+04  0.46999998093E+01 0.  1.
</event>
<event>
 5   0  0.4973409E-08  0.3399727E+04  0.7818609E-02  0.8137973E-01
       -2   -1    0    0    0  501  0.00000000000E+00  0.00000000000E+00  0.31045202544E+04  0.31045202544E+04  0.25500000920E-02 0.  1.
        2   -1    0    0  501    0  0.00000000000E+00  0.00000000000E+00 -0.93075105219E+03  0.93075105219E+03  0.25500000920E-02 0. -1.
    10030    2    1    2    0    0  0.00000000000E+00  0.00000000000E+00  0.21737692022E+04  0.40352713066E+04  0.33997267498E+04 0.  0.
        1    1    3    3  502    0 -0.11112135517E+04  0.12307396905E+04  0.15310281677E+04  0.22568923310E+04  0.50400001928E-02 0.  1.
       -1    1    3    3    0  502  0.11112135517E+04 -0.12307396905E+04  0.64274103452E+03  0.17783789756E+04  0.50400001928E-02 0. -1.
</event>
<event>
 5   0  0.4946315E-08  0.3398900E+04  0.7818609E-02  0.8138176E-01
        2   -1    0    0  501    0  0.00000000000E+00  0.00000000000E+00  0.17574569954E+04  0.17574569954E+04  0.25500000920E-02 0. -1.
       -2   -1    0    0    0  501  0.00000000000E+00  0.00000000000E+00 -0.16433575139E+04  0.16433575139E+04  0.25500000920E-02 0.  1.
    10030    2    1    2    0    0  0.00000000000E+00  0.00000000000E+00  0.11409948154E+03  0.34008145093E+04  0.33988999154E+04 0.  0.
        3    1    3    3  502    0 -0.11219532552E+04 -0.12642815529E+04  0.23305561302E+03  0.17063123632E+04  0.10100000352E+00 0. -1.
       -3    1    3    3    0  502  0.11219532552E+04  0.12642815529E+04 -0.11895613148E+03  0.16945021461E+04  0.10100000352E+00 0.  1.
</event>
<event>
 5   0  0.4764953E-08  0.3399337E+04  0.7818609E-02  0.8138069E-01
       -2   -1    0    0    0  501  0.00000000000E+00  0.00000000000E+00  0.15822773457E+04  0.15822773457E+04  0.25500000920E-02 0. -1.
        2   -1    0    0  501    0  0.00000000000E+00  0.00000000000E+00 -0.18257685439E+04  0.18257685439E+04  0.25500000920E-02 0.  1.
    10030    2    1    2    0    0  0.00000000000E+00  0.00000000000E+00 -0.24349119820E+03  0.34080458896E+04  0.33993365267E+04 0.  0.
        2    1    3    3  502    0  0.32993654435E+02 -0.84397169347E+03 -0.16004806193E+04  0.18096726260E+04  0.25500000920E-02 0.  1.
       -2    1    3    3    0  502 -0.32993654435E+02  0.84397169347E+03  0.13569894211E+04  0.15983732635E+04  0.25500000920E-02 0. -1.
</event>
<event>
 5   0  0.1595851E-08  0.3397697E+04  0.7818609E-02  0.8138472E-01
       -1   -1    0    0    0  501  0.00000000000E+00  0.00000000000E+00  0.30436389477E+04  0.30436389477E+04  0.50400001928E-02 0. -1.
        1   -1    0    0  501    0  0.00000000000E+00  0.00000000000E+00 -0.94823563371E+03  0.94823563373E+03  0.50400001928E-02 0.  1.
    10030    2    1    2    0    0  0.00000000000E+00  0.00000000000E+00  0.20954033140E+04  0.39918745814E+04  0.33976974005E+04 0.  0.
        2    1    3    3  502    0  0.54446341886E+03  0.91655808933E+03 -0.50632181367E+03  0.11802037640E+04  0.25500000920E-02 0.  1.
       -2    1    3    3    0  502 -0.54446341886E+03 -0.91655808933E+03  0.26017251277E+04  0.28116708174E+04  0.25500000920E-02 0. -1.
</event>
<event>
 5   0  0.5001197E-08  0.3404567E+04  0.7818609E-02  0.8136786E-01
       -2   -1    0    0    0  501  0.00000000000E+00  0.00000000000E+00  0.95457080828E+03  0.95457080829E+03  0.25500000920E-02 0.  1.
        2   -1    0    0  501    0  0.00000000000E+00  0.00000000000E+00 -0.30356771300E+04  0.30356771300E+04  0.25500000920E-02 0. -1.
    10030    2    1    2    0    0  0.00000000000E+00  0.00000000000E+00 -0.20811063217E+04  0.39902479383E+04  0.34045667987E+04 0.  0.
        5    1    3    3  502    0  0.13867091775E+04 -0.81891278685E+03 -0.39416485847E+03  0.16580013634E+04  0.46999998093E+01 0.  1.
       -5    1    3    3    0  502 -0.13867091775E+04  0.81891278685E+03 -0.16869414632E+04  0.23322465748E+04  0.46999998093E+01 0. -1.
</event>
<event>
 5   0  0.1573625E-08  0.3398085E+04  0.7818609E-02  0.8138377E-01
        3   -1    0    0  501    0  0.00000000000E+00  0.00000000000E+00  0.25554280251E+04  0.25554280271E+04  0.10100000352E+00 0. -1.
       -3   -1    0    0    0  501  0.00000000000E+00  0.00000000000E+00 -0.11296521333E+04  0.11296521378E+04  0.10100000352E+00 0.  1.
    10030    2    1    2    0    0  0.00000000000E+00  0.00000000000E+00  0.14257758918E+04  0.36850801648E+04  0.33980845969E+04 0.  0.
        5    1    3    3  502    0  0.34917419883E+03  0.47781452662E+03  0.24400361801E+04  0.25107823468E+04  0.46999998093E+01 0. -1.
       -5    1    3    3    0  502 -0.34917419883E+03 -0.47781452662E+03 -0.10142602883E+04  0.11742978180E+04  0.46999998093E+01 0.  1.
</event>
<event>
 5   0  0.5001197E-08  0.3398775E+04  0.7818609E-02  0.8138207E-01
        2   -1    0    0  501    0  0.00000000000E+00  0.00000000000E+00  0.12507301509E+04  0.12507301509E+04  0.25500000920E-02 0.  1.
       -2   -1    0    0    0  501  0.00000000000E+00  0.00000000000E+00 -0.23089858722E+04  0.23089858723E+04  0.25500000920E-02 0. -1.
    10030    2    1    2    0    0  0.00000000000E+00  0.00000000000E+00 -0.10582557214E+04  0.35597160231E+04  0.33987752196E+04 0.  0.
        5    1    3    3  502    0 -0.12095811515E+04  0.30147915826E+03  0.68051673161E+03  0.14202469352E+04  0.46999998093E+01 0.  1.
       -5    1    3    3    0  502  0.12095811515E+04 -0.30147915826E+03 -0.17387724530E+04  0.21394690879E+04  0.46999998093E+01 0. -1.
</event>
<event>
 5   0  0.4973409E-08  0.3399506E+04  0.7818609E-02  0.8138028E-01
        2   -1    0    0  501    0  0.00000000000E+00  0.00000000000E+00  0.23919952083E+04  0.23919952083E+04  0.25500000920E-02 0. -1.
       -2   -1    0    0    0  501  0.00000000000E+00  0.00000000000E+00 -0.12078450171E+04  0.12078450171E+04  0.25500000920E-02 0.  1.
    10030    2    1    2    0    0  0.00000000000E+00  0.00000000000E+00  0.11841501912E+04  0.35998402254E+04  0.33995055483E+04 0.  0.
        1    1    3    3  502    0 -0.14403283751E+04 -0.90039945170E+03  0.52599161445E+03  0.17781822683E+04  0.50400001928E-02 0.  1.
       -1    1    3    3    0  502  0.14403283751E+04  0.90039945170E+03  0.65815857679E+03  0.18216579572E+04  0.50400001928E-02 0. -1.
</event>
<event>
 5   0  0.4775023E-08  0.3401226E+04  0.7818609E-02  0.8137605E-01
        2   -1    0    0  501    0  0.00000000000E+00  0.00000000000E+00  0.21757720279E+04  0.21757720279E+04  0.25500000920E-02 0. -1.
       -2   -1    0    0    0  501  0.00000000000E+00  0.00000000000E+00 -0.13292222673E+04  0.13292222673E+04  0.25500000920E-02 0.  1.
    10030    2    1    2    0    0  0.00000000000E+00  0.00000000000E+00  0.84654976066E+03  0.35049942952E+04  0.34012260307E+04 0.  0.
        4    1    3    3  502    0  0.90710093256E+03 -0.12168921524E+04  0.12137662974E+04  0.19434219434E+04  0.12699999809E+01 0. -1.
       -4    1    3    3    0  502 -0.90710093256E+03  0.12168921524E+04 -0.36721653671E+03  0.15615723519E+04  0.12699999809E+01 0.  1.
</event>
<event>
 5   0  0.1595851E-08  0.3401843E+04  0.7818609E-02  0.8137454E-01
        1   -1    0    0  501    0  0.00000000000E+00  0.00000000000E+00  0.19228746837E+04  0.19228746837E+04  0.50400001928E-02 0.  1.
       -1   -1    0    0    0  501  0.00000000000E+00  0.00000000000E+00 -0.15045882095E+04  0.15045882095E+04  0.50400001928E-02 0. -1.
    10030    2    1    2    0    0  0.00000000000E+00  0.00000000000E+00  0.41828647412E+03  0.34274628932E+04  0.34018433694E+04 0.  0.
        2    1    3    3  502    0  0.30314238028E+03 -0.30920708110E+03  0.18664109577E+04  0.19159838686E+04  0.25500000920E-02 0.  1.
       -2    1    3    3    0  502 -0.30314238028E+03  0.30920708110E+03 -0.14481244836E+04  0.15114790246E+04  0.25500000920E-02 0. -1.
</event>
<event>
 5   0  0.1595851E-08  0.3399187E+04  0.7818609E-02  0.8138106E-01
        1   -1    0    0  501    0  0.00000000000E+00  0.00000000000E+00  0.99527471677E+03  0.99527471678E+03  0.50400001928E-02 0.  1.
       -1   -1    0    0    0  501  0.00000000000E+00  0.00000000000E+00 -0.29023326323E+04  0.29023326323E+04  0.50400001928E-02 0. -1.
    10030    2    1    2    0    0  0.00000000000E+00  0.00000000000E+00 -0.19070579156E+04  0.38976073491E+04  0.33991871314E+04 0.  0.
        2    1    3    3  502    0  0.14019127971E+04 -0.75632641395E+03 -0.16330740652E+04  0.22812978845E+04  0.25500000920E-02 0. -1.
       -2    1    3    3    0  502 -0.14019127971E+04  0.75632641395E+03 -0.27398385036E+03  0.16163094646E+04  0.25500000920E-02 0.  1.
</event>
<event>
 5   0  0.5001197E-08  0.3377593E+04  0.7818609E-02  0.8143428E-01
       -2   -1    0    0    0  501  0.00000000000E+00  0.00000000000E+00  0.18467070651E+04  0.18467070651E+04  0.25500000920E-02 0. -1.
        2   -1    0    0  501    0  0.00000000000E+00  0.00000000000E+00 -0.15443886728E+04  0.15443886728E+04  0.25500000920E-02 0.  1.
    10030    2    1    2    0    0  0.00000000000E+00  0.00000000000E+00  0.30231839234E+03  0.33910957379E+04  0.33775929140E+04 0.  0.
        5    1    3    3  502    0 -0.72797928556E+03  0.14971252636E+04  0.43632547179E+03  0.17209706280E+04  0.46999998093E+01 0. -1.
       -5    1    3    3    0  502  0.72797928556E+03 -0.14971252636E+04 -0.13400707945E+03  0.16701251098E+04  0.46999998093E+01 0.  1.
</event>
<event>
 5   0  0.4946315E-08  0.3400332E+04  0.7818609E-02  0.8137825E-01
        2   -1    0    0  501    0  0.00000000000E+00  0.00000000000E+00  0.87434253142E+03  0.87434253142E+03  0.25500000920E-02 0. -1.
       -2   -1    0    0    0  501  0.00000000000E+00  0.00000000000E+00 -0.33059867667E+04  0.33059867667E+04  0.25500000920E-02 0.  1.
    10030    2    1    2    0    0  0.00000000000E+00  0.00000000000E+00 -0.24316442353E+04  0.41803292981E+04  0.34003322417E+04 0.  0.
        3    1    3    3  502    0 -0.63616436740E+03 -0.87535091447E+03  0.39632788271E+03  0.11523975558E+04  0.10100000352E+00 0. -1.
       -3    1    3    3    0  502  0.63616436740E+03  0.87535091447E+03 -0.28279721180E+04  0.30279317423E+04  0.10100000352E+00 0.  1.
</event>
<event>
 5   0  0.1595851E-08  0.3399189E+04  0.7818609E-02  0.8138105E-01
       -1   -1    0    0    0  501  0.00000000000E+00  0.00000000000E+00  0.17481687751E+04  0.17481687751E+04  0.50400001928E-02 0.  1.
        1   -1    0    0  501    0  0.00000000000E+00  0.00000000000E+00 -0.16523694857E+04  0.16523694857E+04  0.50400001928E-02 0. -1.
    10030    2    1    2    0    0  0.00000000000E+00  0.00000000000E+00  0.95799289398E+02  0.34005382607E+04  0.33991885736E+04 0.  0.
        2    1    3    3  502    0 -0.14154991517E+03 -0.54616396153E+03  0.16517483969E+04  0.17454524393E+04  0.25500000920E-02 0.  1.
       -2    1    3    3    0  502  0.14154991517E+03  0.54616396153E+03 -0.15559491075E+04  0.16550858214E+04  0.25500000920E-02 0. -1.
</event>
<event>
 5   0  0.4764953E-08  0.3400044E+04  0.7818609E-02  0.8137895E-01
       -2   -1    0    0    0  501  0.00000000000E+00  0.00000000000E+00  0.22921760220E+04  0.22921760220E+04  0.25500000920E-02 0.  1.
        2   -1    0    0  501    0  0.00000000000E+00  0.00000000000E+00 -0.12608436647E+04  0.12608436647E+04  0.25500000920E-02 0. -1.
    10030    2    1    2    0    0  0.00000000000E+00  0.00000000000E+00  0.10313323573E+04  0.35530196866E+04  0.34000444795E+04 0.  0.
        2    1    3    3  502    0 -0.57990791593E+03  0.28117170646E+03  0.21595702802E+04  0.22536846528E+04  0.25500000920E-02 0.  1.
       -2    1    3    3    0  502  0.57990791593E+03 -0.28117170646E+03 -0.11282379228E+04  0.12993350338E+04  0.25500000920E-02 0. -1.
</event>
<event>
 5   0  0.1645631E-08  0.3401842E+04  0.7818609E-02  0.8137454E-01
        1   -1    0    0  501    0  0.00000000000E+00  0.00000000000E+00  0.13743153249E+04  0.13743153249E+04  0.50400001928E-02 0.  1.
       -1   -1    0    0    0  501  0.00000000000E+00  0.00000000000E+00 -0.21051449001E+04  0.21051449001E+04  0.50400001928E-02 0. -1.
    10030    2    1    2    0    0  0.00000000000E+00  0.00000000000E+00 -0.73082957517E+03  0.34794602250E+04  0.34018423816E+04 0.  0.
        4    1    3    3  502    0  0.20455129579E+03  0.15329269162E+04  0.35885560658E+03  0.15876035784E+04  0.12699999809E+01 0.  1.
       -4    1    3    3    0  502 -0.20455129579E+03 -0.15329269162E+04 -0.10896851817E+04  0.18918566466E+04  0.12699999809E+01 0. -1.
</event>
<event>
 5   0  0.1630571E-08  0.3399854E+04  0.7818609E-02  0.8137942E-01
        1   -1    0    0  501    0  0.00000000000E+00  0.00000000000E+00  0.29272409738E+04  0.29272409738E+04  0.50400001928E-02 0. -1.
       -1   -1    0    0    0  501  0.00000000000E+00  0.00000000000E+00 -0.98719273616E+03  0.98719273617E+03  0.50400001928E-02 0.  1.
    10030    2    1    2    0    0  0.00000000000E+00  0.00000000000E+00  0.19400482377E+04  0.39144337100E+04  0.33998535418E+04 0.  0.
        3    1    3    3  502    0 -0.12295801959E+04  0.15770507265E+03  0.23092679828E+04  0.26209648938E+04  0.10100000352E+00 0. -1.
       -3    1    3    3    0  502  0.12295801959E+04 -0.15770507265E+03 -0.36921974516E+03  0.12934688162E+04  0.10100000352E+00 0.  1.
</event>
<event>
 5   0  0.4973409E-08  0.3394422E+04  0.7818609E-02  0.8139277E-01
        2   -1    0    0  501    0  0.00000000000E+00  0.00000000000E+00  0.17750433432E+04  0.17750433432E+04  0.25500000920E-02 0.  1.
       -2   -1    0    0    0  501  0.00000000000E+00  0.00000000000E+00 -0.16227914281E+04  0.16227914281E+04  0.25500000920E-02 0. -1.
    10030    2    1    2    0    0  0.00000000000E+00  0.00000000000E+00  0.15225191513E+03  0.33978347714E+04  0.33944219667E+04 0.  0.
        1    1    3    3  502    0 -0.32397169088E+03  0.14059976899E+04  0.97074593054E+03  0.17390039742E+04  0.50400001928E-02 0.  1.
       -1    1    3    3    0  502  0.32397169088E+03 -0.14059976899E+04 -0.81849401541E+03  0.16588307972E+04  0.50400001928E-02 0. -1.
</event>
<event>
 5   0  0.1595851E-08  0.3400040E+04  0.7818609E-02  0.8137897E-01
       -1   -1    0    0    0  501  0.00000000000E+00  0.00000000000E+00  0.12687481936E+04  0.12687481936E+04  0.50400001928E-02 0. -1.
        1   -1    0    0  501    0  0.00000000000E+00  0.00000000000E+00 -0.22778892440E+04  0.22778892440E+04  0.50400001928E-02 0.  1.
    10030    2    1    2    0    0  0.00000000000E+00  0.00000000000E+00 -0.10091410504E+04  0.35466374376E+04  0.34000399195E+04 0.  0.
        2    1    3    3  502    0  0.58071948062E+03  0.25483143212E+03  0.11407430737E+04  0.13051700787E+04  0.25500000920E-02 0. -1.
       -2    1    3    3    0  502 -0.58071948062E+03 -0.25483143212E+03 -0.21498841241E+04  0.22414673589E+04  0.25500000920E-02 0.  1.
</event>
<event>
 5   0  0.4973409E-08  0.3399767E+04  0.7818609E-02  0.8137964E-01
       -2   -1    0    0    0  501  0.00000000000E+00  0.00000000000E+00  0.11992044093E+04  0.11992044093E+04  0.25500000920E-02 0. -1.
        2   -1    0    0  501    0  0.00000000000E+00  0.00000000000E+00 -0.24096007418E+04  0.24096007418E+04  0.25500000920E-02 0.  1.
    10030    2    1    2    0    0  0.00000000000E+00  0.00000000000E+00 -0.12103963325E+04  0.36088051510E+04  0.33997669533E+04 0.  0.
        1    1    3    3  502    0  0.70775423137E+03  0.14789386742E+04 -0.10816010702E+04  0.19641885168E+04  0.50400001928E-02 0.  1.
       -1    1    3    3    0  502 -0.70775423137E+03 -0.14789386742E+04 -0.12879526224E+03  0.16446166343E+04  0.50400001928E-02 0. -1.
</event>
<event>
 5   0  0.4946315E-08  0.3399851E+04  0.7818609E-02  0.8137943E-01
       -2   -1    0    0    0  501  0.00000000000E+00  0.00000000000E+00  0.91051750888E+03  0.91051750888E+03  0.25500000920E-02 0. -1.
        2   -1    0    0  501    0  0.00000000000E+00  0.00000000000E+00 -0.31737406268E+04  0.31737406268E+04  0.25500000920E-02 0.  1.
    10030    2    1    2    0    0  0.00000000000E+00  0.00000000000E+00 -0.22632231179E+04  0.40842581357E+04  0.33998508258E+04 0.  0.
        3    1    3    3  502    0 -0.13094605124E+04  0.10730190209E+04 -0.94671299933E+03  0.19396706334E+04  0.10100000352E+00 0. -1.
       -3    1    3    3    0  502  0.13094605124E+04 -0.10730190209E+04 -0.13165101186E+04  0.21445875023E+04  0.10100000352E+00 0.  1.
</event>
<event>
 5   0  0.1625282E-08  0.3399922E+04  0.7818609E-02  0.8137926E-01
       -1   -1    0    0    0  501  0.00000000000E+00  0.00000000000E+00  0.14259218719E+04  0.14259218719E+04  0.50400001928E-02 0.  1.
        1   -1    0    0  501    0  0.00000000000E+00  0.00000000000E+00 -0.20266654864E+04  0.20266654864E+04  0.50400001928E-02 0. -1.
    10030    2    1    2    0    0  0.00000000000E+00  0.00000000000E+00 -0.60074361458E+03  0.34525873583E+04  0.33999215544E+04 0.  0.
        1    1    3    3  502    0  0.11336890398E+04  0.10013171383E+04 -0.10882638894E+04  0.18633853986E+04  0.50400001928E-02 0.  1.
       -1    1    3    3    0  502 -0.11336890398E+04 -0.10013171383E+04  0.48752027487E+03  0.15892019597E+04  0.50400001928E-02 0. -1.
</event>
<event>
 5   0  0.1625282E-08  0.3399216E+04  0.7818609E-02  0.8138099E-01
        1   -1    0    0  501    0  0.00000000000E+00  0.00000000000E+00  0.20533839612E+04  0.20533839612E+04  0.50400001928E-02 0. -1.
       -1   -1    0    0    0  501  0.00000000000E+00  0.00000000000E+00 -0.14067836065E+04  0.14067836065E+04  0.50400001928E-02 0.  1.
    10030    2    1    2    0    0  0.00000000000E+00  0.00000000000E+00  0.64660035477E+03  0.34601675677E+04  0.33992157298E+04 0.  0.
        1    1    3    3  502    0  0.99796632431E+02 -0.33300370655E+03  0.20168072538E+04  0.20465488842E+04  0.50400001928E-02 0. -1.
       -1    1    3    3    0  502 -0.99796632431E+02  0.33300370655E+03 -0.13702068990E+04  0.14136186836E+04  0.50400001928E-02 0.  1.
</event>
<event>
 5   0  0.4973409E-08  0.3393136E+04  0.7818609E-02  0.8139593E-01
       -2   -1    0    0    0  501  0.00000000000E+00  0.00000000000E+00  0.10778502301E+04  0.10778502301E+04  0.25500000920E-02 0. -1.
        2   -1    0    0  501    0  0.00000000000E+00  0.00000000000E+00 -0.26704475227E+04  0.26704475227E+04  0.25500000920E-02 0.  1.
    10030    2    1    2    0    0  0.00000000000E+00  0.00000000000E+00 -0.15925972926E+04  0.37482977529E+04  0.33931357043E+04 0.  0.
        1    1    3    3  502    0 -0.27731974189E+03 -0.40588183455E+03 -0.25900527102E+04  0.26362889341E+04  0.50400001928E-02 0.  1.
       -1    1    3    3    0  502  0.27731974189E+03  0.40588183455E+03  0.99745541757E+03  0.11120088187E+04  0.50400001928E-02 0. -1.
</event>
<event>
 5   0  0.1595851E-08  0.3407993E+04  0.7818609E-02  0.8135947E-01
        1   -1    0    0  501    0  0.00000000000E+00  0.00000000000E+00  0.20402466971E+04  0.20402466971E+04  0.50400001928E-02 0.  1.
       -1   -1    0    0    0  501  0.00000000000E+00  0.00000000000E+00 -0.14231630984E+04  0.14231630984E+04  0.50400001928E-02 0. -1.
    10030    2    1    2    0    0  0.00000000000E+00  0.00000000000E+00  0.61708359865E+03  0.34634097955E+04  0.34079928468E+04 0.  0.
        2    1    3    3  502    0 -0.24998644948E+03  0.50607193847E+03  0.19424800116E+04  0.20228273844E+04  0.25500000920E-02 0.  1.
       -2    1    3    3    0  502  0.24998644948E+03 -0.50607193847E+03 -0.13253964129E+04  0.14405824111E+04  0.25500000920E-02 0. -1.
</event>
<event>
 5   0  0.1625282E-08  0.3401865E+04  0.7818609E-02  0.8137449E-01
        1   -1    0    0  501    0  0.00000000000E+00  0.00000000000E+00  0.17294860787E+04  0.17294860787E+04  0.50400001928E-02 0. -1.
       -1   -1    0    0    0  501  0.00000000000E+00  0.00000000000E+00 -0.16728505436E+04  0.16728505436E+04  0.50400001928E-02 0.  1.
    10030    2    1    2    0    0  0.00000000000E+00  0.00000000000E+00  0.56635535157E+02  0.34023366223E+04  0.34018652101E+04 0.  0.
        1    1    3    3  502    0  0.12593991577E+03 -0.23018858694E+03 -0.16524876621E+04  0.16731895055E+04  0.50400001928E-02 0.  1.
       -1    1    3    3    0  502 -0.12593991577E+03  0.23018858694E+03  0.17091231973E+04  0.17291471168E+04  0.50400001928E-02 0. -1.
</event>
<event>
 5   0  0.4946315E-08  0.3401314E+04  0.7818609E-02  0.8137584E-01
        2   -1    0    0  501    0  0.00000000000E+00  0.00000000000E+00  0.23104703335E+04  0.23104703335E+04  0.25500000920E-02 0. -1.
       -2   -1    0    0    0  501  0.00000000000E+00  0.00000000000E+00 -0.12517946051E+04  0.12517946051E+04  0.25500000920E-02 0.  1.
    10030    2    1    2    0    0  0.00000000000E+00  0.00000000000E+00  0.10586757284E+04  0.35622649385E+04  0.34013140394E+04 0.  0.
        3    1    3    3  502    0  0.12717995850E+04  0.71696767479E+03  0.14428013169E+04  0.20526062655E+04  0.10100000352E+00 0. -1.
       -3    1    3    3    0  502 -0.12717995850E+04 -0.71696767479E+03 -0.38412558848E+03  0.15096586730E+04  0.10100000352E+00 0.  1.
</event>
<event>
 5   0  0.1645631E-08  0.3399947E+04  0.7818609E-02  0.8137919E-01
        1   -1    0    0  501    0  0.00000000000E+00  0.00000000000E+00  0.18336724180E+04  0.18336724180E+04  0.50400001928E-02 0.  1.
       -1   -1    0    0    0  501  0.00000000000E+00  0.00000000000E+00 -0.15760230884E+04  0.15760230884E+04  0.50400001928E-02 0. -1.
    10030    2    1    2    0    0  0.00000000000E+00  0.00000000000E+00  0.25764932961E+03  0.34096955064E+04  0.33999470981E+04 0.  0.
        4    1    3    3  502    0  0.13679123218E+04  0.81762821297E+03 -0.46465622847E+03  0.16600021199E+04  0.12699999809E+01 0. -1.
       -4    1    3    3    0  502 -0.13679123218E+04 -0.81762821297E+03  0.72230555807E+03  0.17496933865E+04  0.12699999809E+01 0.  1.
</event>
<event>
 5   0  0.1625282E-08  0.3400202E+04  0.7818609E-02  0.8137857E-01
        1   -1    0    0  501    0  0.00000000000E+00  0.00000000000E+00  0.23800505212E+04  0.23800505212E+04  0.50400001928E-02 0. -1.
       -1   -1    0    0    0  501  0.00000000000E+00  0.00000000000E+00 -0.12144045191E+04  0.12144045191E+04  0.50400001928E-02 0.  1.
    10030    2    1    2    0    0  0.00000000000E+00  0.00000000000E+00  0.11656460021E+04  0.35944550403E+04  0.34002024108E+04 0.  0.
        1    1    3    3  502    0 -0.81863944782E+02  0.15184449657E+04 -0.22085099197E+03  0.15366040413E+04  0.50400001928E-02 0.  1.
       -1    1    3    3    0  502  0.81863944782E+02 -0.15184449657E+04  0.13864969941E+04  0.20578509989E+04  0.50400001928E-02 0. -1.
</event>
<event>
 5   0  0.1625282E-08  0.3399431E+04  0.7818609E-02  0.8138046E-01
       -1   -1    0    0    0  501  0.00000000000E+00  0.00000000000E+00  0.20764742674E+04  0.20764742674E+04  0.50400001928E-02 0. -1.
        1   -1    0    0  501    0  0.00000000000E+00  0.00000000000E+00 -0.13913162301E+04  0.13913162301E+04  0.50400001928E-02 0.  1.
    10030    2    1    2    0    0  0.00000000000E+00  0.00000000000E+00  0.68515803725E+03  0.34677904975E+04  0.33994307463E+04 0.  0.
        1    1    3    3  502    0  0.11432586177E+04 -0.49218289308E+03  0.15233297580E+04  0.19671852528E+04  0.50400001928E-02 0. -1.
       -1    1    3    3    0  502 -0.11432586177E+04  0.49218289308E+03 -0.83817172072E+03  0.15006052447E+04  0.50400001928E-02 0.  1.
</event>
<event>
 5   0  0.4764953E-08  0.3400825E+04  0.7818609E-02  0.8137704E-01
        2   -1    0    0  501    0  0.00000000000E+00  0.00000000000E+00  0.17445260763E+04  0.17445260763E+04  0.25500000920E-02 0.  1.
       -2   -1    0    0    0  501  0.00000000000E+00  0.00000000000E+00 -0.16574141334E+04  0.16574141334E+04  0.25500000920E-02 0. -1.
    10030    2    1    2    0    0  0.00000000000E+00  0.00000000000E+00  0.87111942915E+02  0.34019402097E+04  0.34008247088E+04 0.  0.
        2    1    3    3  502    0 -0.82920161415E+03 -0.11133882225E+04 -0.93869967547E+03  0.16758179292E+04  0.25500000920E-02 0. -1.
       -2    1    3    3    0  502  0.82920161415E+03  0.11133882225E+04  0.10258116184E+04  0.17261222805E+04  0.25500000920E-02 0.  1.
</event>
<event>
 5   0  0.4775023E-08  0.3400647E+04  0.7818609E-02  0.8137748E-01
        2   -1    0    0  501    0  0.00000000000E+00  0.00000000000E+00  0.15397701996E+04  0.15397701996E+04  0.25500000920E-02 0. -1.
       -2   -1    0    0    0  501  0.00000000000E+00  0.00000000000E+00 -0.18776177023E+04  0.18776177023E+04  0.25500000920E-02 0.  1.
    10030    2    1    2    0    0  0.00000000000E+00  0.00000000000E+00 -0.33784750276E+03  0.34173879019E+04  0.34006468704E+04 0.  0.
        4    1    3    3  502    0  0.96124289962E+03 -0.13114085142E+04 -0.66868269661E+03  0.17581007834E+04  0.12699999809E+01 0. -1.
       -4    1    3    3    0  502 -0.96124289962E+03  0.13114085142E+04  0.33083519385E+03  0.16592871185E+04  0.12699999809E+01 0.  1.
</event>
<event>
 5   0  0.4946315E-08  0.3399863E+04  0.7818609E-02  0.8137940E-01
        2   -1    0    0  501    0  0.00000000000E+00  0.00000000000E+00  0.21465269195E+04  0.21465269195E+04  0.25500000920E-02 0.  1.
       -2   -1    0    0    0  501  0.00000000000E+00  0.00000000000E+00 -0.13462522968E+04  0.13462522968E+04  0.25500000920E-02 0. -1.
    10030    2    1    2    0    0  0.00000000000E+00  0.00000000000E+00  0.80027462275E+03  0.34927792163E+04  0.33998628181E+04 0.  0.
        3    1    3    3  502    0  0.66780169694E+03 -0.13394204823E+03 -0.11999484183E+04  0.13797738204E+04  0.10100000352E+00 0. -1.
       -3    1    3    3    0  502 -0.66780169694E+03  0.13394204823E+03  0.20002230411E+04  0.21130053959E+04  0.10100000352E+00 0.  1.
</event>
<event>
 5   0  0.1630571E-08  0.3400019E+04  0.7818609E-02  0.8137902E-01
        1   -1    0    0  501    0  0.00000000000E+00  0.00000000000E+00  0.21285798669E+04  0.21285798669E+04  0.50400001928E-02 0. -1.
       -1   -1    0    0    0  501  0.00000000000E+00  0.00000000000E+00 -0.13577282318E+04  0.13577282318E+04  0.50400001928E-02 0.  1.
    10030    2    1    2    0    0  0.00000000000E+00  0.00000000000E+00  0.77085163511E+03  0.34863080988E+04  0.34000193994E+04 0.  0.
        3    1    3    3  502    0  0.79005995756E+03  0.14888882224E+04  0.61251910109E+03  0.17933662578E+04  0.10100000352E+00 0. -1.
       -3    1    3    3    0  502 -0.79005995756E+03 -0.14888882224E+04  0.15833253402E+03  0.16929418409E+04  0.10100000352E+00 0.  1.
</event>
<event>
 5   0  0.4946315E-08  0.3403002E+04  0.7818609E-02  0.8137170E-01
        2   -1    0    0  501    0  0.00000000000E+00  0.00000000000E+00  0.22120054788E+04  0.22120054788E+04  0.25500000920E-02 0. -1.
       -2   -1    0    0    0  501  0.00000000000E+00  0.00000000000E+00 -0.13088147861E+04  0.13088147861E+04  0.25500000920E-02 0.  1.
    10030    2    1    2    0    0  0.00000000000E+00  0.00000000000E+00  0.90319069272E+03  0.35208202649E+04  0.34030018969E+04 0.  0.
        3    1    3    3  502    0  0.52996536428E+03 -0.54874391865E+03  0.20251468455E+04  0.21640709165E+04  0.10100000352E+00 0. -1.
       -3    1    3    3    0  502 -0.52996536428E+03  0.54874391865E+03 -0.11219561528E+04  0.13567493485E+04  0.10100000352E+00 0.  1.
</event>
<event>
 5   0  0.4764953E-08  0.3397547E+04  0.7818609E-02  0.8138509E-01
        2   -1    0    0  501    0  0.00000000000E+00  0.00000000000E+00  0.25894273696E+04  0.25894273696E+04  0.25500000920E-02 0.  1.
       -2   -1    0    0    0  501  0.00000000000E+00  0.00000000000E+00 -0.11144667132E+04  0.11144667132E+04  0.25500000920E-02 0. -1.
    10030    2    1    2    0    0  0.00000000000E+00  0.00000000000E+00  0.14749606564E+04  0.37038940828E+04  0.33975465323E+04 0.  0.
        2    1    3    3  502    0  0.91539668505E+03  0.11937095751E+04  0.15979096427E+04  0.21945862633E+04  0.25500000920E-02 0.  1.
       -2    1    3    3    0  502 -0.91539668505E+03 -0.11937095751E+04 -0.12294898639E+03  0.15093078195E+04  0.25500000920E-02 0. -1.
</event>
<event>
 5   0  0.1630571E-08  0.3399097E+04  0.7818609E-02  0.8138128E-01
       -1   -1    0    0    0  501  0.00000000000E+00  0.00000000000E+00  0.22086360050E+04  0.22086360050E+04  0.50400001928E-02 0. -1.
        1   -1    0    0  501    0  0.00000000000E+00  0.00000000000E+00 -0.13078048942E+04  0.13078048942E+04  0.50400001928E-02 0.  1.
    10030    2    1    2    0    0  0.00000000000E+00  0.00000000000E+00  0.90083111078E+03  0.35164408992E+04  0.33990969253E+04 0.  0.
        3    1    3    3  502    0  0.21666127640E+03 -0.10379165709E+04 -0.92368998061E+03  0.14062062820E+04  0.10100000352E+00 0.  1.
       -3    1    3    3    0  502 -0.21666127640E+03  0.10379165709E+04  0.18245210914E+04  0.21102346173E+04  0.10100000352E+00 0. -1.
</event>
<event>
 5   0  0.5001197E-08  0.3400282E+04  0.7818609E-02  0.8137837E-01
        2   -1    0    0  501    0  0.00000000000E+00  0.00000000000E+00  0.22957196598E+04  0.22957196598E+04  0.25500000920E-02 0.  1.
       -2   -1    0    0    0  501  0.00000000000E+00  0.00000000000E+00 -0.12590732270E+04  0.12590732270E+04  0.25500000920E-02 0. -1.
    10030    2    1    2    0    0  0.00000000000E+00  0.00000000000E+00  0.10366464328E+04  0.35547928868E+04  0.34002818474E+04 0.  0.
        5    1    3    3  502    0 -0.15094280000E+04  0.36153756118E+03  0.12436622508E+04  0.19889193497E+04  0.46999998093E+01 0.  1.
       -5    1    3    3    0  502  0.15094280000E+04 -0.36153756118E+03 -0.20701581807E+03  0.15658735371E+04  0.46999998093E+01 0. -1.
</event>
<event>
 5   0  0.1573625E-08  0.3398359E+04  0.7818609E-02  0.8138309E-01
        3   -1    0    0  501    0  0.00000000000E+00  0.00000000000E+00  0.20369562695E+04  0.20369562720E+04  0.10100000352E+00 0. -1.
       -3   -1    0    0    0  501  0.00000000000E+00  0.00000000000E+00 -0.14174142107E+04  0.14174142143E+04  0.10100000352E+00 0.  1.
    10030    2    1    2    0    0  0.00000000000E+00  0.00000000000E+00  0.61954205879E+03  0.34543704864E+04  0.33983588825E+04 0.  0.
        4    1    3    3  502    0  0.15488659220E+04 -0.53145027553E+03 -0.15134009953E+03  0.16444848672E+04  0.12699999809E+01 0.  1.
       -4    1    3    3    0  502 -0.15488659220E+04  0.53145027553E+03  0.77088215832E+03  0.18098856192E+04  0.12699999809E+01 0. -1.
</event>
<event>
 5   0  0.5001197E-08  0.3399549E+04  0.7818609E-02  0.8138017E-01
        2   -1    0    0  501    0  0.00000000000E+00  0.00000000000E+00  0.21312986152E+04  0.21312986152E+04  0.25500000920E-02 0.  1.
       -2   -1    0    0    0  501  0.00000000000E+00  0.00000000000E+00 -0.13556209126E+04  0.13556209126E+04  0.25500000920E-02 0. -1.
    10030    2    1    2    0    0  0.00000000000E+00  0.00000000000E+00  0.77567770257E+03  0.34869195278E+04  0.33995487782E+04 0.  0.
        5    1    3    3  502    0  0.49386325534E+03  0.20043375353E+03 -0.12676866359E+04  0.13751822066E+04  0.46999998093E+01 0. -1.
       -5    1    3    3    0  502 -0.49386325534E+03 -0.20043375353E+03  0.20433643384E+04  0.21117373213E+04  0.46999998093E+01 0.  1.
</event>
<event>
 5   0  0.4973409E-08  0.3400584E+04  0.7818609E-02  0.8137763E-01
        2   -1    0    0  501    0  0.00000000000E+00  0.00000000000E+00  0.18667864537E+04  0.18667864537E+04  0.25500000920E-02 0. -1.
       -2   -1    0    0    0  501  0.00000000000E+00  0.00000000000E+00 -0.15486468180E+04  0.15486468180E+04  0.25500000920E-02 0.  1.
    10030    2    1    2    0    0  0.00000000000E+00  0.00000000000E+00  0.31813963569E+03  0.34154332716E+04  0.34005840094E+04 0.  0.
        1    1    3    3  502    0  0.91507350636E+03 -0.10288092242E+04 -0.84287591128E+03  0.16143877303E+04  0.50400001928E-02 0.  1.
       -1    1    3    3    0  502 -0.91507350636E+03  0.10288092242E+04  0.11610155470E+04  0.18010455414E+04  0.50400001928E-02 0. -1.
</event>
<event>
 5   0  0.4775023E-08  0.3400429E+04  0.7818609E-02  0.8137801E-01
        2   -1    0    0  501    0  0.00000000000E+00  0.00000000000E+00  0.21036505241E+04  0.21036505241E+04  0.25500000920E-02 0. -1.
       -2   -1    0    0    0  501  0.00000000000E+00  0.00000000000E+00 -0.13741486354E+04  0.13741486354E+04  0.25500000920E-02 0.  1.
    10030    2    1    2    0    0  0.00000000000E+00  0.00000000000E+00  0.72950188876E+03  0.34777991595E+04  0.34004285007E+04 0.  0.
        4    1    3    3  502    0  0.11362548610E+04 -0.99260062662E+03  0.11664197034E+04  0.19070573275E+04  0.12699999809E+01 0. -1.
       -4    1    3    3    0  502 -0.11362548610E+04  0.99260062662E+03 -0.43691781460E+03  0.15707418320E+04  0.12699999809E+01 0.  1.
</event>
<event>
 5   0  0.1630571E-08  0.3400985E+04  0.7818609E-02  0.8137665E-01
        1   -1    0    0  501    0  0.00000000000E+00  0.00000000000E+00  0.17127218125E+04  0.17127218126E+04  0.50400001928E-02 0.  1.
       -1   -1    0    0    0  501  0.00000000000E+00  0.00000000000E+00 -0.16883500981E+04  0.16883500981E+04  0.50400001928E-02 0. -1.
    10030    2    1    2    0    0  0.00000000000E+00  0.00000000000E+00  0.24371714455E+02  0.34010719107E+04  0.34009845870E+04 0.  0.
        3    1    3    3  502    0  0.19139653602E+03  0.24707304415E+03 -0.16593822048E+04  0.16885576789E+04  0.10100000352E+00 0. -1.
       -3    1    3    3    0  502 -0.19139653602E+03 -0.24707304415E+03  0.16837539193E+04  0.17125142318E+04  0.10100000352E+00 0.  1.
</event>
<event>
 5   0  0.1645631E-08  0.3400228E+04  0.7818609E-02  0.8137850E-01
        1   -1    0    0  501    0  0.00000000000E+00  0.00000000000E+00  0.26088220518E+04  0.26088220518E+04  0.50400001928E-02 0.  1.
       -1   -1    0    0    0  501  0.00000000000E+00  0.00000000000E+00 -0.11079279654E+04  0.11079279654E+04  0.50400001928E-02 0. -1.
    10030    2    1    2    0    0  0.00000000000E+00  0.00000000000E+00  0.15008940864E+04  0.37167500171E+04  0.34002275852E+04 0.  0.
        4    1    3    3  502    0 -0.85237621002E+03 -0.53635765670E+03  0.22476834066E+04  0.24629874236E+04  0.12699999809E+01 0.  1.
       -4    1    3    3    0  502  0.85237621002E+03  0.53635765670E+03 -0.74678932026E+03  0.12537625936E+04  0.12699999809E+01 0. -1.
</event>
<event>
 5   0  0.4973409E-08  0.3399899E+04  0.7818609E-02  0.8137931E-01
        2   -1    0    0  501    0  0.00000000000E+00  0.00000000000E+00  0.27024584380E+04  0.27024584380E+04  0.25500000920E-02 0. -1.
       -2   -1    0    0    0  501  0.00000000000E+00  0.00000000000E+00 -0.10693328542E+04  0.10693328542E+04  0.25500000920E-02 0.  1.
    10030    2    1    2    0    0  0.00000000000E+00  0.00000000000E+00  0.16331255838E+04  0.37717912922E+04  0.33998985837E+04 0.  0.
        1    1    3    3  502    0  0.43911652421E+03  0.16406824840E+04  0.73683169021E+03  0.18513733483E+04  0.50400001928E-02 0. -1.
       -1    1    3    3    0  502 -0.43911652421E+03 -0.16406824840E+04  0.89629389364E+03  0.19204179438E+04  0.50400001928E-02 0.  1.
</event>
<event>
 5   0  0.1625282E-08  0.3400272E+04  0.7818609E-02  0.8137840E-01
        1   -1    0    0  501    0  0.00000000000E+00  0.00000000000E+00  0.16995511038E+04  0.16995511038E+04  0.50400001928E-02 0. -1.
       -1   -1    0    0    0  501  0.00000000000E+00  0.00000000000E+00 -0.17007209620E+04  0.17007209620E+04  0.50400001928E-02 0.  1.
    10030    2    1    2    0    0  0.00000000000E+00  0.00000000000E+00 -0.11698582371E+01  0.34002720658E+04  0.34002718646E+04 0.  0.
        1    1    3    3  502    0  0.98819987200E+03 -0.39173506196E+02 -0.13834764158E+04  0.17006118145E+04  0.50400001928E-02 0.  1.
       -1    1    3    3    0  502 -0.98819987200E+03  0.39173506196E+02  0.13823065576E+04  0.16996602513E+04  0.50400001928E-02 0. -1.
</event>
<event>
 5   0  0.4775023E-08  0.3401370E+04  0.7818609E-02  0.8137570E-01
        2   -1    0    0  501    0  0.00000000000E+00  0.00000000000E+00  0.16034686701E+04  0.16034686701E+04  0.25500000920E-02 0. -1.
       -2   -1    0    0    0  501  0.00000000000E+00  0.00000000000E+00 -0.18037954504E+04  0.18037954504E+04  0.25500000920E-02 0.  1.
    10030    2    1    2    0    0  0.00000000000E+00  0.00000000000E+00 -0.20032678028E+03  0.34072641204E+04  0.34013700133E+04 0.  0.
        4    1    3    3  502    0  0.11288194433E+03  0.10920366515E+04 -0.14012757549E+04  0.17801296963E+04  0.12699999809E+01 0.  1.
       -4    1    3    3    0  502 -0.11288194433E+03 -0.10920366515E+04  0.12009489746E+04  0.16271344241E+04  0.12699999809E+01 0. -1.
</event>
<event>
 5   0  0.5001197E-08  0.3402501E+04  0.7818609E-02  0.8137293E-01
        2   -1    0    0  501    0  0.00000000000E+00  0.00000000000E+00  0.24946993824E+04  0.24946993824E+04  0.25500000920E-02 0.  1.
       -2   -1    0    0    0  501  0.00000000000E+00  0.00000000000E+00 -0.11601609242E+04  0.11601609242E+04  0.25500000920E-02 0. -1.
    10030    2    1    2    0    0  0.00000000000E+00  0.00000000000E+00  0.13345384582E+04  0.36548603067E+04  0.34025006929E+04 0.  0.
        5    1    3    3  502    0 -0.10622407784E+04 -0.13137126715E+04  0.45234364302E+03  0.17489520622E+04  0.46999998093E+01 0. -1.
       -5    1    3    3    0  502  0.10622407784E+04  0.13137126715E+04  0.88219481516E+03  0.19059082445E+04  0.46999998093E+01 0.  1.
</event>
<event>
 5   0  0.5001197E-08  0.3398544E+04  0.7818609E-02  0.8138264E-01
       -2   -1    0    0    0  501  0.00000000000E+00  0.00000000000E+00  0.14834865261E+04  0.14834865261E+04  0.25500000920E-02 0.  1.
        2   -1    0    0  501    0  0.00000000000E+00  0.00000000000E+00 -0.19464456967E+04  0.19464456967E+04  0.25500000920E-02 0. -1.
    10030    2    1    2    0    0  0.00000000000E+00  0.00000000000E+00 -0.46295917061E+03  0.34299322228E+04  0.33985443736E+04 0.  0.
        5    1    3    3  502    0 -0.10900243764E+04  0.12717926276E+04 -0.52029428112E+03  0.17539492176E+04  0.46999998093E+01 0. -1.
       -5    1    3    3    0  502  0.10900243764E+04 -0.12717926276E+04  0.57335110506E+02  0.16759830052E+04  0.46999998093E+01 0.  1.
</event>
<event>
 5   0  0.1645631E-08  0.3399377E+04  0.7818609E-02  0.8138059E-01
       -1   -1    0    0    0  501  0.00000000000E+00  0.00000000000E+00  0.17255316399E+04  0.17255316399E+04  0.50400001928E-02 0. -1.
        1   -1    0    0  501    0  0.00000000000E+00  0.00000000000E+00 -0.16742324674E+04  0.16742324674E+04  0.50400001928E-02 0.  1.
    10030    2    1    2    0    0  0.00000000000E+00  0.00000000000E+00  0.51299172476E+02  0.33997641073E+04  0.33993770576E+04 0.  0.
        4    1    3    3  502    0 -0.51437886482E+03  0.16126553523E+04 -0.12830487655E+03  0.16975590288E+04  0.12699999809E+01 0.  1.
       -4    1    3    3    0  502  0.51437886482E+03 -0.16126553523E+04  0.17960404903E+03  0.17022050785E+04  0.12699999809E+01 0. -1.
</event>
<event>
 5   0  0.1645631E-08  0.3400522E+04  0.7818609E-02  0.8137778E-01
       -1   -1    0    0    0  501  0.00000000000E+00  0.00000000000E+00  0.14887314294E+04  0.14887314294E+04  0.50400001928E-02 0. -1.
        1   -1    0    0  501    0  0.00000000000E+00  0.00000000000E+00 -0.19418463774E+04  0.19418463774E+04  0.50400001928E-02 0.  1.
    10030    2    1    2    0    0  0.00000000000E+00  0.00000000000E+00 -0.45311494801E+03  0.34305778068E+04  0.34005221558E+04 0.  0.
        4    1    3    3  502    0  0.15400291118E+04  0.58855369262E+03  0.19281005257E+03  0.16598983232E+04  0.12699999809E+01 0. -1.
       -4    1    3    3    0  502 -0.15400291118E+04 -0.58855369262E+03 -0.64592500058E+03  0.17706794835E+04  0.12699999809E+01 0.  1.
</event>
<event>
 5   0  0.1625282E-08  0.3399258E+04  0.7818609E-02  0.8138088E-01
       -1   -1    0    0    0  501  0.00000000000E+00  0.00000000000E+00  0.15433556719E+04  0.15433556719E+04  0.50400001928E-02 0.  1.
        1   -1    0    0  501    0  0.00000000000E+00  0.00000000000E+00 -0.18717263277E+04  0.18717263277E+04  0.50400001928E-02 0. -1.
    10030    2    1    2    0    0  0.00000000000E+00  0.00000000000E+00 -0.32837065580E+03  0.34150819997E+04  0.33992584157E+04 0.  0.
        1    1    3    3  502    0 -0.14496999724E+04 -0.63271265845E+03  0.46062942510E+03  0.16474631363E+04  0.50400001928E-02 0.  1.
       -1    1    3    3    0  502  0.14496999724E+04  0.63271265845E+03 -0.78900008090E+03  0.17676188633E+04  0.50400001928E-02 0. -1.
</event>
<event>
 5   0  0.5001197E-08  0.3399642E+04  0.7818609E-02  0.8137994E-01
        2   -1    0    0  501    0  0.00000000000E+00  0.00000000000E+00  0.15863878842E+04  0.15863878842E+04  0.25500000920E-02 0. -1.
       -2   -1    0    0    0  501  0.00000000000E+00  0.00000000000E+00 -0.18213655176E+04  0.18213655176E+04  0.25500000920E-02 0.  1.
    10030    2    1    2    0    0  0.00000000000E+00  0.00000000000E+00 -0.23497763338E+03  0.34077534018E+04  0.33996424458E+04 0.  0.
        5    1    3    3  502    0 -0.75865723353E+03 -0.44057195106E+03  0.13419056543E+04  0.16032458692E+04  0.46999998093E+01 0. -1.
       -5    1    3    3    0  502  0.75865723353E+03  0.44057195106E+03 -0.15768832877E+04  0.18045075326E+04  0.46999998093E+01 0.  1.
</event>
<event>
 5   0  0.4775023E-08  0.3413921E+04  0.7818609E-02  0.8134498E-01
        2   -1    0    0  501    0  0.00000000000E+00  0.00000000000E+00  0.14362983586E+04  0.14362983586E+04  0.25500000920E-02 0. -1.
       -2   -1    0    0    0  501  0.00000000000E+00  0.00000000000E+00 -0.20286268600E+04  0.20286268600E+04  0.25500000920E-02 0.  1.
    10030    2    1    2    0    0  0.00000000000E+00  0.00000000000E+00 -0.59232850140E+03  0.34649252185E+04  0.34139205785E+04 0.  0.
        4    1    3    3  502    0 -0.13482878326E+04  0.94748617569E+03  0.15557157613E+03  0.16552384302E+04  0.12699999809E+01 0. -1.
       -4    1    3    3    0  502  0.13482878326E+04 -0.94748617569E+03 -0.74790007753E+03  0.18096867883E+04  0.12699999809E+01 0.  1.
</event>
<event>
 5   0  0.4973409E-08  0.3401394E+04  0.7818609E-02  0.8137564E-01
        2   -1    0    0  501    0  0.00000000000E+00  0.00000000000E+00  0.15099665465E+04  0.15099665465E+04  0.25500000920E-02 0.  1.
       -2   -1    0    0    0  501  0.00000000000E+00  0.00000000000E+00 -0.19155191907E+04  0.19155191907E+04  0.25500000920E-02 0. -1.
    10030    2    1    2    0    0  0.00000000000E+00  0.00000000000E+00 -0.40555264421E+03  0.34254857373E+04  0.34013937715E+04 0.  0.
        1    1    3    3  502    0  0.13472767813E+04  0.58110684901E+03  0.66327404518E+03  0.16102087922E+04  0.50400001928E-02 0.  1.
       -1    1    3    3    0  502 -0.13472767813E+04 -0.58110684901E+03 -0.10688266894E+04  0.18152769451E+04  0.50400001928E-02 0. -1.
</event>
<event>
 5   0  0.4973409E-08  0.3400101E+04  0.7818609E-02  0.8137882E-01
       -2   -1    0    0    0  501  0.00000000000E+00  0.00000000000E+00  0.13339773912E+04  0.13339773913E+04  0.25500000920E-02 0. -1.
        2   -1    0    0  501    0  0.00000000000E+00  0.00000000000E+00 -0.21665821657E+04  0.21665821657E+04  0.25500000920E-02 0.  1.
    10030    2    1    2    0    0  0.00000000000E+00  0.00000000000E+00 -0.83260477441E+03  0.35005595569E+04  0.34001009545E+04 0.  0.
        1    1    3    3  502    0 -0.55707481423E+02 -0.85368617979E+03 -0.19288197813E+04  0.21100306078E+04  0.50400001928E-02 0.  1.
       -1    1    3    3    0  502  0.55707481423E+02  0.85368617979E+03  0.10962150069E+04  0.13905289491E+04  0.50400001928E-02 0. -1.
</event>
<event>
 5   0  0.1595851E-08  0.3401424E+04  0.7818609E-02  0.8137557E-01
       -1   -1    0    0    0  501  0.00000000000E+00  0.00000000000E+00  0.13347387517E+04  0.13347387517E+04  0.50400001928E-02 0.  1.
        1   -1    0    0  501    0  0.00000000000E+00  0.00000000000E+00 -0.21670321432E+04  0.21670321432E+04  0.50400001928E-02 0. -1.
    10030    2    1    2    0    0  0.00000000000E+00  0.00000000000E+00 -0.83229339147E+03  0.35017708949E+04  0.34014242768E+04 0.  0.
        2    1    3    3  502    0  0.69236569764E+02 -0.10230840249E+04  0.98068867400E+03  0.14188886144E+04  0.25500000920E-02 0.  1.
       -2    1    3    3    0  502 -0.69236569764E+02  0.10230840249E+04 -0.18129820655E+04  0.20828822805E+04  0.25500000920E-02 0. -1.
</event>
<event>
 5   0  0.1579536E-08  0.3399855E+04  0.7818609E-02  0.8137942E-01
       -1   -1    0    0    0  501  0.00000000000E+00  0.00000000000E+00  0.18693756086E+04  0.18693756086E+04  0.50400001928E-02 0. -1.
        1   -1    0    0  501    0  0.00000000000E+00  0.00000000000E+00 -0.15458391449E+04  0.15458391449E+04  0.50400001928E-02 0.  1.
    10030    2    1    2    0    0  0.00000000000E+00  0.00000000000E+00  0.32353646376E+03  0.34152147535E+04  0.33998552865E+04 0.  0.
        5    1    3    3  502    0  0.22511011390E+03  0.14225299187E+04  0.10688793857E+04  0.17935415145E+04  0.46999998093E+01 0. -1.
       -5    1    3    3    0  502 -0.22511011390E+03 -0.14225299187E+04 -0.74534292198E+03  0.16216732390E+04  0.46999998093E+01 0.  1.
</event>
<event>
 5   0  0.5001197E-08  0.3400603E+04  0.7818609E-02  0.8137758E-01
       -2   -1    0    0    0  501  0.00000000000E+00  0.00000000000E+00  0.20953641261E+04  0.20953641261E+04  0.25500000920E-02 0. -1.
        2   -1    0    0  501    0  0.00000000000E+00  0.00000000000E+00 -0.13797241521E+04  0.13797241521E+04  0.25500000920E-02 0.  1.
    10030    2    1    2    0    0  0.00000000000E+00  0.00000000000E+00  0.71563997397E+03  0.34750882783E+04  0.34006025891E+04 0.  0.
        5    1    3    3  502    0  0.14326426951E+04 -0.38085843647E+03  0.12088173882E+04  0.19127937182E+04  0.46999998093E+01 0. -1.
       -5    1    3    3    0  502 -0.14326426951E+04  0.38085843647E+03 -0.49317741425E+03  0.15622945600E+04  0.46999998093E+01 0.  1.
</event>
<event>
 5   0  0.1645631E-08  0.3400503E+04  0.7818609E-02  0.8137783E-01
        1   -1    0    0  501    0  0.00000000000E+00  0.00000000000E+00  0.91717894895E+03  0.91717894896E+03  0.50400001928E-02 0. -1.
       -1   -1    0    0    0  501  0.00000000000E+00  0.00000000000E+00 -0.31518996304E+04  0.31518996304E+04  0.50400001928E-02 0.  1.
    10030    2    1    2    0    0  0.00000000000E+00  0.00000000000E+00 -0.22347206815E+04  0.40690785794E+04  0.34005034864E+04 0.  0.
        4    1    3    3  502    0  0.13041913799E+03  0.98299721742E+03  0.53533251195E+03  0.11268873911E+04  0.12699999809E+01 0. -1.
       -4    1    3    3    0  502 -0.13041913799E+03 -0.98299721742E+03 -0.27700531934E+04  0.29421911883E+04  0.12699999809E+01 0.  1.
</event>
<event>
 5   0  0.4764953E-08  0.3399293E+04  0.7818609E-02  0.8138080E-01
        2   -1    0    0  501    0  0.00000000000E+00  0.00000000000E+00  0.22747801950E+04  0.22747801950E+04  0.25500000920E-02 0.  1.
       -2   -1    0    0    0  501  0.00000000000E+00  0.00000000000E+00 -0.12699239558E+04  0.12699239558E+04  0.25500000920E-02 0. -1.
    10030    2    1    2    0    0  0.00000000000E+00  0.00000000000E+00  0.10048562392E+04  0.35447041508E+04  0.33992927876E+04 0.  0.
        2    1    3    3  502    0  0.95104344809E+03 -0.92790824442E+03  0.16076243622E+04  0.20856541995E+04  0.25500000920E-02 0.  1.
       -2    1    3    3    0  502 -0.95104344809E+03  0.92790824442E+03 -0.60276812300E+03  0.14590499513E+04  0.25500000920E-02 0. -1.
</event>
<event>
 5   0  0.1625282E-08  0.3401759E+04  0.7818609E-02  0.8137475E-01
       -1   -1    0    0    0  501  0.00000000000E+00  0.00000000000E+00  0.13497217784E+04  0.13497217784E+04  0.50400001928E-02 0.  1.
        1   -1    0    0  501    0  0.00000000000E+00  0.00000000000E+00 -0.21433984970E+04  0.21433984970E+04  0.50400001928E-02 0. -1.
    10030    2    1    2    0    0  0.00000000000E+00  0.00000000000E+00 -0.79367671861E+03  0.34931202754E+04  0.34017593278E+04 0.  0.
        1    1    3    3  502    0 -0.39413072178E+03  0.14775249286E+04  0.36785830351E+03  0.15728123448E+04  0.50400001928E-02 0.  1.
       -1    1    3    3    0  502  0.39413072178E+03 -0.14775249286E+04 -0.11615350221E+04  0.19203079306E+04  0.50400001928E-02 0. -1.
</event>
<event>
 5   0  0.4946315E-08  0.3400759E+04  0.7818609E-02  0.8137720E-01
       -2   -1    0    0    0  501  0.00000000000E+00  0.00000000000E+00  0.24551269752E+04  0.24551269752E+04  0.25500000920E-02 0.  1.
        2   -1    0    0  501    0  0.00000000000E+00  0.00000000000E+00 -0.11776539166E+04  0.11776539166E+04  0.25500000920E-02 0. -1.
    10030    2    1    2    0    0  0.00000000000E+00  0.00000000000E+00  0.12774730586E+04  0.36327808918E+04  0.34007586790E+04 0.  0.
        3    1    3    3  502    0 -0.24405332658E+03 -0.16617307120E+04  0.92212660334E+03  0.19160450068E+04  0.10100000352E+00 0.  1.
       -3    1    3    3    0  502  0.24405332658E+03  0.16617307120E+04  0.35534645528E+03  0.17167358850E+04  0.10100000352E+00 0. -1.
</event>
<event>
 5   0  0.5001197E-08  0.3400023E+04  0.7818609E-02  0.8137901E-01
        2   -1    0    0  501    0  0.00000000000E+00  0.00000000000E+00  0.24633543145E+04  0.24633543145E+04  0.25500000920E-02 0.  1.
       -2   -1    0    0    0  501  0.00000000000E+00  0.00000000000E+00 -0.11732131411E+04  0.11732131411E+04  0.25500000920E-02 0. -1.
    10030    2    1    2    0    0  0.00000000000E+00  0.00000000000E+00  0.12901411733E+04  0.36365674556E+04  0.34000233252E+04 0.  0.
        5    1    3    3  502    0 -0.66656492781E+02 -0.29773192337E+03 -0.11436831900E+04  0.11836894505E+04  0.46999998093E+01 0. -1.
       -5    1    3    3    0  502  0.66656492781E+02  0.29773192337E+03  0.24338243633E+04  0.24528780051E+04  0.46999998093E+01 0.  1.
</event>
<event>
 5   0  0.1625282E-08  0.3399977E+04  0.7818609E-02  0.8137912E-01
        1   -1    0    0  501    0  0.00000000000E+00  0.00000000000E+00  0.20630338332E+04  0.20630338332E+04  0.50400001928E-02 0.  1.
       -1   -1    0    0    0  501  0.00000000000E+00  0.00000000000E+00 -0.14008309378E+04  0.14008309379E+04  0.50400001928E-02 0. -1.
    10030    2    1    2    0    0  0.00000000000E+00  0.00000000000E+00  0.66220289534E+03  0.34638647710E+04  0.33999774231E+04 0.  0.
        1    1    3    3  502    0 -0.63094784675E+03  0.13325733051E+04  0.11932383338E+04  0.18967510433E+04  0.50400001928E-02 0. -1.
       -1    1    3    3    0  502  0.63094784675E+03 -0.13325733051E+04 -0.53103543848E+03  0.15671137278E+04  0.50400001928E-02 0.  1.
</event>
<event>
 5   0  0.1645631E-08  0.3399605E+04  0.7818609E-02  0.8138003E-01
       -1   -1    0    0    0  501  0.00000000000E+00  0.00000000000E+00  0.11443962241E+04  0.11443962241E+04  0.50400001928E-02 0. -1.
        1   -1    0    0  501    0  0.00000000000E+00  0.00000000000E+00 -0.25247628593E+04  0.25247628593E+04  0.50400001928E-02 0.  1.
    10030    2    1    2    0    0  0.00000000000E+00  0.00000000000E+00 -0.13803666352E+04  0.36691590834E+04  0.33996053200E+04 0.  0.
        4    1    3    3  502    0 -0.14621276024E+03  0.12403432692E+04  0.55427932803E+03  0.13664028626E+04  0.12699999809E+01 0. -1.
       -4    1    3    3    0  502  0.14621276024E+03 -0.12403432692E+04 -0.19346459632E+04  0.23027562208E+04  0.12699999809E+01 0.  1.
</event>
<event>
 5   0  0.1573625E-08  0.3400197E+04  0.7818609E-02  0.8137858E-01
       -3   -1    0    0    0  501  0.00000000000E+00  0.00000000000E+00  0.33801066586E+04  0.33801066601E+04  0.10100000352E+00 0. -1.
        3   -1    0    0  501    0  0.00000000000E+00  0.00000000000E+00 -0.85510188242E+03  0.85510188838E+03  0.10100000352E+00 0.  1.
    10030    2    1    2    0    0  0.00000000000E+00  0.00000000000E+00  0.25250047762E+04  0.42352085485E+04  0.34001973957E+04 0.  0.
        2    1    3    3  502    0  0.65219643617E+02  0.26267816599E+02  0.33782949231E+04  0.33790265148E+04  0.25500000920E-02 0. -1.
       -2    1    3    3    0  502 -0.65219643617E+02 -0.26267816599E+02 -0.85329014690E+03  0.85618203374E+03  0.25500000920E-02 0.  1.
</event>
<event>
 5   0  0.1579536E-08  0.3400442E+04  0.7818609E-02  0.8137798E-01
       -1   -1    0    0    0  501  0.00000000000E+00  0.00000000000E+00  0.14703016021E+04  0.14703016021E+04  0.50400001928E-02 0.  1.
        1   -1    0    0  501    0  0.00000000000E+00  0.00000000000E+00 -0.19660936314E+04  0.19660936314E+04  0.50400001928E-02 0. -1.
    10030    2    1    2    0    0  0.00000000000E+00  0.00000000000E+00 -0.49579202929E+03  0.34363952335E+04  0.34004415102E+04 0.  0.
        5    1    3    3  502    0  0.52337183548E+03  0.15787742118E+04 -0.60416061982E+03  0.17695983258E+04  0.46999998093E+01 0.  1.
       -5    1    3    3    0  502 -0.52337183548E+03 -0.15787742118E+04  0.10836859052E+03  0.16667969077E+04  0.46999998093E+01 0. -1.
</event>
<event>
 5   0  0.5001197E-08  0.3397752E+04  0.7818609E-02  0.8138458E-01
       -2   -1    0    0    0  501  0.00000000000E+00  0.00000000000E+00  0.12423927296E+04  0.12423927296E+04  0.25500000920E-02 0. -1.
        2   -1    0    0  501    0  0.00000000000E+00  0.00000000000E+00 -0.23230820565E+04  0.23230820565E+04  0.25500000920E-02 0.  1.
    10030    2    1    2    0    0  0.00000000000E+00  0.00000000000E+00 -0.10806893269E+04  0.35654747861E+04  0.33977523496E+04 0.  0.
        5    1    3    3  502    0 -0.88483694474E+03 -0.12687505355E+04 -0.12775127245E+04  0.20061717752E+04  0.46999998093E+01 0.  1.
       -5    1    3    3    0  502  0.88483694474E+03  0.12687505355E+04  0.19682339768E+03  0.15593030110E+04  0.46999998093E+01 0. -1.
</event>
<event>
 5   0  0.5001197E-08  0.3399095E+04  0.7818609E-02  0.8138128E-01
       -2   -1    0    0    0  501  0.00000000000E+00  0.00000000000E+00  0.13384273676E+04  0.13384273676E+04  0.25500000920E-02 0. -1.
        2   -1    0    0  501    0  0.00000000000E+00  0.00000000000E+00 -0.21581013711E+04  0.21581013711E+04  0.25500000920E-02 0.  1.
    10030    2    1    2    0    0  0.00000000000E+00  0.00000000000E+00 -0.81967400352E+03  0.34965287387E+04  0.33990951367E+04 0.  0.
        5    1    3    3  502    0 -0.27950689153E+03  0.13803645688E+04 -0.13883719303E+04  0.19776574910E+04  0.46999998093E+01 0.  1.
       -5    1    3    3    0  502  0.27950689153E+03 -0.13803645688E+04  0.56869792675E+03  0.15188712477E+04  0.46999998093E+01 0. -1.
</event>
<event>
 5   0  0.4946315E-08  0.3398704E+04  0.7818609E-02  0.8138224E-01
       -2   -1    0    0    0  501  0.00000000000E+00  0.00000000000E+00  0.18641564061E+04  0.18641564061E+04  0.25500000920E-02 0.  1.
        2   -1    0    0  501    0  0.00000000000E+00  0.00000000000E+00 -0.15491174032E+04  0.15491174032E+04  0.25500000920E-02 0. -1.
    10030    2    1    2    0    0  0.00000000000E+00  0.00000000000E+00  0.31503900294E+03  0.34132738093E+04  0.33987039477E+04 0.  0.
        3    1    3    3  502    0 -0.10540101055E+04  0.97949895126E+02 -0.11775648600E+04  0.15834110313E+04  0.10100000352E+00 0. -1.
       -3    1    3    3    0  502  0.10540101055E+04 -0.97949895126E+02  0.14926038629E+04  0.18298627780E+04  0.10100000352E+00 0.  1.
</event>
<event>
 5   0  0.5001197E-08  0.3400637E+04  0.7818609E-02  0.8137750E-01
        2   -1    0    0  501    0  0.00000000000E+00  0.00000000000E+00  0.21904018021E+04  0.21904018021E+04  0.25500000920E-02 0.  1.
       -2   -1    0    0    0  501  0.00000000000E+00  0.00000000000E+00 -0.13198868298E+04  0.13198868298E+04  0.25500000920E-02 0. -1.
    10030    2    1    2    0    0  0.00000000000E+00  0.00000000000E+00  0.87051497230E+03  0.35102886318E+04  0.34006366995E+04 0.  0.
        5    1    3    3  502    0  0.32319263482E+03  0.11280596241E+04  0.17054168291E+04  0.20701305866E+04  0.46999998093E+01 0.  1.
       -5    1    3    3    0  502 -0.32319263482E+03 -0.11280596241E+04 -0.83490185677E+03  0.14401580452E+04  0.46999998093E+01 0. -1.
</event>
<event>
 5   0  0.1595851E-08  0.3400507E+04  0.7818609E-02  0.8137782E-01
        1   -1    0    0  501    0  0.00000000000E+00  0.00000000000E+00  0.12587379013E+04  0.12587379013E+04  0.50400001928E-02 0. -1.
       -1   -1    0    0    0  501  0.00000000000E+00  0.00000000000E+00 -0.22966357291E+04  0.22966357291E+04  0.50400001928E-02 0.  1.
    10030    2    1    2    0    0  0.00000000000E+00  0.00000000000E+00 -0.10378978278E+04  0.35553736305E+04  0.34005072785E+04 0.  0.
        2    1    3    3  502    0  0.88813503183E+03 -0.81765115013E+03 -0.17707755961E+04  0.21431246930E+04  0.25500000920E-02 0.  1.
       -2    1    3    3    0  502 -0.88813503183E+03  0.81765115013E+03  0.73287776831E+03  0.14122489375E+04  0.25500000920E-02 0. -1.
</event>
<event>
 5   0  0.4946315E-08  0.3400847E+04  0.7818609E-02  0.8137698E-01
        2   -1    0    0  501    0  0.00000000000E+00  0.00000000000E+00  0.21622336475E+04  0.21622336475E+04  0.25500000920E-02 0.  1.
       -2   -1    0    0    0  501  0.00000000000E+00  0.00000000000E+00 -0.13372467687E+04  0.13372467687E+04  0.25500000920E-02 0. -1.
    10030    2    1    2    0    0  0.00000000000E+00  0.00000000000E+00  0.82498687877E+03  0.34994804163E+04  0.34008469289E+04 0.  0.
        3    1    3    3  502    0 -0.79073838115E+03 -0.48542245654E+03  0.18787906953E+04  0.20954132374E+04  0.10100000352E+00 0.  1.
       -3    1    3    3    0  502  0.79073838115E+03  0.48542245654E+03 -0.10538038165E+04  0.14040671788E+04  0.10100000352E+00 0. -1.
</event>
<event>
 5   0  0.4764953E-08  0.3398522E+04  0.7818609E-02  0.8138269E-01
        2   -1    0    0  501    0  0.00000000000E+00  0.00000000000E+00  0.19148999983E+04  0.19148999983E+04  0.25500000920E-02 0.  1.
       -2   -1    0    0    0  501  0.00000000000E+00  0.00000000000E+00 -0.15079056141E+04  0.15079056141E+04  0.25500000920E-02 0. -1.
    10030    2    1    2    0    0  0.00000000000E+00  0.00000000000E+00  0.40699438425E+03  0.34228056124E+04  0.33985223012E+04 0.  0.
        2    1    3    3  502    0 -0.13959118277E+03 -0.80977322088E+03  0.17014950254E+04  0.18895247257E+04  0.25500000920E-02 0.  1.
       -2    1    3    3    0  502  0.13959118277E+03  0.80977322088E+03 -0.12945006412E+04  0.15332808867E+04  0.25500000920E-02 0. -1.
</event>
<event>
 5   0  0.4946315E-08  0.3400717E+04  0.7818609E-02  0.8137730E-01
       -2   -1    0    0    0  501  0.00000000000E+00  0.00000000000E+00  0.17154448985E+04  0.17154448985E+04  0.25500000920E-02 0. -1.
        2   -1    0    0  501    0  0.00000000000E+00  0.00000000000E+00 -0.16854047908E+04  0.16854047908E+04  0.25500000920E-02 0.  1.
    10030    2    1    2    0    0  0.00000000000E+00  0.00000000000E+00  0.30040107760E+02  0.34008496893E+04  0.34007170128E+04 0.  0.
        3    1    3    3  502    0 -0.15629777128E+04  0.52119400399E+03 -0.40532540582E+03  0.16967118835E+04  0.10100000352E+00 0.  1.
       -3    1    3    3    0  502  0.15629777128E+04 -0.52119400399E+03  0.43536551358E+03  0.17041378058E+04  0.10100000352E+00 0. -1.
</event>
<event>
 5   0  0.1595851E-08  0.3398503E+04  0.7818609E-02  0.8138274E-01
        1   -1    0    0  501    0  0.00000000000E+00  0.00000000000E+00  0.24662487625E+04  0.24662487625E+04  0.50400001928E-02 0. -1.
       -1   -1    0    0    0  501  0.00000000000E+00  0.00000000000E+00 -0.11707882748E+04  0.11707882748E+04  0.50400001928E-02 0.  1.
    10030    2    1    2    0    0  0.00000000000E+00  0.00000000000E+00  0.12954604877E+04  0.36370370373E+04  0.33985026903E+04 0.  0.
        2    1    3    3  502    0  0.55238916905E+03 -0.22778331850E+03 -0.10546547913E+04  0.12121533579E+04  0.25500000920E-02 0.  1.
       -2    1    3    3    0  502 -0.55238916905E+03  0.22778331850E+03  0.23501152790E+04  0.24248836794E+04  0.25500000920E-02 0. -1.
</event>
<event>
 5   0  0.4764953E-08  0.3399449E+04  0.7818609E-02  0.8138042E-01
       -2   -1    0    0    0  501  0.00000000000E+00  0.00000000000E+00  0.17595761855E+04  0.17595761855E+04  0.25500000920E-02 0. -1.
        2   -1    0    0  501    0  0.00000000000E+00  0.00000000000E+00 -0.16419086233E+04  0.16419086233E+04  0.25500000920E-02 0.  1.
    10030    2    1    2    0    0  0.00000000000E+00  0.00000000000E+00  0.11766756219E+03  0.34014848087E+04  0.33994489625E+04 0.  0.
        2    1    3    3  502    0 -0.97442157255E+03  0.17546857757E+01  0.14523497088E+04  0.17489483001E+04  0.25500000920E-02 0. -1.
       -2    1    3    3    0  502  0.97442157255E+03 -0.17546857757E+01 -0.13346821466E+04  0.16525365086E+04  0.25500000920E-02 0.  1.
</event>
<event>
 5   0  0.1645631E-08  0.3399664E+04  0.7818609E-02  0.8137989E-01
        1   -1    0    0  501    0  0.00000000000E+00  0.00000000000E+00  0.22716393812E+04  0.22716393812E+04  0.50400001928E-02 0. -1.
       -1   -1    0    0    0  501  0.00000000000E+00  0.00000000000E+00 -0.12719572428E+04  0.12719572428E+04  0.50400001928E-02 0.  1.
    10030    2    1    2    0    0  0.00000000000E+00  0.00000000000E+00  0.99968213846E+03  0.35435966240E+04  0.33996636092E+04 0.  0.
        4    1    3    3  502    0 -0.26769641905E+03 -0.71275327902E+03  0.20839703707E+04  0.22186961776E+04  0.12699999809E+01 0. -1.
       -4    1    3    3    0  502  0.26769641905E+03  0.71275327902E+03 -0.10842882322E+04  0.13249004464E+04  0.12699999809E+01 0.  1.
</event>
<event>
 5   0  0.1645631E-08  0.3399444E+04  0.7818609E-02  0.8138043E-01
        1   -1    0    0  501    0  0.00000000000E+00  0.00000000000E+00  0.12496794540E+04  0.12496794540E+04  0.50400001928E-02 0.  1.
       -1   -1    0    0    0  501  0.00000000000E+00  0.00000000000E+00 -0.23118368027E+04  0.23118368027E+04  0.50400001928E-02 0. -1.
    10030    2    1    2    0    0  0.00000000000E+00  0.00000000000E+00 -0.10621573488E+04  0.35615162567E+04  0.33994440447E+04 0.  0.
        4    1    3    3  502    0 -0.77576614467E+03  0.89025901252E+02 -0.21127970931E+04  0.22524768350E+04  0.12699999809E+01 0. -1.
       -4    1    3    3    0  502  0.77576614467E+03 -0.89025901252E+02  0.10506397444E+04  0.13090394217E+04  0.12699999809E+01 0.  1.
</event>
<event>
 5   0  0.4775023E-08  0.3399021E+04  0.7818609E-02  0.8138147E-01
       -2   -1    0    0    0  501  0.00000000000E+00  0.00000000000E+00  0.16219532991E+04  0.16219532991E+04  0.25500000920E-02 0. -1.
        2   -1    0    0  501    0  0.00000000000E+00  0.00000000000E+00 -0.17807764470E+04  0.17807764470E+04  0.25500000920E-02 0.  1.
    10030    2    1    2    0    0  0.00000000000E+00  0.00000000000E+00 -0.15882314789E+03  0.34027297461E+04  0.33990211727E+04 0.  0.
        4    1    3    3  502    0 -0.29786705259E+03  0.14735373077E+04  0.71410554911E+03  0.16643272895E+04  0.12699999809E+01 0. -1.
       -4    1    3    3    0  502  0.29786705259E+03 -0.14735373077E+04 -0.87292869700E+03  0.17384024566E+04  0.12699999809E+01 0.  1.
</event>
<event>
 5   0  0.1630571E-08  0.3399830E+04  0.7818609E-02  0.8137948E-01
       -1   -1    0    0    0  501  0.00000000000E+00  0.00000000000E+00  0.11217912208E+04  0.11217912209E+04  0.50400001928E-02 0. -1.
        1   -1    0    0  501    0  0.00000000000E+00  0.00000000000E+00 -0.25759791165E+04  0.25759791165E+04  0.50400001928E-02 0.  1.
    10030    2    1    2    0    0  0.00000000000E+00  0.00000000000E+00 -0.14541878956E+04  0.36977703373E+04  0.33998298534E+04 0.  0.
        3    1    3    3  502    0 -0.10685349014E+04  0.10319058581E+04 -0.16260312697E+04  0.22024019242E+04  0.10100000352E+00 0.  1.
       -3    1    3    3    0  502  0.10685349014E+04 -0.10319058581E+04  0.17184337412E+03  0.14953684131E+04  0.10100000352E+00 0. -1.
</event>
<event>
 5   0  0.1595851E-08  0.3399526E+04  0.7818609E-02  0.8138023E-01
        1   -1    0    0  501    0  0.00000000000E+00  0.00000000000E+00  0.19896225071E+04  0.19896225071E+04  0.50400001928E-02 0. -1.
       -1   -1    0    0    0  501  0.00000000000E+00  0.00000000000E+00 -0.14521319272E+04  0.14521319272E+04  0.50400001928E-02 0.  1.
    10030    2    1    2    0    0  0.00000000000E+00  0.00000000000E+00  0.53749057987E+03  0.34417544343E+04  0.33995260644E+04 0.  0.
        2    1    3    3  502    0  0.70018764684E+02  0.64473667406E+02  0.19869223607E+04  0.19892008317E+04  0.25500000920E-02 0. -1.
       -2    1    3    3    0  502 -0.70018764684E+02 -0.64473667406E+02 -0.14494317808E+04  0.14525536026E+04  0.25500000920E-02 0.  1.
</event>
<event>
 5   0  0.4973409E-08  0.3400133E+04  0.7818609E-02  0.8137874E-01
        2   -1    0    0  501    0  0.00000000000E+00  0.00000000000E+00  0.18047608472E+04  0.18047608472E+04  0.25500000920E-02 0. -1.
       -2   -1    0    0    0  501  0.00000000000E+00  0.00000000000E+00 -0.16014453579E+04  0.16014453579E+04  0.25500000920E-02 0.  1.
    10030    2    1    2    0    0  0.00000000000E+00  0.00000000000E+00  0.20331548925E+03  0.34062062051E+04  0.34001328685E+04 0.  0.
        1    1    3    3  502    0 -0.16111754065E+04 -0.52204131675E+03 -0.46296799215E+02  0.16942717375E+04  0.50400001928E-02 0.  1.
       -1    1    3    3    0  502  0.16111754065E+04  0.52204131675E+03  0.24961228846E+03  0.17119344676E+04  0.50400001928E-02 0. -1.
</event>
<event>
 5   0  0.4946315E-08  0.3400354E+04  0.7818609E-02  0.8137819E-01
       -2   -1    0    0    0  501  0.00000000000E+00  0.00000000000E+00  0.17888729120E+04  0.17888729120E+04  0.25500000920E-02 0. -1.
        2   -1    0    0  501    0  0.00000000000E+00  0.00000000000E+00 -0.16158787365E+04  0.16158787366E+04  0.25500000920E-02 0.  1.
    10030    2    1    2    0    0  0.00000000000E+00  0.00000000000E+00  0.17299417542E+03  0.34047516485E+04  0.34003539232E+04 0.  0.
        3    1    3    3  502    0 -0.12435675950E+04  0.11557549620E+04  0.17811293587E+03  0.17070307917E+04  0.10100000352E+00 0.  1.
       -3    1    3    3    0  502  0.12435675950E+04 -0.11557549620E+04 -0.51187604590E+01  0.16977208568E+04  0.10100000352E+00 0. -1.
</event>
<event>
 5   0  0.4764953E-08  0.3399837E+04  0.7818609E-02  0.8137946E-01
       -2   -1    0    0    0  501  0.00000000000E+00  0.00000000000E+00  0.21175833657E+04  0.21175833657E+04  0.25500000920E-02 0. -1.
        2   -1    0    0  501    0  0.00000000000E+00  0.00000000000E+00 -0.13646323221E+04  0.13646323221E+04  0.25500000920E-02 0.  1.
    10030    2    1    2    0    0  0.00000000000E+00  0.00000000000E+00  0.75295104363E+03  0.34822156878E+04  0.33998368817E+04 0.  0.
        2    1    3    3  502    0 -0.46207290969E+03  0.90081259714E+03  0.17751210512E+04  0.20435335709E+04  0.25500000920E-02 0. -1.
       -2    1    3    3    0  502  0.46207290969E+03 -0.90081259714E+03 -0.10221700076E+04  0.14386821169E+04  0.25500000920E-02 0.  1.
</event>
<event>
 5   0  0.1625282E-08  0.3399424E+04  0.7818609E-02  0.8138048E-01
       -1   -1    0    0    0  501  0.00000000000E+00  0.00000000000E+00  0.24180377269E+04  0.24180377269E+04  0.50400001928E-02 0. -1.
        1   -1    0    0  501    0  0.00000000000E+00  0.00000000000E+00 -0.11947790462E+04  0.11947790462E+04  0.50400001928E-02 0.  1.
    10030    2    1    2    0    0  0.00000000000E+00  0.00000000000E+00  0.12232586807E+04  0.36128167732E+04  0.33994239566E+04 0.  0.
        1    1    3    3  502    0 -0.54925809422E+03 -0.14432819689E+04 -0.14306950355E+03  0.15508759392E+04  0.50400001928E-02 0.  1.
       -1    1    3    3    0  502  0.54925809422E+03  0.14432819689E+04  0.13663281843E+04  0.20619408340E+04  0.50400001928E-02 0. -1.
</event>
<event>
 5   0  0.4775023E-08  0.3400503E+04  0.7818609E-02  0.8137783E-01
       -2   -1    0    0    0  501  0.00000000000E+00  0.00000000000E+00  0.17404188545E+04  0.17404188545E+04  0.25500000920E-02 0. -1.
        2   -1    0    0  501    0  0.00000000000E+00  0.00000000000E+00 -0.16610112470E+04  0.16610112470E+04  0.25500000920E-02 0.  1.
    10030    2    1    2    0    0  0.00000000000E+00  0.00000000000E+00  0.79407607475E+02  0.34014301015E+04  0.34005030756E+04 0.  0.
        4    1    3    3  502    0 -0.15093606616E+04  0.67305561164E+03 -0.36000520269E+03  0.16913837004E+04  0.12699999809E+01 0.  1.
       -4    1    3    3    0  502  0.15093606616E+04 -0.67305561164E+03  0.43941281017E+03  0.17100464011E+04  0.12699999809E+01 0. -1.
</event>
<event>
 5   0  0.1630571E-08  0.3399933E+04  0.7818609E-02  0.8137923E-01
        1   -1    0    0  501    0  0.00000000000E+00  0.00000000000E+00  0.27814159831E+04  0.27814159831E+04  0.50400001928E-02 0.  1.
       -1   -1    0    0    0  501  0.00000000000E+00  0.00000000000E+00 -0.10389979102E+04  0.10389979102E+04  0.50400001928E-02 0. -1.
    10030    2    1    2    0    0  0.00000000000E+00  0.00000000000E+00  0.17424180729E+04  0.38204138933E+04  0.33999325840E+04 0.  0.
        3    1    3    3  502    0  0.11368062463E+04  0.11515448188E+04  0.14567080996E+04  0.21772419271E+04  0.10100000352E+00 0.  1.
       -3    1    3    3    0  502 -0.11368062463E+04 -0.11515448188E+04  0.28570997322E+03  0.16431719662E+04  0.10100000352E+00 0. -1.
</event>
<event>
 5   0  0.4946315E-08  0.3395065E+04  0.7818609E-02  0.8139119E-01
       -2   -1    0    0    0  501  0.00000000000E+00  0.00000000000E+00  0.13217564203E+04  0.13217564203E+04  0.25500000920E-02 0. -1.
        2   -1    0    0  501    0  0.00000000000E+00  0.00000000000E+00 -0.21801418701E+04  0.21801418701E+04  0.25500000920E-02 0.  1.
    10030    2    1    2    0    0  0.00000000000E+00  0.00000000000E+00 -0.85838544981E+03  0.35018982903E+04  0.33950649560E+04 0.  0.
        3    1    3    3  502    0  0.13588604149E+03 -0.30311367878E+03  0.12879055089E+04  0.13300539570E+04  0.10100000352E+00 0. -1.
       -3    1    3    3    0  502 -0.13588604149E+03  0.30311367878E+03 -0.21462909587E+04  0.21718443333E+04  0.10100000352E+00 0.  1.
</event>
<event>
 5   0  0.4946315E-08  0.3400412E+04  0.7818609E-02  0.8137805E-01
        2   -1    0    0  501    0  0.00000000000E+00  0.00000000000E+00  0.26178452004E+04  0.26178452004E+04  0.25500000920E-02 0.  1.
       -2   -1    0    0    0  501  0.00000000000E+00  0.00000000000E+00 -0.11042289619E+04  0.11042289619E+04  0.25500000920E-02 0. -1.
    10030    2    1    2    0    0  0.00000000000E+00  0.00000000000E+00  0.15136162385E+04  0.37220741622E+04  0.34004120268E+04 0.  0.
        3    1    3    3  502    0  0.50663499079E+03  0.10137555708E+04 -0.63048956584E+03  0.12968795141E+04  0.10100000352E+00 0. -1.
       -3    1    3    3    0  502 -0.50663499079E+03 -0.10137555708E+04  0.21441058043E+04  0.24251946482E+04  0.10100000352E+00 0.  1.
</event>
<event>
 5   0  0.1625282E-08  0.3400677E+04  0.7818609E-02  0.8137740E-01
        1   -1    0    0  501    0  0.00000000000E+00  0.00000000000E+00  0.19386340336E+04  0.19386340336E+04  0.50400001928E-02 0. -1.
       -1   -1    0    0    0  501  0.00000000000E+00  0.00000000000E+00 -0.14913336915E+04  0.14913336915E+04  0.50400001928E-02 0.  1.
    10030    2    1    2    0    0  0.00000000000E+00  0.00000000000E+00  0.44730034210E+03  0.34299677252E+04  0.34006765503E+04 0.  0.
        1    1    3    3  502    0  0.12965851807E+04 -0.78374621426E+03  0.10021526672E+04  0.18165079762E+04  0.50400001928E-02 0. -1.
       -1    1    3    3    0  502 -0.12965851807E+04  0.78374621426E+03 -0.55485232509E+03  0.16134597490E+04  0.50400001928E-02 0.  1.
</event>
<event>
 5   0  0.1625282E-08  0.3399667E+04  0.7818609E-02  0.8137988E-01
        1   -1    0    0  501    0  0.00000000000E+00  0.00000000000E+00  0.12099257753E+04  0.12099257753E+04  0.50400001928E-02 0.  1.
       -1   -1    0    0    0  501  0.00000000000E+00  0.00000000000E+00 -0.23881081366E+04  0.23881081366E+04  0.50400001928E-02 0. -1.
    10030    2    1    2    0    0  0.00000000000E+00  0.00000000000E+00 -0.11781823613E+04  0.35980339119E+04  0.33996668006E+04 0.  0.
        1    1    3    3  502    0 -0.26340475486E+03  0.18248565121E+03 -0.23558527457E+04  0.23775460537E+04  0.50400001928E-02 0. -1.
       -1    1    3    3    0  502  0.26340475486E+03 -0.18248565121E+03  0.11776703844E+04  0.12204878582E+04  0.50400001928E-02 0.  1.
</event>
<event>
 5   0  0.4973409E-08  0.3399855E+04  0.7818609E-02  0.8137942E-01
       -2   -1    0    0    0  501  0.00000000000E+00  0.00000000000E+00  0.12394778372E+04  0.12394778372E+04  0.25500000920E-02 0.  1.
        2   -1    0    0  501    0  0.00000000000E+00  0.00000000000E+00 -0.23314280423E+04  0.23314280423E+04  0.25500000920E-02 0. -1.
    10030    2    1    2    0    0  0.00000000000E+00  0.00000000000E+00 -0.10919502052E+04  0.35709058795E+04  0.33998549307E+04 0.  0.
        1    1    3    3  502    0  0.12738064908E+04 -0.76657742632E+03  0.31983402930E+03  0.15206964631E+04  0.50400001928E-02 0.  1.
       -1    1    3    3    0  502 -0.12738064908E+04  0.76657742632E+03 -0.14117842345E+04  0.20502094164E+04  0.50400001928E-02 0. -1.
</event>
<event>
 5   0  0.1645631E-08  0.3399234E+04  0.7818609E-02  0.8138094E-01
       -1   -1    0    0    0  501  0.00000000000E+00  0.00000000000E+00  0.22757140687E+04  0.22757140687E+04  0.50400001928E-02 0. -1.
        1   -1    0    0  501    0  0.00000000000E+00  0.00000000000E+00 -0.12693586904E+04  0.12693586904E+04  0.50400001928E-02 0.  1.
    10030    2    1    2    0    0  0.00000000000E+00  0.00000000000E+00  0.10063553784E+04  0.35450727591E+04  0.33992336960E+04 0.  0.
        4    1    3    3  502    0  0.29742232256E+03 -0.13795646617E+04 -0.48457754136E+03  0.14921379629E+04  0.12699999809E+01 0.  1.
       -4    1    3    3    0  502 -0.29742232256E+03  0.13795646617E+04  0.14909329197E+04  0.20529347963E+04  0.12699999809E+01 0. -1.
</event>
<event>
 5   0  0.5001197E-08  0.3400612E+04  0.7818609E-02  0.8137756E-01
       -2   -1    0    0    0  501  0.00000000000E+00  0.00000000000E+00  0.19468878207E+04  0.19468878207E+04  0.25500000920E-02 0. -1.
        2   -1    0    0  501    0  0.00000000000E+00  0.00000000000E+00 -0.14849551854E+04  0.14849551854E+04  0.25500000920E-02 0.  1.
    10030    2    1    2    0    0  0.00000000000E+00  0.00000000000E+00  0.46193263525E+03  0.34318430061E+04  0.34006123947E+04 0.  0.
        5    1    3    3  502    0 -0.12258702618E+04 -0.11244378248E+04 -0.12426173375E+03  0.16681071276E+04  0.46999998093E+01 0.  1.
       -5    1    3    3    0  502  0.12258702618E+04  0.11244378248E+04  0.58619436900E+03  0.17637358785E+04  0.46999998093E+01 0. -1.
</event>
<event>
 5   0  0.1595851E-08  0.3394108E+04  0.7818609E-02  0.8139354E-01
       -1   -1    0    0    0  501  0.00000000000E+00  0.00000000000E+00  0.12763928795E+04  0.12763928795E+04  0.50400001928E-02 0. -1.
        1   -1    0    0  501    0  0.00000000000E+00  0.00000000000E+00 -0.22563519187E+04  0.22563519187E+04  0.50400001928E-02 0.  1.
    10030    2    1    2    0    0  0.00000000000E+00  0.00000000000E+00 -0.97995903921E+03  0.35327447982E+04  0.33941075544E+04 0.  0.
        2    1    3    3  502    0  0.13286940458E+04  0.91281140552E+03  0.62099991299E+02  0.16132293508E+04  0.25500000920E-02 0. -1.
       -2    1    3    3    0  502 -0.13286940458E+04 -0.91281140552E+03 -0.10420590305E+04  0.19195154473E+04  0.25500000920E-02 0.  1.
</event>
<event>
 5   0  0.1579536E-08  0.3398972E+04  0.7818609E-02  0.8138159E-01
        1   -1    0    0  501    0  0.00000000000E+00  0.00000000000E+00  0.23125658843E+04  0.23125658843E+04  0.50400001928E-02 0.  1.
       -1   -1    0    0    0  501  0.00000000000E+00  0.00000000000E+00 -0.12489384362E+04  0.12489384362E+04  0.50400001928E-02 0. -1.
    10030    2    1    2    0    0  0.00000000000E+00  0.00000000000E+00  0.10636274480E+04  0.35615043205E+04  0.33989718558E+04 0.  0.
        5    1    3    3  502    0  0.79108856464E+03  0.41755365808E+03  0.20459229369E+04  0.22329341522E+04  0.46999998093E+01 0.  1.
       -5    1    3    3    0  502 -0.79108856464E+03 -0.41755365808E+03 -0.98229548886E+03  0.13285701682E+04  0.46999998093E+01 0. -1.
</event>
<event>
 5   0  0.1625282E-08  0.3400564E+04  0.7818609E-02  0.8137768E-01
        1   -1    0    0  501    0  0.00000000000E+00  0.00000000000E+00  0.17844807520E+04  0.17844807520E+04  0.50400001928E-02 0. -1.
       -1   -1    0    0    0  501  0.00000000000E+00  0.00000000000E+00 -0.16200558487E+04  0.16200558487E+04  0.50400001928E-02 0.  1.
    10030    2    1    2    0    0  0.00000000000E+00  0.00000000000E+00  0.16442490334E+03  0.34045366007E+04  0.34005637646E+04 0.  0.
        1    1    3    3  502    0  0.10613521266E+04  0.31016353478E+03  0.13753439543E+04  0.17647211529E+04  0.50400001928E-02 0. -1.
       -1    1    3    3    0  502 -0.10613521266E+04 -0.31016353478E+03 -0.12109190509E+04  0.16398154478E+04  0.50400001928E-02 0.  1.
</event>
<event>
 5   0  0.5001197E-08  0.3400037E+04  0.7818609E-02  0.8137897E-01
       -2   -1    0    0    0  501  0.00000000000E+00  0.00000000000E+00  0.15189940365E+04  0.15189940365E+04  0.25500000920E-02 0. -1.
        2   -1    0    0  501    0  0.00000000000E+00  0.00000000000E+00 -0.19026158518E+04  0.19026158518E+04  0.25500000920E-02 0.  1.
    10030    2    1    2    0    0  0.00000000000E+00  0.00000000000E+00 -0.38362181534E+03  0.34216098883E+04  0.34000365484E+04 0.  0.
        5    1    3    3  502    0 -0.23494925373E+02 -0.10168020131E+03 -0.18993827704E+04  0.19022533673E+04  0.46999998093E+01 0.  1.
       -5    1    3    3    0  502  0.23494925373E+02  0.10168020131E+03  0.15157609551E+04  0.15193565210E+04  0.46999998093E+01 0. -1.
</event>
<event>
 5   0  0.1595851E-08  0.3395882E+04  0.7818609E-02  0.8138918E-01
       -1   -1    0    0    0  501  0.00000000000E+00  0.00000000000E+00  0.16950541695E+04  0.16950541695E+04  0.50400001928E-02 0.  1.
        1   -1    0    0  501    0  0.00000000000E+00  0.00000000000E+00 -0.17008323338E+04  0.17008323339E+04  0.50400001928E-02 0. -1.
    10030    2    1    2    0    0  0.00000000000E+00  0.00000000000E+00 -0.57781643822E+01  0.33958865033E+04  0.33958815875E+04 0.  0.
        2    1    3    3  502    0  0.77325273189E+03  0.71553171608E+02 -0.15128460009E+04  0.17005124716E+04  0.25500000920E-02 0. -1.
       -2    1    3    3    0  502 -0.77325273189E+03 -0.71553171608E+02  0.15070678365E+04  0.16953740317E+04  0.25500000920E-02 0.  1.
</event>
<event>
 5   0  0.1630571E-08  0.3404566E+04  0.7818609E-02  0.8136787E-01
       -1   -1    0    0    0  501  0.00000000000E+00  0.00000000000E+00  0.86960080670E+03  0.86960080672E+03  0.50400001928E-02 0.  1.
        1   -1    0    0  501    0  0.00000000000E+00  0.00000000000E+00 -0.33322963307E+04  0.33322963307E+04  0.50400001928E-02 0. -1.
    10030    2    1    2    0    0  0.00000000000E+00  0.00000000000E+00 -0.24626955240E+04  0.42018971374E+04  0.34045660971E+04 0.  0.
        3    1    3    3  502    0 -0.93352816073E+03  0.14109185155E+04 -0.14642206402E+04  0.22374333460E+04  0.10100000352E+00 0. -1.
       -3    1    3    3    0  502  0.93352816073E+03 -0.14109185155E+04 -0.99847488376E+03  0.19644637914E+04  0.10100000352E+00 0.  1.
</event>
<event>
 5   0  0.4946315E-08  0.3395844E+04  0.7818609E-02  0.8138927E-01
       -2   -1    0    0    0  501  0.00000000000E+00  0.00000000000E+00  0.11769150836E+04  0.11769150836E+04  0.25500000920E-02 0.  1.
        2   -1    0    0  501    0  0.00000000000E+00  0.00000000000E+00 -0.24495730131E+04  0.24495730131E+04  0.25500000920E-02 0. -1.
    10030    2    1    2    0    0  0.00000000000E+00  0.00000000000E+00 -0.12726579296E+04  0.36264880967E+04  0.33958441823E+04 0.  0.
        3    1    3    3  502    0  0.11092584766E+04 -0.10489434947E+04  0.15724557001E+03  0.15347517723E+04  0.10100000352E+00 0. -1.
       -3    1    3    3    0  502 -0.11092584766E+04  0.10489434947E+04 -0.14299034996E+04  0.20917363245E+04  0.10100000352E+00 0.  1.
</event>
<event>
 5   0  0.5001197E-08  0.3403132E+04  0.7818609E-02  0.8137138E-01
       -2   -1    0    0    0  501  0.00000000000E+00  0.00000000000E+00  0.91448583436E+03  0.91448583436E+03  0.25500000920E-02 0. -1.
        2   -1    0    0  501    0  0.00000000000E+00  0.00000000000E+00 -0.31660712614E+04  0.31660712614E+04  0.25500000920E-02 0.  1.
    10030    2    1    2    0    0  0.00000000000E+00  0.00000000000E+00 -0.22515854270E+04  0.40805570957E+04  0.34031322743E+04 0.  0.
        5    1    3    3  502    0  0.12556436871E+04  0.10948703433E+04 -0.15410258819E+04  0.22693974963E+04  0.46999998093E+01 0.  1.
       -5    1    3    3    0  502 -0.12556436871E+04 -0.10948703433E+04 -0.71055954515E+03  0.18111595995E+04  0.46999998093E+01 0. -1.
</event>
<event>
 5   0  0.4973409E-08  0.3399695E+04  0.7818609E-02  0.8137981E-01
       -2   -1    0    0    0  501  0.00000000000E+00  0.00000000000E+00  0.11333348452E+04  0.11333348452E+04  0.25500000920E-02 0.  1.
        2   -1    0    0  501    0  0.00000000000E+00  0.00000000000E+00 -0.25495393570E+04  0.25495393570E+04  0.25500000920E-02 0. -1.
    10030    2    1    2    0    0  0.00000000000E+00  0.00000000000E+00 -0.14162045118E+04  0.36828742022E+04  0.33996951584E+04 0.  0.
        1    1    3    3  502    0 -0.12093674947E+04 -0.47607778573E+03  0.47871796113E+03  0.13850598116E+04  0.50400001928E-02 0.  1.
       -1    1    3    3    0  502  0.12093674947E+04  0.47607778573E+03 -0.18949224730E+04  0.22978143906E+04  0.50400001928E-02 0. -1.
</event>
<event>
 5   0  0.1645631E-08  0.3400923E+04  0.7818609E-02  0.8137680E-01
        1   -1    0    0  501    0  0.00000000000E+00  0.00000000000E+00  0.15941552425E+04  0.15941552425E+04  0.50400001928E-02 0.  1.
       -1   -1    0    0    0  501  0.00000000000E+00  0.00000000000E+00 -0.18138563569E+04  0.18138563569E+04  0.50400001928E-02 0. -1.
    10030    2    1    2    0    0  0.00000000000E+00  0.00000000000E+00 -0.21970111439E+03  0.34080115995E+04  0.34009225929E+04 0.  0.
        4    1    3    3  502    0  0.86103696710E+02  0.21389191978E+03  0.15784173963E+04  0.15951697996E+04  0.12699999809E+01 0.  1.
       -4    1    3    3    0  502 -0.86103696710E+02 -0.21389191978E+03 -0.17981185107E+04  0.18128417998E+04  0.12699999809E+01 0. -1.
</event>
<event>
 5   0  0.1579536E-08  0.3402892E+04  0.7818609E-02  0.8137197E-01
       -1   -1    0    0    0  501  0.00000000000E+00  0.00000000000E+00  0.16682290531E+04  0.16682290531E+04  0.50400001928E-02 0. -1.
        1   -1    0    0  501    0  0.00000000000E+00  0.00000000000E+00 -0.17353239163E+04  0.17353239163E+04  0.50400001928E-02 0.  1.
    10030    2    1    2    0    0  0.00000000000E+00  0.00000000000E+00 -0.67094863194E+02  0.34035529695E+04  0.34028915786E+04 0.  0.
        5    1    3    3  502    0  0.22456783029E+03  0.56856795537E+03 -0.16216833185E+04  0.17330836984E+04  0.46999998093E+01 0.  1.
       -5    1    3    3    0  502 -0.22456783029E+03 -0.56856795537E+03  0.15545884553E+04  0.16704692711E+04  0.46999998093E+01 0. -1.
</event>
<event>
 5   0  0.1625282E-08  0.3398814E+04  0.7818609E-02  0.8138198E-01
       -1   -1    0    0    0  501  0.00000000000E+00  0.00000000000E+00  0.18761787738E+04  0.18761787738E+04  0.50400001928E-02 0. -1.
        1   -1    0    0  501    0  0.00000000000E+00  0.00000000000E+00 -0.15392902345E+04  0.15392902345E+04  0.50400001928E-02 0.  1.
    10030    2    1    2    0    0  0.00000000000E+00  0.00000000000E+00  0.33688853929E+03  0.34154690083E+04  0.33988137135E+04 0.  0.
        1    1    3    3  502    0 -0.65920507956E+03  0.75182494558E+03  0.15492927149E+04  0.18439360081E+04  0.50400001928E-02 0. -1.
       -1    1    3    3    0  502  0.65920507956E+03 -0.75182494558E+03 -0.12124041756E+04  0.15715330002E+04  0.50400001928E-02 0.  1.
</event>
<event>
 5   0  0.4764953E-08  0.3393991E+04  0.7818609E-02  0.8139383E-01
        2   -1    0    0  501    0  0.00000000000E+00  0.00000000000E+00  0.18478392178E+04  0.18478392178E+04  0.25500000920E-02 0.  1.
       -2   -1    0    0    0  501  0.00000000000E+00  0.00000000000E+00 -0.15584654779E+04  0.15584654779E+04  0.25500000920E-02 0. -1.
    10030    2    1    2    0    0  0.00000000000E+00  0.00000000000E+00  0.28937373984E+03  0.34063046957E+04  0.33939909427E+04 0.  0.
        2    1    3    3  502    0 -0.12587826576E+04  0.77378297584E+02  0.12842677799E+04  0.17999624747E+04  0.25500000920E-02 0.  1.
       -2    1    3    3    0  502  0.12587826576E+04 -0.77378297584E+02 -0.99489404004E+03  0.16063422210E+04  0.25500000920E-02 0. -1.
</event>
<event>
 5   0  0.1630571E-08  0.3403623E+04  0.7818609E-02  0.8137018E-01
        1   -1    0    0  501    0  0.00000000000E+00  0.00000000000E+00  0.26365196752E+04  0.26365196752E+04  0.50400001928E-02 0.  1.
       -1   -1    0    0    0  501  0.00000000000E+00  0.00000000000E+00 -0.10984795756E+04  0.10984795756E+04  0.50400001928E-02 0. -1.
    10030    2    1    2    0    0  0.00000000000E+00  0.00000000000E+00  0.15380400996E+04  0.37349992508E+04  0.34036233716E+04 0.  0.
        3    1    3    3  502    0  0.95377974574E+03  0.10380950125E+04  0.18151590196E+04  0.22982905245E+04  0.10100000352E+00 0.  1.
       -3    1    3    3    0  502 -0.95377974574E+03 -0.10380950125E+04 -0.27711892005E+03  0.14367087263E+04  0.10100000352E+00 0. -1.
</event>
<event>
 5   0  0.1595851E-08  0.3398214E+04  0.7818609E-02  0.8138345E-01
        1   -1    0    0  501    0  0.00000000000E+00  0.00000000000E+00  0.18827495203E+04  0.18827495204E+04  0.50400001928E-02 0. -1.
       -1   -1    0    0    0  501  0.00000000000E+00  0.00000000000E+00 -0.15333771966E+04  0.15333771966E+04  0.50400001928E-02 0.  1.
    10030    2    1    2    0    0  0.00000000000E+00  0.00000000000E+00  0.34937232372E+03  0.34161267170E+04  0.33982143437E+04 0.  0.
        2    1    3    3  502    0 -0.93417750529E+03  0.26808596864E+03  0.15757353234E+04  0.18513507251E+04  0.25500000920E-02 0. -1.
       -2    1    3    3    0  502  0.93417750529E+03 -0.26808596864E+03 -0.12263629996E+04  0.15647759919E+04  0.25500000920E-02 0.  1.
</event>
<event>
 5   0  0.1645631E-08  0.3398065E+04  0.7818609E-02  0.8138381E-01
       -1   -1    0    0    0  501  0.00000000000E+00  0.00000000000E+00  0.12705290383E+04  0.12705290383E+04  0.50400001928E-02 0. -1.
        1   -1    0    0  501    0  0.00000000000E+00  0.00000000000E+00 -0.22720544421E+04  0.22720544421E+04  0.50400001928E-02 0.  1.
    10030    2    1    2    0    0  0.00000000000E+00  0.00000000000E+00 -0.10015254039E+04  0.35425834804E+04  0.33980648289E+04 0.  0.
        4    1    3    3  502    0  0.11722648166E+04  0.11778514055E+04 -0.13192106176E+03  0.16670163506E+04  0.12699999809E+01 0. -1.
       -4    1    3    3    0  502 -0.11722648166E+04 -0.11778514055E+04 -0.86960434211E+03  0.18755671298E+04  0.12699999809E+01 0.  1.
</event>
<event>
 5   0  0.4973409E-08  0.3393581E+04  0.7818609E-02  0.8139484E-01
       -2   -1    0    0    0  501  0.00000000000E+00  0.00000000000E+00  0.19891423041E+04  0.19891423041E+04  0.25500000920E-02 0.  1.
        2   -1    0    0  501    0  0.00000000000E+00  0.00000000000E+00 -0.14474068844E+04  0.14474068844E+04  0.25500000920E-02 0. -1.
    10030    2    1    2    0    0  0.00000000000E+00  0.00000000000E+00  0.54173541977E+03  0.34365491885E+04  0.33935811556E+04 0.  0.
        1    1    3    3  502    0  0.54826658343E+03  0.10153518292E+04 -0.98889413101E+03  0.15196865420E+04  0.50400001928E-02 0. -1.
       -1    1    3    3    0  502 -0.54826658343E+03 -0.10153518292E+04  0.15306295508E+04  0.19168626465E+04  0.50400001928E-02 0.  1.
</event>
<event>
 5   0  0.4946315E-08  0.3400707E+04  0.7818609E-02  0.8137733E-01
        2   -1    0    0  501    0  0.00000000000E+00  0.00000000000E+00  0.18940256400E+04  0.18940256400E+04  0.25500000920E-02 0.  1.
       -2   -1    0    0    0  501  0.00000000000E+00  0.00000000000E+00 -0.15264849708E+04  0.15264849708E+04  0.25500000920E-02 0. -1.
    10030    2    1    2    0    0  0.00000000000E+00  0.00000000000E+00  0.36754066914E+03  0.34205106108E+04  0.34007067934E+04 0.  0.
        3    1    3    3  502    0 -0.14851262207E+03 -0.59730199125E+02 -0.15188894079E+04  0.15273011292E+04  0.10100000352E+00 0. -1.
       -3    1    3    3    0  502  0.14851262207E+03  0.59730199125E+02  0.18864300770E+04  0.18932094816E+04  0.10100000352E+00 0.  1.
</event>
<event>
 5   0  0.1595851E-08  0.3400421E+04  0.7818609E-02  0.8137803E-01
        1   -1    0    0  501    0  0.00000000000E+00  0.00000000000E+00  0.20111102505E+04  0.20111102505E+04  0.50400001928E-02 0.  1.
       -1   -1    0    0    0  501  0.00000000000E+00  0.00000000000E+00 -0.14373727624E+04  0.14373727624E+04  0.50400001928E-02 0. -1.
    10030    2    1    2    0    0  0.00000000000E+00  0.00000000000E+00  0.57373748809E+03  0.34484830129E+04  0.34004206188E+04 0.  0.
        2    1    3    3  502    0 -0.60799898099E+03 -0.17607921658E+03  0.18871611649E+04  0.19904883606E+04  0.25500000920E-02 0.  1.
       -2    1    3    3    0  502  0.60799898099E+03  0.17607921658E+03 -0.13134236768E+04  0.14579946523E+04  0.25500000920E-02 0. -1.
</event>
<event>
 5   0  0.1579536E-08  0.3397564E+04  0.7818609E-02  0.8138505E-01
        1   -1    0    0  501    0  0.00000000000E+00  0.00000000000E+00  0.18802913369E+04  0.18802913369E+04  0.50400001928E-02 0.  1.
       -1   -1    0    0    0  501  0.00000000000E+00  0.00000000000E+00 -0.15347938494E+04  0.15347938494E+04  0.50400001928E-02 0. -1.
    10030    2    1    2    0    0  0.00000000000E+00  0.00000000000E+00  0.34549748744E+03  0.34150851863E+04  0.33975635853E+04 0.  0.
        5    1    3    3  502    0  0.73715500253E+03 -0.15303695287E+04  0.15241829375E+03  0.17054858013E+04  0.46999998093E+01 0.  1.
       -5    1    3    3    0  502 -0.73715500253E+03  0.15303695287E+04  0.19307919369E+03  0.17095993850E+04  0.46999998093E+01 0. -1.
</event>
<event>
 5   0  0.5001197E-08  0.3401566E+04  0.7818609E-02  0.8137522E-01
       -2   -1    0    0    0  501  0.00000000000E+00  0.00000000000E+00  0.11621413241E+04  0.11621413241E+04  0.25500000920E-02 0.  1.
        2   -1    0    0  501    0  0.00000000000E+00  0.00000000000E+00 -0.24890806464E+04  0.24890806464E+04  0.25500000920E-02 0. -1.
    10030    2    1    2    0    0  0.00000000000E+00  0.00000000000E+00 -0.13269393223E+04  0.36512219705E+04  0.34015663911E+04 0.  0.
        5    1    3    3  502    0 -0.10018997005E+04 -0.74201592807E+03 -0.19052021106E+04  0.22768855526E+04  0.46999998093E+01 0. -1.
       -5    1    3    3    0  502  0.10018997005E+04  0.74201592807E+03  0.57826278826E+03  0.13743364179E+04  0.46999998093E+01 0.  1.
</event>
<event>
 5   0  0.4973409E-08  0.3402901E+04  0.7818609E-02  0.8137195E-01
        2   -1    0    0  501    0  0.00000000000E+00  0.00000000000E+00  0.17563784670E+04  0.17563784670E+04  0.25500000920E-02 0.  1.
       -2   -1    0    0    0  501  0.00000000000E+00  0.00000000000E+00 -0.16482407402E+04  0.16482407402E+04  0.25500000920E-02 0. -1.
    10030    2    1    2    0    0  0.00000000000E+00  0.00000000000E+00  0.10813772688E+03  0.34046192072E+04  0.34029014352E+04 0.  0.
        1    1    3    3  502    0  0.10911328223E+04 -0.47770535027E+03  0.12696559662E+04  0.17409191567E+04  0.50400001928E-02 0.  1.
       -1    1    3    3    0  502 -0.10911328223E+04  0.47770535027E+03 -0.11615182393E+04  0.16637000505E+04  0.50400001928E-02 0. -1.
</event>
<event>
 5   0  0.1573625E-08  0.3402664E+04  0.7818609E-02  0.8137253E-01
        3   -1    0    0  501    0  0.00000000000E+00  0.00000000000E+00  0.22093930627E+04  0.22093930650E+04  0.10100000352E+00 0. -1.
       -3   -1    0    0    0  501  0.00000000000E+00  0.00000000000E+00 -0.13101020197E+04  0.13101020236E+04  0.10100000352E+00 0.  1.
    10030    2    1    2    0    0  0.00000000000E+00  0.00000000000E+00  0.89929104299E+03  0.35194950885E+04  0.34026638533E+04 0.  0.
        2    1    3    3  502    0  0.46573529344E+03  0.18467966491E+03  0.21313595799E+04  0.21894541787E+04  0.25500000920E-02 0. -1.
       -2    1    3    3    0  502 -0.46573529344E+03 -0.18467966491E+03 -0.12320685369E+04  0.13300409098E+04  0.25500000920E-02 0.  1.
</event>
<event>
 5   0  0.1645631E-08  0.3400360E+04  0.7818609E-02  0.8137818E-01
        1   -1    0    0  501    0  0.00000000000E+00  0.00000000000E+00  0.17811850394E+04  0.17811850394E+04  0.50400001928E-02 0.  1.
       -1   -1    0    0    0  501  0.00000000000E+00  0.00000000000E+00 -0.16228590026E+04  0.16228590026E+04  0.50400001928E-02 0. -1.
    10030    2    1    2    0    0  0.00000000000E+00  0.00000000000E+00  0.15832603679E+03  0.34040440420E+04  0.34003600847E+04 0.  0.
        4    1    3    3  502    0 -0.11647870729E+04  0.45210217663E+03 -0.10751192499E+04  0.16483350138E+04  0.12699999809E+01 0. -1.
       -4    1    3    3    0  502  0.11647870729E+04 -0.45210217663E+03  0.12334452867E+04  0.17557090282E+04  0.12699999809E+01 0.  1.
</event>
<event>
 5   0  0.4775023E-08  0.3410048E+04  0.7818609E-02  0.8135445E-01
        2   -1    0    0  501    0  0.00000000000E+00  0.00000000000E+00  0.21362914708E+04  0.21362914708E+04  0.25500000920E-02 0.  1.
       -2   -1    0    0    0  501  0.00000000000E+00  0.00000000000E+00 -0.13608192819E+04  0.13608192819E+04  0.25500000920E-02 0. -1.
    10030    2    1    2    0    0  0.00000000000E+00  0.00000000000E+00  0.77547218887E+03  0.34971107527E+04  0.34100478737E+04 0.  0.
        4    1    3    3  502    0  0.39964996981E+03  0.10550517417E+03  0.20841314751E+04  0.21247251725E+04  0.12699999809E+01 0.  1.
       -4    1    3    3    0  502 -0.39964996981E+03 -0.10550517417E+03 -0.13086592863E+04  0.13723855802E+04  0.12699999809E+01 0. -1.
</event>
<event>
 5   0  0.4973409E-08  0.3398971E+04  0.7818609E-02  0.8138159E-01
        2   -1    0    0  501    0  0.00000000000E+00  0.00000000000E+00  0.94299566780E+03  0.94299566781E+03  0.25500000920E-02 0. -1.
       -2   -1    0    0    0  501  0.00000000000E+00  0.00000000000E+00 -0.30628456881E+04  0.30628456881E+04  0.25500000920E-02 0.  1.
    10030    2    1    2    0    0  0.00000000000E+00  0.00000000000E+00 -0.21198500203E+04  0.40058413559E+04  0.33989705589E+04 0.  0.
        1    1    3    3  502    0  0.89214055358E+03  0.50789386012E+03  0.53628823603E+03  0.11582210552E+04  0.50400001928E-02 0. -1.
       -1    1    3    3    0  502 -0.89214055358E+03 -0.50789386012E+03 -0.26561382564E+04  0.28476203008E+04  0.50400001928E-02 0.  1.
</event>
<event>
 5   0  0.5001197E-08  0.3400048E+04  0.7818609E-02  0.8137895E-01
        2   -1    0    0  501    0  0.00000000000E+00  0.00000000000E+00  0.20481892622E+04  0.20481892622E+04  0.25500000920E-02 0. -1.
       -2   -1    0    0    0  501  0.00000000000E+00  0.00000000000E+00 -0.14110418678E+04  0.14110418678E+04  0.25500000920E-02 0.  1.
    10030    2    1    2    0    0  0.00000000000E+00  0.00000000000E+00  0.63714739439E+03  0.34592311300E+04  0.34000475303E+04 0.  0.
        5    1    3    3  502    0  0.14240077822E+04  0.69739820592E+03 -0.30520223294E+03  0.16147237889E+04  0.46999998093E+01 0. -1.
       -5    1    3    3    0  502 -0.14240077822E+04 -0.69739820592E+03  0.94234962733E+03  0.18445073411E+04  0.46999998093E+01 0.  1.
</event>
<event>
 5   0  0.5001197E-08  0.3400576E+04  0.7818609E-02  0.8137765E-01
       -2   -1    0    0    0  501  0.00000000000E+00  0.00000000000E+00  0.13239126981E+04  0.13239126981E+04  0.25500000920E-02 0.  1.
        2   -1    0    0  501    0  0.00000000000E+00  0.00000000000E+00 -0.21836629465E+04  0.21836629465E+04  0.25500000920E-02 0. -1.
    10030    2    1    2    0    0  0.00000000000E+00  0.00000000000E+00 -0.85975024841E+03  0.35075756447E+04  0.34005758944E+04 0.  0.
        5    1    3    3  502    0 -0.69661720296E+03  0.83912390767E+01 -0.20296809759E+04  0.21459200577E+04  0.46999998093E+01 0. -1.
       -5    1    3    3    0  502  0.69661720296E+03 -0.83912390767E+01  0.11699307275E+04  0.13616555869E+04  0.46999998093E+01 0.  1.
</event>
<event>
 5   0  0.5001197E-08  0.3399952E+04  0.7818609E-02  0.8137918E-01
        2   -1    0    0  501    0  0.00000000000E+00  0.00000000000E+00  0.19828178520E+04  0.19828178520E+04  0.25500000920E-02 0.  1.
       -2   -1    0    0    0  501  0.00000000000E+00  0.00000000000E+00 -0.14574803259E+04  0.14574803259E+04  0.25500000920E-02 0. -1.
    10030    2    1    2    0    0  0.00000000000E+00  0.00000000000E+00  0.52533752610E+03  0.34402981779E+04  0.33999517698E+04 0.  0.
        5    1    3    3  502    0 -0.10255630950E+04 -0.21489284137E+03  0.16171866261E+04  0.19269855393E+04  0.46999998093E+01 0.  1.
       -5    1    3    3    0  502  0.10255630950E+04  0.21489284137E+03 -0.10918491000E+04  0.15133126386E+04  0.46999998093E+01 0. -1.
</event>
<event>
 5   0  0.1579536E-08  0.3380479E+04  0.7818609E-02  0.8142714E-01
       -1   -1    0    0    0  501  0.00000000000E+00  0.00000000000E+00  0.27558056618E+04  0.27558056618E+04  0.50400001928E-02 0.  1.
        1   -1    0    0  501    0  0.00000000000E+00  0.00000000000E+00 -0.10366873777E+04  0.10366873777E+04  0.50400001928E-02 0. -1.
    10030    2    1    2    0    0  0.00000000000E+00  0.00000000000E+00  0.17191182841E+04  0.37924930396E+04  0.33804786319E+04 0.  0.
        5    1    3    3  502    0  0.23651597212E+03 -0.92385118930E+01 -0.10179948287E+04  0.10451606175E+04  0.46999998093E+01 0. -1.
       -5    1    3    3    0  502 -0.23651597212E+03  0.92385118930E+01  0.27371131128E+04  0.27473324221E+04  0.46999998093E+01 0.  1.
</event>
<event>
 5   0  0.4973409E-08  0.3398549E+04  0.7818609E-02  0.8138262E-01
        2   -1    0    0  501    0  0.00000000000E+00  0.00000000000E+00  0.11762772727E+04  0.11762772727E+04  0.25500000920E-02 0. -1.
       -2   -1    0    0    0  501  0.00000000000E+00  0.00000000000E+00 -0.24548073158E+04  0.24548073158E+04  0.25500000920E-02 0.  1.
    10030    2    1    2    0    0  0.00000000000E+00  0.00000000000E+00 -0.12785300431E+04  0.36310845885E+04  0.33985491342E+04 0.  0.
        1    1    3    3  502    0 -0.13988243038E+04 -0.90762502705E+03 -0.28970740615E+03  0.16924606358E+04  0.50400001928E-02 0. -1.
       -1    1    3    3    0  502  0.13988243038E+04  0.90762502705E+03 -0.98882263691E+03  0.19386239527E+04  0.50400001928E-02 0.  1.
</event>
<event>
 5   0  0.1595851E-08  0.3400152E+04  0.7818609E-02  0.8137869E-01
       -1   -1    0    0    0  501  0.00000000000E+00  0.00000000000E+00  0.10800228379E+04  0.10800228379E+04  0.50400001928E-02 0.  1.
        1   -1    0    0  501    0  0.00000000000E+00  0.00000000000E+00 -0.26761092223E+04  0.26761092223E+04  0.50400001928E-02 0. -1.
    10030    2    1    2    0    0  0.00000000000E+00  0.00000000000E+00 -0.15960863844E+04  0.37561320602E+04  0.34001523947E+04 0.  0.
        2    1    3    3  502    0  0.42447338251E+03  0.13900884206E+04  0.17617999509E+03  0.14640911380E+04  0.25500000920E-02 0.  1.
       -2    1    3    3    0  502 -0.42447338251E+03 -0.13900884206E+04 -0.17722663795E+04  0.22920409223E+04  0.25500000920E-02 0. -1.
</event>
<event>
 5   0  0.1595851E-08  0.3400258E+04  0.7818609E-02  0.8137843E-01
        1   -1    0    0  501    0  0.00000000000E+00  0.00000000000E+00  0.24307733892E+04  0.24307733892E+04  0.50400001928E-02 0. -1.
       -1   -1    0    0    0  501  0.00000000000E+00  0.00000000000E+00 -0.11891022959E+04  0.11891022959E+04  0.50400001928E-02 0.  1.
    10030    2    1    2    0    0  0.00000000000E+00  0.00000000000E+00  0.12416710933E+04  0.36198756851E+04  0.34002577654E+04 0.  0.
        2    1    3    3  502    0 -0.10156558190E+04 -0.98846308772E+03  0.16205416162E+04  0.21528518640E+04  0.25500000920E-02 0. -1.
       -2    1    3    3    0  502  0.10156558190E+04  0.98846308772E+03 -0.37887052282E+03  0.14670238211E+04  0.25500000920E-02 0.  1.
</event>
<event>
 5   0  0.1630571E-08  0.3398045E+04  0.7818609E-02  0.8138386E-01
       -1   -1    0    0    0  501  0.00000000000E+00  0.00000000000E+00  0.19136571442E+04  0.19136571442E+04  0.50400001928E-02 0. -1.
        1   -1    0    0  501    0  0.00000000000E+00  0.00000000000E+00 -0.15084614702E+04  0.15084614702E+04  0.50400001928E-02 0.  1.
    10030    2    1    2    0    0  0.00000000000E+00  0.00000000000E+00  0.40519567398E+03  0.34221186144E+04  0.33980453612E+04 0.  0.
        3    1    3    3  502    0  0.94360664010E+03 -0.67040672394E+03  0.14551288797E+04  0.18593651426E+04  0.10100000352E+00 0. -1.
       -3    1    3    3    0  502 -0.94360664010E+03  0.67040672394E+03 -0.10499332057E+04  0.15627534718E+04  0.10100000352E+00 0.  1.
</event>
<event>
 5   0  0.4973409E-08  0.3397312E+04  0.7818609E-02  0.8138566E-01
       -2   -1    0    0    0  501  0.00000000000E+00  0.00000000000E+00  0.21389862456E+04  0.21389862456E+04  0.25500000920E-02 0.  1.
        2   -1    0    0  501    0  0.00000000000E+00  0.00000000000E+00 -0.13489718687E+04  0.13489718687E+04  0.25500000920E-02 0. -1.
    10030    2    1    2    0    0  0.00000000000E+00  0.00000000000E+00  0.79001437688E+03  0.34879581144E+04  0.33973120392E+04 0.  0.
        1    1    3    3  502    0  0.13588373403E+04 -0.30332523879E+03  0.13941046762E+04  0.19702723077E+04  0.50400001928E-02 0.  1.
       -1    1    3    3    0  502 -0.13588373403E+04  0.30332523879E+03 -0.60409029936E+03  0.15176858067E+04  0.50400001928E-02 0. -1.
</event>
<event>
 5   0  0.1645631E-08  0.3399287E+04  0.7818609E-02  0.8138081E-01
       -1   -1    0    0    0  501  0.00000000000E+00  0.00000000000E+00  0.32530146101E+04  0.32530146101E+04  0.50400001928E-02 0.  1.
        1   -1    0    0  501    0  0.00000000000E+00  0.00000000000E+00 -0.88803410859E+03  0.88803410861E+03  0.50400001928E-02 0. -1.
    10030    2    1    2    0    0  0.00000000000E+00  0.00000000000E+00  0.23649805015E+04  0.41410487187E+04  0.33992869426E+04 0.  0.
        4    1    3    3  502    0  0.96507017299E+03  0.13456866398E+04  0.16488492719E+04  0.23368651022E+04  0.12699999809E+01 0.  1.
       -4    1    3    3    0  502 -0.96507017299E+03 -0.13456866398E+04  0.71613122952E+03  0.18041836165E+04  0.12699999809E+01 0. -1.
</event>
<event>
 5   0  0.1645631E-08  0.3400239E+04  0.7818609E-02  0.8137848E-01
        1   -1    0    0  501    0  0.00000000000E+00  0.00000000000E+00  0.15504216559E+04  0.15504216559E+04  0.50400001928E-02 0.  1.
       -1   -1    0    0    0  501  0.00000000000E+00  0.00000000000E+00 -0.18642715439E+04  0.18642715439E+04  0.50400001928E-02 0. -1.
    10030    2    1    2    0    0  0.00000000000E+00  0.00000000000E+00 -0.31384988802E+03  0.34146931998E+04  0.34002393882E+04 0.  0.
        4    1    3    3  502    0 -0.12346872050E+04  0.89829907466E+03  0.59392408101E+03  0.16383348707E+04  0.12699999809E+01 0.  1.
       -4    1    3    3    0  502  0.12346872050E+04 -0.89829907466E+03 -0.90777396903E+03  0.17763583291E+04  0.12699999809E+01 0. -1.
</event>
<event>
 5   0  0.1579536E-08  0.3403956E+04  0.7818609E-02  0.8136936E-01
        1   -1    0    0  501    0  0.00000000000E+00  0.00000000000E+00  0.23238694441E+04  0.23238694441E+04  0.50400001928E-02 0. -1.
       -1   -1    0    0    0  501  0.00000000000E+00  0.00000000000E+00 -0.12465113912E+04  0.12465113912E+04  0.50400001928E-02 0.  1.
    10030    2    1    2    0    0  0.00000000000E+00  0.00000000000E+00  0.10773580529E+04  0.35703808353E+04  0.34039563650E+04 0.  0.
        5    1    3    3  502    0 -0.19612787267E+03  0.78813828691E+03  0.21074923590E+04  0.22585779232E+04  0.46999998093E+01 0. -1.
       -5    1    3    3    0  502  0.19612787267E+03 -0.78813828691E+03 -0.10301343061E+04  0.13118029121E+04  0.46999998093E+01 0.  1.
</event>
<event>
 5   0  0.4764953E-08  0.3396560E+04  0.7818609E-02  0.8138751E-01
        2   -1    0    0  501    0  0.00000000000E+00  0.00000000000E+00  0.18866899167E+04  0.18866899167E+04  0.25500000920E-02 0. -1.
       -2   -1    0    0    0  501  0.00000000000E+00  0.00000000000E+00 -0.15286847599E+04  0.15286847599E+04  0.25500000920E-02 0.  1.
    10030    2    1    2    0    0  0.00000000000E+00  0.00000000000E+00  0.35800515677E+03  0.34153746766E+04  0.33965595077E+04 0.  0.
        2    1    3    3  502    0  0.36890970004E+03 -0.13918290331E+04 -0.72646978080E+03  0.16127742454E+04  0.25500000920E-02 0.  1.
       -2    1    3    3    0  502 -0.36890970004E+03  0.13918290331E+04  0.10844749376E+04  0.18026004312E+04  0.25500000920E-02 0. -1.
</event>
<event>
 5   0  0.4775023E-08  0.3400479E+04  0.7818609E-02  0.8137789E-01
       -2   -1    0    0    0  501  0.00000000000E+00  0.00000000000E+00  0.19714620623E+04  0.19714620623E+04  0.25500000920E-02 0.  1.
        2   -1    0    0  501    0  0.00000000000E+00  0.00000000000E+00 -0.14663302048E+04  0.14663302048E+04  0.25500000920E-02 0. -1.
    10030    2    1    2    0    0  0.00000000000E+00  0.00000000000E+00  0.50513185744E+03  0.34377922671E+04  0.34004790072E+04 0.  0.
        4    1    3    3  502    0  0.12371084885E+04  0.74287287727E+03 -0.65647541475E+03  0.15853261832E+04  0.12699999809E+01 0. -1.
       -4    1    3    3    0  502 -0.12371084885E+04 -0.74287287727E+03  0.11616072722E+04  0.18524660839E+04  0.12699999809E+01 0.  1.
</event>
<event>
 5   0  0.5001197E-08  0.3393830E+04  0.7818609E-02  0.8139422E-01
       -2   -1    0    0    0  501  0.00000000000E+00  0.00000000000E+00  0.98271090910E+03  0.98271090910E+03  0.25500000920E-02 0. -1.
        2   -1    0    0  501    0  0.00000000000E+00  0.00000000000E+00 -0.29301811501E+04  0.29301811501E+04  0.25500000920E-02 0.  1.
    10030    2    1    2    0    0  0.00000000000E+00  0.00000000000E+00 -0.19474702410E+04  0.39128920592E+04  0.33938302738E+04 0.  0.
        5    1    3    3  502    0  0.97374563604E+02  0.12389186638E+04 -0.23059192664E+04  0.26194822035E+04  0.46999998093E+01 0.  1.
       -5    1    3    3    0  502 -0.97374563604E+02 -0.12389186638E+04  0.35844902541E+03  0.12934098557E+04  0.46999998093E+01 0. -1.
</event>
<event>
 5   0  0.4946315E-08  0.3399778E+04  0.7818609E-02  0.8137961E-01
       -2   -1    0    0    0  501  0.00000000000E+00  0.00000000000E+00  0.14305583262E+04  0.14305583262E+04  0.25500000920E-02 0.  1.
        2   -1    0    0  501    0  0.00000000000E+00  0.00000000000E+00 -0.20199267819E+04  0.20199267819E+04  0.25500000920E-02 0. -1.
    10030    2    1    2    0    0  0.00000000000E+00  0.00000000000E+00 -0.58936845569E+03  0.34504851081E+04  0.33997782729E+04 0.  0.
        3    1    3    3  502    0  0.91268469650E+03 -0.14796039151E+03 -0.17424014830E+04  0.19725234019E+04  0.10100000352E+00 0. -1.
       -3    1    3    3    0  502 -0.91268469650E+03  0.14796039151E+03  0.11530330273E+04  0.14779617062E+04  0.10100000352E+00 0.  1.
</event>
<event>
 5   0  0.5001197E-08  0.3398885E+04  0.7818609E-02  0.8138180E-01
       -2   -1    0    0    0  501  0.00000000000E+00  0.00000000000E+00  0.15890145517E+04  0.15890145517E+04  0.25500000920E-02 0. -1.
        2   -1    0    0  501    0  0.00000000000E+00  0.00000000000E+00 -0.18175442847E+04  0.18175442847E+04  0.25500000920E-02 0.  1.
    10030    2    1    2    0    0  0.00000000000E+00  0.00000000000E+00 -0.22852973298E+03  0.34065588363E+04  0.33988847092E+04 0.  0.
        5    1    3    3  502    0  0.35526147692E+03  0.16542731967E+04  0.45001757556E+02  0.16925949824E+04  0.46999998093E+01 0.  1.
       -5    1    3    3    0  502 -0.35526147692E+03 -0.16542731967E+04 -0.27353149054E+03  0.17139638539E+04  0.46999998093E+01 0. -1.
</event>
<event>
 5   0  0.4764953E-08  0.3399416E+04  0.7818609E-02  0.8138050E-01
        2   -1    0    0  501    0  0.00000000000E+00  0.00000000000E+00  0.14497675881E+04  0.14497675881E+04  0.25500000920E-02 0. -1.
       -2   -1    0    0    0  501  0.00000000000E+00  0.00000000000E+00 -0.19927385583E+04  0.19927385583E+04  0.25500000920E-02 0.  1.
    10030    2    1    2    0    0  0.00000000000E+00  0.00000000000E+00 -0.54297097023E+03  0.34425061464E+04  0.33994162872E+04 0.  0.
        2    1    3    3  502    0  0.48756412911E+03 -0.15501093909E+04 -0.77625109679E+03  0.18008674768E+04  0.25500000920E-02 0.  1.
       -2    1    3    3    0  502 -0.48756412911E+03  0.15501093909E+04  0.23328012655E+03  0.16416386695E+04  0.25500000920E-02 0. -1.
</event>
<event>
 5   0  0.1625282E-08  0.3400534E+04  0.7818609E-02  0.8137775E-01
        1   -1    0    0  501    0  0.00000000000E+00  0.00000000000E+00  0.20178411933E+04  0.20178411933E+04  0.50400001928E-02 0. -1.
       -1   -1    0    0    0  501  0.00000000000E+00  0.00000000000E+00 -0.14326739495E+04  0.14326739495E+04  0.50400001928E-02 0.  1.
    10030    2    1    2    0    0  0.00000000000E+00  0.00000000000E+00  0.58516724382E+03  0.34505151428E+04  0.34005343768E+04 0.  0.
        1    1    3    3  502    0 -0.75492599761E+03 -0.27004125170E+03 -0.12288113277E+04  0.14672466795E+04  0.50400001928E-02 0.  1.
       -1    1    3    3    0  502  0.75492599761E+03  0.27004125170E+03  0.18139785715E+04  0.19832684633E+04  0.50400001928E-02 0. -1.
</event>
<event>
 5   0  0.1645631E-08  0.3399727E+04  0.7818609E-02  0.8137973E-01
        1   -1    0    0  501    0  0.00000000000E+00  0.00000000000E+00  0.14757041055E+04  0.14757041055E+04  0.50400001928E-02 0. -1.
       -1   -1    0    0    0  501  0.00000000000E+00  0.00000000000E+00 -0.19580722851E+04  0.19580722852E+04  0.50400001928E-02 0.  1.
    10030    2    1    2    0    0  0.00000000000E+00  0.00000000000E+00 -0.48236817968E+03  0.34337763906E+04  0.33997266420E+04 0.  0.
        4    1    3    3  502    0  0.18674431349E+03  0.11662855839E+04  0.99353166882E+03  0.15434384638E+04  0.12699999809E+01 0. -1.
       -4    1    3    3    0  502 -0.18674431349E+03 -0.11662855839E+04 -0.14758998485E+04  0.18903379268E+04  0.12699999809E+01 0.  1.
</event>
<event>
 5   0  0.4775023E-08  0.3401074E+04  0.7818609E-02  0.8137643E-01
        2   -1    0    0  501    0  0.00000000000E+00  0.00000000000E+00  0.86239055874E+03  0.86239055875E+03  0.25500000920E-02 0. -1.
       -2   -1    0    0    0  501  0.00000000000E+00  0.00000000000E+00 -0.33532680528E+04  0.33532680528E+04  0.25500000920E-02 0.  1.
    10030    2    1    2    0    0  0.00000000000E+00  0.00000000000E+00 -0.24908774940E+04  0.42156586115E+04  0.34010743654E+04 0.  0.
        4    1    3    3  502    0 -0.71323451336E+03  0.73137729187E+03 -0.29305354645E+04  0.31034909272E+04  0.12699999809E+01 0.  1.
       -4    1    3    3    0  502  0.71323451336E+03 -0.73137729187E+03  0.43965797043E+03  0.11121676843E+04  0.12699999809E+01 0. -1.
</event>
<event>
 5   0  0.4775023E-08  0.3400152E+04  0.7818609E-02  0.8137869E-01
       -2   -1    0    0    0  501  0.00000000000E+00  0.00000000000E+00  0.15080614660E+04  0.15080614660E+04  0.25500000920E-02 0.  1.
        2   -1    0    0  501    0  0.00000000000E+00  0.00000000000E+00 -0.19165385615E+04  0.19165385615E+04  0.25500000920E-02 0. -1.
    10030    2    1    2    0    0  0.00000000000E+00  0.00000000000E+00 -0.40847709554E+03  0.34246000275E+04  0.34001517335E+04 0.  0.
        4    1    3    3  502    0 -0.46688089040E+03 -0.13770235996E+04 -0.10915295655E+04  0.18181337038E+04  0.12699999809E+01 0. -1.
       -4    1    3    3    0  502  0.46688089040E+03  0.13770235996E+04  0.68305246995E+03  0.16064663237E+04  0.12699999809E+01 0.  1.
</event>
<event>
 5   0  0.1595851E-08  0.3397763E+04  0.7818609E-02  0.8138456E-01
       -1   -1    0    0    0  501  0.00000000000E+00  0.00000000000E+00  0.98883293664E+03  0.98883293665E+03  0.50400001928E-02 0. -1.
        1   -1    0    0  501    0  0.00000000000E+00  0.00000000000E+00 -0.29187926412E+04  0.29187926412E+04  0.50400001928E-02 0.  1.
    10030    2    1    2    0    0  0.00000000000E+00  0.00000000000E+00 -0.19299597046E+04  0.39076255779E+04  0.33977629693E+04 0.  0.
        2    1    3    3  502    0 -0.60837530409E+03 -0.13921087302E+04 -0.18394107769E+04  0.23856905150E+04  0.25500000920E-02 0.  1.
       -2    1    3    3    0  502  0.60837530409E+03  0.13921087302E+04 -0.90548927696E+02  0.15219350629E+04  0.25500000920E-02 0. -1.
</event>
<event>
 5   0  0.1595851E-08  0.3400083E+04  0.7818609E-02  0.8137886E-01
       -1   -1    0    0    0  501  0.00000000000E+00  0.00000000000E+00  0.26017419887E+04  0.26017419888E+04  0.50400001928E-02 0.  1.
        1   -1    0    0  501    0  0.00000000000E+00  0.00000000000E+00 -0.11108483888E+04  0.11108483888E+04  0.50400001928E-02 0. -1.
    10030    2    1    2    0    0  0.00000000000E+00  0.00000000000E+00  0.14908936000E+04  0.37125903775E+04  0.34000828791E+04 0.  0.
        2    1    3    3  502    0  0.89603307010E+03 -0.57531892137E+03 -0.70160353863E+03  0.12751920049E+04  0.25500000920E-02 0. -1.
       -2    1    3    3    0  502 -0.89603307010E+03  0.57531892137E+03  0.21924971386E+04  0.24373983726E+04  0.25500000920E-02 0.  1.
</event>
<event>
 5   0  0.4764953E-08  0.3400956E+04  0.7818609E-02  0.8137672E-01
       -2   -1    0    0    0  501  0.00000000000E+00  0.00000000000E+00  0.17458922927E+04  0.17458922927E+04  0.25500000920E-02 0. -1.
        2   -1    0    0  501    0  0.00000000000E+00  0.00000000000E+00 -0.16562452932E+04  0.16562452932E+04  0.25500000920E-02 0.  1.
    10030    2    1    2    0    0  0.00000000000E+00  0.00000000000E+00  0.89646999478E+02  0.34021375858E+04  0.34009562727E+04 0.  0.
        2    1    3    3  502    0  0.14251183403E+04 -0.89894276447E+03 -0.18452784144E+03  0.16950253396E+04  0.25500000920E-02 0.  1.
       -2    1    3    3    0  502 -0.14251183403E+04  0.89894276447E+03  0.27417484092E+03  0.17071122462E+04  0.25500000920E-02 0. -1.
</event>
<event>
 5   0  0.4946315E-08  0.3400910E+04  0.7818609E-02  0.8137683E-01
        2   -1    0    0  501    0  0.00000000000E+00  0.00000000000E+00  0.26424975362E+04  0.26424975362E+04  0.25500000920E-02 0. -1.
       -2   -1    0    0    0  501  0.00000000000E+00  0.00000000000E+00 -0.10942480816E+04  0.10942480816E+04  0.25500000920E-02 0.  1.
    10030    2    1    2    0    0  0.00000000000E+00  0.00000000000E+00  0.15482494546E+04  0.37367456178E+04  0.34009103837E+04 0.  0.
        3    1    3    3  502    0 -0.72593178965E+03 -0.15119781454E+04  0.10819567089E+04  0.19959171339E+04  0.10100000352E+00 0. -1.
       -3    1    3    3    0  502  0.72593178965E+03  0.15119781454E+04  0.46629274571E+03  0.17408284838E+04  0.10100000352E+00 0.  1.
</event>
<event>
 5   0  0.4764953E-08  0.3400127E+04  0.7818609E-02  0.8137875E-01
        2   -1    0    0  501    0  0.00000000000E+00  0.00000000000E+00  0.24199388902E+04  0.24199388902E+04  0.25500000920E-02 0. -1.
       -2   -1    0    0    0  501  0.00000000000E+00  0.00000000000E+00 -0.11943344469E+04  0.11943344469E+04  0.25500000920E-02 0.  1.
    10030    2    1    2    0    0  0.00000000000E+00  0.00000000000E+00  0.12256044433E+04  0.36142733371E+04  0.34001272776E+04 0.  0.
        2    1    3    3  502    0 -0.16568252195E+04 -0.22755343727E+02  0.10170551313E+04  0.19442193173E+04  0.25500000920E-02 0.  1.
       -2    1    3    3    0  502  0.16568252195E+04  0.22755343727E+02  0.20854931198E+03  0.16700540198E+04  0.25500000920E-02 0. -1.
</event>
<event>
 5   0  0.4973409E-08  0.3399408E+04  0.7818609E-02  0.8138052E-01
       -2   -1    0    0    0  501  0.00000000000E+00  0.00000000000E+00  0.12345343596E+04  0.12345343596E+04  0.25500000920E-02 0.  1.
        2   -1    0    0  501    0  0.00000000000E+00  0.00000000000E+00 -0.23401489563E+04  0.23401489563E+04  0.25500000920E-02 0. -1.
    10030    2    1    2    0    0  0.00000000000E+00  0.00000000000E+00 -0.11056145967E+04  0.35746833158E+04  0.33994083562E+04 0.  0.
        1    1    3    3  502    0  0.91971707870E+03  0.41352740747E+03 -0.19916055530E+04  0.22323478897E+04  0.50400001928E-02 0. -1.
       -1    1    3    3    0  502 -0.91971707870E+03 -0.41352740747E+03  0.88599095635E+03  0.13423354262E+04  0.50400001928E-02 0.  1.
</event>
<event>
 5   0  0.1579536E-08  0.3400014E+04  0.7818609E-02  0.8137903E-01
       -1   -1    0    0    0  501  0.00000000000E+00  0.00000000000E+00  0.18502494306E+04  0.18502494306E+04  0.50400001928E-02 0.  1.
        1   -1    0    0  501    0  0.00000000000E+00  0.00000000000E+00 -0.15619640893E+04  0.15619640893E+04  0.50400001928E-02 0. -1.
    10030    2    1    2    0    0  0.00000000000E+00  0.00000000000E+00  0.28828534129E+03  0.34122135199E+04  0.34000136275E+04 0.  0.
        5    1    3    3  502    0 -0.55208588674E+03  0.84561979590E+02  0.17555351704E+04  0.18422473719E+04  0.46999998093E+01 0.  1.
       -5    1    3    3    0  502  0.55208588674E+03 -0.84561979590E+02 -0.14672498291E+04  0.15699661480E+04  0.46999998093E+01 0. -1.
</event>
<event>
 5   0  0.5001197E-08  0.3399601E+04  0.7818609E-02  0.8138004E-01
        2   -1    0    0  501    0  0.00000000000E+00  0.00000000000E+00  0.16671063855E+04  0.16671063855E+04  0.25500000920E-02 0. -1.
       -2   -1    0    0    0  501  0.00000000000E+00  0.00000000000E+00 -0.17331353612E+04  0.17331353612E+04  0.25500000920E-02 0.  1.
    10030    2    1    2    0    0  0.00000000000E+00  0.00000000000E+00 -0.66028975676E+02  0.34002417466E+04  0.33996005809E+04 0.  0.
        5    1    3    3  502    0  0.11310771763E+04  0.12509387865E+04  0.17942969400E+03  0.16959954397E+04  0.46999998093E+01 0. -1.
       -5    1    3    3    0  502 -0.11310771763E+04 -0.12509387865E+04 -0.24545866968E+03  0.17042463070E+04  0.46999998093E+01 0.  1.
</event>
<event>
 5   0  0.4775023E-08  0.3395040E+04  0.7818609E-02  0.8139125E-01
       -2   -1    0    0    0  501  0.00000000000E+00  0.00000000000E+00  0.22606477169E+04  0.22606477169E+04  0.25500000920E-02 0.  1.
        2   -1    0    0  501    0  0.00000000000E+00  0.00000000000E+00 -0.12746678619E+04  0.12746678619E+04  0.25500000920E-02 0. -1.
    10030    2    1    2    0    0  0.00000000000E+00  0.00000000000E+00  0.98597985504E+03  0.35353155788E+04  0.33950404957E+04 0.  0.
        4    1    3    3  502    0 -0.28351282124E+02 -0.21421765259E+03 -0.12602873216E+04  0.12786785146E+04  0.12699999809E+01 0. -1.
       -4    1    3    3    0  502  0.28351282124E+02  0.21421765259E+03  0.22462671766E+04  0.22566370642E+04  0.12699999809E+01 0.  1.
</event>
<event>
 5   0  0.4764953E-08  0.3390171E+04  0.7818609E-02  0.8140323E-01
        2   -1    0    0  501    0  0.00000000000E+00  0.00000000000E+00  0.16238818285E+04  0.16238818285E+04  0.25500000920E-02 0.  1.
       -2   -1    0    0    0  501  0.00000000000E+00  0.00000000000E+00 -0.17694117103E+04  0.17694117103E+04  0.25500000920E-02 0. -1.
    10030    2    1    2    0    0  0.00000000000E+00  0.00000000000E+00 -0.14552988176E+03  0.33932935388E+04  0.33901713959E+04 0.  0.
        2    1    3    3  502    0  0.81643691177E+03 -0.62778609680E+03  0.12748147760E+04  0.16388524423E+04  0.25500000920E-02 0.  1.
       -2    1    3    3    0  502 -0.81643691177E+03  0.62778609680E+03 -0.14203446578E+04  0.17544410965E+04  0.25500000920E-02 0. -1.
</event>
<event>
 5   0  0.1579536E-08  0.3406447E+04  0.7818609E-02  0.8136326E-01
        1   -1    0    0  501    0  0.00000000000E+00  0.00000000000E+00  0.22020753552E+04  0.22020753552E+04  0.50400001928E-02 0.  1.
       -1   -1    0    0    0  501  0.00000000000E+00  0.00000000000E+00 -0.13173801844E+04  0.13173801844E+04  0.50400001928E-02 0. -1.
    10030    2    1    2    0    0  0.00000000000E+00  0.00000000000E+00  0.88469517075E+03  0.35194555396E+04  0.34064470861E+04 0.  0.
        5    1    3    3  502    0 -0.59582132959E+03 -0.97142074894E+03 -0.86546042522E+03  0.14309804911E+04  0.46999998093E+01 0. -1.
       -5    1    3    3    0  502  0.59582132959E+03  0.97142074894E+03  0.17501555960E+04  0.20884750485E+04  0.46999998093E+01 0.  1.
</event>
<event>
 5   0  0.1579536E-08  0.3399417E+04  0.7818609E-02  0.8138049E-01
       -1   -1    0    0    0  501  0.00000000000E+00  0.00000000000E+00  0.21964857740E+04  0.21964857740E+04  0.50400001928E-02 0.  1.
        1   -1    0    0  501    0  0.00000000000E+00  0.00000000000E+00 -0.13152870678E+04  0.13152870679E+04  0.50400001928E-02 0. -1.
    10030    2    1    2    0    0  0.00000000000E+00  0.00000000000E+00  0.88119870618E+03  0.35117728419E+04  0.33994172049E+04 0.  0.
        5    1    3    3  502    0 -0.16421536983E+04 -0.16034130159E+03  0.18930656799E+02  0.16500783501E+04  0.46999998093E+01 0. -1.
       -5    1    3    3    0  502  0.16421536983E+04  0.16034130159E+03  0.86226804938E+03  0.18616944918E+04  0.46999998093E+01 0.  1.
</event>
<event>
 5   0  0.4973409E-08  0.3400775E+04  0.7818609E-02  0.8137716E-01
        2   -1    0    0  501    0  0.00000000000E+00  0.00000000000E+00  0.27078811995E+04  0.27078811995E+04  0.25500000920E-02 0.  1.
       -2   -1    0    0    0  501  0.00000000000E+00  0.00000000000E+00 -0.10677417229E+04  0.10677417229E+04  0.25500000920E-02 0. -1.
    10030    2    1    2    0    0  0.00000000000E+00  0.00000000000E+00  0.16401394766E+04  0.37756229224E+04  0.34007750513E+04 0.  0.
        1    1    3    3  502    0  0.14821630513E+04  0.47490997068E+03  0.59772037246E+02  0.15575363519E+04  0.50400001928E-02 0. -1.
       -1    1    3    3    0  502 -0.14821630513E+04 -0.47490997068E+03  0.15803674393E+04  0.22180865705E+04  0.50400001928E-02 0.  1.
</event>
<event>
 5   0  0.5001197E-08  0.3399936E+04  0.7818609E-02  0.8137922E-01
       -2   -1    0    0    0  501  0.00000000000E+00  0.00000000000E+00  0.93541245652E+03  0.93541245653E+03  0.25500000920E-02 0. -1.
        2   -1    0    0  501    0  0.00000000000E+00  0.00000000000E+00 -0.30894293197E+04  0.30894293197E+04  0.25500000920E-02 0.  1.
    10030    2    1    2    0    0  0.00000000000E+00  0.00000000000E+00 -0.21540168632E+04  0.40248417762E+04  0.33999356872E+04 0.  0.
        5    1    3    3  502    0 -0.68170567900E+03  0.55626709259E+03  0.64488581079E+03  0.10908966541E+04  0.46999998093E+01 0. -1.
       -5    1    3    3    0  502  0.68170567900E+03 -0.55626709259E+03 -0.27989026739E+04  0.29339451221E+04  0.46999998093E+01 0.  1.
</event>
<event>
 5   0  0.5001197E-08  0.3400506E+04  0.7818609E-02  0.8137782E-01
        2   -1    0    0  501    0  0.00000000000E+00  0.00000000000E+00  0.24023922198E+04  0.24023922198E+04  0.25500000920E-02 0.  1.
       -2   -1    0    0    0  501  0.00000000000E+00  0.00000000000E+00 -0.12033255195E+04  0.12033255195E+04  0.25500000920E-02 0. -1.
    10030    2    1    2    0    0  0.00000000000E+00  0.00000000000E+00  0.11990667004E+04  0.36057177393E+04  0.34005057658E+04 0.  0.
        5    1    3    3  502    0  0.12242700344E+04  0.53197723239E+03 -0.51710915908E+03  0.14315239660E+04  0.46999998093E+01 0. -1.
       -5    1    3    3    0  502 -0.12242700344E+04 -0.53197723239E+03  0.17161758595E+04  0.21741937732E+04  0.46999998093E+01 0.  1.
</event>
<event>
 5   0  0.1645631E-08  0.3398995E+04  0.7818609E-02  0.8138153E-01
        1   -1    0    0  501    0  0.00000000000E+00  0.00000000000E+00  0.24925782429E+04  0.24925782429E+04  0.50400001928E-02 0.  1.
       -1   -1    0    0    0  501  0.00000000000E+00  0.00000000000E+00 -0.11587570367E+04  0.11587570367E+04  0.50400001928E-02 0. -1.
    10030    2    1    2    0    0  0.00000000000E+00  0.00000000000E+00  0.13338212062E+04  0.36513352796E+04  0.33989954860E+04 0.  0.
        4    1    3    3  502    0 -0.81750446254E+03 -0.13303735550E+04  0.13875993337E+04  0.20889329492E+04  0.12699999809E+01 0.  1.
       -4    1    3    3    0  502  0.81750446254E+03  0.13303735550E+04 -0.53778127489E+02  0.15624023304E+04  0.12699999809E+01 0. -1.
</event>
<event>
 5   0  0.1645631E-08  0.3398068E+04  0.7818609E-02  0.8138381E-01
       -1   -1    0    0    0  501  0.00000000000E+00  0.00000000000E+00  0.16667234821E+04  0.16667234821E+04  0.50400001928E-02 0. -1.
        1   -1    0    0  501    0  0.00000000000E+00  0.00000000000E+00 -0.17319711940E+04  0.17319711940E+04  0.50400001928E-02 0.  1.
    10030    2    1    2    0    0  0.00000000000E+00  0.00000000000E+00 -0.65247711914E+02  0.33986946761E+04  0.33980683097E+04 0.  0.
        4    1    3    3  502    0 -0.66953292576E+03 -0.55650345734E+03  0.14266670218E+04  0.16713320558E+04  0.12699999809E+01 0. -1.
       -4    1    3    3    0  502  0.66953292576E+03  0.55650345734E+03 -0.14919147337E+04  0.17273626203E+04  0.12699999809E+01 0.  1.
</event>
<event>
 5   0  0.1595851E-08  0.3401515E+04  0.7818609E-02  0.8137535E-01
        1   -1    0    0  501    0  0.00000000000E+00  0.00000000000E+00  0.19288369830E+04  0.19288369830E+04  0.50400001928E-02 0. -1.
       -1   -1    0    0    0  501  0.00000000000E+00  0.00000000000E+00 -0.14996476459E+04  0.14996476459E+04  0.50400001928E-02 0.  1.
    10030    2    1    2    0    0  0.00000000000E+00  0.00000000000E+00  0.42918933711E+03  0.34284846288E+04  0.34015148630E+04 0.  0.
        2    1    3    3  502    0 -0.95298839452E+03  0.38920054821E+03 -0.11499904427E+04  0.15434189208E+04  0.25500000920E-02 0.  1.
       -2    1    3    3    0  502  0.95298839452E+03 -0.38920054821E+03  0.15791797798E+04  0.18850657081E+04  0.25500000920E-02 0. -1.
</event>
<event>
 5   0  0.4973409E-08  0.3404084E+04  0.7818609E-02  0.8136905E-01
       -2   -1    0    0    0  501  0.00000000000E+00  0.00000000000E+00  0.14448731885E+04  0.14448731885E+04  0.25500000920E-02 0. -1.
        2   -1    0    0  501    0  0.00000000000E+00  0.00000000000E+00 -0.20049836635E+04  0.20049836635E+04  0.25500000920E-02 0.  1.
    10030    2    1    2    0    0  0.00000000000E+00  0.00000000000E+00 -0.56011047502E+03  0.34498568521E+04  0.34040840994E+04 0.  0.
        1    1    3    3  502    0  0.51260774626E+03  0.86340861697E+03  0.11127262115E+04  0.14987997742E+04  0.50400001928E-02 0. -1.
       -1    1    3    3    0  502 -0.51260774626E+03 -0.86340861697E+03 -0.16728366865E+04  0.19510570779E+04  0.50400001928E-02 0.  1.
</event>
<event>
 5   0  0.5001197E-08  0.3400766E+04  0.7818609E-02  0.8137718E-01
       -2   -1    0    0    0  501  0.00000000000E+00  0.00000000000E+00  0.27683797167E+04  0.27683797167E+04  0.25500000920E-02 0. -1.
        2   -1    0    0  501    0  0.00000000000E+00  0.00000000000E+00 -0.10444023937E+04  0.10444023937E+04  0.25500000920E-02 0.  1.
    10030    2    1    2    0    0  0.00000000000E+00  0.00000000000E+00  0.17239773230E+04  0.38127821104E+04  0.34007660330E+04 0.  0.
        5    1    3    3  502    0 -0.54572250769E+03  0.11850375033E+04  0.20845880356E+04  0.24591983060E+04  0.46999998093E+01 0. -1.
       -5    1    3    3    0  502  0.54572250769E+03 -0.11850375033E+04 -0.36061071262E+03  0.13535838045E+04  0.46999998093E+01 0.  1.
</event>
<event>
 5   0  0.4946315E-08  0.3398856E+04  0.7818609E-02  0.8138187E-01
        2   -1    0    0  501    0  0.00000000000E+00  0.00000000000E+00  0.26808566049E+04  0.26808566049E+04  0.25500000920E-02 0. -1.
       -2   -1    0    0    0  501  0.00000000000E+00  0.00000000000E+00 -0.10772885207E+04  0.10772885207E+04  0.25500000920E-02 0.  1.
    10030    2    1    2    0    0  0.00000000000E+00  0.00000000000E+00  0.16035680842E+04  0.37581451256E+04  0.33988563053E+04 0.  0.
        3    1    3    3  502    0 -0.11179928200E+04 -0.11236485561E+04  0.12417128809E+03  0.15899410499E+04  0.10100000352E+00 0.  1.
       -3    1    3    3    0  502  0.11179928200E+04  0.11236485561E+04  0.14793967961E+04  0.21682040757E+04  0.10100000352E+00 0. -1.
</event>
<event>
 5   0  0.1645631E-08  0.3401596E+04  0.7818609E-02  0.8137515E-01
        1   -1    0    0  501    0  0.00000000000E+00  0.00000000000E+00  0.13267133135E+04  0.13267133135E+04  0.50400001928E-02 0.  1.
       -1   -1    0    0    0  501  0.00000000000E+00  0.00000000000E+00 -0.21803603689E+04  0.21803603689E+04  0.50400001928E-02 0. -1.
    10030    2    1    2    0    0  0.00000000000E+00  0.00000000000E+00 -0.85364705541E+03  0.35070736825E+04  0.34015955843E+04 0.  0.
        4    1    3    3  502    0  0.76820616838E+03 -0.10970004154E+04 -0.15077417654E+04  0.20166401445E+04  0.12699999809E+01 0. -1.
       -4    1    3    3    0  502 -0.76820616838E+03  0.10970004154E+04  0.65409471002E+03  0.14904335379E+04  0.12699999809E+01 0.  1.
</event>
<event>
 5   0  0.4973409E-08  0.3398821E+04  0.7818609E-02  0.8138196E-01
        2   -1    0    0  501    0  0.00000000000E+00  0.00000000000E+00  0.17469135631E+04  0.17469135631E+04  0.25500000920E-02 0.  1.
       -2   -1    0    0    0  501  0.00000000000E+00  0.00000000000E+00 -0.16531993574E+04  0.16531993574E+04  0.25500000920E-02 0. -1.
    10030    2    1    2    0    0  0.00000000000E+00  0.00000000000E+00  0.93714205729E+02  0.34001129205E+04  0.33988211957E+04 0.  0.
        1    1    3    3  502    0  0.11596812873E+04  0.54814988925E+03 -0.10683164818E+04  0.16693199497E+04  0.50400001928E-02 0. -1.
       -1    1    3    3    0  502 -0.11596812873E+04 -0.54814988925E+03  0.11620306875E+04  0.17307929708E+04  0.50400001928E-02 0.  1.
</event>
<event>
 5   0  0.1645631E-08  0.3402013E+04  0.7818609E-02  0.8137412E-01
        1   -1    0    0  501    0  0.00000000000E+00  0.00000000000E+00  0.18354124332E+04  0.18354124332E+04  0.50400001928E-02 0. -1.
       -1   -1    0    0    0  501  0.00000000000E+00  0.00000000000E+00 -0.15764433687E+04  0.15764433687E+04  0.50400001928E-02 0.  1.
    10030    2    1    2    0    0  0.00000000000E+00  0.00000000000E+00  0.25896906444E+03  0.34118558019E+04  0.34020133799E+04 0.  0.
        4    1    3    3  502    0  0.14983143279E+04 -0.79804081760E+03  0.21436239764E+02  0.16977267439E+04  0.12699999809E+01 0.  1.
       -4    1    3    3    0  502 -0.14983143279E+04  0.79804081760E+03  0.23753282467E+03  0.17141290580E+04  0.12699999809E+01 0. -1.
</event>
<event>
 5   0  0.4946315E-08  0.3416693E+04  0.7818609E-02  0.8133821E-01
        2   -1    0    0  501    0  0.00000000000E+00  0.00000000000E+00  0.18800491316E+04  0.18800491316E+04  0.25500000920E-02 0. -1.
       -2   -1    0    0    0  501  0.00000000000E+00  0.00000000000E+00 -0.15523255367E+04  0.15523255367E+04  0.25500000920E-02 0.  1.
    10030    2    1    2    0    0  0.00000000000E+00  0.00000000000E+00  0.32772359488E+03  0.34323746684E+04  0.34166933005E+04 0.  0.
        3    1    3    3  502    0  0.91210340890E+03  0.13050521938E+04 -0.45813611039E+03  0.16567988903E+04  0.10100000352E+00 0.  1.
       -3    1    3    3    0  502 -0.91210340890E+03 -0.13050521938E+04  0.78585970527E+03  0.17755757781E+04  0.10100000352E+00 0. -1.
</event>
<event>
 5   0  0.4775023E-08  0.3399080E+04  0.7818609E-02  0.8138132E-01
       -2   -1    0    0    0  501  0.00000000000E+00  0.00000000000E+00  0.88904924450E+03  0.88904924451E+03  0.25500000920E-02 0. -1.
        2   -1    0    0  501    0  0.00000000000E+00  0.00000000000E+00 -0.32489049540E+04  0.32489049540E+04  0.25500000920E-02 0.  1.
    10030    2    1    2    0    0  0.00000000000E+00  0.00000000000E+00 -0.23598557095E+04  0.41379541985E+04  0.33990801666E+04 0.  0.
        4    1    3    3  502    0  0.13255784560E+04  0.36410342441E+03 -0.23965142536E+04  0.27627905688E+04  0.12699999809E+01 0.  1.
       -4    1    3    3    0  502 -0.13255784560E+04 -0.36410342441E+03  0.36658544117E+02  0.13751636297E+04  0.12699999809E+01 0. -1.
</event>
<event>
 5   0  0.1625282E-08  0.3403651E+04  0.7818609E-02  0.8137011E-01
        1   -1    0    0  501    0  0.00000000000E+00  0.00000000000E+00  0.25207686152E+04  0.25207686152E+04  0.50400001928E-02 0. -1.
       -1   -1    0    0    0  501  0.00000000000E+00  0.00000000000E+00 -0.11489389877E+04  0.11489389877E+04  0.50400001928E-02 0.  1.
    10030    2    1    2    0    0  0.00000000000E+00  0.00000000000E+00  0.13718296276E+04  0.36697076029E+04  0.34036505937E+04 0.  0.
        1    1    3    3  502    0 -0.57923744591E+02 -0.39993976944E+02  0.25191984591E+04  0.25201816511E+04  0.50400001928E-02 0. -1.
       -1    1    3    3    0  502  0.57923744591E+02  0.39993976944E+02 -0.11473688315E+04  0.11495259518E+04  0.50400001928E-02 0.  1.
</event>
<event>
 5   0  0.4973409E-08  0.3395409E+04  0.7818609E-02  0.8139034E-01
       -2   -1    0    0    0  501  0.00000000000E+00  0.00000000000E+00  0.20721453961E+04  0.20721453961E+04  0.25500000920E-02 0.  1.
        2   -1    0    0  501    0  0.00000000000E+00  0.00000000000E+00 -0.13909255324E+04  0.13909255324E+04  0.25500000920E-02 0. -1.
    10030    2    1    2    0    0  0.00000000000E+00  0.00000000000E+00  0.68121986369E+03  0.34630709285E+04  0.33954086283E+04 0.  0.
        1    1    3    3  502    0 -0.13056636312E+04 -0.24864805532E+03 -0.73666564947E+03  0.15196248393E+04  0.50400001928E-02 0. -1.
       -1    1    3    3    0  502  0.13056636312E+04  0.24864805532E+03  0.14178855132E+04  0.19434460892E+04  0.50400001928E-02 0.  1.
</event>
<event>
 5   0  0.1579536E-08  0.3391283E+04  0.7818609E-02  0.8140049E-01
        1   -1    0    0  501    0  0.00000000000E+00  0.00000000000E+00  0.28310048786E+04  0.28310048786E+04  0.50400001928E-02 0.  1.
       -1   -1    0    0    0  501  0.00000000000E+00  0.00000000000E+00 -0.10156112867E+04  0.10156112867E+04  0.50400001928E-02 0. -1.
    10030    2    1    2    0    0  0.00000000000E+00  0.00000000000E+00  0.18153935920E+04  0.38466161653E+04  0.33912832423E+04 0.  0.
        5    1    3    3  502    0 -0.50022432027E+03  0.10004171969E+04 -0.53782210963E+03  0.12411017887E+04  0.46999998093E+01 0. -1.
       -5    1    3    3    0  502  0.50022432027E+03 -0.10004171969E+04  0.23532157016E+04  0.26055143766E+04  0.46999998093E+01 0.  1.
</event>
<event>
 5   0  0.1579536E-08  0.3400285E+04  0.7818609E-02  0.8137836E-01
       -1   -1    0    0    0  501  0.00000000000E+00  0.00000000000E+00  0.19100368686E+04  0.19100368686E+04  0.50400001928E-02 0. -1.
        1   -1    0    0  501    0  0.00000000000E+00  0.00000000000E+00 -0.15133136970E+04  0.15133136971E+04  0.50400001928E-02 0.  1.
    10030    2    1    2    0    0  0.00000000000E+00  0.00000000000E+00  0.39672317151E+03  0.34233505656E+04  0.34002852557E+04 0.  0.
        5    1    3    3  502    0 -0.10023443583E+04 -0.13614283477E+04  0.17472268469E+02  0.16907124915E+04  0.46999998093E+01 0. -1.
       -5    1    3    3    0  502  0.10023443583E+04  0.13614283477E+04  0.37925090304E+03  0.17326380742E+04  0.46999998093E+01 0.  1.
</event>
<event>
 5   0  0.1625282E-08  0.3398198E+04  0.7818609E-02  0.8138349E-01
        1   -1    0    0  501    0  0.00000000000E+00  0.00000000000E+00  0.26699537962E+04  0.26699537962E+04  0.50400001928E-02 0. -1.
       -1   -1    0    0    0  501  0.00000000000E+00  0.00000000000E+00 -0.10812684612E+04  0.10812684613E+04  0.50400001928E-02 0.  1.
    10030    2    1    2    0    0  0.00000000000E+00  0.00000000000E+00  0.15886853349E+04  0.37512222575E+04  0.33981976593E+04 0.  0.
        1    1    3    3  502    0  0.38517678856E+03  0.92856052968E+03 -0.71775973588E+03  0.12352185451E+04  0.50400001928E-02 0.  1.
       -1    1    3    3    0  502 -0.38517678856E+03 -0.92856052968E+03  0.23064450708E+04  0.25160037123E+04  0.50400001928E-02 0. -1.
</event>
<event>
 5   0  0.1630571E-08  0.3397874E+04  0.7818609E-02  0.8138428E-01
        1   -1    0    0  501    0  0.00000000000E+00  0.00000000000E+00  0.14377792384E+04  0.14377792384E+04  0.50400001928E-02 0.  1.
       -1   -1    0    0    0  501  0.00000000000E+00  0.00000000000E+00 -0.20075316909E+04  0.20075316909E+04  0.50400001928E-02 0. -1.
    10030    2    1    2    0    0  0.00000000000E+00  0.00000000000E+00 -0.56975245247E+03  0.34453109293E+04  0.33978742682E+04 0.  0.
        3    1    3    3  502    0 -0.43745808251E+03  0.37826276358E+02 -0.19490038082E+04  0.19978529114E+04  0.10100000352E+00 0. -1.
       -3    1    3    3    0  502  0.43745808251E+03 -0.37826276358E+02  0.13792513557E+04  0.14474580179E+04  0.10100000352E+00 0.  1.
</event>
<event>
 5   0  0.1630571E-08  0.3400963E+04  0.7818609E-02  0.8137670E-01
        1   -1    0    0  501    0  0.00000000000E+00  0.00000000000E+00  0.23162746538E+04  0.23162746538E+04  0.50400001928E-02 0. -1.
       -1   -1    0    0    0  501  0.00000000000E+00  0.00000000000E+00 -0.12483999985E+04  0.12483999985E+04  0.50400001928E-02 0.  1.
    10030    2    1    2    0    0  0.00000000000E+00  0.00000000000E+00  0.10678746552E+04  0.35646746523E+04  0.34009629662E+04 0.  0.
        3    1    3    3  502    0  0.12496059491E+04 -0.14428224312E+03  0.17332664704E+04  0.21416220631E+04  0.10100000352E+00 0. -1.
       -3    1    3    3    0  502 -0.12496059491E+04  0.14428224312E+03 -0.66539181511E+03  0.14230525892E+04  0.10100000352E+00 0.  1.
</event>
<event>
 5   0  0.1645631E-08  0.3400082E+04  0.7818609E-02  0.8137886E-01
        1   -1    0    0  501    0  0.00000000000E+00  0.00000000000E+00  0.22913738576E+04  0.22913738576E+04  0.50400001928E-02 0.  1.
       -1   -1    0    0    0  501  0.00000000000E+00  0.00000000000E+00 -0.12613127178E+04  0.12613127178E+04  0.50400001928E-02 0. -1.
    10030    2    1    2    0    0  0.00000000000E+00  0.00000000000E+00  0.10300611399E+04  0.35526865754E+04  0.34000817565E+04 0.  0.
        4    1    3    3  502    0 -0.64856411694E+03  0.15687140886E+04  0.61214323658E+03  0.18045000029E+04  0.12699999809E+01 0.  1.
       -4    1    3    3    0  502  0.64856411694E+03 -0.15687140886E+04  0.41791790328E+03  0.17481865725E+04  0.12699999809E+01 0. -1.
</event>
<event>
 5   0  0.1630571E-08  0.3400204E+04  0.7818609E-02  0.8137856E-01
       -1   -1    0    0    0  501  0.00000000000E+00  0.00000000000E+00  0.15725617460E+04  0.15725617460E+04  0.50400001928E-02 0. -1.
        1   -1    0    0  501    0  0.00000000000E+00  0.00000000000E+00 -0.18379865200E+04  0.18379865200E+04  0.50400001928E-02 0.  1.
    10030    2    1    2    0    0  0.00000000000E+00  0.00000000000E+00 -0.26542477401E+03  0.34105482660E+04  0.34002042827E+04 0.  0.
        3    1    3    3  502    0 -0.15791533185E+04  0.58006644754E+03  0.11327845144E+03  0.16861299786E+04  0.10100000352E+00 0. -1.
       -3    1    3    3    0  502  0.15791533185E+04 -0.58006644754E+03 -0.37870322545E+03  0.17244182874E+04  0.10100000352E+00 0.  1.
</event>
<event>
 5   0  0.1625282E-08  0.3398895E+04  0.7818609E-02  0.8138178E-01
        1   -1    0    0  501    0  0.00000000000E+00  0.00000000000E+00  0.10266805441E+04  0.10266805441E+04  0.50400001928E-02 0.  1.
       -1   -1    0    0    0  501  0.00000000000E+00  0.00000000000E+00 -0.28130673532E+04  0.28130673532E+04  0.50400001928E-02 0. -1.
    10030    2    1    2    0    0  0.00000000000E+00  0.00000000000E+00 -0.17863868091E+04  0.38397478973E+04  0.33988948326E+04 0.  0.
        1    1    3    3  502    0 -0.66088528018E+03 -0.19612809316E+03  0.86162984806E+03  0.11034679776E+04  0.50400001928E-02 0.  1.
       -1    1    3    3    0  502  0.66088528018E+03  0.19612809316E+03 -0.26480166572E+04  0.27362799197E+04  0.50400001928E-02 0. -1.
</event>
<event>
 5   0  0.1579536E-08  0.3398637E+04  0.7818609E-02  0.8138241E-01
        1   -1    0    0  501    0  0.00000000000E+00  0.00000000000E+00  0.25289255294E+04  0.25289255294E+04  0.50400001928E-02 0.  1.
       -1   -1    0    0    0  501  0.00000000000E+00  0.00000000000E+00 -0.11418616199E+04  0.11418616199E+04  0.50400001928E-02 0. -1.
    10030    2    1    2    0    0  0.00000000000E+00  0.00000000000E+00  0.13870639095E+04  0.36707871494E+04  0.33986367865E+04 0.  0.
        5    1    3    3  502    0 -0.94003182546E+03  0.55600422750E+03 -0.71258489425E+03  0.13040704948E+04  0.46999998093E+01 0. -1.
       -5    1    3    3    0  502  0.94003182546E+03 -0.55600422750E+03  0.20996488038E+04  0.23667166546E+04  0.46999998093E+01 0.  1.
</event>
<event>
 5   0  0.4946315E-08  0.3402526E+04  0.7818609E-02  0.8137287E-01
       -2   -1    0    0    0  501  0.00000000000E+00  0.00000000000E+00  0.14581134258E+04  0.14581134258E+04  0.25500000920E-02 0. -1.
        2   -1    0    0  501    0  0.00000000000E+00  0.00000000000E+00 -0.19849593911E+04  0.19849593911E+04  0.25500000920E-02 0.  1.
    10030    2    1    2    0    0  0.00000000000E+00  0.00000000000E+00 -0.52684596527E+03  0.34430728169E+04  0.34025260839E+04 0.  0.
        3    1    3    3  502    0 -0.45420951225E+03 -0.12601250473E+04 -0.13247660699E+04  0.18839391089E+04  0.10100000352E+00 0.  1.
       -3    1    3    3    0  502  0.45420951225E+03  0.12601250473E+04  0.79792010463E+03  0.15591337080E+04  0.10100000352E+00 0. -1.
</event>
<event>
 5   0  0.4764953E-08  0.3396330E+04  0.7818609E-02  0.8138808E-01
        2   -1    0    0  501    0  0.00000000000E+00  0.00000000000E+00  0.22308501624E+04  0.22308501624E+04  0.25500000920E-02 0. -1.
       -2   -1    0    0    0  501  0.00000000000E+00  0.00000000000E+00 -0.12926751241E+04  0.12926751241E+04  0.25500000920E-02 0.  1.
    10030    2    1    2    0    0  0.00000000000E+00  0.00000000000E+00  0.93817503831E+03  0.35235252865E+04  0.33963300844E+04 0.  0.
        2    1    3    3  502    0 -0.57015242731E+03  0.15780790917E+04  0.19784403297E+03  0.16895412606E+04  0.25500000920E-02 0.  1.
       -2    1    3    3    0  502  0.57015242731E+03 -0.15780790917E+04  0.74033100535E+03  0.18339840259E+04  0.25500000920E-02 0. -1.
</event>
<event>
 5   0  0.1579536E-08  0.3395173E+04  0.7818609E-02  0.8139092E-01
       -1   -1    0    0    0  501  0.00000000000E+00  0.00000000000E+00  0.15022568368E+04  0.15022568368E+04  0.50400001928E-02 0. -1.
        1   -1    0    0  501    0  0.00000000000E+00  0.00000000000E+00 -0.19183135757E+04  0.19183135757E+04  0.50400001928E-02 0.  1.
    10030    2    1    2    0    0  0.00000000000E+00  0.00000000000E+00 -0.41605673892E+03  0.34205704124E+04  0.33951728581E+04 0.  0.
        5    1    3    3  502    0  0.13000643540E+04  0.40793377552E+03  0.81206754371E+03  0.15862071351E+04  0.46999998093E+01 0. -1.
       -5    1    3    3    0  502 -0.13000643540E+04 -0.40793377552E+03 -0.12281242826E+04  0.18343632774E+04  0.46999998093E+01 0.  1.
</event>
<event>
 5   0  0.4946315E-08  0.3401984E+04  0.7818609E-02  0.8137419E-01
        2   -1    0    0  501    0  0.00000000000E+00  0.00000000000E+00  0.18168642919E+04  0.18168642919E+04  0.25500000920E-02 0.  1.
       -2   -1    0    0    0  501  0.00000000000E+00  0.00000000000E+00 -0.15925098846E+04  0.15925098846E+04  0.25500000920E-02 0. -1.
    10030    2    1    2    0    0  0.00000000000E+00  0.00000000000E+00  0.22435440730E+03  0.34093741766E+04  0.34019843291E+04 0.  0.
        3    1    3    3  502    0 -0.12236793804E+03 -0.48656337855E+03  0.17410250989E+04  0.18118736818E+04  0.10100000352E+00 0.  1.
       -3    1    3    3    0  502  0.12236793804E+03  0.48656337855E+03 -0.15166706916E+04  0.15975004947E+04  0.10100000352E+00 0. -1.
</event>
<event>
 5   0  0.4973409E-08  0.3399663E+04  0.7818609E-02  0.8137989E-01
        2   -1    0    0  501    0  0.00000000000E+00  0.00000000000E+00  0.20076870257E+04  0.20076870257E+04  0.25500000920E-02 0.  1.
       -2   -1    0    0    0  501  0.00000000000E+00  0.00000000000E+00 -0.14391820902E+04  0.14391820902E+04  0.25500000920E-02 0. -1.
    10030    2    1    2    0    0  0.00000000000E+00  0.00000000000E+00  0.56850493547E+03  0.34468691159E+04  0.33996630481E+04 0.  0.
        1    1    3    3  502    0  0.47662299703E+03  0.13144172691E+04 -0.69590006733E+03  0.15617743571E+04  0.50400001928E-02 0. -1.
       -1    1    3    3    0  502 -0.47662299703E+03 -0.13144172691E+04  0.12644050028E+04  0.18850947589E+04  0.50400001928E-02 0.  1.
</event>
<event>
 5   0  0.4775023E-08  0.3402774E+04  0.7818609E-02  0.8137226E-01
       -2   -1    0    0    0  501  0.00000000000E+00  0.00000000000E+00  0.15937455294E+04  0.15937455294E+04  0.25500000920E-02 0.  1.
        2   -1    0    0  501    0  0.00000000000E+00  0.00000000000E+00 -0.18162988361E+04  0.18162988361E+04  0.25500000920E-02 0. -1.
    10030    2    1    2    0    0  0.00000000000E+00  0.00000000000E+00 -0.22255330669E+03  0.34100443656E+04  0.34027742506E+04 0.  0.
        4    1    3    3  502    0  0.75075605858E+03 -0.43008276277E+03  0.13568142611E+04  0.16092086236E+04  0.12699999809E+01 0.  1.
       -4    1    3    3    0  502 -0.75075605858E+03  0.43008276277E+03 -0.15793675678E+04  0.18008357419E+04  0.12699999809E+01 0. -1.
</event>
<event>
 5   0  0.4764953E-08  0.3401343E+04  0.7818609E-02  0.8137577E-01
        2   -1    0    0  501    0  0.00000000000E+00  0.00000000000E+00  0.22228653762E+04  0.22228653762E+04  0.25500000920E-02 0. -1.
       -2   -1    0    0    0  501  0.00000000000E+00  0.00000000000E+00 -0.13011510013E+04  0.13011510013E+04  0.25500000920E-02 0.  1.
    10030    2    1    2    0    0  0.00000000000E+00  0.00000000000E+00  0.92171437488E+03  0.35240163775E+04  0.34013429759E+04 0.  0.
        2    1    3    3  502    0  0.14870785439E+03  0.54676530341E+03 -0.12004765053E+04  0.13274826412E+04  0.25500000920E-02 0.  1.
       -2    1    3    3    0  502 -0.14870785439E+03 -0.54676530341E+03  0.21221908801E+04  0.21965337363E+04  0.25500000920E-02 0. -1.
</event>
<event>
 5   0  0.1579536E-08  0.3399457E+04  0.7818609E-02  0.8138039E-01
        1   -1    0    0  501    0  0.00000000000E+00  0.00000000000E+00  0.18478865918E+04  0.18478865918E+04  0.50400001928E-02 0. -1.
       -1   -1    0    0    0  501  0.00000000000E+00  0.00000000000E+00 -0.15634496856E+04  0.15634496856E+04  0.50400001928E-02 0.  1.
    10030    2    1    2    0    0  0.00000000000E+00  0.00000000000E+00  0.28443690620E+03  0.34113362774E+04  0.33994574337E+04 0.  0.
        5    1    3    3  502    0 -0.79042143624E+03  0.11105761376E+04  0.11611038716E+04  0.17906227115E+04  0.46999998093E+01 0. -1.
       -5    1    3    3    0  502  0.79042143624E+03 -0.11105761376E+04 -0.87666696541E+03  0.16207135658E+04  0.46999998093E+01 0.  1.
</event>
<event>
 5   0  0.4764953E-08  0.3398950E+04  0.7818609E-02  0.8138164E-01
        2   -1    0    0  501    0  0.00000000000E+00  0.00000000000E+00  0.29290651559E+04  0.29290651559E+04  0.25500000920E-02 0. -1.
       -2   -1    0    0    0  501  0.00000000000E+00  0.00000000000E+00 -0.98605347589E+03  0.98605347590E+03  0.25500000920E-02 0.  1.
    10030    2    1    2    0    0  0.00000000000E+00  0.00000000000E+00  0.19430116800E+04  0.39151186318E+04  0.33989497661E+04 0.  0.
        2    1    3    3  502    0 -0.14258572833E+04  0.50286093071E+03  0.77586699538E+02  0.15139213334E+04  0.25500000920E-02 0.  1.
       -2    1    3    3    0  502  0.14258572833E+04 -0.50286093071E+03  0.18654249805E+04  0.24011972983E+04  0.25500000920E-02 0. -1.
</event>
<event>
 5   0  0.1579536E-08  0.3394498E+04  0.7818609E-02  0.8139258E-01
        1   -1    0    0  501    0  0.00000000000E+00  0.00000000000E+00  0.22896390685E+04  0.22896390685E+04  0.50400001928E-02 0.  1.
       -1   -1    0    0    0  501  0.00000000000E+00  0.00000000000E+00 -0.12581258510E+04  0.12581258510E+04  0.50400001928E-02 0. -1.
    10030    2    1    2    0    0  0.00000000000E+00  0.00000000000E+00  0.10315132175E+04  0.35477649195E+04  0.33944979608E+04 0.  0.
        5    1    3    3  502    0  0.81911121315E+03 -0.83797243242E+03 -0.76747973722E+03  0.14007812870E+04  0.46999998093E+01 0. -1.
       -5    1    3    3    0  502 -0.81911121315E+03  0.83797243242E+03  0.17989929547E+04  0.21469836324E+04  0.46999998093E+01 0.  1.
</event>
<event>
 5   0  0.1645631E-08  0.3400661E+04  0.7818609E-02  0.8137744E-01
        1   -1    0    0  501    0  0.00000000000E+00  0.00000000000E+00  0.15715588379E+04  0.15715588379E+04  0.50400001928E-02 0. -1.
       -1   -1    0    0    0  501  0.00000000000E+00  0.00000000000E+00 -0.18396539423E+04  0.18396539423E+04  0.50400001928E-02 0.  1.
    10030    2    1    2    0    0  0.00000000000E+00  0.00000000000E+00 -0.26809510442E+03  0.34112127802E+04  0.34006613543E+04 0.  0.
        4    1    3    3  502    0  0.13265933780E+04 -0.80391770674E+03 -0.83261995708E+03  0.17605088116E+04  0.12699999809E+01 0.  1.
       -4    1    3    3    0  502 -0.13265933780E+04  0.80391770674E+03  0.56452485266E+03  0.16507039686E+04  0.12699999809E+01 0. -1.
</event>
<event>
 5   0  0.1595851E-08  0.3404364E+04  0.7818609E-02  0.8136836E-01
       -1   -1    0    0    0  501  0.00000000000E+00  0.00000000000E+00  0.10733148330E+04  0.10733148330E+04  0.50400001928E-02 0. -1.
        1   -1    0    0  501    0  0.00000000000E+00  0.00000000000E+00 -0.26995096406E+04  0.26995096406E+04  0.50400001928E-02 0.  1.
    10030    2    1    2    0    0  0.00000000000E+00  0.00000000000E+00 -0.16261948076E+04  0.37728244737E+04  0.34043641046E+04 0.  0.
        2    1    3    3  502    0  0.12194208083E+04  0.24753723076E+03  0.47415182480E+03  0.13315711552E+04  0.25500000920E-02 0. -1.
       -2    1    3    3    0  502 -0.12194208083E+04 -0.24753723076E+03 -0.21003466324E+04  0.24412533185E+04  0.25500000920E-02 0.  1.
</event>
<event>
 5   0  0.1645631E-08  0.3399561E+04  0.7818609E-02  0.8138014E-01
       -1   -1    0    0    0  501  0.00000000000E+00  0.00000000000E+00  0.23308492666E+04  0.23308492666E+04  0.50400001928E-02 0.  1.
        1   -1    0    0  501    0  0.00000000000E+00  0.00000000000E+00 -0.12395715120E+04  0.12395715120E+04  0.50400001928E-02 0. -1.
    10030    2    1    2    0    0  0.00000000000E+00  0.00000000000E+00  0.10912777546E+04  0.35704207786E+04  0.33995613539E+04 0.  0.
        4    1    3    3  502    0 -0.63557993189E+03  0.41906544983E+03  0.21417824663E+04  0.22730621300E+04  0.12699999809E+01 0.  1.
       -4    1    3    3    0  502  0.63557993189E+03 -0.41906544983E+03 -0.10505047117E+04  0.12973586487E+04  0.12699999809E+01 0. -1.
</event>
<event>
 5   0  0.4973409E-08  0.3399591E+04  0.7818609E-02  0.8138007E-01
       -2   -1    0    0    0  501  0.00000000000E+00  0.00000000000E+00  0.13891605839E+04  0.13891605839E+04  0.25500000920E-02 0. -1.
        2   -1    0    0  501    0  0.00000000000E+00  0.00000000000E+00 -0.20798920273E+04  0.20798920273E+04  0.25500000920E-02 0.  1.
    10030    2    1    2    0    0  0.00000000000E+00  0.00000000000E+00 -0.69073144345E+03  0.34690526112E+04  0.33995905772E+04 0.  0.
        1    1    3    3  502    0  0.61859716949E+03  0.20930760719E+03 -0.19467724682E+04  0.20533862704E+04  0.50400001928E-02 0.  1.
       -1    1    3    3    0  502 -0.61859716949E+03 -0.20930760719E+03  0.12560410248E+04  0.14156663408E+04  0.50400001928E-02 0. -1.
</event>
<event>
 5   0  0.4775023E-08  0.3398625E+04  0.7818609E-02  0.8138244E-01
        2   -1    0    0  501    0  0.00000000000E+00  0.00000000000E+00  0.20626060769E+04  0.20626060769E+04  0.25500000920E-02 0.  1.
       -2   -1    0    0    0  501  0.00000000000E+00  0.00000000000E+00 -0.14000074166E+04  0.14000074166E+04  0.25500000920E-02 0. -1.
    10030    2    1    2    0    0  0.00000000000E+00  0.00000000000E+00  0.66259866028E+03  0.34626134935E+04  0.33986254899E+04 0.  0.
        4    1    3    3  502    0  0.71284784894E+03 -0.14834084008E+04 -0.99761868487E+02  0.16488197544E+04  0.12699999809E+01 0.  1.
       -4    1    3    3    0  502 -0.71284784894E+03  0.14834084008E+04  0.76236052877E+03  0.18137937391E+04  0.12699999809E+01 0. -1.
</event>
<event>
 5   0  0.1630571E-08  0.3399240E+04  0.7818609E-02  0.8138093E-01
       -1   -1    0    0    0  501  0.00000000000E+00  0.00000000000E+00  0.13902687014E+04  0.13902687014E+04  0.50400001928E-02 0. -1.
        1   -1    0    0  501    0  0.00000000000E+00  0.00000000000E+00 -0.20778059434E+04  0.20778059434E+04  0.50400001928E-02 0.  1.
    10030    2    1    2    0    0  0.00000000000E+00  0.00000000000E+00 -0.68753724209E+03  0.34680746448E+04  0.33992402508E+04 0.  0.
        3    1    3    3  502    0 -0.48285684184E+03  0.46444320767E+03  0.12498638471E+04  0.14181036173E+04  0.10100000352E+00 0. -1.
       -3    1    3    3    0  502  0.48285684184E+03 -0.46444320767E+03 -0.19374010892E+04  0.20499710275E+04  0.10100000352E+00 0.  1.
</event>
<event>
 5   0  0.4946315E-08  0.3395452E+04  0.7818609E-02  0.8139024E-01
       -2   -1    0    0    0  501  0.00000000000E+00  0.00000000000E+00  0.24208217880E+04  0.24208217880E+04  0.25500000920E-02 0. -1.
        2   -1    0    0  501    0  0.00000000000E+00  0.00000000000E+00 -0.11906176350E+04  0.11906176350E+04  0.25500000920E-02 0.  1.
    10030    2    1    2    0    0  0.00000000000E+00  0.00000000000E+00  0.12302041530E+04  0.36114394231E+04  0.33954517296E+04 0.  0.
        3    1    3    3  502    0 -0.77574503355E+03 -0.10095178010E+04  0.18096495920E+04  0.22126315111E+04  0.10100000352E+00 0.  1.
       -3    1    3    3    0  502  0.77574503355E+03  0.10095178010E+04 -0.57944543898E+03  0.13988079120E+04  0.10100000352E+00 0. -1.
</event>
<event>
 5   0  0.1630571E-08  0.3397550E+04  0.7818609E-02  0.8138508E-01
       -1   -1    0    0    0  501  0.00000000000E+00  0.00000000000E+00  0.15951794994E+04  0.15951794994E+04  0.50400001928E-02 0.  1.
        1   -1    0    0  501    0  0.00000000000E+00  0.00000000000E+00 -0.18090978467E+04  0.18090978467E+04  0.50400001928E-02 0. -1.
    10030    2    1    2    0    0  0.00000000000E+00  0.00000000000E+00 -0.21391834730E+03  0.34042773461E+04  0.33975495861E+04 0.  0.
        3    1    3    3  502    0 -0.62014775319E+03 -0.24974462011E+03 -0.16717430512E+04  0.18004667313E+04  0.10100000352E+00 0. -1.
       -3    1    3    3    0  502  0.62014775319E+03  0.24974462011E+03  0.14578247039E+04  0.16038106149E+04  0.10100000352E+00 0.  1.
</event>
<event>
 5   0  0.1595851E-08  0.3400870E+04  0.7818609E-02  0.8137693E-01
        1   -1    0    0  501    0  0.00000000000E+00  0.00000000000E+00  0.30532117371E+04  0.30532117371E+04  0.50400001928E-02 0.  1.
       -1   -1    0    0    0  501  0.00000000000E+00  0.00000000000E+00 -0.94702892836E+03  0.94702892838E+03  0.50400001928E-02 0. -1.
    10030    2    1    2    0    0  0.00000000000E+00  0.00000000000E+00  0.21061828088E+04  0.40002406655E+04  0.34008703824E+04 0.  0.
        2    1    3    3  502    0  0.10196232935E+04  0.12413573473E+04  0.39725954155E+03  0.16548156598E+04  0.25500000920E-02 0. -1.
       -2    1    3    3    0  502 -0.10196232935E+04 -0.12413573473E+04  0.17089232672E+04  0.23454250058E+04  0.25500000920E-02 0.  1.
</event>
<event>
 5   0  0.4764953E-08  0.3400185E+04  0.7818609E-02  0.8137861E-01
       -2   -1    0    0    0  501  0.00000000000E+00  0.00000000000E+00  0.15167465610E+04  0.15167465610E+04  0.25500000920E-02 0. -1.
        2   -1    0    0  501    0  0.00000000000E+00  0.00000000000E+00 -0.19056016458E+04  0.19056016458E+04  0.25500000920E-02 0.  1.
    10030    2    1    2    0    0  0.00000000000E+00  0.00000000000E+00 -0.38885508481E+03  0.34223482068E+04  0.34001851379E+04 0.  0.
        2    1    3    3  502    0  0.10825455188E+04  0.82627783342E+03 -0.12187421174E+04  0.18275590844E+04  0.25500000920E-02 0.  1.
       -2    1    3    3    0  502 -0.10825455188E+04 -0.82627783342E+03  0.82988703259E+03  0.15947891224E+04  0.25500000920E-02 0. -1.
</event>
<event>
 5   0  0.1579536E-08  0.3399183E+04  0.7818609E-02  0.8138107E-01
       -1   -1    0    0    0  501  0.00000000000E+00  0.00000000000E+00  0.88702984930E+03  0.88702984931E+03  0.50400001928E-02 0. -1.
        1   -1    0    0  501    0  0.00000000000E+00  0.00000000000E+00 -0.32564993158E+04  0.32564993158E+04  0.50400001928E-02 0.  1.
    10030    2    1    2    0    0  0.00000000000E+00  0.00000000000E+00 -0.23694694665E+04  0.41435291651E+04  0.33991834886E+04 0.  0.
        5    1    3    3  502    0 -0.11659950090E+02  0.15035299019E+04 -0.21885201991E+03  0.15194263447E+04  0.46999998093E+01 0.  1.
       -5    1    3    3    0  502  0.11659950090E+02 -0.15035299019E+04 -0.21506174466E+04  0.26241028204E+04  0.46999998093E+01 0. -1.
</event>
<event>
 5   0  0.1625282E-08  0.3399756E+04  0.7818609E-02  0.8137966E-01
        1   -1    0    0  501    0  0.00000000000E+00  0.00000000000E+00  0.14726167119E+04  0.14726167119E+04  0.50400001928E-02 0. -1.
       -1   -1    0    0    0  501  0.00000000000E+00  0.00000000000E+00 -0.19622116754E+04  0.19622116754E+04  0.50400001928E-02 0.  1.
    10030    2    1    2    0    0  0.00000000000E+00  0.00000000000E+00 -0.48959496355E+03  0.34348283873E+04  0.33997562886E+04 0.  0.
        1    1    3    3  502    0  0.11439463320E+04  0.10618626490E+04 -0.92510879696E+03  0.18143846842E+04  0.50400001928E-02 0.  1.
       -1    1    3    3    0  502 -0.11439463320E+04 -0.10618626490E+04  0.43551383340E+03  0.16204437031E+04  0.50400001928E-02 0. -1.
</event>
<event>
 5   0  0.4775023E-08  0.3397680E+04  0.7818609E-02  0.8138476E-01
        2   -1    0    0  501    0  0.00000000000E+00  0.00000000000E+00  0.24439294028E+04  0.24439294028E+04  0.25500000920E-02 0.  1.
       -2   -1    0    0    0  501  0.00000000000E+00  0.00000000000E+00 -0.11809083070E+04  0.11809083070E+04  0.25500000920E-02 0. -1.
    10030    2    1    2    0    0  0.00000000000E+00  0.00000000000E+00  0.12630210958E+04  0.36248377098E+04  0.33976795220E+04 0.  0.
        4    1    3    3  502    0  0.26362807295E+03  0.63893603299E+03  0.22871390014E+04  0.23892981060E+04  0.12699999809E+01 0.  1.
       -4    1    3    3    0  502 -0.26362807295E+03 -0.63893603299E+03 -0.10241179056E+04  0.12355396038E+04  0.12699999809E+01 0. -1.
</event>
<event>
 5   0  0.1625282E-08  0.3401416E+04  0.7818609E-02  0.8137559E-01
        1   -1    0    0  501    0  0.00000000000E+00  0.00000000000E+00  0.12996876125E+04  0.12996876125E+04  0.50400001928E-02 0. -1.
       -1   -1    0    0    0  501  0.00000000000E+00  0.00000000000E+00 -0.22254642257E+04  0.22254642257E+04  0.50400001928E-02 0.  1.
    10030    2    1    2    0    0  0.00000000000E+00  0.00000000000E+00 -0.92577661320E+03  0.35251518383E+04  0.34014163440E+04 0.  0.
        1    1    3    3  502    0  0.13472306306E+04 -0.10295079142E+04 -0.32582224539E+03  0.17265795820E+04  0.50400001928E-02 0.  1.
       -1    1    3    3    0  502 -0.13472306306E+04  0.10295079142E+04 -0.59995436781E+03  0.17985722562E+04  0.50400001928E-02 0. -1.
</event>
<event>
 5   0  0.4775023E-08  0.3400587E+04  0.7818609E-02  0.8137762E-01
       -2   -1    0    0    0  501  0.00000000000E+00  0.00000000000E+00  0.13784145265E+04  0.13784145265E+04  0.25500000920E-02 0. -1.
        2   -1    0    0  501    0  0.00000000000E+00  0.00000000000E+00 -0.20973353484E+04  0.20973353484E+04  0.25500000920E-02 0.  1.
    10030    2    1    2    0    0  0.00000000000E+00  0.00000000000E+00 -0.71892082191E+03  0.34757498749E+04  0.34005867206E+04 0.  0.
        4    1    3    3  502    0 -0.28121524023E+02  0.21993740960E+03  0.13635738310E+04  0.13814841619E+04  0.12699999809E+01 0. -1.
       -4    1    3    3    0  502  0.28121524023E+02 -0.21993740960E+03 -0.20824946529E+04  0.20942657130E+04  0.12699999809E+01 0.  1.
</event>
<event>
 5   0  0.5001197E-08  0.3398749E+04  0.7818609E-02  0.8138213E-01
       -2   -1    0    0    0  501  0.00000000000E+00  0.00000000000E+00  0.11659912393E+04  0.11659912393E+04  0.25500000920E-02 0. -1.
        2   -1    0    0  501    0  0.00000000000E+00  0.00000000000E+00 -0.24767548996E+04  0.24767548996E+04  0.25500000920E-02 0.  1.
    10030    2    1    2    0    0  0.00000000000E+00  0.00000000000E+00 -0.13107636603E+04  0.36427461389E+04  0.33987494847E+04 0.  0.
        5    1    3    3  502    0  0.14516690214E+04 -0.60881276233E+03  0.30778591657E+02  0.15744730353E+04  0.46999998093E+01 0. -1.
       -5    1    3    3    0  502 -0.14516690214E+04  0.60881276233E+03 -0.13415422520E+04  0.20682731036E+04  0.46999998093E+01 0.  1.
</event>
<event>
 5   0  0.1645631E-08  0.3398551E+04  0.7818609E-02  0.8138262E-01
        1   -1    0    0  501    0  0.00000000000E+00  0.00000000000E+00  0.15896854775E+04  0.15896854775E+04  0.50400001928E-02 0.  1.
       -1   -1    0    0    0  501  0.00000000000E+00  0.00000000000E+00 -0.18164204029E+04  0.18164204029E+04  0.50400001928E-02 0. -1.
    10030    2    1    2    0    0  0.00000000000E+00  0.00000000000E+00 -0.22673492541E+03  0.34061058805E+04  0.33985509475E+04 0.  0.
        4    1    3    3  502    0 -0.10044082342E+04 -0.14192156459E+02  0.12602624874E+04  0.16116142430E+04  0.12699999809E+01 0.  1.
       -4    1    3    3    0  502  0.10044082342E+04  0.14192156459E+02 -0.14869974128E+04  0.17944916374E+04  0.12699999809E+01 0. -1.
</event>
<event>
 5   0  0.5001197E-08  0.3398818E+04  0.7818609E-02  0.8138196E-01
        2   -1    0    0  501    0  0.00000000000E+00  0.00000000000E+00  0.16073662728E+04  0.16073662728E+04  0.25500000920E-02 0. -1.
       -2   -1    0    0    0  501  0.00000000000E+00  0.00000000000E+00 -0.17967227115E+04  0.17967227115E+04  0.25500000920E-02 0.  1.
    10030    2    1    2    0    0  0.00000000000E+00  0.00000000000E+00 -0.18935643867E+03  0.34040889843E+04  0.33988183170E+04 0.  0.
        5    1    3    3  502    0 -0.55257682438E+03 -0.14906730716E+04 -0.69604421462E+03  0.17354961803E+04  0.46999998093E+01 0. -1.
       -5    1    3    3    0  502  0.55257682438E+03  0.14906730716E+04  0.50668777595E+03  0.16685928040E+04  0.46999998093E+01 0.  1.
</event>
<event>
 5   0  0.1595851E-08  0.3399558E+04  0.7818609E-02  0.8138015E-01
       -1   -1    0    0    0  501  0.00000000000E+00  0.00000000000E+00  0.10145451258E+04  0.10145451258E+04  0.50400001928E-02 0.  1.
        1   -1    0    0  501    0  0.00000000000E+00  0.00000000000E+00 -0.28478260737E+04  0.28478260737E+04  0.50400001928E-02 0. -1.
    10030    2    1    2    0    0  0.00000000000E+00  0.00000000000E+00 -0.18332809478E+04  0.38623711995E+04  0.33995576549E+04 0.  0.
        2    1    3    3  502    0 -0.14503459459E+04 -0.52718087508E+03 -0.17262743067E+04  0.23154796522E+04  0.25500000920E-02 0. -1.
       -2    1    3    3    0  502  0.14503459459E+04  0.52718087508E+03 -0.10700664114E+03  0.15468915473E+04  0.25500000920E-02 0.  1.
</event>
<event>
 5   0  0.4764953E-08  0.3403057E+04  0.7818609E-02  0.8137156E-01
       -2   -1    0    0    0  501  0.00000000000E+00  0.00000000000E+00  0.22122832126E+04  0.22122832126E+04  0.25500000920E-02 0. -1.
        2   -1    0    0  501    0  0.00000000000E+00  0.00000000000E+00 -0.13086930991E+04  0.13086930991E+04  0.25500000920E-02 0.  1.
    10030    2    1    2    0    0  0.00000000000E+00  0.00000000000E+00  0.90359011349E+03  0.35209763117E+04  0.34030573157E+04 0.  0.
        2    1    3    3  502    0  0.27332168633E+03  0.25908182529E+03  0.21686209578E+04  0.22010781438E+04  0.25500000920E-02 0. -1.
       -2    1    3    3    0  502 -0.27332168633E+03 -0.25908182529E+03 -0.12650308443E+04  0.13198981679E+04  0.25500000920E-02 0.  1.
</event>
<event>
 5   0  0.1579536E-08  0.3398242E+04  0.7818609E-02  0.8138338E-01
       -1   -1    0    0    0  501  0.00000000000E+00  0.00000000000E+00  0.16559047669E+04  0.16559047669E+04  0.50400001928E-02 0.  1.
        1   -1    0    0  501    0  0.00000000000E+00  0.00000000000E+00 -0.17434653382E+04  0.17434653382E+04  0.50400001928E-02 0. -1.
    10030    2    1    2    0    0  0.00000000000E+00  0.00000000000E+00 -0.87560571310E+02  0.33993701051E+04  0.33982422306E+04 0.  0.
        5    1    3    3  502    0 -0.14955159382E+04 -0.65590903525E+03 -0.51319703797E+03  0.17117762335E+04  0.46999998093E+01 0. -1.
       -5    1    3    3    0  502  0.14955159382E+04  0.65590903525E+03  0.42563646666E+03  0.16875938716E+04  0.46999998093E+01 0.  1.
</event>
</LesHouchesEvents>
