<LesHouchesEvents version="3.0">
<header>
<!--
#*********************************************************************
#                                                                    *
#                        MadGraph5_aMC@NLO                           *
#                                                                    *
#                           Going Beyond                             *
#                                                                    *
#                   http://madgraph.hep.uiuc.edu                     *
#                   http://madgraph.phys.ucl.ac.be                   *
#                   http://amcatnlo.cern.ch                          *
#                                                                    *
#                     The MadGraph5_aMC@NLO team                     *
#                                                                    *
#....................................................................*
#                                                                    *
# This file contains all the information necessary to reproduce      *
# the events generated:                                              *
#                                                                    *
# 1. software version                                                *
# 2. proc_card          : code generation info including model       *
# 3. param_card         : model primary parameters in the LH format  *
# 4. run_card           : running parameters (collider and cuts)     *
# 5. pythia_card        : present only if pythia has been run        *
# 6. pgs_card           : present only if pgs has been run           *
# 7. delphes_cards      : present only if delphes has been run       *
#                                                                    *
#                                                                    *
#*********************************************************************
-->
<MGVersion>
#5.2.2.3
</MGVersion>
<MG5ProcCard>
#************************************************************
#*                     MadGraph5_aMC@NLO                    *
#*                                                          *
#*                *                       *                 *
#*                  *        * *        *                   *
#*                    * * * * 5 * * * *                     *
#*                  *        * *        *                   *
#*                *                       *                 *
#*                                                          *
#*                                                          *
#*         VERSION 2.2.3                 2015-02-10         *
#*                                                          *
#*    The MadGraph5_aMC@NLO Development Team - Find us at   *
#*    https://server06.fynu.ucl.ac.be/projects/madgraph     *
#*                                                          *
#************************************************************
#*                                                          *
#*               Command File for MadGraph5_aMC@NLO         *
#*                                                          *
#*     run as ./bin/mg5_aMC  filename                       *
#*                                                          *
#************************************************************
set group_subprocesses Auto
set ignore_six_quark_processes False
set loop_optimized_output True
set gauge unitary
set complex_mass_scheme False
import model sm
define p = g u c d s u~ c~ d~ s~
define j = g u c d s u~ c~ d~ s~
define l+ = e+ mu+
define l- = e- mu-
define vl = ve vm vt
define vl~ = ve~ vm~ vt~
import model Zprime_UFO
generate p p > zph, zph > j j
add process p p > zph, zph > b b~
output Dijet_signal
</MG5ProcCard>
<MGProcCard>
#*********************************************************************
#                        MadGraph/MadEvent                           *
#                   http://madgraph.hep.uiuc.edu                     *
#                                                                    *
#                          proc_card.dat                             *
#*********************************************************************
#                                                                    *
#            This Files is generated by MADGRAPH 5                   *
#                                                                    *
# WARNING: This Files is generated for MADEVENT (compatibility issue)*
#          This files is NOT a valid MG4 proc_card.dat               *
#          Running this in MG4 will NEVER reproduce the result of MG5*
#                                                                    *
#*********************************************************************
#*********************************************************************
# Process(es) requested : mg2 input                                  *
#*********************************************************************
# Begin PROCESS # This is TAG. Do not modify this line
p p > zph , zph > j j           #Process
# Be carefull the coupling are here in MG5 convention
          
end_coup           # End the couplings input

done               # this tells MG there are no more procs
# End PROCESS  # This is TAG. Do not modify this line
#*********************************************************************
# Model information                                                  *
#*********************************************************************
# Begin MODEL  # This is TAG. Do not modify this line
Zprime_UFO
# End   MODEL  # This is TAG. Do not modify this line
#*********************************************************************
# Start multiparticle definitions                                    *
#*********************************************************************
# Begin MULTIPARTICLES # This is TAG. Do not modify this line

# End  MULTIPARTICLES # This is TAG. Do not modify this line
</MGProcCard>
<MGRunCard>
#*********************************************************************
#                       MadGraph5_aMC@NLO                            *
#                                                                    *
#                     run_card.dat MadEvent                          *
#                                                                    *
#  This file is used to set the parameters of the run.               *
#                                                                    *
#  Some notation/conventions:                                        *
#                                                                    *
#   Lines starting with a '# ' are info or comments                  *
#                                                                    *
#   mind the format:   value    = variable     ! comment             *
#*********************************************************************
#
#*******************                                                 
# Running parameters
#*******************                                                 
#                                                                    
#*********************************************************************
# Tag name for the run (one word)                                    *
#*********************************************************************
  tag_1     = run_tag ! name of the run 
#*********************************************************************
# Run to generate the grid pack                                      *
#*********************************************************************
  .false.     = gridpack  !True = setting up the grid pack
#*********************************************************************
# Number of events and rnd seed                                      *
# Warning: Do not generate more than 1M events in a single run       *
# If you want to run Pythia, avoid more than 50k events in a run.    *
#*********************************************************************
  2000 = nevents ! Number of unweighted events requested 
 1650 = iseed   ! rnd seed (0=assigned automatically=default))
#*********************************************************************
# Collider type and energy                                           *
# lpp: 0=No PDF, 1=proton, -1=antiproton, 2=photon from proton,      *
#                                         3=photon from electron     *
#*********************************************************************
        1     = lpp1    ! beam 1 type 
        1     = lpp2    ! beam 2 type
     4000     = ebeam1  ! beam 1 total energy in GeV
     4000     = ebeam2  ! beam 2 total energy in GeV
#*********************************************************************
# Beam polarization from -100 (left-handed) to 100 (right-handed)    *
#*********************************************************************
        0     = polbeam1 ! beam polarization for beam 1
        0     = polbeam2 ! beam polarization for beam 2
#*********************************************************************
# PDF CHOICE: this automatically fixes also alpha_s and its evol.    *
#*********************************************************************
 'nn23lo1'    = pdlabel     ! PDF set                                     
 230000    = lhaid     ! if pdlabel=lhapdf, this is the lhapdf number
#*********************************************************************
# Renormalization and factorization scales                           *
#*********************************************************************
 F        = fixed_ren_scale  ! if .true. use fixed ren scale
 F        = fixed_fac_scale  ! if .true. use fixed fac scale
 91.1880  = scale            ! fixed ren scale
 91.1880  = dsqrt_q2fact1    ! fixed fact scale for pdf1
 91.1880  = dsqrt_q2fact2    ! fixed fact scale for pdf2
 1        = scalefact        ! scale factor for event-by-event scales
#*********************************************************************
# Matching - Warning! ickkw > 1 is still beta
#*********************************************************************
 0        = ickkw            ! 0 no matching, 1 MLM, 2 CKKW matching
 1        = highestmult      ! for ickkw=2, highest mult group
 1        = ktscheme         ! for ickkw=1, 1 Durham kT, 2 Pythia pTE
 1        = alpsfact         ! scale factor for QCD emission vx
 F        = chcluster        ! cluster only according to channel diag
 T        = pdfwgt           ! for ickkw=1, perform pdf reweighting
 5        = asrwgtflavor     ! highest quark flavor for a_s reweight
 T        = clusinfo         ! include clustering tag in output
 3.0      = lhe_version       ! Change the way clustering information pass to shower.        
#*********************************************************************
#**********************************************************
#
#**********************************************************
# Automatic ptj and mjj cuts if xqcut > 0
# (turn off for VBF and single top processes)
#**********************************************************
   T  = auto_ptj_mjj  ! Automatic setting of ptj and mjj
#**********************************************************
#                                                                    
#**********************************
# BW cutoff (M+/-bwcutoff*Gamma)
#**********************************
  15  = bwcutoff      ! (M+/-bwcutoff*Gamma)
#**********************************************************
# Apply pt/E/eta/dr/mij cuts on decay products or not
# (note that etmiss/ptll/ptheavy/ht/sorted cuts always apply)
#**********************************************************
   T  = cut_decays    ! Cut decay products 
#*************************************************************
# Number of helicities to sum per event (0 = all helicities)
# 0 gives more stable result, but longer run time (needed for
# long decay chains e.g.).
# Use >=2 if most helicities contribute, e.g. pure QCD.
#*************************************************************
   0  = nhel          ! Number of helicities used per event
#*******************                                                 
# Standard Cuts
#*******************                                                 
#                                                                    
#*********************************************************************
# Minimum and maximum pt's (for max, -1 means no cut)                *
#*********************************************************************
 20  = ptj       ! minimum pt for the jets 
  0  = ptb       ! minimum pt for the b 
 10  = pta       ! minimum pt for the photons 
 10  = ptl       ! minimum pt for the charged leptons 
  0  = misset    ! minimum missing Et (sum of neutrino's momenta)
  0  = ptheavy   ! minimum pt for one heavy final state
 1.0 = ptonium   ! minimum pt for the quarkonium states
 -1  = ptjmax    ! maximum pt for the jets
 -1  = ptbmax    ! maximum pt for the b
 -1  = ptamax    ! maximum pt for the photons
 -1  = ptlmax    ! maximum pt for the charged leptons
 -1  = missetmax ! maximum missing Et (sum of neutrino's momenta)
#*********************************************************************
# Minimum and maximum E's (in the center of mass frame)              *
#*********************************************************************
  0  = ej     ! minimum E for the jets 
  0  = eb     ! minimum E for the b 
  0  = ea     ! minimum E for the photons 
  0  = el     ! minimum E for the charged leptons 
 -1   = ejmax ! maximum E for the jets
 -1   = ebmax ! maximum E for the b
 -1   = eamax ! maximum E for the photons
 -1   = elmax ! maximum E for the charged leptons
#*********************************************************************
# Maximum and minimum absolute rapidity (for max, -1 means no cut)   *
#*********************************************************************
   5  = etaj    ! max rap for the jets 
  -1  = etab    ! max rap for the b
 2.5  = etaa    ! max rap for the photons 
 2.5  = etal    ! max rap for the charged leptons 
 0.6  = etaonium ! max rap for the quarkonium states
   0  = etajmin ! min rap for the jets
   0  = etabmin ! min rap for the b
   0  = etaamin ! min rap for the photons
   0  = etalmin ! main rap for the charged leptons
#*********************************************************************
# Minimum and maximum DeltaR distance                                *
#*********************************************************************
 0.4 = drjj    ! min distance between jets 
 0   = drbb    ! min distance between b's 
 0.4 = drll    ! min distance between leptons 
 0.4 = draa    ! min distance between gammas 
 0   = drbj    ! min distance between b and jet 
 0.4 = draj    ! min distance between gamma and jet 
 0.4 = drjl    ! min distance between jet and lepton 
 0   = drab    ! min distance between gamma and b 
 0   = drbl    ! min distance between b and lepton 
 0.4 = dral    ! min distance between gamma and lepton 
 -1  = drjjmax ! max distance between jets
 -1  = drbbmax ! max distance between b's
 -1  = drllmax ! max distance between leptons
 -1  = draamax ! max distance between gammas
 -1  = drbjmax ! max distance between b and jet
 -1  = drajmax ! max distance between gamma and jet
 -1  = drjlmax ! max distance between jet and lepton
 -1  = drabmax ! max distance between gamma and b
 -1  = drblmax ! max distance between b and lepton
 -1  = dralmax ! maxdistance between gamma and lepton
#*********************************************************************
# Minimum and maximum invariant mass for pairs                       *
# WARNING: for four lepton final state mmll cut require to have      *
#          different lepton masses for each flavor!                  *           
#*********************************************************************
 0   = mmjj    ! min invariant mass of a jet pair 
 0   = mmbb    ! min invariant mass of a b pair 
 0   = mmaa    ! min invariant mass of gamma gamma pair
 0   = mmll    ! min invariant mass of l+l- (same flavour) lepton pair
 -1  = mmjjmax ! max invariant mass of a jet pair
 -1  = mmbbmax ! max invariant mass of a b pair
 -1  = mmaamax ! max invariant mass of gamma gamma pair
 -1  = mmllmax ! max invariant mass of l+l- (same flavour) lepton pair
#*********************************************************************
# Minimum and maximum invariant mass for all letpons                 *
#*********************************************************************
 0   = mmnl    ! min invariant mass for all letpons (l+- and vl) 
 -1  = mmnlmax ! max invariant mass for all letpons (l+- and vl) 
#*********************************************************************
# Minimum and maximum pt for 4-momenta sum of leptons                *
#*********************************************************************
 0   = ptllmin  ! Minimum pt for 4-momenta sum of leptons(l and vl)
 -1  = ptllmax  ! Maximum pt for 4-momenta sum of leptons(l and vl)
#*********************************************************************
# Inclusive cuts                                                     *
#*********************************************************************
 0  = xptj ! minimum pt for at least one jet  
 0  = xptb ! minimum pt for at least one b 
 0  = xpta ! minimum pt for at least one photon 
 0  = xptl ! minimum pt for at least one charged lepton 
#*********************************************************************
# Control the pt's of the jets sorted by pt                          *
#*********************************************************************
 0   = ptj1min ! minimum pt for the leading jet in pt
 0   = ptj2min ! minimum pt for the second jet in pt
 0   = ptj3min ! minimum pt for the third jet in pt
 0   = ptj4min ! minimum pt for the fourth jet in pt
 -1  = ptj1max ! maximum pt for the leading jet in pt 
 -1  = ptj2max ! maximum pt for the second jet in pt
 -1  = ptj3max ! maximum pt for the third jet in pt
 -1  = ptj4max ! maximum pt for the fourth jet in pt
 0   = cutuse  ! reject event if fails any (0) / all (1) jet pt cuts
#*********************************************************************
# Control the pt's of leptons sorted by pt                           *
#*********************************************************************
 0   = ptl1min ! minimum pt for the leading lepton in pt
 0   = ptl2min ! minimum pt for the second lepton in pt
 0   = ptl3min ! minimum pt for the third lepton in pt
 0   = ptl4min ! minimum pt for the fourth lepton in pt
 -1  = ptl1max ! maximum pt for the leading lepton in pt 
 -1  = ptl2max ! maximum pt for the second lepton in pt
 -1  = ptl3max ! maximum pt for the third lepton in pt
 -1  = ptl4max ! maximum pt for the fourth lepton in pt
#*********************************************************************
# Control the Ht(k)=Sum of k leading jets                            *
#*********************************************************************
 0   = htjmin ! minimum jet HT=Sum(jet pt)
 -1  = htjmax ! maximum jet HT=Sum(jet pt)
 0   = ihtmin  !inclusive Ht for all partons (including b)
 -1  = ihtmax  !inclusive Ht for all partons (including b)
 0   = ht2min ! minimum Ht for the two leading jets
 0   = ht3min ! minimum Ht for the three leading jets
 0   = ht4min ! minimum Ht for the four leading jets
 -1  = ht2max ! maximum Ht for the two leading jets
 -1  = ht3max ! maximum Ht for the three leading jets
 -1  = ht4max ! maximum Ht for the four leading jets
#***********************************************************************
# Photon-isolation cuts, according to hep-ph/9801442                   *
# When ptgmin=0, all the other parameters are ignored                  *
# When ptgmin>0, pta and draj are not going to be used                 *
#***********************************************************************
   0 = ptgmin ! Min photon transverse momentum
 0.4 = R0gamma ! Radius of isolation code
 1.0 = xn ! n parameter of eq.(3.4) in hep-ph/9801442
 1.0 = epsgamma ! epsilon_gamma parameter of eq.(3.4) in hep-ph/9801442
 .true. = isoEM ! isolate photons from EM energy (photons and leptons)
#*********************************************************************
# WBF cuts                                                           *
#*********************************************************************
 0   = xetamin ! minimum rapidity for two jets in the WBF case  
 0   = deltaeta ! minimum rapidity for two jets in the WBF case 
#*********************************************************************
# KT DURHAM CUT                                                      *
#*********************************************************************
 -1    =  ktdurham        
 0.4  =  dparameter 
#*********************************************************************
# maximal pdg code for quark to be considered as a light jet         *
# (otherwise b cuts are applied)                                     *
#*********************************************************************
 4 = maxjetflavor    ! Maximum jet pdg code
#*********************************************************************
# Jet measure cuts                                                   *
#*********************************************************************
 0   = xqcut   ! minimum kt jet measure between partons
#*********************************************************************
#
#*********************************************************************
# Store info for systematics studies                                 *
# WARNING: If use_syst is T, matched Pythia output is                *
#          meaningful ONLY if plotted taking matchscale              *
#          reweighting into account!                                 *
#*********************************************************************
   F  = use_syst      ! Enable systematics studies
#
#**************************************
# Parameter of the systematics study
#  will be used by SysCalc (if installed)
#**************************************                                  
#
0.5 1 2 = sys_scalefact  # factorization/renormalization scale factor
0.5 1 2 = sys_alpsfact  # \alpha_s emission scale factors
30 50 = sys_matchscale # variation of merging scale
# PDF sets and number of members (0 or none for all members).
CT10nlo.LHgrid = sys_pdf # matching scales
# MSTW2008nlo68cl.LHgrid 1  = sys_pdf
</MGRunCard>
<slha>
######################################################################
## PARAM_CARD AUTOMATICALY GENERATED BY MG5 FOLLOWING UFO MODEL   ####
######################################################################
##                                                                  ##
##  Width set on Auto will be computed following the information    ##
##        present in the decay.py files of the model.               ##
##        See  arXiv:1402.1178 for more details.                    ##
##                                                                  ##
######################################################################

###################################
## INFORMATION FOR CKMBLOCK
###################################
Block ckmblock 
    1 2.277360e-01 # cabi 

###################################
## INFORMATION FOR FRBLOCK
###################################
Block frblock 
    1 8.000000e-01 # gz 

###################################
## INFORMATION FOR MASS
###################################
Block mass 
    1 5.040000e-03 # MD 
    2 2.550000e-03 # MU 
    3 1.010000e-01 # MS 
    4 1.270000e+00 # MC 
    5 4.700000e+00 # MB 
    6 1.720000e+02 # MT 
   11 5.110000e-04 # Me 
   13 1.056600e-01 # MM 
   15 1.777000e+00 # MTA 
   23 9.118760e+01 # MZ 
   25 1.200000e+02 # MH 
  10030 2.500000e+03 # MZph 
  10031 3.000000e+02 # MZpl 
## Dependent parameters, given by model restrictions.
## Those values should be edited following the 
## analytical expression. MG5 ignores those values 
## but they are important for interfacing the output of MG5
## to external program such as Pythia.
  12 0.000000 # ve : 0.0 
  14 0.000000 # vm : 0.0 
  16 0.000000 # vt : 0.0 
  21 0.000000 # g : 0.0 
  22 0.000000 # a : 0.0 
  24 79.824360 # w+ : cmath.sqrt(MZ__exp__2/2. + cmath.sqrt(MZ__exp__4/4. - (aEW*cmath.pi*MZ__exp__2)/(Gf*sqrt__2))) 

###################################
## INFORMATION FOR SMINPUTS
###################################
Block sminputs 
    1 1.279000e+02 # aEWM1 
    2 1.166370e-05 # Gf 
    3 1.184000e-01 # aS 

###################################
## INFORMATION FOR YUKAWA
###################################
Block yukawa 
    1 5.040000e-03 # ymdo 
    2 2.550000e-03 # ymup 
    3 1.010000e-01 # yms 
    4 1.270000e+00 # ymc 
    5 4.700000e+00 # ymb 
    6 1.720000e+02 # ymt 
   11 5.110000e-04 # yme 
   13 1.056600e-01 # ymm 
   15 1.777000e+00 # ymtau 

###################################
## INFORMATION FOR DECAY
###################################
DECAY   6 1.508336e+00 # WT 
DECAY  23 2.495200e+00 # WZ 
DECAY  24 2.085000e+00 # WW 
DECAY  25 5.753088e-03 # WH 
## Dependent parameters, given by model restrictions.
## Those values should be edited following the 
## analytical expression. MG5 ignores those values 
## but they are important for interfacing the output of MG5
## to external program such as Pythia.
DECAY  1 0.000000 # d : 0.0 
DECAY  2 0.000000 # u : 0.0 
DECAY  3 0.000000 # s : 0.0 
DECAY  4 0.000000 # c : 0.0 
DECAY  5 0.000000 # b : 0.0 
DECAY  11 0.000000 # e- : 0.0 
DECAY  12 0.000000 # ve : 0.0 
DECAY  13 0.000000 # mu- : 0.0 
DECAY  14 0.000000 # vm : 0.0 
DECAY  15 0.000000 # ta- : 0.0 
DECAY  16 0.000000 # vt : 0.0 
DECAY  21 0.000000 # g : 0.0 
DECAY  22 0.000000 # a : 0.0 
DECAY  10030 0.308725 # zph : (gz__exp__2*MZph*(5 + cmath.sqrt(1 - (4*MT__exp__2)/MZph__exp__2)))/(144.*cmath.pi) 
DECAY  10031 0.132629 # zpl : (5*gz__exp__2*MZpl)/(144.*cmath.pi) 
#===========================================================
# QUANTUM NUMBERS OF NEW STATE(S) (NON SM PDG CODE)
#===========================================================

Block QNUMBERS 10030  # zph 
        1 0  # 3 times electric charge
        2 3  # number of spin states (2S+1)
        3 1  # colour rep (1: singlet, 3: triplet, 8: octet)
        4 0  # Particle/Antiparticle distinction (0=own anti)
Block QNUMBERS 10031  # zpl 
        1 0  # 3 times electric charge
        2 3  # number of spin states (2S+1)
        3 1  # colour rep (1: singlet, 3: triplet, 8: octet)
        4 0  # Particle/Antiparticle distinction (0=own anti)
</slha>
## END BANNER##
<MGGenerationInfo>
#  Number of Events        :         3915
#  Integrated weight (pb)  :  0.41317E-02
#  Max wgt                 :  0.15727E-05
#  Average wgt             :  0.10554E-05
</MGGenerationInfo>
</header>
<init>
     2212     2212  0.40000000000E+04  0.40000000000E+04 0 0  247000  247000 2   1
  0.41350552606E-02  0.80997723056E-05  0.15727320000E-05   0
</init>
<event>
 5   0  0.1572732E-05  0.2485024E+04  0.7818609E-02  0.8408340E-01
        2   -1    0    0  501    0  0.00000000000E+00  0.00000000000E+00  0.98896973150E+03  0.98896973150E+03  0.25500000920E-02 0.  1.
       -2   -1    0    0    0  501  0.00000000000E+00  0.00000000000E+00 -0.15610546028E+04  0.15610546028E+04  0.25500000920E-02 0. -1.
    10030    2    1    2    0    0  0.00000000000E+00  0.00000000000E+00 -0.57208487129E+03  0.25500243343E+04  0.24850237435E+04 0.  0.
        1    1    3    3  502    0 -0.14273171517E+03  0.54224721475E+03 -0.14238424289E+04  0.15302717558E+04  0.50400001928E-02 0. -1.
       -1    1    3    3    0  502  0.14273171517E+03 -0.54224721475E+03  0.85175755756E+03  0.10197525785E+04  0.50400001928E-02 0.  1.
</event>
<event>
 5   0  0.1572732E-05  0.2643496E+04  0.7818609E-02  0.8353575E-01
       -2   -1    0    0    0  501  0.00000000000E+00  0.00000000000E+00  0.29302227902E+04  0.29302227902E+04  0.25500000920E-02 0.  1.
        2   -1    0    0  501    0  0.00000000000E+00  0.00000000000E+00 -0.59620632002E+03  0.59620632003E+03  0.25500000920E-02 0. -1.
    10030    2    1    2    0    0  0.00000000000E+00  0.00000000000E+00  0.23340164702E+04  0.35264291103E+04  0.26434956755E+04 0.  0.
        1    1    3    3  502    0  0.56354365917E+03 -0.13543981795E+03  0.27516613558E+04  0.28120394053E+04  0.50400001928E-02 0.  1.
       -1    1    3    3    0  502 -0.56354365917E+03  0.13543981795E+03 -0.41764488557E+03  0.71438970496E+03  0.50400001928E-02 0. -1.
</event>
<event>
 5   0  0.1501947E-05  0.2584464E+04  0.7818609E-02  0.8373498E-01
       -2   -1    0    0    0  501  0.00000000000E+00  0.00000000000E+00  0.11020402448E+04  0.11020402448E+04  0.25500000920E-02 0.  1.
        2   -1    0    0  501    0  0.00000000000E+00  0.00000000000E+00 -0.15152472708E+04  0.15152472708E+04  0.25500000920E-02 0. -1.
    10030    2    1    2    0    0  0.00000000000E+00  0.00000000000E+00 -0.41320702606E+03  0.26172875156E+04  0.25844639469E+04 0.  0.
        3    1    3    3  502    0 -0.75153913857E+03 -0.39221832089E+03 -0.11942938321E+04  0.14645764083E+04  0.10100000352E+00 0. -1.
       -3    1    3    3    0  502  0.75153913857E+03  0.39221832089E+03  0.78108680608E+03  0.11527111073E+04  0.10100000352E+00 0.  1.
</event>
<event>
 5   0  0.1572732E-05  0.2505446E+04  0.7818609E-02  0.8401048E-01
       -2   -1    0    0    0  501  0.00000000000E+00  0.00000000000E+00  0.71902158053E+03  0.71902158054E+03  0.25500000920E-02 0.  1.
        2   -1    0    0  501    0  0.00000000000E+00  0.00000000000E+00 -0.21825706624E+04  0.21825706624E+04  0.25500000920E-02 0. -1.
    10030    2    1    2    0    0  0.00000000000E+00  0.00000000000E+00 -0.14635490819E+04  0.29015922430E+04  0.25054463932E+04 0.  0.
        1    1    3    3  502    0 -0.61079784906E+03 -0.10476204455E+04 -0.10956744833E+04  0.16343454909E+04  0.50400001928E-02 0.  1.
       -1    1    3    3    0  502  0.61079784906E+03  0.10476204455E+04 -0.36787459862E+03  0.12672467521E+04  0.50400001928E-02 0. -1.
</event>
<event>
 5   0  0.1501947E-05  0.2530695E+04  0.7818609E-02  0.8392131E-01
       -2   -1    0    0    0  501  0.00000000000E+00  0.00000000000E+00  0.83794919556E+03  0.83794919556E+03  0.25500000920E-02 0.  1.
        2   -1    0    0  501    0  0.00000000000E+00  0.00000000000E+00 -0.19107420253E+04  0.19107420253E+04  0.25500000920E-02 0. -1.
    10030    2    1    2    0    0  0.00000000000E+00  0.00000000000E+00 -0.10727928297E+04  0.27486912208E+04  0.25306953535E+04 0.  0.
        3    1    3    3  502    0  0.11321864961E+04  0.55949738306E+03 -0.62206496160E+03  0.14077813787E+04  0.10100000352E+00 0. -1.
       -3    1    3    3    0  502 -0.11321864961E+04 -0.55949738306E+03 -0.45072786810E+03  0.13409098421E+04  0.10100000352E+00 0.  1.
</event>
<event>
 5   0  0.6290861E-06  0.2509595E+04  0.7818609E-02  0.8399575E-01
        1   -1    0    0  501    0  0.00000000000E+00  0.00000000000E+00  0.12785040937E+04  0.12785040937E+04  0.50400001928E-02 0. -1.
       -1   -1    0    0    0  501  0.00000000000E+00  0.00000000000E+00 -0.12315303505E+04  0.12315303505E+04  0.50400001928E-02 0.  1.
    10030    2    1    2    0    0  0.00000000000E+00  0.00000000000E+00  0.46973743174E+02  0.25100344441E+04  0.25095948634E+04 0.  0.
        1    1    3    3  502    0 -0.12378837651E+04 -0.20260689969E+03  0.56821718515E+02  0.12556410631E+04  0.50400001928E-02 0.  1.
       -1    1    3    3    0  502  0.12378837651E+04  0.20260689969E+03 -0.98479753415E+01  0.12543933810E+04  0.50400001928E-02 0. -1.
</event>
<event>
 5   0  0.6105353E-06  0.2495476E+04  0.7818609E-02  0.8404599E-01
        1   -1    0    0  501    0  0.00000000000E+00  0.00000000000E+00  0.81664015889E+03  0.81664015890E+03  0.50400001928E-02 0.  1.
       -1   -1    0    0    0  501  0.00000000000E+00  0.00000000000E+00 -0.19064093790E+04  0.19064093790E+04  0.50400001928E-02 0. -1.
    10030    2    1    2    0    0  0.00000000000E+00  0.00000000000E+00 -0.10897692201E+04  0.27230495379E+04  0.24954762737E+04 0.  0.
        3    1    3    3  502    0 -0.24032103686E+03  0.24893347139E+03 -0.18530115178E+04  0.18850394609E+04  0.10100000352E+00 0. -1.
       -3    1    3    3    0  502  0.24032103686E+03 -0.24893347139E+03  0.76324229769E+03  0.83801007698E+03  0.10100000352E+00 0.  1.
</event>
<event>
 5   0  0.1572732E-05  0.2461188E+04  0.7818609E-02  0.8416944E-01
        2   -1    0    0  501    0  0.00000000000E+00  0.00000000000E+00  0.84288962199E+03  0.84288962199E+03  0.25500000920E-02 0. -1.
       -2   -1    0    0    0  501  0.00000000000E+00  0.00000000000E+00 -0.17966310886E+04  0.17966310886E+04  0.25500000920E-02 0.  1.
    10030    2    1    2    0    0  0.00000000000E+00  0.00000000000E+00 -0.95374146660E+03  0.26395207106E+04  0.24611880864E+04 0.  0.
        1    1    3    3  502    0 -0.10783257333E+04 -0.46798391221E+03 -0.86392390197E+02  0.11786683055E+04  0.50400001928E-02 0. -1.
       -1    1    3    3    0  502  0.10783257333E+04  0.46798391221E+03 -0.86734907640E+03  0.14608524051E+04  0.50400001928E-02 0.  1.
</event>
<event>
 5   0  0.6104486E-06  0.2486540E+04  0.7818609E-02  0.8407797E-01
        1   -1    0    0  501    0  0.00000000000E+00  0.00000000000E+00  0.10027494099E+04  0.10027494099E+04  0.50400001928E-02 0. -1.
       -1   -1    0    0    0  501  0.00000000000E+00  0.00000000000E+00 -0.15414817320E+04  0.15414817320E+04  0.50400001928E-02 0.  1.
    10030    2    1    2    0    0  0.00000000000E+00  0.00000000000E+00 -0.53873232212E+03  0.25442311419E+04  0.24865396817E+04 0.  0.
        2    1    3    3  502    0 -0.25496870624E+03  0.60172364470E+02 -0.15129202211E+04  0.15354339289E+04  0.25500000920E-02 0.  1.
       -2    1    3    3    0  502  0.25496870624E+03 -0.60172364470E+02  0.97418789894E+03  0.10087972131E+04  0.25500000920E-02 0. -1.
</event>
<event>
 5   0  0.1572732E-05  0.2472384E+04  0.7818609E-02  0.8412891E-01
        2   -1    0    0  501    0  0.00000000000E+00  0.00000000000E+00  0.13388472321E+04  0.13388472321E+04  0.25500000920E-02 0.  1.
       -2   -1    0    0    0  501  0.00000000000E+00  0.00000000000E+00 -0.11414074779E+04  0.11414074780E+04  0.25500000920E-02 0. -1.
    10030    2    1    2    0    0  0.00000000000E+00  0.00000000000E+00  0.19743975413E+03  0.24802547100E+04  0.24723836616E+04 0.  0.
        1    1    3    3  502    0  0.11014947442E+04  0.25594120980E+03  0.59968295075E+03  0.12800063343E+04  0.50400001928E-02 0.  1.
       -1    1    3    3    0  502 -0.11014947442E+04 -0.25594120980E+03 -0.40224319661E+03  0.12002483758E+04  0.50400001928E-02 0. -1.
</event>
<event>
 5   0  0.6104486E-06  0.2424752E+04  0.7818609E-02  0.8430294E-01
       -1   -1    0    0    0  501  0.00000000000E+00  0.00000000000E+00  0.81741827062E+03  0.81741827063E+03  0.50400001928E-02 0. -1.
        1   -1    0    0  501    0  0.00000000000E+00  0.00000000000E+00 -0.17981689309E+04  0.17981689309E+04  0.50400001928E-02 0.  1.
    10030    2    1    2    0    0  0.00000000000E+00  0.00000000000E+00 -0.98075066030E+03  0.26155872016E+04  0.24247524722E+04 0.  0.
        2    1    3    3  502    0 -0.95940402466E+03  0.30761989669E+03  0.23706558204E+03  0.10350295520E+04  0.25500000920E-02 0. -1.
       -2    1    3    3    0  502  0.95940402466E+03 -0.30761989669E+03 -0.12178162423E+04  0.15805576495E+04  0.25500000920E-02 0.  1.
</event>
<event>
 5   0  0.1550483E-05  0.2501729E+04  0.7818609E-02  0.8402370E-01
       -2   -1    0    0    0  501  0.00000000000E+00  0.00000000000E+00  0.11262263475E+04  0.11262263475E+04  0.25500000920E-02 0.  1.
        2   -1    0    0  501    0  0.00000000000E+00  0.00000000000E+00 -0.13892959872E+04  0.13892959872E+04  0.25500000920E-02 0. -1.
    10030    2    1    2    0    0  0.00000000000E+00  0.00000000000E+00 -0.26306963968E+03  0.25155223347E+04  0.25017287985E+04 0.  0.
        5    1    3    3  502    0 -0.45049121499E+03 -0.13072405282E+03  0.10344311704E+04  0.11358261526E+04  0.46999998093E+01 0.  1.
       -5    1    3    3    0  502  0.45049121499E+03  0.13072405282E+03 -0.12975008101E+04  0.13796961821E+04  0.46999998093E+01 0. -1.
</event>
<event>
 5   0  0.6477703E-06  0.2453921E+04  0.7818609E-02  0.8419588E-01
       -1   -1    0    0    0  501  0.00000000000E+00  0.00000000000E+00  0.13824673692E+04  0.13824673692E+04  0.50400001928E-02 0. -1.
        1   -1    0    0  501    0  0.00000000000E+00  0.00000000000E+00 -0.10889461190E+04  0.10889461190E+04  0.50400001928E-02 0.  1.
    10030    2    1    2    0    0  0.00000000000E+00  0.00000000000E+00  0.29352125023E+03  0.24714134882E+04  0.24539213324E+04 0.  0.
        5    1    3    3  502    0  0.44140678772E+03  0.10502412764E+04  0.60559978260E+03  0.12902014872E+04  0.46999998093E+01 0. -1.
       -5    1    3    3    0  502 -0.44140678772E+03 -0.10502412764E+04 -0.31207853237E+03  0.11812120010E+04  0.46999998093E+01 0.  1.
</event>
<event>
 5   0  0.6290861E-06  0.2410862E+04  0.7818609E-02  0.8435448E-01
        1   -1    0    0  501    0  0.00000000000E+00  0.00000000000E+00  0.15302821391E+04  0.15302821392E+04  0.50400001928E-02 0.  1.
       -1   -1    0    0    0  501  0.00000000000E+00  0.00000000000E+00 -0.94953970367E+03  0.94953970369E+03  0.50400001928E-02 0. -1.
    10030    2    1    2    0    0  0.00000000000E+00  0.00000000000E+00  0.58074243547E+03  0.24798218428E+04  0.24108617953E+04 0.  0.
        1    1    3    3  502    0  0.31439060197E+03  0.51660802090E+03 -0.78221081916E+03  0.98872597999E+03  0.50400001928E-02 0. -1.
       -1    1    3    3    0  502 -0.31439060197E+03 -0.51660802090E+03  0.13629532546E+04  0.14910958629E+04  0.50400001928E-02 0.  1.
</event>
<event>
 5   0  0.6105353E-06  0.2498772E+04  0.7818609E-02  0.8403423E-01
       -1   -1    0    0    0  501  0.00000000000E+00  0.00000000000E+00  0.99660916625E+03  0.99660916626E+03  0.50400001928E-02 0.  1.
        1   -1    0    0  501    0  0.00000000000E+00  0.00000000000E+00 -0.15662761327E+04  0.15662761327E+04  0.50400001928E-02 0. -1.
    10030    2    1    2    0    0  0.00000000000E+00  0.00000000000E+00 -0.56966696646E+03  0.25628852990E+04  0.24987718189E+04 0.  0.
        3    1    3    3  502    0 -0.74686349549E+03 -0.90008152774E+03  0.16577170938E+03  0.11812840925E+04  0.10100000352E+00 0.  1.
       -3    1    3    3    0  502  0.74686349549E+03  0.90008152774E+03 -0.73543867584E+03  0.13816012064E+04  0.10100000352E+00 0. -1.
</event>
<event>
 5   0  0.6105353E-06  0.2483651E+04  0.7818609E-02  0.8408833E-01
        1   -1    0    0  501    0  0.00000000000E+00  0.00000000000E+00  0.16496415114E+04  0.16496415114E+04  0.50400001928E-02 0. -1.
       -1   -1    0    0    0  501  0.00000000000E+00  0.00000000000E+00 -0.93482767365E+03  0.93482767366E+03  0.50400001928E-02 0.  1.
    10030    2    1    2    0    0  0.00000000000E+00  0.00000000000E+00  0.71481383779E+03  0.25844691851E+04  0.24836509711E+04 0.  0.
        3    1    3    3  502    0 -0.62712840374E+03 -0.96204695571E+03 -0.13432809462E+03  0.11562302655E+04  0.10100000352E+00 0.  1.
       -3    1    3    3    0  502  0.62712840374E+03  0.96204695571E+03  0.84914193241E+03  0.14282389196E+04  0.10100000352E+00 0. -1.
</event>
<event>
 5   0  0.1572732E-05  0.2514753E+04  0.7818609E-02  0.8397748E-01
       -2   -1    0    0    0  501  0.00000000000E+00  0.00000000000E+00  0.72460291223E+03  0.72460291223E+03  0.25500000920E-02 0.  1.
        2   -1    0    0  501    0  0.00000000000E+00  0.00000000000E+00 -0.21818788997E+04  0.21818788997E+04  0.25500000920E-02 0. -1.
    10030    2    1    2    0    0  0.00000000000E+00  0.00000000000E+00 -0.14572759875E+04  0.29064818119E+04  0.25147531130E+04 0.  0.
        1    1    3    3  502    0 -0.10333142215E+04  0.35643666469E+03 -0.10373739686E+02  0.10931116095E+04  0.50400001928E-02 0. -1.
       -1    1    3    3    0  502  0.10333142215E+04 -0.35643666469E+03 -0.14469022478E+04  0.18133702024E+04  0.50400001928E-02 0.  1.
</event>
<event>
 5   0  0.6346420E-06  0.2501817E+04  0.7818609E-02  0.8402339E-01
       -1   -1    0    0    0  501  0.00000000000E+00  0.00000000000E+00  0.79271766322E+03  0.79271766323E+03  0.50400001928E-02 0.  1.
        1   -1    0    0  501    0  0.00000000000E+00  0.00000000000E+00 -0.19739335689E+04  0.19739335689E+04  0.50400001928E-02 0. -1.
    10030    2    1    2    0    0  0.00000000000E+00  0.00000000000E+00 -0.11812159057E+04  0.27666512321E+04  0.25018169446E+04 0.  0.
        4    1    3    3  502    0  0.27717692419E+03 -0.45563866604E+03  0.66069074095E+03  0.84908627911E+03  0.12699999809E+01 0.  1.
       -4    1    3    3    0  502 -0.27717692419E+03  0.45563866604E+03 -0.18419066466E+04  0.19175649530E+04  0.12699999809E+01 0. -1.
</event>
<event>
 5   0  0.6290861E-06  0.2502002E+04  0.7818609E-02  0.8402273E-01
        1   -1    0    0  501    0  0.00000000000E+00  0.00000000000E+00  0.14902294309E+04  0.14902294309E+04  0.50400001928E-02 0. -1.
       -1   -1    0    0    0  501  0.00000000000E+00  0.00000000000E+00 -0.10501763562E+04  0.10501763562E+04  0.50400001928E-02 0.  1.
    10030    2    1    2    0    0  0.00000000000E+00  0.00000000000E+00  0.44005307466E+03  0.25404057871E+04  0.25020021692E+04 0.  0.
        1    1    3    3  502    0 -0.66212972973E+03 -0.42193037706E+03  0.12089175527E+04  0.14415001462E+04  0.50400001928E-02 0. -1.
       -1    1    3    3    0  502  0.66212972973E+03  0.42193037706E+03 -0.76886447807E+03  0.10989056410E+04  0.50400001928E-02 0.  1.
</event>
<event>
 5   0  0.1526824E-05  0.2485776E+04  0.7818609E-02  0.8408071E-01
       -2   -1    0    0    0  501  0.00000000000E+00  0.00000000000E+00  0.60650509939E+03  0.60650509939E+03  0.25500000920E-02 0.  1.
        2   -1    0    0  501    0  0.00000000000E+00  0.00000000000E+00 -0.25470025375E+04  0.25470025375E+04  0.25500000920E-02 0. -1.
    10030    2    1    2    0    0  0.00000000000E+00  0.00000000000E+00 -0.19404974381E+04  0.31535076369E+04  0.24857755547E+04 0.  0.
        2    1    3    3  502    0 -0.10064701466E+04 -0.71237872777E+03 -0.77247225871E+03  0.14550529194E+04  0.25500000920E-02 0. -1.
       -2    1    3    3    0  502  0.10064701466E+04  0.71237872777E+03 -0.11680251794E+04  0.16984547175E+04  0.25500000920E-02 0.  1.
</event>
<event>
 5   0  0.6105353E-06  0.2557125E+04  0.7818609E-02  0.8382912E-01
       -1   -1    0    0    0  501  0.00000000000E+00  0.00000000000E+00  0.13999901176E+04  0.13999901176E+04  0.50400001928E-02 0. -1.
        1   -1    0    0  501    0  0.00000000000E+00  0.00000000000E+00 -0.11676668690E+04  0.11676668690E+04  0.50400001928E-02 0.  1.
    10030    2    1    2    0    0  0.00000000000E+00  0.00000000000E+00  0.23232324858E+03  0.25676569866E+04  0.25571250085E+04 0.  0.
        3    1    3    3  502    0  0.10719861817E+04 -0.22810887865E+03  0.77730651188E+03  0.13436493062E+04  0.10100000352E+00 0. -1.
       -3    1    3    3    0  502 -0.10719861817E+04  0.22810887865E+03 -0.54498326329E+03  0.12240076805E+04  0.10100000352E+00 0.  1.
</event>
<event>
 5   0  0.1501947E-05  0.2483320E+04  0.7818609E-02  0.8408952E-01
        2   -1    0    0  501    0  0.00000000000E+00  0.00000000000E+00  0.11987947670E+04  0.11987947670E+04  0.25500000920E-02 0. -1.
       -2   -1    0    0    0  501  0.00000000000E+00  0.00000000000E+00 -0.12860574538E+04  0.12860574538E+04  0.25500000920E-02 0.  1.
    10030    2    1    2    0    0  0.00000000000E+00  0.00000000000E+00 -0.87262686749E+02  0.24848522208E+04  0.24833195088E+04 0.  0.
        3    1    3    3  502    0  0.21456213816E+03 -0.10886625089E+04  0.51393422438E+03  0.12228456021E+04  0.10100000352E+00 0. -1.
       -3    1    3    3    0  502 -0.21456213816E+03  0.10886625089E+04 -0.60119691113E+03  0.12620066187E+04  0.10100000352E+00 0.  1.
</event>
<event>
 5   0  0.6290861E-06  0.2501325E+04  0.7818609E-02  0.8402514E-01
       -1   -1    0    0    0  501  0.00000000000E+00  0.00000000000E+00  0.10909067660E+04  0.10909067660E+04  0.50400001928E-02 0.  1.
        1   -1    0    0  501    0  0.00000000000E+00  0.00000000000E+00 -0.14338136156E+04  0.14338136156E+04  0.50400001928E-02 0. -1.
    10030    2    1    2    0    0  0.00000000000E+00  0.00000000000E+00 -0.34290684961E+03  0.25247203816E+04  0.25013252284E+04 0.  0.
        1    1    3    3  502    0 -0.48259053296E+03  0.11102700388E+04  0.14543168039E+03  0.12193209403E+04  0.50400001928E-02 0.  1.
       -1    1    3    3    0  502  0.48259053296E+03 -0.11102700388E+04 -0.48833852999E+03  0.13053994414E+04  0.50400001928E-02 0. -1.
</event>
<event>
 5   0  0.1526824E-05  0.2507145E+04  0.7818609E-02  0.8400445E-01
        2   -1    0    0  501    0  0.00000000000E+00  0.00000000000E+00  0.50463252741E+03  0.50463252742E+03  0.25500000920E-02 0. -1.
       -2   -1    0    0    0  501  0.00000000000E+00  0.00000000000E+00 -0.31140361175E+04  0.31140361175E+04  0.25500000920E-02 0.  1.
    10030    2    1    2    0    0  0.00000000000E+00  0.00000000000E+00 -0.26094035901E+04  0.36186686449E+04  0.25071449232E+04 0.  0.
        2    1    3    3  502    0 -0.91689298612E+03  0.20904262536E+03 -0.10833515871E+03  0.94664041422E+03  0.25500000920E-02 0. -1.
       -2    1    3    3    0  502  0.91689298612E+03 -0.20904262536E+03 -0.25010684314E+04  0.26720282307E+04  0.25500000920E-02 0.  1.
</event>
<event>
 5   0  0.6104486E-06  0.2575081E+04  0.7818609E-02  0.8376715E-01
       -1   -1    0    0    0  501  0.00000000000E+00  0.00000000000E+00  0.31385825431E+04  0.31385825431E+04  0.50400001928E-02 0. -1.
        1   -1    0    0  501    0  0.00000000000E+00  0.00000000000E+00 -0.52818759431E+03  0.52818759434E+03  0.50400001928E-02 0.  1.
    10030    2    1    2    0    0  0.00000000000E+00  0.00000000000E+00  0.26103949488E+04  0.36667701374E+04  0.25750808632E+04 0.  0.
        2    1    3    3  502    0 -0.45628068632E+03  0.11840818034E+04  0.16155994997E+04  0.20543620726E+04  0.25500000920E-02 0. -1.
       -2    1    3    3    0  502  0.45628068632E+03 -0.11840818034E+04  0.99479544908E+03  0.16124080648E+04  0.25500000920E-02 0.  1.
</event>
<event>
 5   0  0.1501947E-05  0.2489395E+04  0.7818609E-02  0.8406773E-01
        2   -1    0    0  501    0  0.00000000000E+00  0.00000000000E+00  0.17833012524E+04  0.17833012524E+04  0.25500000920E-02 0. -1.
       -2   -1    0    0    0  501  0.00000000000E+00  0.00000000000E+00 -0.86876622757E+03  0.86876622757E+03  0.25500000920E-02 0.  1.
    10030    2    1    2    0    0  0.00000000000E+00  0.00000000000E+00  0.91453502482E+03  0.26520674800E+04  0.24893950283E+04 0.  0.
        3    1    3    3  502    0 -0.38055225248E+03  0.67586663495E+03 -0.57982177626E+03  0.96840540454E+03  0.10100000352E+00 0.  1.
       -3    1    3    3    0  502  0.38055225248E+03 -0.67586663495E+03  0.14943568011E+04  0.16836620754E+04  0.10100000352E+00 0. -1.
</event>
<event>
 5   0  0.1550483E-05  0.2495428E+04  0.7818609E-02  0.8404616E-01
       -2   -1    0    0    0  501  0.00000000000E+00  0.00000000000E+00  0.78935347469E+03  0.78935347470E+03  0.25500000920E-02 0. -1.
        2   -1    0    0  501    0  0.00000000000E+00  0.00000000000E+00 -0.19722340282E+04  0.19722340282E+04  0.25500000920E-02 0.  1.
    10030    2    1    2    0    0  0.00000000000E+00  0.00000000000E+00 -0.11828805535E+04  0.27615875029E+04  0.24954276452E+04 0.  0.
        5    1    3    3  502    0  0.50061216884E+03 -0.80727146143E+03 -0.14867184862E+04  0.17642714369E+04  0.46999998093E+01 0.  1.
       -5    1    3    3    0  502 -0.50061216884E+03  0.80727146143E+03  0.30383793270E+03  0.99731606594E+03  0.46999998093E+01 0. -1.
</event>
<event>
 5   0  0.6104486E-06  0.2502420E+04  0.7818609E-02  0.8402124E-01
        1   -1    0    0  501    0  0.00000000000E+00  0.00000000000E+00  0.17028856008E+04  0.17028856008E+04  0.50400001928E-02 0. -1.
       -1   -1    0    0    0  501  0.00000000000E+00  0.00000000000E+00 -0.91933740863E+03  0.91933740864E+03  0.50400001928E-02 0.  1.
    10030    2    1    2    0    0  0.00000000000E+00  0.00000000000E+00  0.78354819221E+03  0.26222230095E+04  0.25024199771E+04 0.  0.
        2    1    3    3  502    0 -0.54193200107E+03  0.87391856927E+03  0.11387130019E+04  0.15343048133E+04  0.25500000920E-02 0. -1.
       -2    1    3    3    0  502  0.54193200107E+03 -0.87391856927E+03 -0.35516480969E+03  0.10879181962E+04  0.25500000920E-02 0.  1.
</event>
<event>
 5   0  0.1501947E-05  0.2503742E+04  0.7818609E-02  0.8401654E-01
       -2   -1    0    0    0  501  0.00000000000E+00  0.00000000000E+00  0.95123366663E+03  0.95123366664E+03  0.25500000920E-02 0. -1.
        2   -1    0    0  501    0  0.00000000000E+00  0.00000000000E+00 -0.16475242976E+04  0.16475242976E+04  0.25500000920E-02 0.  1.
    10030    2    1    2    0    0  0.00000000000E+00  0.00000000000E+00 -0.69629063095E+03  0.25987579642E+04  0.25037416628E+04 0.  0.
        3    1    3    3  502    0  0.71285254687E+03  0.88986436684E+03 -0.88463905004E+03  0.14431228652E+04  0.10100000352E+00 0.  1.
       -3    1    3    3    0  502 -0.71285254687E+03 -0.88986436684E+03  0.18834841910E+03  0.11556350990E+04  0.10100000352E+00 0. -1.
</event>
<event>
 5   0  0.1572732E-05  0.2365613E+04  0.7818609E-02  0.8452491E-01
       -2   -1    0    0    0  501  0.00000000000E+00  0.00000000000E+00  0.84244684243E+03  0.84244684244E+03  0.25500000920E-02 0.  1.
        2   -1    0    0  501    0  0.00000000000E+00  0.00000000000E+00 -0.16606754661E+04  0.16606754661E+04  0.25500000920E-02 0. -1.
    10030    2    1    2    0    0  0.00000000000E+00  0.00000000000E+00 -0.81822862371E+03  0.25031223086E+04  0.23656126503E+04 0.  0.
        1    1    3    3  502    0 -0.17656178537E+03  0.90839112175E+03 -0.11886056055E+04  0.15063637607E+04  0.50400001928E-02 0. -1.
       -1    1    3    3    0  502  0.17656178537E+03 -0.90839112175E+03  0.37037698177E+03  0.99675854789E+03  0.50400001928E-02 0.  1.
</event>
<event>
 5   0  0.6477703E-06  0.2502508E+04  0.7818609E-02  0.8402093E-01
        1   -1    0    0  501    0  0.00000000000E+00  0.00000000000E+00  0.13773477941E+04  0.13773477941E+04  0.50400001928E-02 0.  1.
       -1   -1    0    0    0  501  0.00000000000E+00  0.00000000000E+00 -0.11367039531E+04  0.11367039531E+04  0.50400001928E-02 0. -1.
    10030    2    1    2    0    0  0.00000000000E+00  0.00000000000E+00  0.24064384097E+03  0.25140517472E+04  0.25025080878E+04 0.  0.
        5    1    3    3  502    0 -0.51373119953E+03 -0.60423018479E+03 -0.85192364067E+03  0.11639629896E+04  0.46999998093E+01 0. -1.
       -5    1    3    3    0  502  0.51373119953E+03  0.60423018479E+03  0.10925674816E+04  0.13500887576E+04  0.46999998093E+01 0.  1.
</event>
<event>
 5   0  0.1501947E-05  0.2522122E+04  0.7818609E-02  0.8395147E-01
       -2   -1    0    0    0  501  0.00000000000E+00  0.00000000000E+00  0.65554970915E+03  0.65554970915E+03  0.25500000920E-02 0.  1.
        2   -1    0    0  501    0  0.00000000000E+00  0.00000000000E+00 -0.24258640604E+04  0.24258640604E+04  0.25500000920E-02 0. -1.
    10030    2    1    2    0    0  0.00000000000E+00  0.00000000000E+00 -0.17703143513E+04  0.30814137696E+04  0.25221217094E+04 0.  0.
        3    1    3    3  502    0 -0.38699869797E+02  0.11945420717E+04 -0.13766701669E+04  0.18230878201E+04  0.10100000352E+00 0.  1.
       -3    1    3    3    0  502  0.38699869797E+02 -0.11945420717E+04 -0.39364418435E+03  0.12583259495E+04  0.10100000352E+00 0. -1.
</event>
<event>
 5   0  0.6346420E-06  0.2546442E+04  0.7818609E-02  0.8386625E-01
        1   -1    0    0  501    0  0.00000000000E+00  0.00000000000E+00  0.16299996100E+04  0.16299996100E+04  0.50400001928E-02 0.  1.
       -1   -1    0    0    0  501  0.00000000000E+00  0.00000000000E+00 -0.99453530895E+03  0.99453530897E+03  0.50400001928E-02 0. -1.
    10030    2    1    2    0    0  0.00000000000E+00  0.00000000000E+00  0.63546430107E+03  0.26245349190E+04  0.25464423542E+04 0.  0.
        4    1    3    3  502    0  0.33871808433E+03 -0.11661487922E+04  0.71216626749E+03  0.14077696373E+04  0.12699999809E+01 0.  1.
       -4    1    3    3    0  502 -0.33871808433E+03  0.11661487922E+04 -0.76701966421E+02  0.12167652817E+04  0.12699999809E+01 0. -1.
</event>
<event>
 5   0  0.6290861E-06  0.2465843E+04  0.7818609E-02  0.8415256E-01
        1   -1    0    0  501    0  0.00000000000E+00  0.00000000000E+00  0.17022654127E+04  0.17022654127E+04  0.50400001928E-02 0. -1.
       -1   -1    0    0    0  501  0.00000000000E+00  0.00000000000E+00 -0.89298357098E+03  0.89298357100E+03  0.50400001928E-02 0.  1.
    10030    2    1    2    0    0  0.00000000000E+00  0.00000000000E+00  0.80928184171E+03  0.25952489837E+04  0.24658426933E+04 0.  0.
        1    1    3    3  502    0 -0.78499157437E+03  0.65827246202E+03  0.11266147604E+04  0.15227590829E+04  0.50400001928E-02 0. -1.
       -1    1    3    3    0  502  0.78499157437E+03 -0.65827246202E+03 -0.31733291868E+03  0.10724899008E+04  0.50400001928E-02 0.  1.
</event>
<event>
 5   0  0.6105353E-06  0.2447234E+04  0.7818609E-02  0.8422029E-01
        1   -1    0    0  501    0  0.00000000000E+00  0.00000000000E+00  0.18148877991E+04  0.18148877991E+04  0.50400001928E-02 0.  1.
       -1   -1    0    0    0  501  0.00000000000E+00  0.00000000000E+00 -0.82497567732E+03  0.82497567734E+03  0.50400001928E-02 0. -1.
    10030    2    1    2    0    0  0.00000000000E+00  0.00000000000E+00  0.98991212174E+03  0.26398634764E+04  0.24472337782E+04 0.  0.
        3    1    3    3  502    0 -0.10309240548E+04 -0.62960796904E+02  0.12027019566E+04  0.15853266147E+04  0.10100000352E+00 0. -1.
       -3    1    3    3    0  502  0.10309240548E+04  0.62960796904E+02 -0.21278983490E+03  0.10545368617E+04  0.10100000352E+00 0.  1.
</event>
<event>
 5   0  0.1468512E-05  0.2477942E+04  0.7818609E-02  0.8410886E-01
       -2   -1    0    0    0  501  0.00000000000E+00  0.00000000000E+00  0.14098725911E+04  0.14098725911E+04  0.25500000920E-02 0.  1.
        2   -1    0    0  501    0  0.00000000000E+00  0.00000000000E+00 -0.10887857726E+04  0.10887857726E+04  0.25500000920E-02 0. -1.
    10030    2    1    2    0    0  0.00000000000E+00  0.00000000000E+00  0.32108681843E+03  0.24986583637E+04  0.24779420642E+04 0.  0.
        4    1    3    3  502    0  0.12871193248E+03 -0.79593684014E+03  0.11091341369E+04  0.13712265901E+04  0.12699999809E+01 0.  1.
       -4    1    3    3    0  502 -0.12871193248E+03  0.79593684014E+03 -0.78804731844E+03  0.11274317736E+04  0.12699999809E+01 0. -1.
</event>
<event>
 5   0  0.1468512E-05  0.2490850E+04  0.7818609E-02  0.8406253E-01
       -2   -1    0    0    0  501  0.00000000000E+00  0.00000000000E+00  0.98796650019E+03  0.98796650019E+03  0.25500000920E-02 0.  1.
        2   -1    0    0  501    0  0.00000000000E+00  0.00000000000E+00 -0.15699756584E+04  0.15699756584E+04  0.25500000920E-02 0. -1.
    10030    2    1    2    0    0  0.00000000000E+00  0.00000000000E+00 -0.58200915825E+03  0.25579421586E+04  0.24908499406E+04 0.  0.
        4    1    3    3  502    0  0.12199909766E+04  0.98883913758E+02 -0.52725717715E+03  0.13327256864E+04  0.12699999809E+01 0. -1.
       -4    1    3    3    0  502 -0.12199909766E+04 -0.98883913758E+02 -0.54751981103E+02  0.12252164722E+04  0.12699999809E+01 0.  1.
</event>
<event>
 5   0  0.6104486E-06  0.2500799E+04  0.7818609E-02  0.8402701E-01
       -1   -1    0    0    0  501  0.00000000000E+00  0.00000000000E+00  0.12125247778E+04  0.12125247778E+04  0.50400001928E-02 0. -1.
        1   -1    0    0  501    0  0.00000000000E+00  0.00000000000E+00 -0.12894576358E+04  0.12894576358E+04  0.50400001928E-02 0.  1.
    10030    2    1    2    0    0  0.00000000000E+00  0.00000000000E+00 -0.76932858058E+02  0.25019824136E+04  0.25007993389E+04 0.  0.
        2    1    3    3  502    0  0.99503320250E+03 -0.22062755839E+03  0.68625995789E+03  0.12287067687E+04  0.25500000920E-02 0. -1.
       -2    1    3    3    0  502 -0.99503320250E+03  0.22062755839E+03 -0.76319281595E+03  0.12732756449E+04  0.25500000920E-02 0.  1.
</event>
<event>
 5   0  0.6477703E-06  0.2487681E+04  0.7818609E-02  0.8407387E-01
       -1   -1    0    0    0  501  0.00000000000E+00  0.00000000000E+00  0.12268356176E+04  0.12268356176E+04  0.50400001928E-02 0. -1.
        1   -1    0    0  501    0  0.00000000000E+00  0.00000000000E+00 -0.12610811438E+04  0.12610811439E+04  0.50400001928E-02 0.  1.
    10030    2    1    2    0    0  0.00000000000E+00  0.00000000000E+00 -0.34245526205E+02  0.24879167615E+04  0.24876810600E+04 0.  0.
        5    1    3    3  502    0  0.83009357599E+03  0.22475788076E+03 -0.91584338559E+03  0.12563290360E+04  0.46999998093E+01 0.  1.
       -5    1    3    3    0  502 -0.83009357599E+03 -0.22475788076E+03  0.88159785938E+03  0.12315877255E+04  0.46999998093E+01 0. -1.
</event>
<event>
 5   0  0.6477703E-06  0.2468837E+04  0.7818609E-02  0.8414172E-01
        1   -1    0    0  501    0  0.00000000000E+00  0.00000000000E+00  0.20465005467E+04  0.20465005467E+04  0.50400001928E-02 0. -1.
       -1   -1    0    0    0  501  0.00000000000E+00  0.00000000000E+00 -0.74458273516E+03  0.74458273518E+03  0.50400001928E-02 0.  1.
    10030    2    1    2    0    0  0.00000000000E+00  0.00000000000E+00  0.13019178115E+04  0.27910832819E+04  0.24688369526E+04 0.  0.
        5    1    3    3  502    0  0.94519856818E+03 -0.69719286269E+03  0.22152484110E+03  0.11952295036E+04  0.46999998093E+01 0.  1.
       -5    1    3    3    0  502 -0.94519856818E+03  0.69719286269E+03  0.10803929704E+04  0.15958537783E+04  0.46999998093E+01 0. -1.
</event>
<event>
 5   0  0.1526824E-05  0.2498039E+04  0.7818609E-02  0.8403684E-01
        2   -1    0    0  501    0  0.00000000000E+00  0.00000000000E+00  0.12038514728E+04  0.12038514728E+04  0.25500000920E-02 0. -1.
       -2   -1    0    0    0  501  0.00000000000E+00  0.00000000000E+00 -0.12958822322E+04  0.12958822322E+04  0.25500000920E-02 0.  1.
    10030    2    1    2    0    0  0.00000000000E+00  0.00000000000E+00 -0.92030759350E+02  0.24997337050E+04  0.24980390180E+04 0.  0.
        2    1    3    3  502    0 -0.93076338250E+03  0.62782584892E+03  0.50168029629E+03  0.12297027651E+04  0.25500000920E-02 0.  1.
       -2    1    3    3    0  502  0.93076338250E+03 -0.62782584892E+03 -0.59371105565E+03  0.12700309399E+04  0.25500000920E-02 0. -1.
</event>
<event>
 5   0  0.1501947E-05  0.2502960E+04  0.7818609E-02  0.8401932E-01
       -2   -1    0    0    0  501  0.00000000000E+00  0.00000000000E+00  0.79005910604E+03  0.79005910604E+03  0.25500000920E-02 0. -1.
        2   -1    0    0  501    0  0.00000000000E+00  0.00000000000E+00 -0.19823864758E+04  0.19823864758E+04  0.25500000920E-02 0.  1.
    10030    2    1    2    0    0  0.00000000000E+00  0.00000000000E+00 -0.11923273698E+04  0.27724455819E+04  0.25029602369E+04 0.  0.
        3    1    3    3  502    0  0.83954210831E+03 -0.15027242191E+03 -0.16106253279E+04  0.18225056130E+04  0.10100000352E+00 0.  1.
       -3    1    3    3    0  502 -0.83954210831E+03  0.15027242191E+03  0.41829795813E+03  0.94993996884E+03  0.10100000352E+00 0. -1.
</event>
<event>
 5   0  0.1572732E-05  0.2555686E+04  0.7818609E-02  0.8383411E-01
        2   -1    0    0  501    0  0.00000000000E+00  0.00000000000E+00  0.15887966003E+04  0.15887966003E+04  0.25500000920E-02 0. -1.
       -2   -1    0    0    0  501  0.00000000000E+00  0.00000000000E+00 -0.10277480025E+04  0.10277480025E+04  0.25500000920E-02 0.  1.
    10030    2    1    2    0    0  0.00000000000E+00  0.00000000000E+00  0.56104859780E+03  0.26165446028E+04  0.25556858433E+04 0.  0.
        1    1    3    3  502    0 -0.95617633880E+03  0.62197355311E+03  0.87022485143E+03  0.14347179457E+04  0.50400001928E-02 0. -1.
       -1    1    3    3    0  502  0.95617633880E+03 -0.62197355311E+03 -0.30917625363E+03  0.11818266571E+04  0.50400001928E-02 0.  1.
</event>
<event>
 5   0  0.1526824E-05  0.2281972E+04  0.7818609E-02  0.8485063E-01
        2   -1    0    0  501    0  0.00000000000E+00  0.00000000000E+00  0.15999758898E+04  0.15999758898E+04  0.25500000920E-02 0.  1.
       -2   -1    0    0    0  501  0.00000000000E+00  0.00000000000E+00 -0.81366788922E+03  0.81366788923E+03  0.25500000920E-02 0. -1.
    10030    2    1    2    0    0  0.00000000000E+00  0.00000000000E+00  0.78630800055E+03  0.24136437790E+04  0.22819719587E+04 0.  0.
        2    1    3    3  502    0 -0.39007830684E+01 -0.63789934954E+03  0.13937402801E+04  0.15327892107E+04  0.25500000920E-02 0.  1.
       -2    1    3    3    0  502  0.39007830684E+01  0.63789934954E+03 -0.60743227952E+03  0.88085456828E+03  0.25500000920E-02 0. -1.
</event>
<event>
 5   0  0.1501947E-05  0.2476035E+04  0.7818609E-02  0.8411573E-01
        2   -1    0    0  501    0  0.00000000000E+00  0.00000000000E+00  0.17482124019E+04  0.17482124019E+04  0.25500000920E-02 0. -1.
       -2   -1    0    0    0  501  0.00000000000E+00  0.00000000000E+00 -0.87671668608E+03  0.87671668609E+03  0.25500000920E-02 0.  1.
    10030    2    1    2    0    0  0.00000000000E+00  0.00000000000E+00  0.87149571581E+03  0.26249290880E+04  0.24760347199E+04 0.  0.
        3    1    3    3  502    0 -0.38666479137E+03 -0.10919617724E+04  0.89881758336E+03  0.14662070903E+04  0.10100000352E+00 0.  1.
       -3    1    3    3    0  502  0.38666479137E+03  0.10919617724E+04 -0.27321867548E+02  0.11587219977E+04  0.10100000352E+00 0. -1.
</event>
<event>
 5   0  0.6105353E-06  0.2493021E+04  0.7818609E-02  0.8405476E-01
        1   -1    0    0  501    0  0.00000000000E+00  0.00000000000E+00  0.14308794231E+04  0.14308794231E+04  0.50400001928E-02 0. -1.
       -1   -1    0    0    0  501  0.00000000000E+00  0.00000000000E+00 -0.10858978945E+04  0.10858978945E+04  0.50400001928E-02 0.  1.
    10030    2    1    2    0    0  0.00000000000E+00  0.00000000000E+00  0.34498152854E+03  0.25167773176E+04  0.24930214222E+04 0.  0.
        3    1    3    3  502    0  0.86456771399E+03  0.69226385569E+03 -0.40487010387E+03  0.11792482305E+04  0.10100000352E+00 0.  1.
       -3    1    3    3    0  502 -0.86456771399E+03 -0.69226385569E+03  0.74985163241E+03  0.13375290871E+04  0.10100000352E+00 0. -1.
</event>
<event>
 5   0  0.1550483E-05  0.2507390E+04  0.7818609E-02  0.8400358E-01
       -2   -1    0    0    0  501  0.00000000000E+00  0.00000000000E+00  0.18195225153E+04  0.18195225153E+04  0.25500000920E-02 0. -1.
        2   -1    0    0  501    0  0.00000000000E+00  0.00000000000E+00 -0.86382609929E+03  0.86382609929E+03  0.25500000920E-02 0.  1.
    10030    2    1    2    0    0  0.00000000000E+00  0.00000000000E+00  0.95569641599E+03  0.26833486146E+04  0.25073899074E+04 0.  0.
        5    1    3    3  502    0  0.23867107202E+03 -0.86069436566E+03  0.14193417953E+04  0.16769948997E+04  0.46999998093E+01 0. -1.
       -5    1    3    3    0  502 -0.23867107202E+03  0.86069436566E+03 -0.46364537931E+03  0.10063537149E+04  0.46999998093E+01 0.  1.
</event>
<event>
 5   0  0.6477703E-06  0.2497494E+04  0.7818609E-02  0.8403879E-01
       -1   -1    0    0    0  501  0.00000000000E+00  0.00000000000E+00  0.83821452406E+03  0.83821452408E+03  0.50400001928E-02 0. -1.
        1   -1    0    0  501    0  0.00000000000E+00  0.00000000000E+00 -0.18603463763E+04  0.18603463764E+04  0.50400001928E-02 0.  1.
    10030    2    1    2    0    0  0.00000000000E+00  0.00000000000E+00 -0.10221318523E+04  0.26985609004E+04  0.24974942262E+04 0.  0.
        5    1    3    3  502    0 -0.11309611666E+04 -0.52813293054E+03 -0.55076203312E+03  0.13643161144E+04  0.46999998093E+01 0.  1.
       -5    1    3    3    0  502  0.11309611666E+04  0.52813293054E+03 -0.47136981917E+03  0.13342447861E+04  0.46999998093E+01 0. -1.
</event>
<event>
 5   0  0.6105353E-06  0.2483204E+04  0.7818609E-02  0.8408994E-01
       -1   -1    0    0    0  501  0.00000000000E+00  0.00000000000E+00  0.12066809159E+04  0.12066809159E+04  0.50400001928E-02 0.  1.
        1   -1    0    0  501    0  0.00000000000E+00  0.00000000000E+00 -0.12775338272E+04  0.12775338272E+04  0.50400001928E-02 0. -1.
    10030    2    1    2    0    0  0.00000000000E+00  0.00000000000E+00 -0.70852911260E+02  0.24842147431E+04  0.24832041307E+04 0.  0.
        3    1    3    3  502    0 -0.21570015399E+03 -0.45850568013E+01  0.11877845800E+04  0.12072198631E+04  0.10100000352E+00 0.  1.
       -3    1    3    3    0  502  0.21570015399E+03  0.45850568013E+01 -0.12586374912E+04  0.12769948801E+04  0.10100000352E+00 0. -1.
</event>
<event>
 5   0  0.1501947E-05  0.2486775E+04  0.7818609E-02  0.8407712E-01
        2   -1    0    0  501    0  0.00000000000E+00  0.00000000000E+00  0.10426298821E+04  0.10426298821E+04  0.25500000920E-02 0. -1.
       -2   -1    0    0    0  501  0.00000000000E+00  0.00000000000E+00 -0.14828012565E+04  0.14828012565E+04  0.25500000920E-02 0.  1.
    10030    2    1    2    0    0  0.00000000000E+00  0.00000000000E+00 -0.44017137439E+03  0.25254311386E+04  0.24867753411E+04 0.  0.
        3    1    3    3  502    0  0.10097611342E+04 -0.31554483212E+03 -0.88356107800E+03  0.13783563683E+04  0.10100000352E+00 0.  1.
       -3    1    3    3    0  502 -0.10097611342E+04  0.31554483212E+03  0.44338970361E+03  0.11470747703E+04  0.10100000352E+00 0. -1.
</event>
<event>
 5   0  0.6290861E-06  0.2468468E+04  0.7818609E-02  0.8414306E-01
       -1   -1    0    0    0  501  0.00000000000E+00  0.00000000000E+00  0.10160277839E+04  0.10160277839E+04  0.50400001928E-02 0.  1.
        1   -1    0    0  501    0  0.00000000000E+00  0.00000000000E+00 -0.14993034977E+04  0.14993034977E+04  0.50400001928E-02 0. -1.
    10030    2    1    2    0    0  0.00000000000E+00  0.00000000000E+00 -0.48327571382E+03  0.25153312816E+04  0.24684683593E+04 0.  0.
        1    1    3    3  502    0 -0.97941817074E+03 -0.49467225750E+03  0.33422226904E+03  0.11470244639E+04  0.50400001928E-02 0.  1.
       -1    1    3    3    0  502  0.97941817074E+03  0.49467225750E+03 -0.81749798286E+03  0.13683068178E+04  0.50400001928E-02 0. -1.
</event>
<event>
 5   0  0.6105353E-06  0.2492767E+04  0.7818609E-02  0.8405567E-01
       -1   -1    0    0    0  501  0.00000000000E+00  0.00000000000E+00  0.98049784342E+03  0.98049784344E+03  0.50400001928E-02 0.  1.
        1   -1    0    0  501    0  0.00000000000E+00  0.00000000000E+00 -0.15843698725E+04  0.15843698725E+04  0.50400001928E-02 0. -1.
    10030    2    1    2    0    0  0.00000000000E+00  0.00000000000E+00 -0.60387202906E+03  0.25648677159E+04  0.24927665299E+04 0.  0.
        3    1    3    3  502    0  0.46521222419E+02  0.15173972901E+03 -0.15739301949E+04  0.15819119565E+04  0.10100000352E+00 0. -1.
       -3    1    3    3    0  502 -0.46521222419E+02 -0.15173972901E+03  0.97005816589E+03  0.98295575938E+03  0.10100000352E+00 0.  1.
</event>
<event>
 5   0  0.6346420E-06  0.2465045E+04  0.7818609E-02  0.8415545E-01
       -1   -1    0    0    0  501  0.00000000000E+00  0.00000000000E+00  0.14478180598E+04  0.14478180598E+04  0.50400001928E-02 0.  1.
        1   -1    0    0  501    0  0.00000000000E+00  0.00000000000E+00 -0.10492419702E+04  0.10492419702E+04  0.50400001928E-02 0. -1.
    10030    2    1    2    0    0  0.00000000000E+00  0.00000000000E+00  0.39857608956E+03  0.24970600300E+04  0.24650448058E+04 0.  0.
        4    1    3    3  502    0 -0.36083002836E+03 -0.11582757132E+04  0.41961909205E+03  0.12836988480E+04  0.12699999809E+01 0. -1.
       -4    1    3    3    0  502  0.36083002836E+03  0.11582757132E+04 -0.21043002481E+02  0.12133611820E+04  0.12699999809E+01 0.  1.
</event>
<event>
 5   0  0.6477703E-06  0.2507887E+04  0.7818609E-02  0.8400181E-01
        1   -1    0    0  501    0  0.00000000000E+00  0.00000000000E+00  0.20618356483E+04  0.20618356483E+04  0.50400001928E-02 0.  1.
       -1   -1    0    0    0  501  0.00000000000E+00  0.00000000000E+00 -0.76260879388E+03  0.76260879390E+03  0.50400001928E-02 0. -1.
    10030    2    1    2    0    0  0.00000000000E+00  0.00000000000E+00  0.12992268544E+04  0.28244444422E+04  0.25078867574E+04 0.  0.
        5    1    3    3  502    0 -0.18028628570E+03 -0.11999016295E+04  0.29331880503E+03  0.12483289137E+04  0.46999998093E+01 0. -1.
       -5    1    3    3    0  502  0.18028628570E+03  0.11999016295E+04  0.10059080494E+04  0.15761155285E+04  0.46999998093E+01 0.  1.
</event>
<event>
 5   0  0.1468512E-05  0.2516075E+04  0.7818609E-02  0.8397281E-01
       -2   -1    0    0    0  501  0.00000000000E+00  0.00000000000E+00  0.10009150840E+04  0.10009150841E+04  0.25500000920E-02 0. -1.
        2   -1    0    0  501    0  0.00000000000E+00  0.00000000000E+00 -0.15812118132E+04  0.15812118132E+04  0.25500000920E-02 0.  1.
    10030    2    1    2    0    0  0.00000000000E+00  0.00000000000E+00 -0.58029672916E+03  0.25821268973E+04  0.25160753208E+04 0.  0.
        4    1    3    3  502    0  0.21478976424E+03  0.12289347055E+04 -0.45639479039E+03  0.13284249963E+04  0.12699999809E+01 0.  1.
       -4    1    3    3    0  502 -0.21478976424E+03 -0.12289347055E+04 -0.12390193877E+03  0.12537019010E+04  0.12699999809E+01 0. -1.
</event>
<event>
 5   0  0.1572732E-05  0.2495939E+04  0.7818609E-02  0.8404434E-01
       -2   -1    0    0    0  501  0.00000000000E+00  0.00000000000E+00  0.78298256678E+03  0.78298256679E+03  0.25500000920E-02 0. -1.
        2   -1    0    0  501    0  0.00000000000E+00  0.00000000000E+00 -0.19890958705E+04  0.19890958705E+04  0.25500000920E-02 0.  1.
    10030    2    1    2    0    0  0.00000000000E+00  0.00000000000E+00 -0.12061133038E+04  0.27720784373E+04  0.24959386133E+04 0.  0.
        1    1    3    3  502    0  0.68748069888E+03 -0.52398447056E+03 -0.16027755601E+04  0.18210104154E+04  0.50400001928E-02 0.  1.
       -1    1    3    3    0  502 -0.68748069888E+03  0.52398447056E+03  0.39666225637E+03  0.95106802195E+03  0.50400001928E-02 0. -1.
</event>
<event>
 5   0  0.6346420E-06  0.2502989E+04  0.7818609E-02  0.8401922E-01
        1   -1    0    0  501    0  0.00000000000E+00  0.00000000000E+00  0.18828482886E+04  0.18828482886E+04  0.50400001928E-02 0.  1.
       -1   -1    0    0    0  501  0.00000000000E+00  0.00000000000E+00 -0.83184506459E+03  0.83184506460E+03  0.50400001928E-02 0. -1.
    10030    2    1    2    0    0  0.00000000000E+00  0.00000000000E+00  0.10510032240E+04  0.27146933532E+04  0.25029886586E+04 0.  0.
        4    1    3    3  502    0  0.65472000270E+03  0.78909584215E+03 -0.25276040906E+03  0.10560397565E+04  0.12699999809E+01 0. -1.
       -4    1    3    3    0  502 -0.65472000270E+03 -0.78909584215E+03  0.13037636331E+04  0.16586535967E+04  0.12699999809E+01 0.  1.
</event>
<event>
 5   0  0.1526824E-05  0.2499885E+04  0.7818609E-02  0.8403027E-01
        2   -1    0    0  501    0  0.00000000000E+00  0.00000000000E+00  0.15867083755E+04  0.15867083755E+04  0.25500000920E-02 0.  1.
       -2   -1    0    0    0  501  0.00000000000E+00  0.00000000000E+00 -0.98465214930E+03  0.98465214930E+03  0.25500000920E-02 0. -1.
    10030    2    1    2    0    0  0.00000000000E+00  0.00000000000E+00  0.60205622623E+03  0.25713605248E+04  0.24998846472E+04 0.  0.
        2    1    3    3  502    0  0.67908720648E+03  0.78101416458E+03  0.10219331183E+04  0.14544723640E+04  0.25500000920E-02 0.  1.
       -2    1    3    3    0  502 -0.67908720648E+03 -0.78101416458E+03 -0.41987689211E+03  0.11168881608E+04  0.25500000920E-02 0. -1.
</event>
<event>
 5   0  0.6477703E-06  0.2520754E+04  0.7818609E-02  0.8395629E-01
       -1   -1    0    0    0  501  0.00000000000E+00  0.00000000000E+00  0.11724761710E+04  0.11724761710E+04  0.50400001928E-02 0.  1.
        1   -1    0    0  501    0  0.00000000000E+00  0.00000000000E+00 -0.13548679340E+04  0.13548679340E+04  0.50400001928E-02 0. -1.
    10030    2    1    2    0    0  0.00000000000E+00  0.00000000000E+00 -0.18239176300E+03  0.25273441051E+04  0.25207541471E+04 0.  0.
        5    1    3    3  502    0  0.16508383388E+03 -0.10094527765E+04  0.64712637268E+03  0.12103892814E+04  0.46999998093E+01 0.  1.
       -5    1    3    3    0  502 -0.16508383388E+03  0.10094527765E+04 -0.82951813568E+03  0.13169548237E+04  0.46999998093E+01 0. -1.
</event>
<event>
 5   0  0.1526824E-05  0.2494541E+04  0.7818609E-02  0.8404933E-01
       -2   -1    0    0    0  501  0.00000000000E+00  0.00000000000E+00  0.13553502075E+04  0.13553502075E+04  0.25500000920E-02 0. -1.
        2   -1    0    0  501    0  0.00000000000E+00  0.00000000000E+00 -0.11478092824E+04  0.11478092824E+04  0.25500000920E-02 0.  1.
    10030    2    1    2    0    0  0.00000000000E+00  0.00000000000E+00  0.20754092510E+03  0.25031594899E+04  0.24945408789E+04 0.  0.
        2    1    3    3  502    0 -0.54622378377E+03  0.91814594077E+03 -0.54213906946E+03  0.11980263608E+04  0.25500000920E-02 0.  1.
       -2    1    3    3    0  502  0.54622378377E+03 -0.91814594077E+03  0.74967999456E+03  0.13051331291E+04  0.25500000920E-02 0. -1.
</event>
<event>
 5   0  0.6346420E-06  0.2531752E+04  0.7818609E-02  0.8391760E-01
        1   -1    0    0  501    0  0.00000000000E+00  0.00000000000E+00  0.10554241270E+04  0.10554241270E+04  0.50400001928E-02 0.  1.
       -1   -1    0    0    0  501  0.00000000000E+00  0.00000000000E+00 -0.15182923764E+04  0.15182923764E+04  0.50400001928E-02 0. -1.
    10030    2    1    2    0    0  0.00000000000E+00  0.00000000000E+00 -0.46286824945E+03  0.25737165034E+04  0.25317522832E+04 0.  0.
        4    1    3    3  502    0 -0.47391935982E+03 -0.33622573821E+01 -0.14247002285E+04  0.15014603619E+04  0.12699999809E+01 0. -1.
       -4    1    3    3    0  502  0.47391935982E+03  0.33622573821E+01  0.96183197901E+03  0.10722561416E+04  0.12699999809E+01 0.  1.
</event>
<event>
 5   0  0.6346420E-06  0.2342654E+04  0.7818609E-02  0.8461291E-01
       -1   -1    0    0    0  501  0.00000000000E+00  0.00000000000E+00  0.72904712741E+03  0.72904712743E+03  0.50400001928E-02 0. -1.
        1   -1    0    0  501    0  0.00000000000E+00  0.00000000000E+00 -0.18819173524E+04  0.18819173524E+04  0.50400001928E-02 0.  1.
    10030    2    1    2    0    0  0.00000000000E+00  0.00000000000E+00 -0.11528702250E+04  0.26109644798E+04  0.23426535722E+04 0.  0.
        4    1    3    3  502    0  0.23509977239E+03  0.11264428816E+04 -0.82025904386E+03  0.14131425902E+04  0.12699999809E+01 0. -1.
       -4    1    3    3    0  502 -0.23509977239E+03 -0.11264428816E+04 -0.33261118111E+03  0.11978218896E+04  0.12699999809E+01 0.  1.
</event>
<event>
 5   0  0.6104486E-06  0.2459588E+04  0.7818609E-02  0.8417526E-01
        1   -1    0    0  501    0  0.00000000000E+00  0.00000000000E+00  0.18531598026E+04  0.18531598026E+04  0.50400001928E-02 0. -1.
       -1   -1    0    0    0  501  0.00000000000E+00  0.00000000000E+00 -0.81611583671E+03  0.81611583673E+03  0.50400001928E-02 0.  1.
    10030    2    1    2    0    0  0.00000000000E+00  0.00000000000E+00  0.10370439659E+04  0.26692756393E+04  0.24595878215E+04 0.  0.
        2    1    3    3  502    0 -0.96361730620E+03  0.37006325314E+03 -0.20696630499E+03  0.10527773628E+04  0.25500000920E-02 0.  1.
       -2    1    3    3    0  502  0.96361730620E+03 -0.37006325314E+03  0.12440102709E+04  0.16164982766E+04  0.25500000920E-02 0. -1.
</event>
<event>
 5   0  0.1526824E-05  0.2490221E+04  0.7818609E-02  0.8406478E-01
       -2   -1    0    0    0  501  0.00000000000E+00  0.00000000000E+00  0.92805991849E+03  0.92805991849E+03  0.25500000920E-02 0. -1.
        2   -1    0    0  501    0  0.00000000000E+00  0.00000000000E+00 -0.16704739914E+04  0.16704739914E+04  0.25500000920E-02 0.  1.
    10030    2    1    2    0    0  0.00000000000E+00  0.00000000000E+00 -0.74241407287E+03  0.25985339098E+04  0.24902208386E+04 0.  0.
        2    1    3    3  502    0 -0.16198282469E+03 -0.18293108169E+03  0.90279685557E+03  0.93527770132E+03  0.25500000920E-02 0. -1.
       -2    1    3    3    0  502  0.16198282469E+03  0.18293108169E+03 -0.16452109284E+04  0.16632562085E+04  0.25500000920E-02 0.  1.
</event>
<event>
 5   0  0.5164625E-06  0.2514297E+04  0.7818609E-02  0.8397910E-01
       -3   -1    0    0    0  501  0.00000000000E+00  0.00000000000E+00  0.18683515285E+04  0.18683515313E+04  0.10100000352E+00 0. -1.
        3   -1    0    0  501    0  0.00000000000E+00  0.00000000000E+00 -0.84589163072E+03  0.84589163675E+03  0.10100000352E+00 0.  1.
    10030    2    1    2    0    0  0.00000000000E+00  0.00000000000E+00  0.10224598978E+04  0.27142431680E+04  0.25142974630E+04 0.  0.
        4    1    3    3  502    0 -0.88330766231E+02  0.30355034251E+03 -0.80227831387E+03  0.86232084545E+03  0.12699999809E+01 0.  1.
       -4    1    3    3    0  502  0.88330766231E+02 -0.30355034251E+03  0.18247382117E+04  0.18519223226E+04  0.12699999809E+01 0. -1.
</event>
<event>
 5   0  0.1550483E-05  0.2519336E+04  0.7818609E-02  0.8396129E-01
       -2   -1    0    0    0  501  0.00000000000E+00  0.00000000000E+00  0.15557475688E+04  0.15557475688E+04  0.25500000920E-02 0.  1.
        2   -1    0    0  501    0  0.00000000000E+00  0.00000000000E+00 -0.10199364927E+04  0.10199364927E+04  0.25500000920E-02 0. -1.
    10030    2    1    2    0    0  0.00000000000E+00  0.00000000000E+00  0.53581107611E+03  0.25756840616E+04  0.25193361974E+04 0.  0.
        5    1    3    3  502    0 -0.62099187815E+03 -0.52272769416E+03 -0.71689710479E+03  0.10829767790E+04  0.46999998093E+01 0. -1.
       -5    1    3    3    0  502  0.62099187815E+03  0.52272769416E+03  0.12527081809E+04  0.14927072826E+04  0.46999998093E+01 0.  1.
</event>
<event>
 5   0  0.1550483E-05  0.2461828E+04  0.7818609E-02  0.8416712E-01
        2   -1    0    0  501    0  0.00000000000E+00  0.00000000000E+00  0.26158899998E+04  0.26158899998E+04  0.25500000920E-02 0.  1.
       -2   -1    0    0    0  501  0.00000000000E+00  0.00000000000E+00 -0.57920992490E+03  0.57920992490E+03  0.25500000920E-02 0. -1.
    10030    2    1    2    0    0  0.00000000000E+00  0.00000000000E+00  0.20366800749E+04  0.31950999247E+04  0.24618281421E+04 0.  0.
        5    1    3    3  502    0 -0.55717187453E+02 -0.12243262787E+04  0.87008800378E+03  0.15030483911E+04  0.46999998093E+01 0.  1.
       -5    1    3    3    0  502  0.55717187453E+02  0.12243262787E+04  0.11665920711E+04  0.16920515335E+04  0.46999998093E+01 0. -1.
</event>
<event>
 5   0  0.1468512E-05  0.2494753E+04  0.7818609E-02  0.8404857E-01
       -2   -1    0    0    0  501  0.00000000000E+00  0.00000000000E+00  0.92018405038E+03  0.92018405038E+03  0.25500000920E-02 0.  1.
        2   -1    0    0  501    0  0.00000000000E+00  0.00000000000E+00 -0.16909097250E+04  0.16909097250E+04  0.25500000920E-02 0. -1.
    10030    2    1    2    0    0  0.00000000000E+00  0.00000000000E+00 -0.77072567463E+03  0.26110937754E+04  0.24947530215E+04 0.  0.
        4    1    3    3  502    0  0.31887675825E+03  0.23325038308E+03  0.85296880085E+03  0.94002421048E+03  0.12699999809E+01 0.  1.
       -4    1    3    3    0  502 -0.31887675825E+03 -0.23325038308E+03 -0.16236944755E+04  0.16710695649E+04  0.12699999809E+01 0. -1.
</event>
<event>
 5   0  0.6346420E-06  0.2503844E+04  0.7818609E-02  0.8401617E-01
        1   -1    0    0  501    0  0.00000000000E+00  0.00000000000E+00  0.25978553068E+04  0.25978553068E+04  0.50400001928E-02 0. -1.
       -1   -1    0    0    0  501  0.00000000000E+00  0.00000000000E+00 -0.60330852431E+03  0.60330852434E+03  0.50400001928E-02 0.  1.
    10030    2    1    2    0    0  0.00000000000E+00  0.00000000000E+00  0.19945467825E+04  0.32011638311E+04  0.25038436465E+04 0.  0.
        4    1    3    3  502    0  0.15767786653E+03 -0.18832894223E+03 -0.57219994228E+03  0.62269132555E+03  0.12699999809E+01 0.  1.
       -4    1    3    3    0  502 -0.15767786653E+03  0.18832894223E+03  0.25667467248E+04  0.25784725056E+04  0.12699999809E+01 0. -1.
</event>
<event>
 5   0  0.6104486E-06  0.2513526E+04  0.7818609E-02  0.8398182E-01
        1   -1    0    0  501    0  0.00000000000E+00  0.00000000000E+00  0.15866750828E+04  0.15866750829E+04  0.50400001928E-02 0.  1.
       -1   -1    0    0    0  501  0.00000000000E+00  0.00000000000E+00 -0.99544878783E+03  0.99544878785E+03  0.50400001928E-02 0. -1.
    10030    2    1    2    0    0  0.00000000000E+00  0.00000000000E+00  0.59122629501E+03  0.25821238707E+04  0.25135264374E+04 0.  0.
        2    1    3    3  502    0 -0.27407388933E+03  0.11836653195E+04  0.62574580567E+03  0.13666520767E+04  0.25500000920E-02 0.  1.
       -2    1    3    3    0  502  0.27407388933E+03 -0.11836653195E+04 -0.34519510660E+02  0.12154717940E+04  0.25500000920E-02 0. -1.
</event>
<event>
 5   0  0.1526824E-05  0.2487642E+04  0.7818609E-02  0.8407401E-01
       -2   -1    0    0    0  501  0.00000000000E+00  0.00000000000E+00  0.70334392335E+03  0.70334392335E+03  0.25500000920E-02 0.  1.
        2   -1    0    0  501    0  0.00000000000E+00  0.00000000000E+00 -0.21996223405E+04  0.21996223405E+04  0.25500000920E-02 0. -1.
    10030    2    1    2    0    0  0.00000000000E+00  0.00000000000E+00 -0.14962784171E+04  0.29029662639E+04  0.24876422628E+04 0.  0.
        2    1    3    3  502    0  0.15655770829E+03  0.17008982454E+03  0.67805446176E+03  0.71637889246E+03  0.25500000920E-02 0.  1.
       -2    1    3    3    0  502 -0.15655770829E+03 -0.17008982454E+03 -0.21743328789E+04  0.21865873714E+04  0.25500000920E-02 0. -1.
</event>
<event>
 5   0  0.6104486E-06  0.2496433E+04  0.7818609E-02  0.8404257E-01
       -1   -1    0    0    0  501  0.00000000000E+00  0.00000000000E+00  0.12623224303E+04  0.12623224303E+04  0.50400001928E-02 0. -1.
        1   -1    0    0  501    0  0.00000000000E+00  0.00000000000E+00 -0.12342681349E+04  0.12342681349E+04  0.50400001928E-02 0.  1.
    10030    2    1    2    0    0  0.00000000000E+00  0.00000000000E+00  0.28054295349E+02  0.24965905652E+04  0.24964329366E+04 0.  0.
        2    1    3    3  502    0 -0.10053768342E+04 -0.61407464532E+03  0.42657483437E+03  0.12529310987E+04  0.25500000920E-02 0.  1.
       -2    1    3    3    0  502  0.10053768342E+04  0.61407464532E+03 -0.39852053902E+03  0.12436594666E+04  0.25500000920E-02 0. -1.
</event>
<event>
 5   0  0.1501947E-05  0.2502153E+04  0.7818609E-02  0.8402219E-01
        2   -1    0    0  501    0  0.00000000000E+00  0.00000000000E+00  0.22255039125E+04  0.22255039125E+04  0.25500000920E-02 0. -1.
       -2   -1    0    0    0  501  0.00000000000E+00  0.00000000000E+00 -0.70329805272E+03  0.70329805272E+03  0.25500000920E-02 0.  1.
    10030    2    1    2    0    0  0.00000000000E+00  0.00000000000E+00  0.15222058597E+04  0.29288019652E+04  0.25021531272E+04 0.  0.
        3    1    3    3  502    0  0.67498591499E+03 -0.95542513743E+02 -0.46679678524E+03  0.82621644033E+03  0.10100000352E+00 0.  1.
       -3    1    3    3    0  502 -0.67498591499E+03  0.95542513743E+02  0.19890026450E+04  0.21025855248E+04  0.10100000352E+00 0. -1.
</event>
<event>
 5   0  0.1550483E-05  0.2492387E+04  0.7818609E-02  0.8405703E-01
        2   -1    0    0  501    0  0.00000000000E+00  0.00000000000E+00  0.32708171445E+04  0.32708171445E+04  0.25500000920E-02 0.  1.
       -2   -1    0    0    0  501  0.00000000000E+00  0.00000000000E+00 -0.47480421940E+03  0.47480421941E+03  0.25500000920E-02 0. -1.
    10030    2    1    2    0    0  0.00000000000E+00  0.00000000000E+00  0.27960129251E+04  0.37456213639E+04  0.24923866322E+04 0.  0.
        5    1    3    3  502    0  0.93027077565E+03  0.54432034582E+02  0.15455223539E+03  0.94460311554E+03  0.46999998093E+01 0. -1.
       -5    1    3    3    0  502 -0.93027077565E+03 -0.54432034582E+02  0.26414606897E+04  0.28010182483E+04  0.46999998093E+01 0.  1.
</event>
<event>
 5   0  0.6477703E-06  0.2497675E+04  0.7818609E-02  0.8403814E-01
       -1   -1    0    0    0  501  0.00000000000E+00  0.00000000000E+00  0.82681448102E+03  0.82681448103E+03  0.50400001928E-02 0. -1.
        1   -1    0    0  501    0  0.00000000000E+00  0.00000000000E+00 -0.18862691765E+04  0.18862691765E+04  0.50400001928E-02 0.  1.
    10030    2    1    2    0    0  0.00000000000E+00  0.00000000000E+00 -0.10594546955E+04  0.27130836576E+04  0.24976746548E+04 0.  0.
        5    1    3    3  502    0 -0.46574547537E+03 -0.11586168363E+04 -0.54726805027E+03  0.13633914442E+04  0.46999998093E+01 0.  1.
       -5    1    3    3    0  502  0.46574547537E+03  0.11586168363E+04 -0.51218664525E+03  0.13496922134E+04  0.46999998093E+01 0. -1.
</event>
<event>
 5   0  0.6105353E-06  0.2475180E+04  0.7818609E-02  0.8411881E-01
       -1   -1    0    0    0  501  0.00000000000E+00  0.00000000000E+00  0.81133229416E+03  0.81133229418E+03  0.50400001928E-02 0.  1.
        1   -1    0    0  501    0  0.00000000000E+00  0.00000000000E+00 -0.18877953227E+04  0.18877953227E+04  0.50400001928E-02 0. -1.
    10030    2    1    2    0    0  0.00000000000E+00  0.00000000000E+00 -0.10764630285E+04  0.26991276169E+04  0.24751802440E+04 0.  0.
        3    1    3    3  502    0  0.42014109095E+02  0.53857556357E+03 -0.17524378323E+04  0.18338122012E+04  0.10100000352E+00 0. -1.
       -3    1    3    3    0  502 -0.42014109095E+02 -0.53857556357E+03  0.67597480377E+03  0.86531541566E+03  0.10100000352E+00 0.  1.
</event>
<event>
 5   0  0.1501947E-05  0.2497868E+04  0.7818609E-02  0.8403745E-01
       -2   -1    0    0    0  501  0.00000000000E+00  0.00000000000E+00  0.54460863712E+03  0.54460863713E+03  0.25500000920E-02 0. -1.
        2   -1    0    0  501    0  0.00000000000E+00  0.00000000000E+00 -0.28641411708E+04  0.28641411708E+04  0.25500000920E-02 0.  1.
    10030    2    1    2    0    0  0.00000000000E+00  0.00000000000E+00 -0.23195325337E+04  0.34087498080E+04  0.24978679065E+04 0.  0.
        3    1    3    3  502    0  0.44137467218E+03 -0.54049754422E+03  0.25375586281E+03  0.74252356505E+03  0.10100000352E+00 0. -1.
       -3    1    3    3    0  502 -0.44137467218E+03  0.54049754422E+03 -0.25732883965E+04  0.26662262429E+04  0.10100000352E+00 0.  1.
</event>
<event>
 5   0  0.1572732E-05  0.2470645E+04  0.7818609E-02  0.8413519E-01
       -2   -1    0    0    0  501  0.00000000000E+00  0.00000000000E+00  0.70347633097E+03  0.70347633098E+03  0.25500000920E-02 0. -1.
        2   -1    0    0  501    0  0.00000000000E+00  0.00000000000E+00 -0.21692586524E+04  0.21692586524E+04  0.25500000920E-02 0.  1.
    10030    2    1    2    0    0  0.00000000000E+00  0.00000000000E+00 -0.14657823214E+04  0.28727349833E+04  0.24706453551E+04 0.  0.
        1    1    3    3  502    0 -0.63857146724E+03 -0.72630921968E+02 -0.19595605720E+04  0.20622624481E+04  0.50400001928E-02 0.  1.
       -1    1    3    3    0  502  0.63857146724E+03  0.72630921968E+02  0.49377825058E+03  0.81047253524E+03  0.50400001928E-02 0. -1.
</event>
<event>
 5   0  0.1572732E-05  0.2520131E+04  0.7818609E-02  0.8395849E-01
        2   -1    0    0  501    0  0.00000000000E+00  0.00000000000E+00  0.20455453792E+04  0.20455453792E+04  0.25500000920E-02 0. -1.
       -2   -1    0    0    0  501  0.00000000000E+00  0.00000000000E+00 -0.77620618412E+03  0.77620618413E+03  0.25500000920E-02 0.  1.
    10030    2    1    2    0    0  0.00000000000E+00  0.00000000000E+00  0.12693391950E+04  0.28217515633E+04  0.25201309277E+04 0.  0.
        1    1    3    3  502    0  0.78362972864E+03 -0.98056989765E+03  0.51113790835E+03  0.13553061784E+04  0.50400001928E-02 0.  1.
       -1    1    3    3    0  502 -0.78362972864E+03  0.98056989765E+03  0.75820128669E+03  0.14664453849E+04  0.50400001928E-02 0. -1.
</event>
<event>
 5   0  0.1526824E-05  0.2498566E+04  0.7818609E-02  0.8403496E-01
        2   -1    0    0  501    0  0.00000000000E+00  0.00000000000E+00  0.15486805868E+04  0.15486805868E+04  0.25500000920E-02 0.  1.
       -2   -1    0    0    0  501  0.00000000000E+00  0.00000000000E+00 -0.10077666413E+04  0.10077666413E+04  0.25500000920E-02 0. -1.
    10030    2    1    2    0    0  0.00000000000E+00  0.00000000000E+00  0.54091394549E+03  0.25564472281E+04  0.24985664958E+04 0.  0.
        2    1    3    3  502    0  0.82862513971E+03 -0.31272514829E+03  0.11719419076E+04  0.14689671458E+04  0.25500000920E-02 0.  1.
       -2    1    3    3    0  502 -0.82862513971E+03  0.31272514829E+03 -0.63102796213E+03  0.10874800824E+04  0.25500000920E-02 0. -1.
</event>
<event>
 5   0  0.6290861E-06  0.2507923E+04  0.7818609E-02  0.8400168E-01
       -1   -1    0    0    0  501  0.00000000000E+00  0.00000000000E+00  0.12726818453E+04  0.12726818453E+04  0.50400001928E-02 0. -1.
        1   -1    0    0  501    0  0.00000000000E+00  0.00000000000E+00 -0.12355170103E+04  0.12355170103E+04  0.50400001928E-02 0.  1.
    10030    2    1    2    0    0  0.00000000000E+00  0.00000000000E+00  0.37164834926E+02  0.25081988556E+04  0.25079234985E+04 0.  0.
        1    1    3    3  502    0  0.65511884037E+03 -0.63534179622E+03 -0.84150047891E+03  0.12413552872E+04  0.50400001928E-02 0.  1.
       -1    1    3    3    0  502 -0.65511884037E+03  0.63534179622E+03  0.87866531384E+03  0.12668435684E+04  0.50400001928E-02 0. -1.
</event>
<event>
 5   0  0.1572732E-05  0.2489830E+04  0.7818609E-02  0.8406618E-01
       -2   -1    0    0    0  501  0.00000000000E+00  0.00000000000E+00  0.53273894845E+03  0.53273894845E+03  0.25500000920E-02 0.  1.
        2   -1    0    0  501    0  0.00000000000E+00  0.00000000000E+00 -0.29091410925E+04  0.29091410925E+04  0.25500000920E-02 0. -1.
    10030    2    1    2    0    0  0.00000000000E+00  0.00000000000E+00 -0.23764021441E+04  0.34418800410E+04  0.24898295255E+04 0.  0.
        1    1    3    3  502    0  0.12163910614E+03  0.14228431046E+03  0.51317269728E+03  0.54624821684E+03  0.50400001928E-02 0.  1.
       -1    1    3    3    0  502 -0.12163910614E+03 -0.14228431046E+03 -0.28895748413E+04  0.28956318241E+04  0.50400001928E-02 0. -1.
</event>
<event>
 5   0  0.1468512E-05  0.2501456E+04  0.7818609E-02  0.8402467E-01
       -2   -1    0    0    0  501  0.00000000000E+00  0.00000000000E+00  0.13419671588E+04  0.13419671588E+04  0.25500000920E-02 0. -1.
        2   -1    0    0  501    0  0.00000000000E+00  0.00000000000E+00 -0.11656919574E+04  0.11656919574E+04  0.25500000920E-02 0.  1.
    10030    2    1    2    0    0  0.00000000000E+00  0.00000000000E+00  0.17627520137E+03  0.25076591162E+04  0.25014558354E+04 0.  0.
        4    1    3    3  502    0  0.37515300017E+03  0.43968374154E+03  0.12000577696E+04  0.13319916777E+04  0.12699999809E+01 0. -1.
       -4    1    3    3    0  502 -0.37515300017E+03 -0.43968374154E+03 -0.10237825682E+04  0.11756674385E+04  0.12699999809E+01 0.  1.
</event>
<event>
 5   0  0.1501947E-05  0.2507076E+04  0.7818609E-02  0.8400469E-01
       -2   -1    0    0    0  501  0.00000000000E+00  0.00000000000E+00  0.80581673203E+03  0.80581673203E+03  0.25500000920E-02 0. -1.
        2   -1    0    0  501    0  0.00000000000E+00  0.00000000000E+00 -0.19500188601E+04  0.19500188601E+04  0.25500000920E-02 0.  1.
    10030    2    1    2    0    0  0.00000000000E+00  0.00000000000E+00 -0.11442021281E+04  0.27558355921E+04  0.25070762455E+04 0.  0.
        3    1    3    3  502    0  0.79019076143E+03 -0.54925361436E+03  0.31089507114E+03  0.10113044684E+04  0.10100000352E+00 0. -1.
       -3    1    3    3    0  502 -0.79019076143E+03  0.54925361436E+03 -0.14550971992E+04  0.17445311237E+04  0.10100000352E+00 0.  1.
</event>
<event>
 5   0  0.6477703E-06  0.2495043E+04  0.7818609E-02  0.8404754E-01
        1   -1    0    0  501    0  0.00000000000E+00  0.00000000000E+00  0.19619093498E+04  0.19619093498E+04  0.50400001928E-02 0.  1.
       -1   -1    0    0    0  501  0.00000000000E+00  0.00000000000E+00 -0.79326273234E+03  0.79326273235E+03  0.50400001928E-02 0. -1.
    10030    2    1    2    0    0  0.00000000000E+00  0.00000000000E+00  0.11686466175E+04  0.27551720822E+04  0.24950427423E+04 0.  0.
        5    1    3    3  502    0  0.55784171341E+03 -0.99374171557E+03  0.11447576083E+04  0.16153024628E+04  0.46999998093E+01 0.  1.
       -5    1    3    3    0  502 -0.55784171341E+03  0.99374171557E+03  0.23889009171E+02  0.11398696194E+04  0.46999998093E+01 0. -1.
</event>
<event>
 5   0  0.6104486E-06  0.2508882E+04  0.7818609E-02  0.8399828E-01
       -1   -1    0    0    0  501  0.00000000000E+00  0.00000000000E+00  0.17950242923E+04  0.17950242923E+04  0.50400001928E-02 0.  1.
        1   -1    0    0  501    0  0.00000000000E+00  0.00000000000E+00 -0.87665770108E+03  0.87665770109E+03  0.50400001928E-02 0. -1.
    10030    2    1    2    0    0  0.00000000000E+00  0.00000000000E+00  0.91836659124E+03  0.26716819934E+04  0.25088817186E+04 0.  0.
        2    1    3    3  502    0  0.97770456033E+03  0.78307668668E+03  0.38769624226E+03  0.13112679668E+04  0.25500000920E-02 0. -1.
       -2    1    3    3    0  502 -0.97770456033E+03 -0.78307668668E+03  0.53067034898E+03  0.13604140266E+04  0.25500000920E-02 0.  1.
</event>
<event>
 5   0  0.1572732E-05  0.2512280E+04  0.7818609E-02  0.8398624E-01
       -2   -1    0    0    0  501  0.00000000000E+00  0.00000000000E+00  0.76319406603E+03  0.76319406604E+03  0.25500000920E-02 0. -1.
        2   -1    0    0  501    0  0.00000000000E+00  0.00000000000E+00 -0.20674782621E+04  0.20674782621E+04  0.25500000920E-02 0.  1.
    10030    2    1    2    0    0  0.00000000000E+00  0.00000000000E+00 -0.13042841961E+04  0.28306723282E+04  0.25122795556E+04 0.  0.
        1    1    3    3  502    0 -0.99370242514E+02 -0.66322439270E+03  0.54461030619E+03  0.86391054270E+03  0.50400001928E-02 0. -1.
       -1    1    3    3    0  502  0.99370242514E+02  0.66322439270E+03 -0.18488945023E+04  0.19667617855E+04  0.50400001928E-02 0.  1.
</event>
<event>
 5   0  0.1468512E-05  0.2466266E+04  0.7818609E-02  0.8415103E-01
       -2   -1    0    0    0  501  0.00000000000E+00  0.00000000000E+00  0.62681179095E+03  0.62681179096E+03  0.25500000920E-02 0. -1.
        2   -1    0    0  501    0  0.00000000000E+00  0.00000000000E+00 -0.24259554210E+04  0.24259554210E+04  0.25500000920E-02 0.  1.
    10030    2    1    2    0    0  0.00000000000E+00  0.00000000000E+00 -0.17991436300E+04  0.30527672119E+04  0.24662663783E+04 0.  0.
        4    1    3    3  502    0  0.63642144523E+02 -0.11823592354E+04 -0.13258388079E+04  0.17776033983E+04  0.12699999809E+01 0.  1.
       -4    1    3    3    0  502 -0.63642144523E+02  0.11823592354E+04 -0.47330482213E+03  0.12751638137E+04  0.12699999809E+01 0. -1.
</event>
<event>
 5   0  0.1501947E-05  0.2499904E+04  0.7818609E-02  0.8403020E-01
        2   -1    0    0  501    0  0.00000000000E+00  0.00000000000E+00  0.16582698974E+04  0.16582698974E+04  0.25500000920E-02 0.  1.
       -2   -1    0    0    0  501  0.00000000000E+00  0.00000000000E+00 -0.94217451487E+03  0.94217451488E+03  0.25500000920E-02 0. -1.
    10030    2    1    2    0    0  0.00000000000E+00  0.00000000000E+00  0.71609538257E+03  0.26004444123E+04  0.24999037071E+04 0.  0.
        3    1    3    3  502    0 -0.51104144507E+02 -0.48052278361E+03  0.15571738136E+04  0.16304306410E+04  0.10100000352E+00 0.  1.
       -3    1    3    3    0  502  0.51104144507E+02  0.48052278361E+03 -0.84107843105E+03  0.97001377131E+03  0.10100000352E+00 0. -1.
</event>
<event>
 5   0  0.6290861E-06  0.2494576E+04  0.7818609E-02  0.8404920E-01
        1   -1    0    0  501    0  0.00000000000E+00  0.00000000000E+00  0.10236616326E+04  0.10236616326E+04  0.50400001928E-02 0.  1.
       -1   -1    0    0    0  501  0.00000000000E+00  0.00000000000E+00 -0.15197675098E+04  0.15197675098E+04  0.50400001928E-02 0. -1.
    10030    2    1    2    0    0  0.00000000000E+00  0.00000000000E+00 -0.49610587724E+03  0.25434291424E+04  0.24945762689E+04 0.  0.
        1    1    3    3  502    0 -0.92974877452E+03  0.30180749489E+03  0.54184946655E+03  0.11176409943E+04  0.50400001928E-02 0.  1.
       -1    1    3    3    0  502  0.92974877452E+03 -0.30180749489E+03 -0.10379553438E+04  0.14257881482E+04  0.50400001928E-02 0. -1.
</event>
<event>
 5   0  0.1526824E-05  0.2605157E+04  0.7818609E-02  0.8366451E-01
       -2   -1    0    0    0  501  0.00000000000E+00  0.00000000000E+00  0.68596761458E+03  0.68596761458E+03  0.25500000920E-02 0. -1.
        2   -1    0    0  501    0  0.00000000000E+00  0.00000000000E+00 -0.24734567794E+04  0.24734567794E+04  0.25500000920E-02 0.  1.
    10030    2    1    2    0    0  0.00000000000E+00  0.00000000000E+00 -0.17874891649E+04  0.31594243940E+04  0.26051573824E+04 0.  0.
        2    1    3    3  502    0 -0.63167759673E+03  0.18677663179E+03  0.46908911104E+03  0.80866970421E+03  0.25500000920E-02 0. -1.
       -2    1    3    3    0  502  0.63167759673E+03 -0.18677663179E+03 -0.22565782759E+04  0.23507546898E+04  0.25500000920E-02 0.  1.
</event>
<event>
 5   0  0.6290861E-06  0.2510391E+04  0.7818609E-02  0.8399293E-01
       -1   -1    0    0    0  501  0.00000000000E+00  0.00000000000E+00  0.11445897892E+04  0.11445897892E+04  0.50400001928E-02 0. -1.
        1   -1    0    0  501    0  0.00000000000E+00  0.00000000000E+00 -0.13764893072E+04  0.13764893072E+04  0.50400001928E-02 0.  1.
    10030    2    1    2    0    0  0.00000000000E+00  0.00000000000E+00 -0.23189951801E+03  0.25210790965E+04  0.25103908907E+04 0.  0.
        1    1    3    3  502    0  0.73138977647E+03 -0.50998361810E+03  0.77127149957E+03  0.11789291844E+04  0.50400001928E-02 0. -1.
       -1    1    3    3    0  502 -0.73138977647E+03  0.50998361810E+03 -0.10031710176E+04  0.13421499120E+04  0.50400001928E-02 0.  1.
</event>
<event>
 5   0  0.6104486E-06  0.2495849E+04  0.7818609E-02  0.8404466E-01
        1   -1    0    0  501    0  0.00000000000E+00  0.00000000000E+00  0.14071055566E+04  0.14071055566E+04  0.50400001928E-02 0.  1.
       -1   -1    0    0    0  501  0.00000000000E+00  0.00000000000E+00 -0.11067508562E+04  0.11067508562E+04  0.50400001928E-02 0. -1.
    10030    2    1    2    0    0  0.00000000000E+00  0.00000000000E+00  0.30035470041E+03  0.25138564128E+04  0.24958487771E+04 0.  0.
        2    1    3    3  502    0 -0.19506274776E+03 -0.11445597031E+04 -0.31056038300E+03  0.12018794203E+04  0.25500000920E-02 0. -1.
       -2    1    3    3    0  502  0.19506274776E+03  0.11445597031E+04  0.61091508340E+03  0.13119769924E+04  0.25500000920E-02 0.  1.
</event>
<event>
 5   0  0.1550483E-05  0.2472980E+04  0.7818609E-02  0.8412675E-01
       -2   -1    0    0    0  501  0.00000000000E+00  0.00000000000E+00  0.86654450480E+03  0.86654450480E+03  0.25500000920E-02 0. -1.
        2   -1    0    0  501    0  0.00000000000E+00  0.00000000000E+00 -0.17643730161E+04  0.17643730161E+04  0.25500000920E-02 0.  1.
    10030    2    1    2    0    0  0.00000000000E+00  0.00000000000E+00 -0.89782851131E+03  0.26309175209E+04  0.24729801791E+04 0.  0.
        5    1    3    3  502    0  0.55220143562E+03 -0.16095466994E+03 -0.16133742712E+04  0.17128430927E+04  0.46999998093E+01 0.  1.
       -5    1    3    3    0  502 -0.55220143562E+03  0.16095466994E+03  0.71554575987E+03  0.91807442822E+03  0.46999998093E+01 0. -1.
</event>
<event>
 5   0  0.6290861E-06  0.2501861E+04  0.7818609E-02  0.8402323E-01
       -1   -1    0    0    0  501  0.00000000000E+00  0.00000000000E+00  0.18547870892E+04  0.18547870892E+04  0.50400001928E-02 0.  1.
        1   -1    0    0  501    0  0.00000000000E+00  0.00000000000E+00 -0.84366967131E+03  0.84366967133E+03  0.50400001928E-02 0. -1.
    10030    2    1    2    0    0  0.00000000000E+00  0.00000000000E+00  0.10111174179E+04  0.26984567605E+04  0.25018613982E+04 0.  0.
        1    1    3    3  502    0  0.44022513880E+03 -0.11363267297E+04  0.81022835164E+03  0.14633887355E+04  0.50400001928E-02 0.  1.
       -1    1    3    3    0  502 -0.44022513880E+03  0.11363267297E+04  0.20088906623E+03  0.12350680250E+04  0.50400001928E-02 0. -1.
</event>
<event>
 5   0  0.1468512E-05  0.2489664E+04  0.7818609E-02  0.8406677E-01
        2   -1    0    0  501    0  0.00000000000E+00  0.00000000000E+00  0.16376095532E+04  0.16376095532E+04  0.25500000920E-02 0.  1.
       -2   -1    0    0    0  501  0.00000000000E+00  0.00000000000E+00 -0.94626116861E+03  0.94626116862E+03  0.25500000920E-02 0. -1.
    10030    2    1    2    0    0  0.00000000000E+00  0.00000000000E+00  0.69134838459E+03  0.25838707218E+04  0.24896636958E+04 0.  0.
        4    1    3    3  502    0 -0.10621827731E+04 -0.56000961576E+03  0.49818922977E+01  0.12007786830E+04  0.12699999809E+01 0. -1.
       -4    1    3    3    0  502  0.10621827731E+04  0.56000961576E+03  0.68636649230E+03  0.13830920389E+04  0.12699999809E+01 0.  1.
</event>
<event>
 5   0  0.5164625E-06  0.2490871E+04  0.7818609E-02  0.8406245E-01
       -3   -1    0    0    0  501  0.00000000000E+00  0.00000000000E+00  0.96597780727E+03  0.96597781255E+03  0.10100000352E+00 0. -1.
        3   -1    0    0  501    0  0.00000000000E+00  0.00000000000E+00 -0.16057399657E+04  0.16057399689E+04  0.10100000352E+00 0.  1.
    10030    2    1    2    0    0  0.00000000000E+00  0.00000000000E+00 -0.63976215841E+03  0.25717177814E+04  0.24908706767E+04 0.  0.
        1    1    3    3  502    0 -0.11857509010E+04 -0.95871319617E+02 -0.70051028119E+03  0.13805474143E+04  0.50400001928E-02 0.  1.
       -1    1    3    3    0  502  0.11857509010E+04  0.95871319617E+02  0.60748122783E+02  0.11911703671E+04  0.50400001928E-02 0. -1.
</event>
<event>
 5   0  0.1501947E-05  0.2510436E+04  0.7818609E-02  0.8399277E-01
        2   -1    0    0  501    0  0.00000000000E+00  0.00000000000E+00  0.15447240689E+04  0.15447240689E+04  0.25500000920E-02 0.  1.
       -2   -1    0    0    0  501  0.00000000000E+00  0.00000000000E+00 -0.10199702504E+04  0.10199702504E+04  0.25500000920E-02 0. -1.
    10030    2    1    2    0    0  0.00000000000E+00  0.00000000000E+00  0.52475381847E+03  0.25646943193E+04  0.25104362931E+04 0.  0.
        3    1    3    3  502    0 -0.36718173356E+01 -0.60067993816E+03 -0.86359759458E+03  0.10519651543E+04  0.10100000352E+00 0. -1.
       -3    1    3    3    0  502  0.36718173356E+01  0.60067993816E+03  0.13883514130E+04  0.15127291650E+04  0.10100000352E+00 0.  1.
</event>
<event>
 5   0  0.1501947E-05  0.2481335E+04  0.7818609E-02  0.8409665E-01
        2   -1    0    0  501    0  0.00000000000E+00  0.00000000000E+00  0.11206499038E+04  0.11206499038E+04  0.25500000920E-02 0. -1.
       -2   -1    0    0    0  501  0.00000000000E+00  0.00000000000E+00 -0.13735388018E+04  0.13735388018E+04  0.25500000920E-02 0.  1.
    10030    2    1    2    0    0  0.00000000000E+00  0.00000000000E+00 -0.25288889797E+03  0.24941887057E+04  0.24813352262E+04 0.  0.
        3    1    3    3  502    0 -0.19657389498E+03 -0.12249067010E+04 -0.14129914508E+03  0.12486004890E+04  0.10100000352E+00 0. -1.
       -3    1    3    3    0  502  0.19657389498E+03  0.12249067010E+04 -0.11158975289E+03  0.12455882167E+04  0.10100000352E+00 0.  1.
</event>
<event>
 5   0  0.6105353E-06  0.2507923E+04  0.7818609E-02  0.8400168E-01
       -1   -1    0    0    0  501  0.00000000000E+00  0.00000000000E+00  0.10390643770E+04  0.10390643770E+04  0.50400001928E-02 0. -1.
        1   -1    0    0  501    0  0.00000000000E+00  0.00000000000E+00 -0.15133035606E+04  0.15133035606E+04  0.50400001928E-02 0.  1.
    10030    2    1    2    0    0  0.00000000000E+00  0.00000000000E+00 -0.47423918358E+03  0.25523679376E+04  0.25079233014E+04 0.  0.
        3    1    3    3  502    0  0.73044362766E+03 -0.52402895201E+03 -0.11268351378E+04  0.14414963315E+04  0.10100000352E+00 0.  1.
       -3    1    3    3    0  502 -0.73044362766E+03  0.52402895201E+03  0.65259595420E+03  0.11108716062E+04  0.10100000352E+00 0. -1.
</event>
<event>
 5   0  0.1526824E-05  0.2661088E+04  0.7818609E-02  0.8347742E-01
        2   -1    0    0  501    0  0.00000000000E+00  0.00000000000E+00  0.16163504484E+04  0.16163504484E+04  0.25500000920E-02 0.  1.
       -2   -1    0    0    0  501  0.00000000000E+00  0.00000000000E+00 -0.10952745208E+04  0.10952745208E+04  0.25500000920E-02 0. -1.
    10030    2    1    2    0    0  0.00000000000E+00  0.00000000000E+00  0.52107592764E+03  0.27116249691E+04  0.26610880953E+04 0.  0.
        2    1    3    3  502    0 -0.36370960262E+03 -0.10944106754E+04  0.93671209828E+03  0.14857486182E+04  0.25500000920E-02 0.  1.
       -2    1    3    3    0  502  0.36370960262E+03  0.10944106754E+04 -0.41563617064E+03  0.12258763509E+04  0.25500000920E-02 0. -1.
</event>
<event>
 5   0  0.1468512E-05  0.2503050E+04  0.7818609E-02  0.8401900E-01
       -2   -1    0    0    0  501  0.00000000000E+00  0.00000000000E+00  0.11286127631E+04  0.11286127631E+04  0.25500000920E-02 0. -1.
        2   -1    0    0  501    0  0.00000000000E+00  0.00000000000E+00 -0.13878233376E+04  0.13878233376E+04  0.25500000920E-02 0.  1.
    10030    2    1    2    0    0  0.00000000000E+00  0.00000000000E+00 -0.25921057446E+03  0.25164361007E+04  0.25030502446E+04 0.  0.
        4    1    3    3  502    0  0.11588014713E+04  0.64395253440E+01 -0.60483948677E+03  0.13071705073E+04  0.12699999809E+01 0.  1.
       -4    1    3    3    0  502 -0.11588014713E+04 -0.64395253440E+01  0.34562891231E+03  0.12092655934E+04  0.12699999809E+01 0. -1.
</event>
<event>
 5   0  0.1468512E-05  0.2507676E+04  0.7818609E-02  0.8400256E-01
       -2   -1    0    0    0  501  0.00000000000E+00  0.00000000000E+00  0.11781744216E+04  0.11781744216E+04  0.25500000920E-02 0.  1.
        2   -1    0    0  501    0  0.00000000000E+00  0.00000000000E+00 -0.13343605180E+04  0.13343605180E+04  0.25500000920E-02 0. -1.
    10030    2    1    2    0    0  0.00000000000E+00  0.00000000000E+00 -0.15618609640E+03  0.25125349395E+04  0.25076757617E+04 0.  0.
        4    1    3    3  502    0 -0.38109998863E+03  0.25002744632E+03  0.10922272089E+04  0.11835171372E+04  0.12699999809E+01 0.  1.
       -4    1    3    3    0  502  0.38109998863E+03 -0.25002744632E+03 -0.12484133053E+04  0.13290178023E+04  0.12699999809E+01 0. -1.
</event>
<event>
 5   0  0.6346420E-06  0.2496580E+04  0.7818609E-02  0.8404205E-01
       -1   -1    0    0    0  501  0.00000000000E+00  0.00000000000E+00  0.68779038503E+03  0.68779038505E+03  0.50400001928E-02 0. -1.
        1   -1    0    0  501    0  0.00000000000E+00  0.00000000000E+00 -0.22655555952E+04  0.22655555952E+04  0.50400001928E-02 0.  1.
    10030    2    1    2    0    0  0.00000000000E+00  0.00000000000E+00 -0.15777652101E+04  0.29533459802E+04  0.24965795442E+04 0.  0.
        4    1    3    3  502    0  0.12232914313E+04 -0.20880703369E+03 -0.62936562008E+03  0.13914542751E+04  0.12699999809E+01 0. -1.
       -4    1    3    3    0  502 -0.12232914313E+04  0.20880703369E+03 -0.94839959004E+03  0.15618917051E+04  0.12699999809E+01 0.  1.
</event>
<event>
 5   0  0.6105353E-06  0.2504014E+04  0.7818609E-02  0.8401557E-01
        1   -1    0    0  501    0  0.00000000000E+00  0.00000000000E+00  0.15807460223E+04  0.15807460223E+04  0.50400001928E-02 0.  1.
       -1   -1    0    0    0  501  0.00000000000E+00  0.00000000000E+00 -0.99163403779E+03  0.99163403780E+03  0.50400001928E-02 0. -1.
    10030    2    1    2    0    0  0.00000000000E+00  0.00000000000E+00  0.58911198454E+03  0.25723800601E+04  0.25040140262E+04 0.  0.
        3    1    3    3  502    0 -0.16728739076E+03  0.43544230282E+03 -0.89902923655E+03  0.10128418675E+04  0.10100000352E+00 0. -1.
       -3    1    3    3    0  502  0.16728739076E+03 -0.43544230282E+03  0.14881412211E+04  0.15595381926E+04  0.10100000352E+00 0.  1.
</event>
<event>
 5   0  0.6290861E-06  0.2493381E+04  0.7818609E-02  0.8405347E-01
        1   -1    0    0  501    0  0.00000000000E+00  0.00000000000E+00  0.19779645097E+04  0.19779645097E+04  0.50400001928E-02 0. -1.
       -1   -1    0    0    0  501  0.00000000000E+00  0.00000000000E+00 -0.78577615266E+03  0.78577615267E+03  0.50400001928E-02 0.  1.
    10030    2    1    2    0    0  0.00000000000E+00  0.00000000000E+00  0.11921883570E+04  0.27637406624E+04  0.24933811121E+04 0.  0.
        1    1    3    3  502    0  0.26878756943E+03 -0.14495793577E+03 -0.74367637613E+03  0.80393663498E+03  0.50400001928E-02 0.  1.
       -1    1    3    3    0  502 -0.26878756943E+03  0.14495793577E+03  0.19358647332E+04  0.19598040274E+04  0.50400001928E-02 0. -1.
</event>
<event>
 5   0  0.6346420E-06  0.2493063E+04  0.7818609E-02  0.8405461E-01
        1   -1    0    0  501    0  0.00000000000E+00  0.00000000000E+00  0.15786548649E+04  0.15786548649E+04  0.50400001928E-02 0.  1.
       -1   -1    0    0    0  501  0.00000000000E+00  0.00000000000E+00 -0.98428173673E+03  0.98428173674E+03  0.50400001928E-02 0. -1.
    10030    2    1    2    0    0  0.00000000000E+00  0.00000000000E+00  0.59437312820E+03  0.25629366017E+04  0.24930632982E+04 0.  0.
        4    1    3    3  502    0  0.79923002455E+03 -0.95111707936E+03  0.19211028422E+03  0.12570999582E+04  0.12699999809E+01 0.  1.
       -4    1    3    3    0  502 -0.79923002455E+03  0.95111707936E+03  0.40226284398E+03  0.13058366434E+04  0.12699999809E+01 0. -1.
</event>
<event>
 5   0  0.6290861E-06  0.2492222E+04  0.7818609E-02  0.8405762E-01
       -1   -1    0    0    0  501  0.00000000000E+00  0.00000000000E+00  0.98675305508E+03  0.98675305509E+03  0.50400001928E-02 0.  1.
        1   -1    0    0  501    0  0.00000000000E+00  0.00000000000E+00 -0.15736379971E+04  0.15736379972E+04  0.50400001928E-02 0. -1.
    10030    2    1    2    0    0  0.00000000000E+00  0.00000000000E+00 -0.58688494206E+03  0.25603910522E+04  0.24922215803E+04 0.  0.
        1    1    3    3  502    0 -0.41853514214E+03  0.95393574610E+03  0.40909493206E+03  0.11191620689E+04  0.50400001928E-02 0.  1.
       -1    1    3    3    0  502  0.41853514214E+03 -0.95393574610E+03 -0.99597987412E+03  0.14412289834E+04  0.50400001928E-02 0. -1.
</event>
<event>
 5   0  0.1526824E-05  0.2516696E+04  0.7818609E-02  0.8397062E-01
       -2   -1    0    0    0  501  0.00000000000E+00  0.00000000000E+00  0.75168043472E+03  0.75168043472E+03  0.25500000920E-02 0. -1.
        2   -1    0    0  501    0  0.00000000000E+00  0.00000000000E+00 -0.21065324653E+04  0.21065324653E+04  0.25500000920E-02 0.  1.
    10030    2    1    2    0    0  0.00000000000E+00  0.00000000000E+00 -0.13548520306E+04  0.28582129000E+04  0.25166956425E+04 0.  0.
        2    1    3    3  502    0  0.84916260601E+03 -0.16953572591E+03  0.35950024770E+03  0.93758195477E+03  0.25500000920E-02 0. -1.
       -2    1    3    3    0  502 -0.84916260601E+03  0.16953572591E+03 -0.17143522783E+04  0.19206309453E+04  0.25500000920E-02 0.  1.
</event>
<event>
 5   0  0.6346420E-06  0.2514103E+04  0.7818609E-02  0.8397978E-01
       -1   -1    0    0    0  501  0.00000000000E+00  0.00000000000E+00  0.15306207909E+04  0.15306207909E+04  0.50400001928E-02 0.  1.
        1   -1    0    0  501    0  0.00000000000E+00  0.00000000000E+00 -0.10323774716E+04  0.10323774716E+04  0.50400001928E-02 0. -1.
    10030    2    1    2    0    0  0.00000000000E+00  0.00000000000E+00  0.49824331935E+03  0.25629982626E+04  0.25141029590E+04 0.  0.
        4    1    3    3  502    0  0.10983182828E+04 -0.34953095853E+03  0.76057788834E+03  0.13809255151E+04  0.12699999809E+01 0.  1.
       -4    1    3    3    0  502 -0.10983182828E+04  0.34953095853E+03 -0.26233456899E+03  0.11820727474E+04  0.12699999809E+01 0. -1.
</event>
<event>
 5   0  0.1526824E-05  0.2508964E+04  0.7818609E-02  0.8399799E-01
       -2   -1    0    0    0  501  0.00000000000E+00  0.00000000000E+00  0.14265164257E+04  0.14265164257E+04  0.25500000920E-02 0.  1.
        2   -1    0    0  501    0  0.00000000000E+00  0.00000000000E+00 -0.11031947032E+04  0.11031947032E+04  0.25500000920E-02 0. -1.
    10030    2    1    2    0    0  0.00000000000E+00  0.00000000000E+00  0.32332172252E+03  0.25297111288E+04  0.25089642204E+04 0.  0.
        2    1    3    3  502    0 -0.10396807401E+04 -0.63084890811E+02  0.86659141660E+03  0.13549525557E+04  0.25500000920E-02 0.  1.
       -2    1    3    3    0  502  0.10396807401E+04  0.63084890811E+02 -0.54326969408E+03  0.11747585732E+04  0.25500000920E-02 0. -1.
</event>
<event>
 5   0  0.6290861E-06  0.2483510E+04  0.7818609E-02  0.8408884E-01
        1   -1    0    0  501    0  0.00000000000E+00  0.00000000000E+00  0.97943512455E+03  0.97943512456E+03  0.50400001928E-02 0.  1.
       -1   -1    0    0    0  501  0.00000000000E+00  0.00000000000E+00 -0.15743316087E+04  0.15743316087E+04  0.50400001928E-02 0. -1.
    10030    2    1    2    0    0  0.00000000000E+00  0.00000000000E+00 -0.59489648417E+03  0.25537667333E+04  0.24835101573E+04 0.  0.
        1    1    3    3  502    0 -0.27406368401E+03  0.10054534731E+04  0.39686257605E+03  0.11151446067E+04  0.50400001928E-02 0.  1.
       -1    1    3    3    0  502  0.27406368401E+03 -0.10054534731E+04 -0.99175906022E+03  0.14386221266E+04  0.50400001928E-02 0. -1.
</event>
<event>
 5   0  0.6105353E-06  0.2517793E+04  0.7818609E-02  0.8396674E-01
       -1   -1    0    0    0  501  0.00000000000E+00  0.00000000000E+00  0.97349188628E+03  0.97349188629E+03  0.50400001928E-02 0. -1.
        1   -1    0    0  501    0  0.00000000000E+00  0.00000000000E+00 -0.16279744847E+04  0.16279744847E+04  0.50400001928E-02 0.  1.
    10030    2    1    2    0    0  0.00000000000E+00  0.00000000000E+00 -0.65448259840E+03  0.26014663710E+04  0.25177926459E+04 0.  0.
        3    1    3    3  502    0 -0.10068242359E+04 -0.15115726493E+02  0.45344563908E+03  0.11043262584E+04  0.10100000352E+00 0. -1.
       -3    1    3    3    0  502  0.10068242359E+04  0.15115726493E+02 -0.11079282375E+04  0.14971401126E+04  0.10100000352E+00 0.  1.
</event>
<event>
 5   0  0.1526824E-05  0.2419808E+04  0.7818609E-02  0.8432125E-01
        2   -1    0    0  501    0  0.00000000000E+00  0.00000000000E+00  0.10384666714E+04  0.10384666714E+04  0.25500000920E-02 0.  1.
       -2   -1    0    0    0  501  0.00000000000E+00  0.00000000000E+00 -0.14096433915E+04  0.14096433915E+04  0.25500000920E-02 0. -1.
    10030    2    1    2    0    0  0.00000000000E+00  0.00000000000E+00 -0.37117672006E+03  0.24481100628E+04  0.24198079929E+04 0.  0.
        2    1    3    3  502    0  0.62268243157E+03  0.82380634112E+03 -0.82342026995E+03  0.13207616133E+04  0.25500000920E-02 0. -1.
       -2    1    3    3    0  502 -0.62268243157E+03 -0.82380634112E+03  0.45224354988E+03  0.11273484495E+04  0.25500000920E-02 0.  1.
</event>
<event>
 5   0  0.1501947E-05  0.2512355E+04  0.7818609E-02  0.8398597E-01
        2   -1    0    0  501    0  0.00000000000E+00  0.00000000000E+00  0.13365468382E+04  0.13365468382E+04  0.25500000920E-02 0.  1.
       -2   -1    0    0    0  501  0.00000000000E+00  0.00000000000E+00 -0.11806405912E+04  0.11806405912E+04  0.25500000920E-02 0. -1.
    10030    2    1    2    0    0  0.00000000000E+00  0.00000000000E+00  0.15590624702E+03  0.25171874294E+04  0.25123546319E+04 0.  0.
        3    1    3    3  502    0 -0.15660192911E+03 -0.12361835023E+04 -0.81436591005E+02  0.12487216440E+04  0.10100000352E+00 0. -1.
       -3    1    3    3    0  502  0.15660192911E+03  0.12361835023E+04  0.23734283802E+03  0.12684657854E+04  0.10100000352E+00 0.  1.
</event>
<event>
 5   0  0.1550483E-05  0.2505295E+04  0.7818609E-02  0.8401102E-01
        2   -1    0    0  501    0  0.00000000000E+00  0.00000000000E+00  0.54480207239E+03  0.54480207240E+03  0.25500000920E-02 0. -1.
       -2   -1    0    0    0  501  0.00000000000E+00  0.00000000000E+00 -0.28801753336E+04  0.28801753336E+04  0.25500000920E-02 0.  1.
    10030    2    1    2    0    0  0.00000000000E+00  0.00000000000E+00 -0.23353732612E+04  0.34249774060E+04  0.25052947855E+04 0.  0.
        5    1    3    3  502    0 -0.36429799634E+03 -0.69233462029E+03 -0.25051108158E+04  0.26244318520E+04  0.46999998093E+01 0.  1.
       -5    1    3    3    0  502  0.36429799634E+03  0.69233462029E+03  0.16973755456E+03  0.80054555399E+03  0.46999998093E+01 0. -1.
</event>
<event>
 5   0  0.6346420E-06  0.2499703E+04  0.7818609E-02  0.8403091E-01
        1   -1    0    0  501    0  0.00000000000E+00  0.00000000000E+00  0.17279376426E+04  0.17279376426E+04  0.50400001928E-02 0.  1.
       -1   -1    0    0    0  501  0.00000000000E+00  0.00000000000E+00 -0.90404228216E+03  0.90404228218E+03  0.50400001928E-02 0. -1.
    10030    2    1    2    0    0  0.00000000000E+00  0.00000000000E+00  0.82389536043E+03  0.26319799248E+04  0.24997029342E+04 0.  0.
        4    1    3    3  502    0  0.35445381435E+03 -0.21796245414E+03 -0.82896856970E+03  0.92754279706E+03  0.12699999809E+01 0. -1.
       -4    1    3    3    0  502 -0.35445381435E+03  0.21796245414E+03  0.16528639301E+04  0.17044371277E+04  0.12699999809E+01 0.  1.
</event>
<event>
 5   0  0.6290861E-06  0.2491596E+04  0.7818609E-02  0.8405986E-01
        1   -1    0    0  501    0  0.00000000000E+00  0.00000000000E+00  0.12667091736E+04  0.12667091736E+04  0.50400001928E-02 0. -1.
       -1   -1    0    0    0  501  0.00000000000E+00  0.00000000000E+00 -0.12252319600E+04  0.12252319600E+04  0.50400001928E-02 0.  1.
    10030    2    1    2    0    0  0.00000000000E+00  0.00000000000E+00  0.41477213583E+02  0.24919411336E+04  0.24915959251E+04 0.  0.
        1    1    3    3  502    0  0.67863222850E+03 -0.98851664445E+03 -0.31739950357E+03  0.12403424135E+04  0.50400001928E-02 0.  1.
       -1    1    3    3    0  502 -0.67863222850E+03  0.98851664445E+03  0.35887671715E+03  0.12515987201E+04  0.50400001928E-02 0. -1.
</event>
<event>
 5   0  0.6105353E-06  0.2500850E+04  0.7818609E-02  0.8402683E-01
        1   -1    0    0  501    0  0.00000000000E+00  0.00000000000E+00  0.14203248417E+04  0.14203248418E+04  0.50400001928E-02 0.  1.
       -1   -1    0    0    0  501  0.00000000000E+00  0.00000000000E+00 -0.11008489395E+04  0.11008489396E+04  0.50400001928E-02 0. -1.
    10030    2    1    2    0    0  0.00000000000E+00  0.00000000000E+00  0.31947590221E+03  0.25211737813E+04  0.25008503321E+04 0.  0.
        3    1    3    3  502    0  0.20891110609E+03  0.11311535401E+04 -0.33456381443E+03  0.11979503903E+04  0.10100000352E+00 0. -1.
       -3    1    3    3    0  502 -0.20891110609E+03 -0.11311535401E+04  0.65403971663E+03  0.13232233910E+04  0.10100000352E+00 0.  1.
</event>
<event>
 5   0  0.1501947E-05  0.2490556E+04  0.7818609E-02  0.8406358E-01
       -2   -1    0    0    0  501  0.00000000000E+00  0.00000000000E+00  0.78592936641E+03  0.78592936641E+03  0.25500000920E-02 0. -1.
        2   -1    0    0  501    0  0.00000000000E+00  0.00000000000E+00 -0.19730999475E+04  0.19730999475E+04  0.25500000920E-02 0.  1.
    10030    2    1    2    0    0  0.00000000000E+00  0.00000000000E+00 -0.11871705811E+04  0.27590293139E+04  0.24905559151E+04 0.  0.
        3    1    3    3  502    0 -0.43415697152E+03 -0.11087639627E+04 -0.18978260328E+03  0.12057641758E+04  0.10100000352E+00 0. -1.
       -3    1    3    3    0  502  0.43415697152E+03  0.11087639627E+04 -0.99738797778E+03  0.15532651381E+04  0.10100000352E+00 0.  1.
</event>
<event>
 5   0  0.1526824E-05  0.2482195E+04  0.7818609E-02  0.8409356E-01
        2   -1    0    0  501    0  0.00000000000E+00  0.00000000000E+00  0.19033873925E+04  0.19033873925E+04  0.25500000920E-02 0.  1.
       -2   -1    0    0    0  501  0.00000000000E+00  0.00000000000E+00 -0.80925376028E+03  0.80925376029E+03  0.25500000920E-02 0. -1.
    10030    2    1    2    0    0  0.00000000000E+00  0.00000000000E+00  0.10941336322E+04  0.27126411528E+04  0.24821953224E+04 0.  0.
        2    1    3    3  502    0 -0.83632429557E+03 -0.61369358718E+03  0.12916950276E+04  0.16566635720E+04  0.25500000920E-02 0.  1.
       -2    1    3    3    0  502  0.83632429557E+03  0.61369358718E+03 -0.19756139537E+03  0.10559775808E+04  0.25500000920E-02 0. -1.
</event>
<event>
 5   0  0.6104486E-06  0.2510305E+04  0.7818609E-02  0.8399323E-01
       -1   -1    0    0    0  501  0.00000000000E+00  0.00000000000E+00  0.84708638606E+03  0.84708638608E+03  0.50400001928E-02 0. -1.
        1   -1    0    0  501    0  0.00000000000E+00  0.00000000000E+00 -0.18597966147E+04  0.18597966147E+04  0.50400001928E-02 0.  1.
    10030    2    1    2    0    0  0.00000000000E+00  0.00000000000E+00 -0.10127102286E+04  0.27068830008E+04  0.25103054740E+04 0.  0.
        2    1    3    3  502    0 -0.99295561865E+03  0.74422327665E+03 -0.70975058991E+03  0.14295366543E+04  0.25500000920E-02 0. -1.
       -2    1    3    3    0  502  0.99295561865E+03 -0.74422327665E+03 -0.30295963870E+03  0.12773463465E+04  0.25500000920E-02 0.  1.
</event>
<event>
 5   0  0.6104486E-06  0.2459864E+04  0.7818609E-02  0.8417425E-01
       -1   -1    0    0    0  501  0.00000000000E+00  0.00000000000E+00  0.15264932459E+04  0.15264932459E+04  0.50400001928E-02 0.  1.
        1   -1    0    0  501    0  0.00000000000E+00  0.00000000000E+00 -0.99098580067E+03  0.99098580069E+03  0.50400001928E-02 0. -1.
    10030    2    1    2    0    0  0.00000000000E+00  0.00000000000E+00  0.53550744524E+03  0.25174790466E+04  0.24598643309E+04 0.  0.
        2    1    3    3  502    0 -0.10059276610E+04  0.57340164610E+03 -0.15675451074E+03  0.11684399358E+04  0.25500000920E-02 0. -1.
       -2    1    3    3    0  502  0.10059276610E+04 -0.57340164610E+03  0.69226195598E+03  0.13490391108E+04  0.25500000920E-02 0.  1.
</event>
<event>
 5   0  0.1468512E-05  0.2546220E+04  0.7818609E-02  0.8386702E-01
        2   -1    0    0  501    0  0.00000000000E+00  0.00000000000E+00  0.18273242388E+04  0.18273242388E+04  0.25500000920E-02 0. -1.
       -2   -1    0    0    0  501  0.00000000000E+00  0.00000000000E+00 -0.88698480297E+03  0.88698480298E+03  0.25500000920E-02 0.  1.
    10030    2    1    2    0    0  0.00000000000E+00  0.00000000000E+00  0.94033943580E+03  0.27143090418E+04  0.25462198098E+04 0.  0.
        4    1    3    3  502    0  0.38757256581E+03  0.83060715312E+03 -0.47172363060E+03  0.10308469979E+04  0.12699999809E+01 0.  1.
       -4    1    3    3    0  502 -0.38757256581E+03 -0.83060715312E+03  0.14120630664E+04  0.16834620438E+04  0.12699999809E+01 0. -1.
</event>
<event>
 5   0  0.6105353E-06  0.2496262E+04  0.7818609E-02  0.8404318E-01
        1   -1    0    0  501    0  0.00000000000E+00  0.00000000000E+00  0.16651110319E+04  0.16651110319E+04  0.50400001928E-02 0.  1.
       -1   -1    0    0    0  501  0.00000000000E+00  0.00000000000E+00 -0.93557204549E+03  0.93557204550E+03  0.50400001928E-02 0. -1.
    10030    2    1    2    0    0  0.00000000000E+00  0.00000000000E+00  0.72953898645E+03  0.26006830774E+04  0.24962622732E+04 0.  0.
        3    1    3    3  502    0 -0.37429549078E+03 -0.49035074827E+03  0.14951873552E+04  0.16174443447E+04  0.10100000352E+00 0.  1.
       -3    1    3    3    0  502  0.37429549078E+03  0.49035074827E+03 -0.76564836878E+03  0.98323873274E+03  0.10100000352E+00 0. -1.
</event>
<event>
 5   0  0.1572732E-05  0.2496881E+04  0.7818609E-02  0.8404098E-01
        2   -1    0    0  501    0  0.00000000000E+00  0.00000000000E+00  0.11345542218E+04  0.11345542218E+04  0.25500000920E-02 0.  1.
       -2   -1    0    0    0  501  0.00000000000E+00  0.00000000000E+00 -0.13737586368E+04  0.13737586368E+04  0.25500000920E-02 0. -1.
    10030    2    1    2    0    0  0.00000000000E+00  0.00000000000E+00 -0.23920441508E+03  0.25083128586E+04  0.24968809832E+04 0.  0.
        1    1    3    3  502    0 -0.95316580158E+03 -0.24105964506E+03  0.65331556722E+03  0.11804473848E+04  0.50400001928E-02 0.  1.
       -1    1    3    3    0  502  0.95316580158E+03  0.24105964506E+03 -0.89251998230E+03  0.13278654738E+04  0.50400001928E-02 0. -1.
</event>
<event>
 5   0  0.6104486E-06  0.2489870E+04  0.7818609E-02  0.8406603E-01
        1   -1    0    0  501    0  0.00000000000E+00  0.00000000000E+00  0.11659879410E+04  0.11659879410E+04  0.50400001928E-02 0.  1.
       -1   -1    0    0    0  501  0.00000000000E+00  0.00000000000E+00 -0.13292270293E+04  0.13292270293E+04  0.50400001928E-02 0. -1.
    10030    2    1    2    0    0  0.00000000000E+00  0.00000000000E+00 -0.16323908828E+03  0.24952149703E+04  0.24898696247E+04 0.  0.
        2    1    3    3  502    0 -0.12093854148E+04  0.24415221961E+03  0.84988080390E+02  0.12367078724E+04  0.25500000920E-02 0.  1.
       -2    1    3    3    0  502  0.12093854148E+04 -0.24415221961E+03 -0.24822716867E+03  0.12585070978E+04  0.25500000920E-02 0. -1.
</event>
<event>
 5   0  0.6346420E-06  0.2502102E+04  0.7818609E-02  0.8402237E-01
       -1   -1    0    0    0  501  0.00000000000E+00  0.00000000000E+00  0.58839151409E+03  0.58839151412E+03  0.50400001928E-02 0.  1.
        1   -1    0    0  501    0  0.00000000000E+00  0.00000000000E+00 -0.26600112878E+04  0.26600112878E+04  0.50400001928E-02 0. -1.
    10030    2    1    2    0    0  0.00000000000E+00  0.00000000000E+00 -0.20716197737E+04  0.32484028019E+04  0.25021015720E+04 0.  0.
        4    1    3    3  502    0 -0.10986826209E+04 -0.12810605933E+03 -0.27700281848E+03  0.11402836657E+04  0.12699999809E+01 0.  1.
       -4    1    3    3    0  502  0.10986826209E+04  0.12810605933E+03 -0.17946169552E+04  0.21081191363E+04  0.12699999809E+01 0. -1.
</event>
<event>
 5   0  0.1468512E-05  0.2495089E+04  0.7818609E-02  0.8404737E-01
       -2   -1    0    0    0  501  0.00000000000E+00  0.00000000000E+00  0.14109054963E+04  0.14109054963E+04  0.25500000920E-02 0. -1.
        2   -1    0    0  501    0  0.00000000000E+00  0.00000000000E+00 -0.11030983973E+04  0.11030983973E+04  0.25500000920E-02 0.  1.
    10030    2    1    2    0    0  0.00000000000E+00  0.00000000000E+00  0.30780709905E+03  0.25140038936E+04  0.24950892503E+04 0.  0.
        4    1    3    3  502    0 -0.11118365411E+04 -0.47692915998E+03  0.46071819252E+03  0.12945674118E+04  0.12699999809E+01 0. -1.
       -4    1    3    3    0  502  0.11118365411E+04  0.47692915998E+03 -0.15291109347E+03  0.12194364818E+04  0.12699999809E+01 0.  1.
</event>
<event>
 5   0  0.1526824E-05  0.2548336E+04  0.7818609E-02  0.8385965E-01
       -2   -1    0    0    0  501  0.00000000000E+00  0.00000000000E+00  0.92528263470E+03  0.92528263470E+03  0.25500000920E-02 0.  1.
        2   -1    0    0  501    0  0.00000000000E+00  0.00000000000E+00 -0.17546031889E+04  0.17546031889E+04  0.25500000920E-02 0. -1.
    10030    2    1    2    0    0  0.00000000000E+00  0.00000000000E+00 -0.82932055417E+03  0.26798858236E+04  0.25483358189E+04 0.  0.
        2    1    3    3  502    0  0.13828506742E+02 -0.29487425376E+02 -0.17541653834E+04  0.17544677051E+04  0.25500000920E-02 0. -1.
       -2    1    3    3    0  502 -0.13828506742E+02  0.29487425376E+02  0.92484482923E+03  0.92541811848E+03  0.25500000920E-02 0.  1.
</event>
<event>
 5   0  0.6477703E-06  0.2483757E+04  0.7818609E-02  0.8408795E-01
        1   -1    0    0  501    0  0.00000000000E+00  0.00000000000E+00  0.15173965498E+04  0.15173965498E+04  0.50400001928E-02 0. -1.
       -1   -1    0    0    0  501  0.00000000000E+00  0.00000000000E+00 -0.10163871134E+04  0.10163871134E+04  0.50400001928E-02 0.  1.
    10030    2    1    2    0    0  0.00000000000E+00  0.00000000000E+00  0.50100943642E+03  0.25337836632E+04  0.24837570727E+04 0.  0.
        5    1    3    3  502    0  0.40783880805E+03  0.10935540663E+04  0.68337086749E+03  0.13524832057E+04  0.46999998093E+01 0. -1.
       -5    1    3    3    0  502 -0.40783880805E+03 -0.10935540663E+04 -0.18236143107E+03  0.11813004574E+04  0.46999998093E+01 0.  1.
</event>
<event>
 5   0  0.1550483E-05  0.2497835E+04  0.7818609E-02  0.8403757E-01
        2   -1    0    0  501    0  0.00000000000E+00  0.00000000000E+00  0.92642683951E+03  0.92642683951E+03  0.25500000920E-02 0.  1.
       -2   -1    0    0    0  501  0.00000000000E+00  0.00000000000E+00 -0.16836671118E+04  0.16836671118E+04  0.25500000920E-02 0. -1.
    10030    2    1    2    0    0  0.00000000000E+00  0.00000000000E+00 -0.75724027232E+03  0.26100939513E+04  0.24978345832E+04 0.  0.
        5    1    3    3  502    0 -0.62402303294E+03 -0.45867104305E+03 -0.14024445175E+04  0.16020788327E+04  0.46999998093E+01 0. -1.
       -5    1    3    3    0  502  0.62402303294E+03  0.45867104305E+03  0.64520424522E+03  0.10080151186E+04  0.46999998093E+01 0.  1.
</event>
<event>
 5   0  0.1526824E-05  0.2511136E+04  0.7818609E-02  0.8399029E-01
       -2   -1    0    0    0  501  0.00000000000E+00  0.00000000000E+00  0.12628088842E+04  0.12628088842E+04  0.25500000920E-02 0.  1.
        2   -1    0    0  501    0  0.00000000000E+00  0.00000000000E+00 -0.12483683407E+04  0.12483683407E+04  0.25500000920E-02 0. -1.
    10030    2    1    2    0    0  0.00000000000E+00  0.00000000000E+00  0.14440543472E+02  0.25111772249E+04  0.25111357043E+04 0.  0.
        2    1    3    3  502    0  0.31111782327E+03 -0.72112410269E+03 -0.97240623594E+03  0.12499552629E+04  0.25500000920E-02 0. -1.
       -2    1    3    3    0  502 -0.31111782327E+03  0.72112410269E+03  0.98684677941E+03  0.12612219620E+04  0.25500000920E-02 0.  1.
</event>
<event>
 5   0  0.5164625E-06  0.2680385E+04  0.7818609E-02  0.8341397E-01
        4   -1    0    0  501    0  0.00000000000E+00  0.00000000000E+00  0.19914815008E+04  0.19914819058E+04  0.12699999809E+01 0.  1.
       -4   -1    0    0    0  501  0.00000000000E+00  0.00000000000E+00 -0.90189854851E+03  0.90189944268E+03  0.12699999809E+01 0. -1.
    10030    2    1    2    0    0  0.00000000000E+00  0.00000000000E+00  0.10895829523E+04  0.28933813485E+04  0.26803851622E+04 0.  0.
        3    1    3    3  502    0 -0.24736433532E+02 -0.38528833873E+03  0.19301519951E+04  0.19683865803E+04  0.10100000352E+00 0.  1.
       -3    1    3    3    0  502  0.24736433532E+02  0.38528833873E+03 -0.84056904282E+03  0.92499476812E+03  0.10100000352E+00 0. -1.
</event>
<event>
 5   0  0.6105353E-06  0.2500153E+04  0.7818609E-02  0.8402931E-01
        1   -1    0    0  501    0  0.00000000000E+00  0.00000000000E+00  0.27398486095E+04  0.27398486095E+04  0.50400001928E-02 0. -1.
       -1   -1    0    0    0  501  0.00000000000E+00  0.00000000000E+00 -0.57035673819E+03  0.57035673821E+03  0.50400001928E-02 0.  1.
    10030    2    1    2    0    0  0.00000000000E+00  0.00000000000E+00  0.21694918713E+04  0.33102053477E+04  0.25001528882E+04 0.  0.
        3    1    3    3  502    0 -0.10546637213E+04  0.15469772866E+02  0.19644452487E+03  0.10729144144E+04  0.10100000352E+00 0.  1.
       -3    1    3    3    0  502  0.10546637213E+04 -0.15469772866E+02  0.19730473464E+04  0.22372909333E+04  0.10100000352E+00 0. -1.
</event>
<event>
 5   0  0.1572732E-05  0.2521108E+04  0.7818609E-02  0.8395504E-01
       -2   -1    0    0    0  501  0.00000000000E+00  0.00000000000E+00  0.97925899610E+03  0.97925899610E+03  0.25500000920E-02 0.  1.
        2   -1    0    0  501    0  0.00000000000E+00  0.00000000000E+00 -0.16226521149E+04  0.16226521149E+04  0.25500000920E-02 0. -1.
    10030    2    1    2    0    0  0.00000000000E+00  0.00000000000E+00 -0.64339311884E+03  0.26019111110E+04  0.25211082334E+04 0.  0.
        1    1    3    3  502    0 -0.12157920792E+03  0.31729382238E+03 -0.15744970113E+04  0.16107444590E+04  0.50400001928E-02 0. -1.
       -1    1    3    3    0  502  0.12157920792E+03 -0.31729382238E+03  0.93110389248E+03  0.99116665205E+03  0.50400001928E-02 0.  1.
</event>
<event>
 5   0  0.6105353E-06  0.2499791E+04  0.7818609E-02  0.8403060E-01
        1   -1    0    0  501    0  0.00000000000E+00  0.00000000000E+00  0.13175877742E+04  0.13175877742E+04  0.50400001928E-02 0. -1.
       -1   -1    0    0    0  501  0.00000000000E+00  0.00000000000E+00 -0.11856812737E+04  0.11856812737E+04  0.50400001928E-02 0.  1.
    10030    2    1    2    0    0  0.00000000000E+00  0.00000000000E+00  0.13190650047E+03  0.25032690479E+04  0.24997913116E+04 0.  0.
        3    1    3    3  502    0 -0.93873041558E+03  0.79440728237E+03 -0.15783341488E+03  0.12398423773E+04  0.10100000352E+00 0. -1.
       -3    1    3    3    0  502  0.93873041558E+03 -0.79440728237E+03  0.28973991536E+03  0.12634266707E+04  0.10100000352E+00 0.  1.
</event>
<event>
 5   0  0.1526824E-05  0.2561595E+04  0.7818609E-02  0.8381365E-01
        2   -1    0    0  501    0  0.00000000000E+00  0.00000000000E+00  0.13863160125E+04  0.13863160125E+04  0.25500000920E-02 0.  1.
       -2   -1    0    0    0  501  0.00000000000E+00  0.00000000000E+00 -0.11833106363E+04  0.11833106363E+04  0.25500000920E-02 0. -1.
    10030    2    1    2    0    0  0.00000000000E+00  0.00000000000E+00  0.20300537620E+03  0.25696266488E+04  0.25615951928E+04 0.  0.
        2    1    3    3  502    0  0.15852077307E+03 -0.10345386354E+04  0.84208799954E+03  0.13433209679E+04  0.25500000920E-02 0.  1.
       -2    1    3    3    0  502 -0.15852077307E+03  0.10345386354E+04 -0.63908262334E+03  0.12263056810E+04  0.25500000920E-02 0. -1.
</event>
<event>
 5   0  0.1501947E-05  0.2491613E+04  0.7818609E-02  0.8405980E-01
        2   -1    0    0  501    0  0.00000000000E+00  0.00000000000E+00  0.14336168064E+04  0.14336168064E+04  0.25500000920E-02 0.  1.
       -2   -1    0    0    0  501  0.00000000000E+00  0.00000000000E+00 -0.10826002437E+04  0.10826002437E+04  0.25500000920E-02 0. -1.
    10030    2    1    2    0    0  0.00000000000E+00  0.00000000000E+00  0.35101656271E+03  0.25162170501E+04  0.24916130550E+04 0.  0.
        3    1    3    3  502    0  0.10196802948E+04 -0.61293451413E+03 -0.19773200632E+03  0.12060408694E+04  0.10100000352E+00 0. -1.
       -3    1    3    3    0  502 -0.10196802948E+04  0.61293451413E+03  0.54874856903E+03  0.13101761807E+04  0.10100000352E+00 0.  1.
</event>
<event>
 5   0  0.1572732E-05  0.2433876E+04  0.7818609E-02  0.8426929E-01
        2   -1    0    0  501    0  0.00000000000E+00  0.00000000000E+00  0.13688714424E+04  0.13688714424E+04  0.25500000920E-02 0. -1.
       -2   -1    0    0    0  501  0.00000000000E+00  0.00000000000E+00 -0.10818680606E+04  0.10818680606E+04  0.25500000920E-02 0.  1.
    10030    2    1    2    0    0  0.00000000000E+00  0.00000000000E+00  0.28700338172E+03  0.24507395030E+04  0.24338761617E+04 0.  0.
        1    1    3    3  502    0  0.67138768002E+03 -0.36905216459E+03 -0.80855308959E+03  0.11138756734E+04  0.50400001928E-02 0.  1.
       -1    1    3    3    0  502 -0.67138768002E+03  0.36905216459E+03  0.10955564713E+04  0.13368638296E+04  0.50400001928E-02 0. -1.
</event>
<event>
 5   0  0.1550483E-05  0.2556081E+04  0.7818609E-02  0.8383274E-01
       -2   -1    0    0    0  501  0.00000000000E+00  0.00000000000E+00  0.15800928535E+04  0.15800928535E+04  0.25500000920E-02 0. -1.
        2   -1    0    0  501    0  0.00000000000E+00  0.00000000000E+00 -0.10337292053E+04  0.10337292053E+04  0.25500000920E-02 0.  1.
    10030    2    1    2    0    0  0.00000000000E+00  0.00000000000E+00  0.54636364820E+03  0.26138220588E+04  0.25560814774E+04 0.  0.
        5    1    3    3  502    0  0.56592723162E+03  0.52900343566E+03  0.13126317307E+04  0.15241858210E+04  0.46999998093E+01 0. -1.
       -5    1    3    3    0  502 -0.56592723162E+03 -0.52900343566E+03 -0.76626808252E+03  0.10896362378E+04  0.46999998093E+01 0.  1.
</event>
<event>
 5   0  0.6346420E-06  0.2502720E+04  0.7818609E-02  0.8402017E-01
        1   -1    0    0  501    0  0.00000000000E+00  0.00000000000E+00  0.23843664330E+04  0.23843664330E+04  0.50400001928E-02 0.  1.
       -1   -1    0    0    0  501  0.00000000000E+00  0.00000000000E+00 -0.65673689647E+03  0.65673689648E+03  0.50400001928E-02 0. -1.
    10030    2    1    2    0    0  0.00000000000E+00  0.00000000000E+00  0.17276295365E+04  0.30411033295E+04  0.25027196497E+04 0.  0.
        4    1    3    3  502    0  0.38830337831E+03 -0.10299045768E+04  0.15872108504E+04  0.19315079207E+04  0.12699999809E+01 0.  1.
       -4    1    3    3    0  502 -0.38830337831E+03  0.10299045768E+04  0.14041868607E+03  0.11095954088E+04  0.12699999809E+01 0. -1.
</event>
<event>
 5   0  0.6477703E-06  0.2475767E+04  0.7818609E-02  0.8411670E-01
        1   -1    0    0  501    0  0.00000000000E+00  0.00000000000E+00  0.10080266992E+04  0.10080266993E+04  0.50400001928E-02 0.  1.
       -1   -1    0    0    0  501  0.00000000000E+00  0.00000000000E+00 -0.15201532699E+04  0.15201532699E+04  0.50400001928E-02 0. -1.
    10030    2    1    2    0    0  0.00000000000E+00  0.00000000000E+00 -0.51212657066E+03  0.25281799692E+04  0.24757666150E+04 0.  0.
        5    1    3    3  502    0  0.99902010735E+03 -0.54981505417E+03  0.23579252517E+03  0.11644560849E+04  0.46999998093E+01 0.  1.
       -5    1    3    3    0  502 -0.99902010735E+03  0.54981505417E+03 -0.74791909583E+03  0.13637238843E+04  0.46999998093E+01 0. -1.
</event>
<event>
 5   0  0.1468512E-05  0.2435514E+04  0.7818609E-02  0.8426326E-01
        2   -1    0    0  501    0  0.00000000000E+00  0.00000000000E+00  0.10912407011E+04  0.10912407011E+04  0.25500000920E-02 0.  1.
       -2   -1    0    0    0  501  0.00000000000E+00  0.00000000000E+00 -0.13589412572E+04  0.13589412572E+04  0.25500000920E-02 0. -1.
    10030    2    1    2    0    0  0.00000000000E+00  0.00000000000E+00 -0.26770055615E+03  0.24501819583E+04  0.24355139172E+04 0.  0.
        4    1    3    3  502    0 -0.10104614628E+04  0.27531224057E+02  0.54931242542E+03  0.11504503856E+04  0.12699999809E+01 0.  1.
       -4    1    3    3    0  502  0.10104614628E+04 -0.27531224057E+02 -0.81701298157E+03  0.12997315727E+04  0.12699999809E+01 0. -1.
</event>
<event>
 5   0  0.6346420E-06  0.2520871E+04  0.7818609E-02  0.8395588E-01
       -1   -1    0    0    0  501  0.00000000000E+00  0.00000000000E+00  0.79299378450E+03  0.79299378451E+03  0.50400001928E-02 0. -1.
        1   -1    0    0  501    0  0.00000000000E+00  0.00000000000E+00 -0.20034172717E+04  0.20034172717E+04  0.50400001928E-02 0.  1.
    10030    2    1    2    0    0  0.00000000000E+00  0.00000000000E+00 -0.12104234872E+04  0.27964110562E+04  0.25208708370E+04 0.  0.
        4    1    3    3  502    0 -0.79322703117E+02  0.44164437239E+03 -0.19118159739E+04  0.19637677495E+04  0.12699999809E+01 0.  1.
       -4    1    3    3    0  502  0.79322703117E+02 -0.44164437239E+03  0.70139248672E+03  0.83264330672E+03  0.12699999809E+01 0. -1.
</event>
<event>
 5   0  0.6290861E-06  0.2531933E+04  0.7818609E-02  0.8391697E-01
       -1   -1    0    0    0  501  0.00000000000E+00  0.00000000000E+00  0.94526224103E+03  0.94526224105E+03  0.50400001928E-02 0. -1.
        1   -1    0    0  501    0  0.00000000000E+00  0.00000000000E+00 -0.16954784368E+04  0.16954784368E+04  0.50400001928E-02 0.  1.
    10030    2    1    2    0    0  0.00000000000E+00  0.00000000000E+00 -0.75021619581E+03  0.26407406779E+04  0.25319334485E+04 0.  0.
        1    1    3    3  502    0 -0.63539384369E+03 -0.10390040420E+04 -0.73552617672E+03  0.14227626269E+04  0.50400001928E-02 0.  1.
       -1    1    3    3    0  502  0.63539384369E+03  0.10390040420E+04 -0.14690019082E+02  0.12179780510E+04  0.50400001928E-02 0. -1.
</event>
<event>
 5   0  0.1572732E-05  0.2511995E+04  0.7818609E-02  0.8398725E-01
       -2   -1    0    0    0  501  0.00000000000E+00  0.00000000000E+00  0.18287717911E+04  0.18287717911E+04  0.25500000920E-02 0. -1.
        2   -1    0    0  501    0  0.00000000000E+00  0.00000000000E+00 -0.86261719206E+03  0.86261719206E+03  0.25500000920E-02 0.  1.
    10030    2    1    2    0    0  0.00000000000E+00  0.00000000000E+00  0.96615459908E+03  0.26913889832E+04  0.25119952129E+04 0.  0.
        1    1    3    3  502    0 -0.90854387509E+03 -0.22280106900E+03  0.13810467635E+04  0.16680474970E+04  0.50400001928E-02 0. -1.
       -1    1    3    3    0  502  0.90854387509E+03  0.22280106900E+03 -0.41489216438E+03  0.10233414862E+04  0.50400001928E-02 0.  1.
</event>
<event>
 5   0  0.6477703E-06  0.2503004E+04  0.7818609E-02  0.8401916E-01
        1   -1    0    0  501    0  0.00000000000E+00  0.00000000000E+00  0.11478848105E+04  0.11478848105E+04  0.50400001928E-02 0.  1.
       -1   -1    0    0    0  501  0.00000000000E+00  0.00000000000E+00 -0.13644729452E+04  0.13644729452E+04  0.50400001928E-02 0. -1.
    10030    2    1    2    0    0  0.00000000000E+00  0.00000000000E+00 -0.21658813467E+03  0.25123577558E+04  0.25030044093E+04 0.  0.
        5    1    3    3  502    0 -0.16212005311E+03  0.94615730640E+03  0.69766294467E+03  0.11866980384E+04  0.46999998093E+01 0.  1.
       -5    1    3    3    0  502  0.16212005311E+03 -0.94615730640E+03 -0.91425107934E+03  0.13256597173E+04  0.46999998093E+01 0. -1.
</event>
<event>
 5   0  0.1468512E-05  0.2514474E+04  0.7818609E-02  0.8397847E-01
        2   -1    0    0  501    0  0.00000000000E+00  0.00000000000E+00  0.14914972183E+04  0.14914972183E+04  0.25500000920E-02 0. -1.
       -2   -1    0    0    0  501  0.00000000000E+00  0.00000000000E+00 -0.10597702132E+04  0.10597702132E+04  0.25500000920E-02 0.  1.
    10030    2    1    2    0    0  0.00000000000E+00  0.00000000000E+00  0.43172700510E+03  0.25512674316E+04  0.25144735633E+04 0.  0.
        4    1    3    3  502    0  0.30591285305E+03  0.16862144463E+03 -0.10095453476E+04  0.10682692951E+04  0.12699999809E+01 0.  1.
       -4    1    3    3    0  502 -0.30591285305E+03 -0.16862144463E+03  0.14412723527E+04  0.14829981364E+04  0.12699999809E+01 0. -1.
</event>
<event>
 5   0  0.1572732E-05  0.2500634E+04  0.7818609E-02  0.8402760E-01
        2   -1    0    0  501    0  0.00000000000E+00  0.00000000000E+00  0.19166137071E+04  0.19166137071E+04  0.25500000920E-02 0.  1.
       -2   -1    0    0    0  501  0.00000000000E+00  0.00000000000E+00 -0.81565371822E+03  0.81565371823E+03  0.25500000920E-02 0. -1.
    10030    2    1    2    0    0  0.00000000000E+00  0.00000000000E+00  0.11009599889E+04  0.27322674253E+04  0.25006343968E+04 0.  0.
        1    1    3    3  502    0 -0.15910837867E+03 -0.99093807665E+03 -0.26425797445E+03  0.10378371862E+04  0.50400001928E-02 0.  1.
       -1    1    3    3    0  502  0.15910837867E+03  0.99093807665E+03  0.13652179633E+04  0.16944302391E+04  0.50400001928E-02 0. -1.
</event>
<event>
 5   0  0.1501947E-05  0.2512195E+04  0.7818609E-02  0.8398654E-01
        2   -1    0    0  501    0  0.00000000000E+00  0.00000000000E+00  0.16094429731E+04  0.16094429731E+04  0.25500000920E-02 0.  1.
       -2   -1    0    0    0  501  0.00000000000E+00  0.00000000000E+00 -0.98032737903E+03  0.98032737904E+03  0.25500000920E-02 0. -1.
    10030    2    1    2    0    0  0.00000000000E+00  0.00000000000E+00  0.62911559411E+03  0.25897703522E+04  0.25121950653E+04 0.  0.
        3    1    3    3  502    0 -0.34383599950E+03  0.87363887256E+02  0.15567249524E+04  0.15966365369E+04  0.10100000352E+00 0.  1.
       -3    1    3    3    0  502  0.34383599950E+03 -0.87363887256E+02 -0.92760935827E+03  0.99313381530E+03  0.10100000352E+00 0. -1.
</event>
<event>
 5   0  0.1526824E-05  0.2493961E+04  0.7818609E-02  0.8405140E-01
       -2   -1    0    0    0  501  0.00000000000E+00  0.00000000000E+00  0.91862279358E+03  0.91862279359E+03  0.25500000920E-02 0.  1.
        2   -1    0    0  501    0  0.00000000000E+00  0.00000000000E+00 -0.16927079621E+04  0.16927079621E+04  0.25500000920E-02 0. -1.
    10030    2    1    2    0    0  0.00000000000E+00  0.00000000000E+00 -0.77408516852E+03  0.26113307557E+04  0.24939607991E+04 0.  0.
        2    1    3    3  502    0 -0.67519771205E+03 -0.30775165922E+03 -0.14363828407E+04  0.16167246826E+04  0.25500000920E-02 0. -1.
       -2    1    3    3    0  502  0.67519771205E+03  0.30775165922E+03  0.66229767219E+03  0.99460607313E+03  0.25500000920E-02 0.  1.
</event>
<event>
 5   0  0.1572732E-05  0.2491554E+04  0.7818609E-02  0.8406001E-01
       -2   -1    0    0    0  501  0.00000000000E+00  0.00000000000E+00  0.10622145423E+04  0.10622145423E+04  0.25500000920E-02 0. -1.
        2   -1    0    0  501    0  0.00000000000E+00  0.00000000000E+00 -0.14610610084E+04  0.14610610084E+04  0.25500000920E-02 0.  1.
    10030    2    1    2    0    0  0.00000000000E+00  0.00000000000E+00 -0.39884646611E+03  0.25232755507E+04  0.24915539330E+04 0.  0.
        1    1    3    3  502    0 -0.10003961530E+04  0.35588043318E+03  0.46042169318E+03  0.11573381015E+04  0.50400001928E-02 0. -1.
       -1    1    3    3    0  502  0.10003961530E+04 -0.35588043318E+03 -0.85926815929E+03  0.13659374492E+04  0.50400001928E-02 0.  1.
</event>
<event>
 5   0  0.1550483E-05  0.2517809E+04  0.7818609E-02  0.8396668E-01
        2   -1    0    0  501    0  0.00000000000E+00  0.00000000000E+00  0.13446559988E+04  0.13446559988E+04  0.25500000920E-02 0.  1.
       -2   -1    0    0    0  501  0.00000000000E+00  0.00000000000E+00 -0.11786213135E+04  0.11786213135E+04  0.25500000920E-02 0. -1.
    10030    2    1    2    0    0  0.00000000000E+00  0.00000000000E+00  0.16603468533E+03  0.25232773123E+04  0.25178087453E+04 0.  0.
        5    1    3    3  502    0  0.10979471993E+04  0.58187188630E+03 -0.11930026460E+03  0.12483259140E+04  0.46999998093E+01 0. -1.
       -5    1    3    3    0  502 -0.10979471993E+04 -0.58187188630E+03  0.28533494993E+03  0.12749513983E+04  0.46999998093E+01 0.  1.
</event>
<event>
 5   0  0.1526824E-05  0.2487279E+04  0.7818609E-02  0.8407531E-01
        2   -1    0    0  501    0  0.00000000000E+00  0.00000000000E+00  0.10869244185E+04  0.10869244185E+04  0.25500000920E-02 0.  1.
       -2   -1    0    0    0  501  0.00000000000E+00  0.00000000000E+00 -0.14229504763E+04  0.14229504763E+04  0.25500000920E-02 0. -1.
    10030    2    1    2    0    0  0.00000000000E+00  0.00000000000E+00 -0.33602605774E+03  0.25098748948E+04  0.24872793322E+04 0.  0.
        2    1    3    3  502    0 -0.61512078323E+03  0.25112515251E+03 -0.12288493567E+04  0.13969639085E+04  0.25500000920E-02 0. -1.
       -2    1    3    3    0  502  0.61512078323E+03 -0.25112515251E+03  0.89282329900E+03  0.11129109863E+04  0.25500000920E-02 0.  1.
</event>
<event>
 5   0  0.6105353E-06  0.2531130E+04  0.7818609E-02  0.8391979E-01
        1   -1    0    0  501    0  0.00000000000E+00  0.00000000000E+00  0.18800321350E+04  0.18800321350E+04  0.50400001928E-02 0. -1.
       -1   -1    0    0    0  501  0.00000000000E+00  0.00000000000E+00 -0.85192924979E+03  0.85192924981E+03  0.50400001928E-02 0.  1.
    10030    2    1    2    0    0  0.00000000000E+00  0.00000000000E+00  0.10281028852E+04  0.27319613848E+04  0.25311296817E+04 0.  0.
        3    1    3    3  502    0  0.80860555780E+03  0.71881667280E+03 -0.19463842324E+03  0.10992836227E+04  0.10100000352E+00 0.  1.
       -3    1    3    3    0  502 -0.80860555780E+03 -0.71881667280E+03  0.12227413084E+04  0.16326777621E+04  0.10100000352E+00 0. -1.
</event>
<event>
 5   0  0.6290861E-06  0.2506388E+04  0.7818609E-02  0.8400713E-01
        1   -1    0    0  501    0  0.00000000000E+00  0.00000000000E+00  0.20945633409E+04  0.20945633409E+04  0.50400001928E-02 0.  1.
       -1   -1    0    0    0  501  0.00000000000E+00  0.00000000000E+00 -0.74979619240E+03  0.74979619241E+03  0.50400001928E-02 0. -1.
    10030    2    1    2    0    0  0.00000000000E+00  0.00000000000E+00  0.13447671485E+04  0.28443595333E+04  0.25063883321E+04 0.  0.
        1    1    3    3  502    0  0.63426901528E+03 -0.33892126405E+03  0.18370955074E+04  0.19728367166E+04  0.50400001928E-02 0.  1.
       -1    1    3    3    0  502 -0.63426901528E+03  0.33892126405E+03 -0.49232835894E+03  0.87152281669E+03  0.50400001928E-02 0. -1.
</event>
<event>
 5   0  0.1526824E-05  0.2503599E+04  0.7818609E-02  0.8401704E-01
       -2   -1    0    0    0  501  0.00000000000E+00  0.00000000000E+00  0.77498072034E+03  0.77498072034E+03  0.25500000920E-02 0.  1.
        2   -1    0    0  501    0  0.00000000000E+00  0.00000000000E+00 -0.20219890526E+04  0.20219890526E+04  0.25500000920E-02 0. -1.
    10030    2    1    2    0    0  0.00000000000E+00  0.00000000000E+00 -0.12470083322E+04  0.27969697729E+04  0.25035994348E+04 0.  0.
        2    1    3    3  502    0 -0.10013165869E+04  0.30469115576E+03 -0.13906501548E+04  0.17405112641E+04  0.25500000920E-02 0. -1.
       -2    1    3    3    0  502  0.10013165869E+04 -0.30469115576E+03  0.14364182255E+03  0.10564585088E+04  0.25500000920E-02 0.  1.
</event>
<event>
 5   0  0.1550483E-05  0.2500182E+04  0.7818609E-02  0.8402921E-01
        2   -1    0    0  501    0  0.00000000000E+00  0.00000000000E+00  0.11156096406E+04  0.11156096406E+04  0.25500000920E-02 0.  1.
       -2   -1    0    0    0  501  0.00000000000E+00  0.00000000000E+00 -0.14007830859E+04  0.14007830859E+04  0.25500000920E-02 0. -1.
    10030    2    1    2    0    0  0.00000000000E+00  0.00000000000E+00 -0.28517344531E+03  0.25163927265E+04  0.25001816854E+04 0.  0.
        5    1    3    3  502    0  0.86427871419E+03  0.50394157012E+03 -0.89695985016E+03  0.13436866691E+04  0.46999998093E+01 0. -1.
       -5    1    3    3    0  502 -0.86427871419E+03 -0.50394157012E+03  0.61178640484E+03  0.11727060574E+04  0.46999998093E+01 0.  1.
</event>
<event>
 5   0  0.1550483E-05  0.2468585E+04  0.7818609E-02  0.8414264E-01
       -2   -1    0    0    0  501  0.00000000000E+00  0.00000000000E+00  0.89064082066E+03  0.89064082066E+03  0.25500000920E-02 0.  1.
        2   -1    0    0  501    0  0.00000000000E+00  0.00000000000E+00 -0.17105413486E+04  0.17105413486E+04  0.25500000920E-02 0. -1.
    10030    2    1    2    0    0  0.00000000000E+00  0.00000000000E+00 -0.81990052790E+03  0.26011821692E+04  0.24685849797E+04 0.  0.
        5    1    3    3  502    0  0.25608515398E+03  0.90709457950E+03 -0.12496588385E+04  0.15652697802E+04  0.46999998093E+01 0. -1.
       -5    1    3    3    0  502 -0.25608515398E+03 -0.90709457950E+03  0.42975831056E+03  0.10359123890E+04  0.46999998093E+01 0.  1.
</event>
<event>
 5   0  0.6346420E-06  0.2497204E+04  0.7818609E-02  0.8403982E-01
       -1   -1    0    0    0  501  0.00000000000E+00  0.00000000000E+00  0.10145119624E+04  0.10145119624E+04  0.50400001928E-02 0. -1.
        1   -1    0    0  501    0  0.00000000000E+00  0.00000000000E+00 -0.15367068420E+04  0.15367068420E+04  0.50400001928E-02 0.  1.
    10030    2    1    2    0    0  0.00000000000E+00  0.00000000000E+00 -0.52219487959E+03  0.25512188043E+04  0.24972044160E+04 0.  0.
        4    1    3    3  502    0  0.44642261355E+03 -0.29355045649E+03  0.89182489192E+03  0.10396241009E+04  0.12699999809E+01 0. -1.
       -4    1    3    3    0  502 -0.44642261355E+03  0.29355045649E+03 -0.14140197715E+04  0.15115947035E+04  0.12699999809E+01 0.  1.
</event>
<event>
 5   0  0.6477703E-06  0.2506392E+04  0.7818609E-02  0.8400712E-01
        1   -1    0    0  501    0  0.00000000000E+00  0.00000000000E+00  0.16132977682E+04  0.16132977682E+04  0.50400001928E-02 0. -1.
       -1   -1    0    0    0  501  0.00000000000E+00  0.00000000000E+00 -0.97347215216E+03  0.97347215217E+03  0.50400001928E-02 0.  1.
    10030    2    1    2    0    0  0.00000000000E+00  0.00000000000E+00  0.63982561604E+03  0.25867699204E+04  0.25063921884E+04 0.  0.
        5    1    3    3  502    0 -0.18178247145E+03  0.52485605268E+02  0.15984622129E+04  0.16096282620E+04  0.46999998093E+01 0. -1.
       -5    1    3    3    0  502  0.18178247145E+03 -0.52485605268E+02 -0.95863659687E+03  0.97714165838E+03  0.46999998093E+01 0.  1.
</event>
<event>
 5   0  0.1572732E-05  0.2501337E+04  0.7818609E-02  0.8402509E-01
        2   -1    0    0  501    0  0.00000000000E+00  0.00000000000E+00  0.14549817427E+04  0.14549817427E+04  0.25500000920E-02 0. -1.
       -2   -1    0    0    0  501  0.00000000000E+00  0.00000000000E+00 -0.10750459196E+04  0.10750459196E+04  0.25500000920E-02 0.  1.
    10030    2    1    2    0    0  0.00000000000E+00  0.00000000000E+00  0.37993582308E+03  0.25300276622E+04  0.25013373907E+04 0.  0.
        1    1    3    3  502    0  0.32528907233E+03  0.10906538917E+03  0.14064530314E+04  0.14476941560E+04  0.50400001928E-02 0. -1.
       -1    1    3    3    0  502 -0.32528907233E+03 -0.10906538917E+03 -0.10265172083E+04  0.10823335062E+04  0.50400001928E-02 0.  1.
</event>
<event>
 5   0  0.1468512E-05  0.2537737E+04  0.7818609E-02  0.8389663E-01
       -2   -1    0    0    0  501  0.00000000000E+00  0.00000000000E+00  0.92994727716E+03  0.92994727716E+03  0.25500000920E-02 0. -1.
        2   -1    0    0  501    0  0.00000000000E+00  0.00000000000E+00 -0.17313104906E+04  0.17313104906E+04  0.25500000920E-02 0.  1.
    10030    2    1    2    0    0  0.00000000000E+00  0.00000000000E+00 -0.80136321345E+03  0.26612577678E+04  0.25377371626E+04 0.  0.
        4    1    3    3  502    0  0.84330805531E+03 -0.86582217672E+03 -0.80575928847E+03  0.14526066782E+04  0.12699999809E+01 0.  1.
       -4    1    3    3    0  502 -0.84330805531E+03  0.86582217672E+03  0.43960750164E+01  0.12086510895E+04  0.12699999809E+01 0. -1.
</event>
<event>
 5   0  0.1526824E-05  0.2475261E+04  0.7818609E-02  0.8411852E-01
        2   -1    0    0  501    0  0.00000000000E+00  0.00000000000E+00  0.15153063646E+04  0.15153063646E+04  0.25500000920E-02 0. -1.
       -2   -1    0    0    0  501  0.00000000000E+00  0.00000000000E+00 -0.10108380849E+04  0.10108380849E+04  0.25500000920E-02 0.  1.
    10030    2    1    2    0    0  0.00000000000E+00  0.00000000000E+00  0.50446827968E+03  0.25261444496E+04  0.24752611044E+04 0.  0.
        2    1    3    3  502    0  0.42751658282E+03  0.41417016256E+03  0.13596308836E+04  0.14842181416E+04  0.25500000920E-02 0. -1.
       -2    1    3    3    0  502 -0.42751658282E+03 -0.41417016256E+03 -0.85516260391E+03  0.10419263080E+04  0.25500000920E-02 0.  1.
</event>
<event>
 5   0  0.1526824E-05  0.2508111E+04  0.7818609E-02  0.8400102E-01
       -2   -1    0    0    0  501  0.00000000000E+00  0.00000000000E+00  0.11188392936E+04  0.11188392936E+04  0.25500000920E-02 0.  1.
        2   -1    0    0  501    0  0.00000000000E+00  0.00000000000E+00 -0.14056130844E+04  0.14056130844E+04  0.25500000920E-02 0. -1.
    10030    2    1    2    0    0  0.00000000000E+00  0.00000000000E+00 -0.28677379085E+03  0.25244523780E+04  0.25081109628E+04 0.  0.
        2    1    3    3  502    0 -0.98881012311E+03 -0.49430192754E+03  0.45256484197E+03  0.11945270157E+04  0.25500000920E-02 0.  1.
       -2    1    3    3    0  502  0.98881012311E+03  0.49430192754E+03 -0.73933863282E+03  0.13299253622E+04  0.25500000920E-02 0. -1.
</event>
<event>
 5   0  0.6104486E-06  0.2491652E+04  0.7818609E-02  0.8405965E-01
        1   -1    0    0  501    0  0.00000000000E+00  0.00000000000E+00  0.17480032449E+04  0.17480032449E+04  0.50400001928E-02 0. -1.
       -1   -1    0    0    0  501  0.00000000000E+00  0.00000000000E+00 -0.88791767177E+03  0.88791767178E+03  0.50400001928E-02 0.  1.
    10030    2    1    2    0    0  0.00000000000E+00  0.00000000000E+00  0.86008557308E+03  0.26359209166E+04  0.24916524408E+04 0.  0.
        2    1    3    3  502    0 -0.16816245841E+03 -0.12335420103E+04  0.38066626527E+03  0.13018491883E+04  0.25500000920E-02 0.  1.
       -2    1    3    3    0  502  0.16816245841E+03  0.12335420103E+04  0.47941930781E+03  0.13340717283E+04  0.25500000920E-02 0. -1.
</event>
<event>
 5   0  0.6105353E-06  0.2370625E+04  0.7818609E-02  0.8450584E-01
       -1   -1    0    0    0  501  0.00000000000E+00  0.00000000000E+00  0.84622612479E+03  0.84622612480E+03  0.50400001928E-02 0.  1.
        1   -1    0    0  501    0  0.00000000000E+00  0.00000000000E+00 -0.16602723586E+04  0.16602723586E+04  0.50400001928E-02 0. -1.
    10030    2    1    2    0    0  0.00000000000E+00  0.00000000000E+00 -0.81404623380E+03  0.25064984834E+04  0.23706251025E+04 0.  0.
        3    1    3    3  502    0 -0.88333189802E+03  0.11668019848E+03 -0.12335410781E+04  0.15216810153E+04  0.10100000352E+00 0. -1.
       -3    1    3    3    0  502  0.88333189802E+03 -0.11668019848E+03  0.41949484434E+03  0.98481746806E+03  0.10100000352E+00 0.  1.
</event>
<event>
 5   0  0.1550483E-05  0.2508808E+04  0.7818609E-02  0.8399854E-01
        2   -1    0    0  501    0  0.00000000000E+00  0.00000000000E+00  0.19542180814E+04  0.19542180814E+04  0.25500000920E-02 0.  1.
       -2   -1    0    0    0  501  0.00000000000E+00  0.00000000000E+00 -0.80519631944E+03  0.80519631945E+03  0.25500000920E-02 0. -1.
    10030    2    1    2    0    0  0.00000000000E+00  0.00000000000E+00  0.11490217619E+04  0.27594144008E+04  0.25088078496E+04 0.  0.
        5    1    3    3  502    0  0.10274455623E+04  0.10519751819E+03  0.13575188968E+04  0.17057521937E+04  0.46999998093E+01 0.  1.
       -5    1    3    3    0  502 -0.10274455623E+04 -0.10519751819E+03 -0.20849713485E+03  0.10536622071E+04  0.46999998093E+01 0. -1.
</event>
<event>
 5   0  0.1572732E-05  0.2495239E+04  0.7818609E-02  0.8404684E-01
        2   -1    0    0  501    0  0.00000000000E+00  0.00000000000E+00  0.21134168296E+04  0.21134168296E+04  0.25500000920E-02 0.  1.
       -2   -1    0    0    0  501  0.00000000000E+00  0.00000000000E+00 -0.73651081676E+03  0.73651081676E+03  0.25500000920E-02 0. -1.
    10030    2    1    2    0    0  0.00000000000E+00  0.00000000000E+00  0.13769060129E+04  0.28499276464E+04  0.24952389507E+04 0.  0.
        1    1    3    3  502    0  0.73432853857E+02  0.88329505020E+03  0.16913014707E+04  0.19094772045E+04  0.50400001928E-02 0.  1.
       -1    1    3    3    0  502 -0.73432853857E+02 -0.88329505020E+03 -0.31439545782E+03  0.94045044189E+03  0.50400001928E-02 0. -1.
</event>
<event>
 5   0  0.6346420E-06  0.2514237E+04  0.7818609E-02  0.8397931E-01
       -1   -1    0    0    0  501  0.00000000000E+00  0.00000000000E+00  0.20925748981E+04  0.20925748981E+04  0.50400001928E-02 0.  1.
        1   -1    0    0  501    0  0.00000000000E+00  0.00000000000E+00 -0.75521669801E+03  0.75521669803E+03  0.50400001928E-02 0. -1.
    10030    2    1    2    0    0  0.00000000000E+00  0.00000000000E+00  0.13373582001E+04  0.28477915961E+04  0.25142374628E+04 0.  0.
        4    1    3    3  502    0 -0.68479343894E+02 -0.60234060100E+03 -0.57871611417E+03  0.83810355795E+03  0.12699999809E+01 0. -1.
       -4    1    3    3    0  502  0.68479343894E+02  0.60234060100E+03  0.19160743142E+04  0.20096880381E+04  0.12699999809E+01 0.  1.
</event>
<event>
 5   0  0.6105353E-06  0.2441119E+04  0.7818609E-02  0.8424268E-01
       -1   -1    0    0    0  501  0.00000000000E+00  0.00000000000E+00  0.93508589086E+03  0.93508589087E+03  0.50400001928E-02 0.  1.
        1   -1    0    0  501    0  0.00000000000E+00  0.00000000000E+00 -0.15931858434E+04  0.15931858434E+04  0.50400001928E-02 0. -1.
    10030    2    1    2    0    0  0.00000000000E+00  0.00000000000E+00 -0.65809995254E+03  0.25282717343E+04  0.24411190907E+04 0.  0.
        3    1    3    3  502    0 -0.79306725919E+03 -0.63503364888E+03  0.37151811250E+03  0.10817805373E+04  0.10100000352E+00 0.  1.
       -3    1    3    3    0  502  0.79306725919E+03  0.63503364888E+03 -0.10296180650E+04  0.14464911970E+04  0.10100000352E+00 0. -1.
</event>
<event>
 5   0  0.1550483E-05  0.2500472E+04  0.7818609E-02  0.8402817E-01
        2   -1    0    0  501    0  0.00000000000E+00  0.00000000000E+00  0.29570596933E+04  0.29570596933E+04  0.25500000920E-02 0. -1.
       -2   -1    0    0    0  501  0.00000000000E+00  0.00000000000E+00 -0.52859602352E+03  0.52859602353E+03  0.25500000920E-02 0.  1.
    10030    2    1    2    0    0  0.00000000000E+00  0.00000000000E+00  0.24284636698E+04  0.34856557168E+04  0.25004719516E+04 0.  0.
        5    1    3    3  502    0 -0.45849936458E+03  0.11604679662E+04  0.11048198876E+04  0.16666003246E+04  0.46999998093E+01 0. -1.
       -5    1    3    3    0  502  0.45849936458E+03 -0.11604679662E+04  0.13236437821E+04  0.18190553922E+04  0.46999998093E+01 0.  1.
</event>
<event>
 5   0  0.5164625E-06  0.2501589E+04  0.7818609E-02  0.8402420E-01
        4   -1    0    0  501    0  0.00000000000E+00  0.00000000000E+00  0.10781954971E+04  0.10781962451E+04  0.12699999809E+01 0. -1.
       -4   -1    0    0    0  501  0.00000000000E+00  0.00000000000E+00 -0.14510220128E+04  0.14510225685E+04  0.12699999809E+01 0.  1.
    10030    2    1    2    0    0  0.00000000000E+00  0.00000000000E+00 -0.37282651567E+03  0.25292188136E+04  0.25015891342E+04 0.  0.
        2    1    3    3  502    0 -0.83476770225E+03  0.84155639055E+03  0.21728718232E+03  0.12051008235E+04  0.25500000920E-02 0.  1.
       -2    1    3    3    0  502  0.83476770225E+03 -0.84155639055E+03 -0.59011369799E+03  0.13241179901E+04  0.25500000920E-02 0. -1.
</event>
<event>
 5   0  0.1526824E-05  0.2525708E+04  0.7818609E-02  0.8393884E-01
        2   -1    0    0  501    0  0.00000000000E+00  0.00000000000E+00  0.19968310094E+04  0.19968310094E+04  0.25500000920E-02 0. -1.
       -2   -1    0    0    0  501  0.00000000000E+00  0.00000000000E+00 -0.79866567811E+03  0.79866567811E+03  0.25500000920E-02 0.  1.
    10030    2    1    2    0    0  0.00000000000E+00  0.00000000000E+00  0.11981653313E+04  0.27954966875E+04  0.25257081322E+04 0.  0.
        2    1    3    3  502    0  0.26957370319E+03 -0.51278186315E+03  0.18410798743E+04  0.19300752120E+04  0.25500000920E-02 0. -1.
       -2    1    3    3    0  502 -0.26957370319E+03  0.51278186315E+03 -0.64291454299E+03  0.86542147548E+03  0.25500000920E-02 0.  1.
</event>
<event>
 5   0  0.1468512E-05  0.2417234E+04  0.7818609E-02  0.8433079E-01
       -2   -1    0    0    0  501  0.00000000000E+00  0.00000000000E+00  0.20376335415E+04  0.20376335415E+04  0.25500000920E-02 0.  1.
        2   -1    0    0  501    0  0.00000000000E+00  0.00000000000E+00 -0.71688826776E+03  0.71688826777E+03  0.25500000920E-02 0. -1.
    10030    2    1    2    0    0  0.00000000000E+00  0.00000000000E+00  0.13207452738E+04  0.27545218093E+04  0.24172344362E+04 0.  0.
        4    1    3    3  502    0  0.11768146570E+04 -0.23907207399E+03  0.50451959624E+03  0.13025320838E+04  0.12699999809E+01 0.  1.
       -4    1    3    3    0  502 -0.11768146570E+04  0.23907207399E+03  0.81622567751E+03  0.14519897255E+04  0.12699999809E+01 0. -1.
</event>
<event>
 5   0  0.6290861E-06  0.2502506E+04  0.7818609E-02  0.8402093E-01
        1   -1    0    0  501    0  0.00000000000E+00  0.00000000000E+00  0.16451227526E+04  0.16451227526E+04  0.50400001928E-02 0.  1.
       -1   -1    0    0    0  501  0.00000000000E+00  0.00000000000E+00 -0.95168222245E+03  0.95168222246E+03  0.50400001928E-02 0. -1.
    10030    2    1    2    0    0  0.00000000000E+00  0.00000000000E+00  0.69344053013E+03  0.25968049750E+04  0.25025060059E+04 0.  0.
        1    1    3    3  502    0 -0.59316384914E+03  0.85817309821E+03  0.10636447552E+04  0.14898471679E+04  0.50400001928E-02 0.  1.
       -1    1    3    3    0  502  0.59316384914E+03 -0.85817309821E+03 -0.37020422510E+03  0.11069578071E+04  0.50400001928E-02 0. -1.
</event>
<event>
 5   0  0.6290861E-06  0.2507034E+04  0.7818609E-02  0.8400484E-01
       -1   -1    0    0    0  501  0.00000000000E+00  0.00000000000E+00  0.10989292136E+04  0.10989292136E+04  0.50400001928E-02 0. -1.
        1   -1    0    0  501    0  0.00000000000E+00  0.00000000000E+00 -0.14298504783E+04  0.14298504783E+04  0.50400001928E-02 0.  1.
    10030    2    1    2    0    0  0.00000000000E+00  0.00000000000E+00 -0.33092126475E+03  0.25287796919E+04  0.25070336748E+04 0.  0.
        1    1    3    3  502    0  0.10695953409E+03  0.12489045709E+04 -0.15529889288E+03  0.12630600600E+04  0.50400001928E-02 0.  1.
       -1    1    3    3    0  502 -0.10695953409E+03 -0.12489045709E+04 -0.17562237187E+03  0.12657196319E+04  0.50400001928E-02 0. -1.
</event>
<event>
 5   0  0.6477703E-06  0.2480964E+04  0.7818609E-02  0.8409799E-01
        1   -1    0    0  501    0  0.00000000000E+00  0.00000000000E+00  0.12963278368E+04  0.12963278368E+04  0.50400001928E-02 0. -1.
       -1   -1    0    0    0  501  0.00000000000E+00  0.00000000000E+00 -0.11870421018E+04  0.11870421018E+04  0.50400001928E-02 0.  1.
    10030    2    1    2    0    0  0.00000000000E+00  0.00000000000E+00  0.10928573493E+03  0.24833699386E+04  0.24809641030E+04 0.  0.
        5    1    3    3  502    0  0.29481409787E+03 -0.11129862434E+04  0.51673964581E+03  0.12620204760E+04  0.46999998093E+01 0. -1.
       -5    1    3    3    0  502 -0.29481409787E+03  0.11129862434E+04 -0.40745391088E+03  0.12213494626E+04  0.46999998093E+01 0.  1.
</event>
<event>
 5   0  0.1572732E-05  0.2516714E+04  0.7818609E-02  0.8397055E-01
       -2   -1    0    0    0  501  0.00000000000E+00  0.00000000000E+00  0.12259648446E+04  0.12259648446E+04  0.25500000920E-02 0.  1.
        2   -1    0    0  501    0  0.00000000000E+00  0.00000000000E+00 -0.12916054505E+04  0.12916054505E+04  0.25500000920E-02 0. -1.
    10030    2    1    2    0    0  0.00000000000E+00  0.00000000000E+00 -0.65640605899E+02  0.25175702950E+04  0.25167144259E+04 0.  0.
        1    1    3    3  502    0  0.10128914580E+04 -0.74407159204E+03 -0.95060715408E+02  0.12604079417E+04  0.50400001928E-02 0. -1.
       -1    1    3    3    0  502 -0.10128914580E+04  0.74407159204E+03  0.29420109509E+02  0.12571623534E+04  0.50400001928E-02 0.  1.
</event>
<event>
 5   0  0.1468512E-05  0.2512075E+04  0.7818609E-02  0.8398696E-01
        2   -1    0    0  501    0  0.00000000000E+00  0.00000000000E+00  0.74485947339E+03  0.74485947339E+03  0.25500000920E-02 0. -1.
       -2   -1    0    0    0  501  0.00000000000E+00  0.00000000000E+00 -0.21180240882E+04  0.21180240882E+04  0.25500000920E-02 0.  1.
    10030    2    1    2    0    0  0.00000000000E+00  0.00000000000E+00 -0.13731646148E+04  0.28628835616E+04  0.25120750841E+04 0.  0.
        4    1    3    3  502    0 -0.81894510245E+03  0.93310208536E+03 -0.46951550695E+03  0.13273270157E+04  0.12699999809E+01 0. -1.
       -4    1    3    3    0  502  0.81894510245E+03 -0.93310208536E+03 -0.90364910788E+03  0.15355565459E+04  0.12699999809E+01 0.  1.
</event>
<event>
 5   0  0.6346420E-06  0.2501676E+04  0.7818609E-02  0.8402389E-01
       -1   -1    0    0    0  501  0.00000000000E+00  0.00000000000E+00  0.66752200564E+03  0.66752200566E+03  0.50400001928E-02 0. -1.
        1   -1    0    0  501    0  0.00000000000E+00  0.00000000000E+00 -0.23438866528E+04  0.23438866528E+04  0.50400001928E-02 0.  1.
    10030    2    1    2    0    0  0.00000000000E+00  0.00000000000E+00 -0.16763646472E+04  0.30114086585E+04  0.25016761737E+04 0.  0.
        4    1    3    3  502    0  0.76564768094E+03 -0.94276345067E+03 -0.47790905605E+03  0.13051505561E+04  0.12699999809E+01 0. -1.
       -4    1    3    3    0  502 -0.76564768094E+03  0.94276345067E+03 -0.11984555911E+04  0.17062581024E+04  0.12699999809E+01 0.  1.
</event>
<event>
 5   0  0.6477703E-06  0.2499275E+04  0.7818609E-02  0.8403244E-01
        1   -1    0    0  501    0  0.00000000000E+00  0.00000000000E+00  0.19718369991E+04  0.19718369991E+04  0.50400001928E-02 0.  1.
       -1   -1    0    0    0  501  0.00000000000E+00  0.00000000000E+00 -0.79194854237E+03  0.79194854239E+03  0.50400001928E-02 0. -1.
    10030    2    1    2    0    0  0.00000000000E+00  0.00000000000E+00  0.11798884567E+04  0.27637855414E+04  0.24992746446E+04 0.  0.
        5    1    3    3  502    0 -0.92930645210E+03 -0.18744047291E+01 -0.33391287083E+03  0.98748867873E+03  0.46999998093E+01 0. -1.
       -5    1    3    3    0  502  0.92930645210E+03  0.18744047291E+01  0.15138013275E+04  0.17762968627E+04  0.46999998093E+01 0.  1.
</event>
<event>
 5   0  0.1572732E-05  0.2532770E+04  0.7818609E-02  0.8391403E-01
        2   -1    0    0  501    0  0.00000000000E+00  0.00000000000E+00  0.62458723693E+03  0.62458723694E+03  0.25500000920E-02 0.  1.
       -2   -1    0    0    0  501  0.00000000000E+00  0.00000000000E+00 -0.25676662417E+04  0.25676662417E+04  0.25500000920E-02 0. -1.
    10030    2    1    2    0    0  0.00000000000E+00  0.00000000000E+00 -0.19430790047E+04  0.31922534786E+04  0.25327704699E+04 0.  0.
        1    1    3    3  502    0  0.12303294672E+04 -0.17923226636E+03 -0.66827005137E+03  0.14115309649E+04  0.50400001928E-02 0.  1.
       -1    1    3    3    0  502 -0.12303294672E+04  0.17923226636E+03 -0.12748089534E+04  0.17807225137E+04  0.50400001928E-02 0. -1.
</event>
<event>
 5   0  0.6105353E-06  0.2489661E+04  0.7818609E-02  0.8406678E-01
       -1   -1    0    0    0  501  0.00000000000E+00  0.00000000000E+00  0.12242733728E+04  0.12242733728E+04  0.50400001928E-02 0.  1.
        1   -1    0    0  501    0  0.00000000000E+00  0.00000000000E+00 -0.12657331608E+04  0.12657331608E+04  0.50400001928E-02 0. -1.
    10030    2    1    2    0    0  0.00000000000E+00  0.00000000000E+00 -0.41459788052E+02  0.24900065336E+04  0.24896613472E+04 0.  0.
        3    1    3    3  502    0 -0.53584866227E+02 -0.89731646387E+03 -0.88198529515E+03  0.12593435771E+04  0.10100000352E+00 0. -1.
       -3    1    3    3    0  502  0.53584866227E+02  0.89731646387E+03  0.84052550710E+03  0.12306629565E+04  0.10100000352E+00 0.  1.
</event>
<event>
 5   0  0.1526824E-05  0.2547616E+04  0.7818609E-02  0.8386216E-01
       -2   -1    0    0    0  501  0.00000000000E+00  0.00000000000E+00  0.91052355952E+03  0.91052355953E+03  0.25500000920E-02 0.  1.
        2   -1    0    0  501    0  0.00000000000E+00  0.00000000000E+00 -0.17820366976E+04  0.17820366976E+04  0.25500000920E-02 0. -1.
    10030    2    1    2    0    0  0.00000000000E+00  0.00000000000E+00 -0.87151313806E+03  0.26925602571E+04  0.25476156673E+04 0.  0.
        2    1    3    3  502    0 -0.82044461166E+02 -0.73925344786E+03  0.65717601674E+03  0.99252570282E+03  0.25500000920E-02 0.  1.
       -2    1    3    3    0  502  0.82044461166E+02  0.73925344786E+03 -0.15286891548E+04  0.17000345543E+04  0.25500000920E-02 0. -1.
</event>
<event>
 5   0  0.1526824E-05  0.2513178E+04  0.7818609E-02  0.8398306E-01
       -2   -1    0    0    0  501  0.00000000000E+00  0.00000000000E+00  0.62858770489E+03  0.62858770490E+03  0.25500000920E-02 0. -1.
        2   -1    0    0  501    0  0.00000000000E+00  0.00000000000E+00 -0.25120050808E+04  0.25120050808E+04  0.25500000920E-02 0.  1.
    10030    2    1    2    0    0  0.00000000000E+00  0.00000000000E+00 -0.18834173759E+04  0.31405927857E+04  0.25131776765E+04 0.  0.
        2    1    3    3  502    0  0.11353669723E+04 -0.53687265102E+03 -0.99361210874E+03  0.16014229385E+04  0.25500000920E-02 0.  1.
       -2    1    3    3    0  502 -0.11353669723E+04  0.53687265102E+03 -0.88980526714E+03  0.15391698472E+04  0.25500000920E-02 0. -1.
</event>
<event>
 5   0  0.1468512E-05  0.2524911E+04  0.7818609E-02  0.8394164E-01
        2   -1    0    0  501    0  0.00000000000E+00  0.00000000000E+00  0.18787903928E+04  0.18787903928E+04  0.25500000920E-02 0.  1.
       -2   -1    0    0    0  501  0.00000000000E+00  0.00000000000E+00 -0.84830869089E+03  0.84830869089E+03  0.25500000920E-02 0. -1.
    10030    2    1    2    0    0  0.00000000000E+00  0.00000000000E+00  0.10304817019E+04  0.27270990837E+04  0.25249112607E+04 0.  0.
        4    1    3    3  502    0  0.12029762388E+04  0.18746290255E+03  0.15458815463E+03  0.12272706635E+04  0.12699999809E+01 0. -1.
       -4    1    3    3    0  502 -0.12029762388E+04 -0.18746290255E+03  0.87589354726E+03  0.14998284202E+04  0.12699999809E+01 0.  1.
</event>
<event>
 5   0  0.1501947E-05  0.2488528E+04  0.7818609E-02  0.8407084E-01
       -2   -1    0    0    0  501  0.00000000000E+00  0.00000000000E+00  0.12619014722E+04  0.12619014722E+04  0.25500000920E-02 0.  1.
        2   -1    0    0  501    0  0.00000000000E+00  0.00000000000E+00 -0.12268731045E+04  0.12268731045E+04  0.25500000920E-02 0. -1.
    10030    2    1    2    0    0  0.00000000000E+00  0.00000000000E+00  0.35028367705E+02  0.24887745766E+04  0.24885280603E+04 0.  0.
        3    1    3    3  502    0  0.73641328624E+03  0.10027863611E+04  0.35064490164E+02  0.12446343009E+04  0.10100000352E+00 0. -1.
       -3    1    3    3    0  502 -0.73641328624E+03 -0.10027863611E+04 -0.36122459345E-01  0.12441402758E+04  0.10100000352E+00 0.  1.
</event>
<event>
 5   0  0.1572732E-05  0.2514963E+04  0.7818609E-02  0.8397674E-01
        2   -1    0    0  501    0  0.00000000000E+00  0.00000000000E+00  0.19309541760E+04  0.19309541760E+04  0.25500000920E-02 0.  1.
       -2   -1    0    0    0  501  0.00000000000E+00  0.00000000000E+00 -0.81890058162E+03  0.81890058162E+03  0.25500000920E-02 0. -1.
    10030    2    1    2    0    0  0.00000000000E+00  0.00000000000E+00  0.11120535944E+04  0.27498547577E+04  0.25149628211E+04 0.  0.
        1    1    3    3  502    0 -0.11965451697E+04 -0.35979759268E+03  0.40106935059E+03  0.13122618926E+04  0.50400001928E-02 0.  1.
       -1    1    3    3    0  502  0.11965451697E+04  0.35979759268E+03  0.71098424382E+03  0.14375928651E+04  0.50400001928E-02 0. -1.
</event>
<event>
 5   0  0.1550483E-05  0.2505841E+04  0.7818609E-02  0.8400908E-01
       -2   -1    0    0    0  501  0.00000000000E+00  0.00000000000E+00  0.12802570028E+04  0.12802570028E+04  0.25500000920E-02 0. -1.
        2   -1    0    0  501    0  0.00000000000E+00  0.00000000000E+00 -0.12261679024E+04  0.12261679024E+04  0.25500000920E-02 0.  1.
    10030    2    1    2    0    0  0.00000000000E+00  0.00000000000E+00  0.54089100370E+02  0.25064249052E+04  0.25058412109E+04 0.  0.
        5    1    3    3  502    0  0.93337565338E+03 -0.34418030708E+03 -0.73480061648E+03  0.12367716968E+04  0.46999998093E+01 0.  1.
       -5    1    3    3    0  502 -0.93337565338E+03  0.34418030708E+03  0.78888971685E+03  0.12696532083E+04  0.46999998093E+01 0. -1.
</event>
<event>
 5   0  0.6346420E-06  0.2503398E+04  0.7818609E-02  0.8401776E-01
       -1   -1    0    0    0  501  0.00000000000E+00  0.00000000000E+00  0.89165391152E+03  0.89165391153E+03  0.50400001928E-02 0. -1.
        1   -1    0    0  501    0  0.00000000000E+00  0.00000000000E+00 -0.17571282169E+04  0.17571282169E+04  0.50400001928E-02 0.  1.
    10030    2    1    2    0    0  0.00000000000E+00  0.00000000000E+00 -0.86547430537E+03  0.26487821284E+04  0.25033978890E+04 0.  0.
        4    1    3    3  502    0 -0.10656067484E+04  0.86922288660E+02 -0.11214417534E+04  0.15494213261E+04  0.12699999809E+01 0.  1.
       -4    1    3    3    0  502  0.10656067484E+04 -0.86922288660E+02  0.25596744804E+03  0.10993608024E+04  0.12699999809E+01 0. -1.
</event>
<event>
 5   0  0.6477703E-06  0.2476288E+04  0.7818609E-02  0.8411482E-01
        1   -1    0    0  501    0  0.00000000000E+00  0.00000000000E+00  0.10653484145E+04  0.10653484145E+04  0.50400001928E-02 0. -1.
       -1   -1    0    0    0  501  0.00000000000E+00  0.00000000000E+00 -0.14389668982E+04  0.14389668982E+04  0.50400001928E-02 0.  1.
    10030    2    1    2    0    0  0.00000000000E+00  0.00000000000E+00 -0.37361848368E+03  0.25043153127E+04  0.24762884351E+04 0.  0.
        5    1    3    3  502    0 -0.12283967860E+04  0.15457445190E+03 -0.19821018871E+03  0.12538585621E+04  0.46999998093E+01 0. -1.
       -5    1    3    3    0  502  0.12283967860E+04 -0.15457445190E+03 -0.17540829497E+03  0.12504567505E+04  0.46999998093E+01 0.  1.
</event>
<event>
 5   0  0.1468512E-05  0.2509731E+04  0.7818609E-02  0.8399527E-01
       -2   -1    0    0    0  501  0.00000000000E+00  0.00000000000E+00  0.87581742582E+03  0.87581742582E+03  0.25500000920E-02 0.  1.
        2   -1    0    0  501    0  0.00000000000E+00  0.00000000000E+00 -0.17979628694E+04  0.17979628694E+04  0.25500000920E-02 0. -1.
    10030    2    1    2    0    0  0.00000000000E+00  0.00000000000E+00 -0.92214544359E+03  0.26737802952E+04  0.25097308318E+04 0.  0.
        4    1    3    3  502    0 -0.47252177027E+02 -0.40364813782E+03  0.80376366111E+03  0.90066765414E+03  0.12699999809E+01 0.  1.
       -4    1    3    3    0  502  0.47252177027E+02  0.40364813782E+03 -0.17259091047E+04  0.17731126411E+04  0.12699999809E+01 0. -1.
</event>
<event>
 5   0  0.1526824E-05  0.2494203E+04  0.7818609E-02  0.8405054E-01
        2   -1    0    0  501    0  0.00000000000E+00  0.00000000000E+00  0.17483414666E+04  0.17483414666E+04  0.25500000920E-02 0.  1.
       -2   -1    0    0    0  501  0.00000000000E+00  0.00000000000E+00 -0.88956435709E+03  0.88956435710E+03  0.25500000920E-02 0. -1.
    10030    2    1    2    0    0  0.00000000000E+00  0.00000000000E+00  0.85877710949E+03  0.26379058237E+04  0.24942030813E+04 0.  0.
        2    1    3    3  502    0 -0.57849115589E+03 -0.75105466721E+03  0.12863352560E+04  0.15979341417E+04  0.25500000920E-02 0.  1.
       -2    1    3    3    0  502  0.57849115589E+03  0.75105466721E+03 -0.42755814649E+03  0.10399716819E+04  0.25500000920E-02 0. -1.
</event>
<event>
 5   0  0.6477703E-06  0.2498169E+04  0.7818609E-02  0.8403638E-01
       -1   -1    0    0    0  501  0.00000000000E+00  0.00000000000E+00  0.15517081519E+04  0.15517081520E+04  0.50400001928E-02 0.  1.
        1   -1    0    0  501    0  0.00000000000E+00  0.00000000000E+00 -0.10054804764E+04  0.10054804764E+04  0.50400001928E-02 0. -1.
    10030    2    1    2    0    0  0.00000000000E+00  0.00000000000E+00  0.54622767551E+03  0.25571886284E+04  0.24981691311E+04 0.  0.
        5    1    3    3  502    0 -0.12445695254E+04  0.10392878531E+03  0.25174810967E+03  0.12740304929E+04  0.46999998093E+01 0.  1.
       -5    1    3    3    0  502  0.12445695254E+04 -0.10392878531E+03  0.29447956585E+03  0.12831581355E+04  0.46999998093E+01 0. -1.
</event>
<event>
 5   0  0.6346420E-06  0.2584699E+04  0.7818609E-02  0.8373417E-01
        1   -1    0    0  501    0  0.00000000000E+00  0.00000000000E+00  0.13828841287E+04  0.13828841287E+04  0.50400001928E-02 0.  1.
       -1   -1    0    0    0  501  0.00000000000E+00  0.00000000000E+00 -0.12077418956E+04  0.12077418956E+04  0.50400001928E-02 0. -1.
    10030    2    1    2    0    0  0.00000000000E+00  0.00000000000E+00  0.17514223305E+03  0.25906260243E+04  0.25846988985E+04 0.  0.
        4    1    3    3  502    0 -0.64548672643E+03  0.89820156377E+03 -0.58235245596E+03  0.12500220634E+04  0.12699999809E+01 0. -1.
       -4    1    3    3    0  502  0.64548672643E+03 -0.89820156377E+03  0.75749468901E+03  0.13406039609E+04  0.12699999809E+01 0.  1.
</event>
<event>
 5   0  0.1550483E-05  0.2497227E+04  0.7818609E-02  0.8403974E-01
        2   -1    0    0  501    0  0.00000000000E+00  0.00000000000E+00  0.22456614528E+04  0.22456614528E+04  0.25500000920E-02 0. -1.
       -2   -1    0    0    0  501  0.00000000000E+00  0.00000000000E+00 -0.69424357758E+03  0.69424357758E+03  0.25500000920E-02 0.  1.
    10030    2    1    2    0    0  0.00000000000E+00  0.00000000000E+00  0.15514178752E+04  0.29399050303E+04  0.24972272952E+04 0.  0.
        5    1    3    3  502    0  0.43577852462E+03 -0.86811791892E+03  0.16993070034E+04  0.19573446363E+04  0.46999998093E+01 0. -1.
       -5    1    3    3    0  502 -0.43577852462E+03  0.86811791892E+03 -0.14788912818E+03  0.98256039402E+03  0.46999998093E+01 0.  1.
</event>
<event>
 5   0  0.6104486E-06  0.2502391E+04  0.7818609E-02  0.8402134E-01
        1   -1    0    0  501    0  0.00000000000E+00  0.00000000000E+00  0.22259961834E+04  0.22259961834E+04  0.50400001928E-02 0. -1.
       -1   -1    0    0    0  501  0.00000000000E+00  0.00000000000E+00 -0.70327633227E+03  0.70327633229E+03  0.50400001928E-02 0.  1.
    10030    2    1    2    0    0  0.00000000000E+00  0.00000000000E+00  0.15227198511E+04  0.29292725157E+04  0.25023912017E+04 0.  0.
        2    1    3    3  502    0 -0.38683282487E+03 -0.57960789884E+03  0.19778188391E+04  0.20969864833E+04  0.25500000920E-02 0. -1.
       -2    1    3    3    0  502  0.38683282487E+03  0.57960789884E+03 -0.45509898800E+03  0.83228603238E+03  0.25500000920E-02 0.  1.
</event>
<event>
 5   0  0.6105353E-06  0.2503375E+04  0.7818609E-02  0.8401784E-01
        1   -1    0    0  501    0  0.00000000000E+00  0.00000000000E+00  0.17327748841E+04  0.17327748841E+04  0.50400001928E-02 0.  1.
       -1   -1    0    0    0  501  0.00000000000E+00  0.00000000000E+00 -0.90416937077E+03  0.90416937079E+03  0.50400001928E-02 0. -1.
    10030    2    1    2    0    0  0.00000000000E+00  0.00000000000E+00  0.82860551337E+03  0.26369442549E+04  0.25033753028E+04 0.  0.
        3    1    3    3  502    0 -0.39728622536E+03 -0.89382892173E+03 -0.40836420121E+03  0.10599659510E+04  0.10100000352E+00 0.  1.
       -3    1    3    3    0  502  0.39728622536E+03  0.89382892173E+03  0.12369697146E+04  0.15769783040E+04  0.10100000352E+00 0. -1.
</event>
<event>
 5   0  0.6290861E-06  0.2503265E+04  0.7818609E-02  0.8401823E-01
       -1   -1    0    0    0  501  0.00000000000E+00  0.00000000000E+00  0.12370035567E+04  0.12370035567E+04  0.50400001928E-02 0.  1.
        1   -1    0    0  501    0  0.00000000000E+00  0.00000000000E+00 -0.12664346369E+04  0.12664346369E+04  0.50400001928E-02 0. -1.
    10030    2    1    2    0    0  0.00000000000E+00  0.00000000000E+00 -0.29431080220E+02  0.25034381936E+04  0.25032651878E+04 0.  0.
        1    1    3    3  502    0  0.23558384629E+03  0.12184779016E+04  0.14776416147E+03  0.12498089425E+04  0.50400001928E-02 0. -1.
       -1    1    3    3    0  502 -0.23558384629E+03 -0.12184779016E+04 -0.17719524169E+03  0.12536292510E+04  0.50400001928E-02 0.  1.
</event>
<event>
 5   0  0.1572732E-05  0.2489912E+04  0.7818609E-02  0.8406588E-01
       -2   -1    0    0    0  501  0.00000000000E+00  0.00000000000E+00  0.73829678884E+03  0.73829678884E+03  0.25500000920E-02 0. -1.
        2   -1    0    0  501    0  0.00000000000E+00  0.00000000000E+00 -0.20993119042E+04  0.20993119042E+04  0.25500000920E-02 0.  1.
    10030    2    1    2    0    0  0.00000000000E+00  0.00000000000E+00 -0.13610151153E+04  0.28376086930E+04  0.24899118359E+04 0.  0.
        1    1    3    3  502    0 -0.19517563024E+03  0.78277084646E+03 -0.17611212978E+04  0.19371040112E+04  0.50400001928E-02 0.  1.
       -1    1    3    3    0  502  0.19517563024E+03 -0.78277084646E+03  0.40010618245E+03  0.90050468181E+03  0.50400001928E-02 0. -1.
</event>
<event>
 5   0  0.1501947E-05  0.2200212E+04  0.7818609E-02  0.8518340E-01
        2   -1    0    0  501    0  0.00000000000E+00  0.00000000000E+00  0.14776078517E+04  0.14776078517E+04  0.25500000920E-02 0. -1.
       -2   -1    0    0    0  501  0.00000000000E+00  0.00000000000E+00 -0.81904912755E+03  0.81904912756E+03  0.25500000920E-02 0.  1.
    10030    2    1    2    0    0  0.00000000000E+00  0.00000000000E+00  0.65855872417E+03  0.22966569793E+04  0.22002121914E+04 0.  0.
        3    1    3    3  502    0 -0.41442005078E+03 -0.42161925719E+03 -0.63914161845E+03  0.87063700539E+03  0.10100000352E+00 0.  1.
       -3    1    3    3    0  502  0.41442005078E+03  0.42161925719E+03  0.12977003426E+04  0.14260199739E+04  0.10100000352E+00 0. -1.
</event>
<event>
 5   0  0.1550483E-05  0.2480087E+04  0.7818609E-02  0.8410114E-01
       -2   -1    0    0    0  501  0.00000000000E+00  0.00000000000E+00  0.89872476040E+03  0.89872476041E+03  0.25500000920E-02 0.  1.
        2   -1    0    0  501    0  0.00000000000E+00  0.00000000000E+00 -0.17109892796E+04  0.17109892796E+04  0.25500000920E-02 0. -1.
    10030    2    1    2    0    0  0.00000000000E+00  0.00000000000E+00 -0.81226451920E+03  0.26097140400E+04  0.24800874423E+04 0.  0.
        5    1    3    3  502    0 -0.33401148821E+03 -0.11723162557E+04 -0.64561782046E+03  0.13793960771E+04  0.46999998093E+01 0. -1.
       -5    1    3    3    0  502  0.33401148821E+03  0.11723162557E+04 -0.16664669874E+03  0.12303179629E+04  0.46999998093E+01 0.  1.
</event>
<event>
 5   0  0.1468512E-05  0.2514902E+04  0.7818609E-02  0.8397696E-01
       -2   -1    0    0    0  501  0.00000000000E+00  0.00000000000E+00  0.62765444363E+03  0.62765444364E+03  0.25500000920E-02 0. -1.
        2   -1    0    0  501    0  0.00000000000E+00  0.00000000000E+00 -0.25191937781E+04  0.25191937781E+04  0.25500000920E-02 0.  1.
    10030    2    1    2    0    0  0.00000000000E+00  0.00000000000E+00 -0.18915393345E+04  0.31468482218E+04  0.25149021207E+04 0.  0.
        4    1    3    3  502    0 -0.44107221194E+03 -0.44440355515E+03  0.41872433455E+03  0.75324026527E+03  0.12699999809E+01 0. -1.
       -4    1    3    3    0  502  0.44107221194E+03  0.44440355515E+03 -0.23102636690E+04  0.23936079565E+04  0.12699999809E+01 0.  1.
</event>
<event>
 5   0  0.1572732E-05  0.2494563E+04  0.7818609E-02  0.8404925E-01
        2   -1    0    0  501    0  0.00000000000E+00  0.00000000000E+00  0.22739158374E+04  0.22739158374E+04  0.25500000920E-02 0. -1.
       -2   -1    0    0    0  501  0.00000000000E+00  0.00000000000E+00 -0.68415485845E+03  0.68415485846E+03  0.25500000920E-02 0.  1.
    10030    2    1    2    0    0  0.00000000000E+00  0.00000000000E+00  0.15897609789E+04  0.29580706959E+04  0.24945625411E+04 0.  0.
        1    1    3    3  502    0  0.14961019986E+03  0.12230623606E+04  0.56541582706E+03  0.13557137631E+04  0.50400001928E-02 0.  1.
       -1    1    3    3    0  502 -0.14961019986E+03 -0.12230623606E+04  0.10243451519E+04  0.16023569328E+04  0.50400001928E-02 0. -1.
</event>
<event>
 5   0  0.6104486E-06  0.2510010E+04  0.7818609E-02  0.8399428E-01
       -1   -1    0    0    0  501  0.00000000000E+00  0.00000000000E+00  0.22372768871E+04  0.22372768871E+04  0.50400001928E-02 0. -1.
        1   -1    0    0  501    0  0.00000000000E+00  0.00000000000E+00 -0.70399760796E+03  0.70399760798E+03  0.50400001928E-02 0.  1.
    10030    2    1    2    0    0  0.00000000000E+00  0.00000000000E+00  0.15332792792E+04  0.29412744951E+04  0.25100100214E+04 0.  0.
        2    1    3    3  502    0 -0.80040994765E+03  0.43686956603E+03 -0.24379521854E+03  0.94390000032E+03  0.25500000920E-02 0. -1.
       -2    1    3    3    0  502  0.80040994765E+03 -0.43686956603E+03  0.17770744977E+04  0.19973744948E+04  0.25500000920E-02 0.  1.
</event>
<event>
 5   0  0.6105353E-06  0.2499545E+04  0.7818609E-02  0.8403148E-01
       -1   -1    0    0    0  501  0.00000000000E+00  0.00000000000E+00  0.76375699672E+03  0.76375699673E+03  0.50400001928E-02 0.  1.
        1   -1    0    0  501    0  0.00000000000E+00  0.00000000000E+00 -0.20450635750E+04  0.20450635750E+04  0.50400001928E-02 0. -1.
    10030    2    1    2    0    0  0.00000000000E+00  0.00000000000E+00 -0.12813065782E+04  0.28088205717E+04  0.24995452499E+04 0.  0.
        3    1    3    3  502    0  0.10149383657E+04  0.42876610740E+03  0.22245481955E+02  0.11020141255E+04  0.10100000352E+00 0.  1.
       -3    1    3    3    0  502 -0.10149383657E+04 -0.42876610740E+03 -0.13035520602E+04  0.17068064462E+04  0.10100000352E+00 0. -1.
</event>
<event>
 5   0  0.1501947E-05  0.2500335E+04  0.7818609E-02  0.8402866E-01
        2   -1    0    0  501    0  0.00000000000E+00  0.00000000000E+00  0.15543531284E+04  0.15543531284E+04  0.25500000920E-02 0. -1.
       -2   -1    0    0    0  501  0.00000000000E+00  0.00000000000E+00 -0.10055106459E+04  0.10055106459E+04  0.25500000920E-02 0.  1.
    10030    2    1    2    0    0  0.00000000000E+00  0.00000000000E+00  0.54884248250E+03  0.25598637742E+04  0.25003348720E+04 0.  0.
        3    1    3    3  502    0  0.12778348661E+03  0.11353724577E+04 -0.24512430683E+03  0.11685397610E+04  0.10100000352E+00 0.  1.
       -3    1    3    3    0  502 -0.12778348661E+03 -0.11353724577E+04  0.79396678932E+03  0.13913240132E+04  0.10100000352E+00 0. -1.
</event>
<event>
 5   0  0.1501947E-05  0.2518984E+04  0.7818609E-02  0.8396254E-01
       -2   -1    0    0    0  501  0.00000000000E+00  0.00000000000E+00  0.98113833985E+03  0.98113833985E+03  0.25500000920E-02 0. -1.
        2   -1    0    0  501    0  0.00000000000E+00  0.00000000000E+00 -0.16168157162E+04  0.16168157162E+04  0.25500000920E-02 0.  1.
    10030    2    1    2    0    0  0.00000000000E+00  0.00000000000E+00 -0.63567737631E+03  0.25979540560E+04  0.25189838329E+04 0.  0.
        3    1    3    3  502    0  0.14334909341E+03 -0.92322811499E+03 -0.11889606412E+04  0.15121264932E+04  0.10100000352E+00 0.  1.
       -3    1    3    3    0  502 -0.14334909341E+03  0.92322811499E+03  0.55328326485E+03  0.10858275628E+04  0.10100000352E+00 0. -1.
</event>
<event>
 5   0  0.6346420E-06  0.2502255E+04  0.7818609E-02  0.8402183E-01
        1   -1    0    0  501    0  0.00000000000E+00  0.00000000000E+00  0.21279450608E+04  0.21279450608E+04  0.50400001928E-02 0. -1.
       -1   -1    0    0    0  501  0.00000000000E+00  0.00000000000E+00 -0.73560180146E+03  0.73560180148E+03  0.50400001928E-02 0.  1.
    10030    2    1    2    0    0  0.00000000000E+00  0.00000000000E+00  0.13923432594E+04  0.28635468623E+04  0.25022551590E+04 0.  0.
        4    1    3    3  502    0  0.39721604037E+03 -0.10484475086E+04  0.60757982486E+02  0.11228160608E+04  0.12699999809E+01 0.  1.
       -4    1    3    3    0  502 -0.39721604037E+03  0.10484475086E+04  0.13315852769E+04  0.17407308016E+04  0.12699999809E+01 0. -1.
</event>
<event>
 5   0  0.6290861E-06  0.2509499E+04  0.7818609E-02  0.8399609E-01
       -1   -1    0    0    0  501  0.00000000000E+00  0.00000000000E+00  0.94994057207E+03  0.94994057209E+03  0.50400001928E-02 0. -1.
        1   -1    0    0  501    0  0.00000000000E+00  0.00000000000E+00 -0.16573631308E+04  0.16573631308E+04  0.50400001928E-02 0.  1.
    10030    2    1    2    0    0  0.00000000000E+00  0.00000000000E+00 -0.70742255869E+03  0.26073037029E+04  0.25094991378E+04 0.  0.
        1    1    3    3  502    0 -0.24038603905E+03  0.24263381481E+03 -0.16081359479E+04  0.16440066431E+04  0.50400001928E-02 0.  1.
       -1    1    3    3    0  502  0.24038603905E+03 -0.24263381481E+03  0.90071338916E+03  0.96329705973E+03  0.50400001928E-02 0. -1.
</event>
<event>
 5   0  0.1550483E-05  0.2489964E+04  0.7818609E-02  0.8406570E-01
       -2   -1    0    0    0  501  0.00000000000E+00  0.00000000000E+00  0.13992672952E+04  0.13992672952E+04  0.25500000920E-02 0.  1.
        2   -1    0    0  501    0  0.00000000000E+00  0.00000000000E+00 -0.11077081847E+04  0.11077081847E+04  0.25500000920E-02 0. -1.
    10030    2    1    2    0    0  0.00000000000E+00  0.00000000000E+00  0.29155911057E+03  0.25069754799E+04  0.24899637230E+04 0.  0.
        5    1    3    3  502    0  0.50502131039E+03 -0.10037641377E+04  0.68550992595E+03  0.13162579218E+04  0.46999998093E+01 0.  1.
       -5    1    3    3    0  502 -0.50502131039E+03  0.10037641377E+04 -0.39395081537E+03  0.11907175581E+04  0.46999998093E+01 0. -1.
</event>
<event>
 5   0  0.6346420E-06  0.2461349E+04  0.7818609E-02  0.8416886E-01
       -1   -1    0    0    0  501  0.00000000000E+00  0.00000000000E+00  0.59031691839E+03  0.59031691841E+03  0.50400001928E-02 0.  1.
        1   -1    0    0  501    0  0.00000000000E+00  0.00000000000E+00 -0.25656726610E+04  0.25656726610E+04  0.50400001928E-02 0. -1.
    10030    2    1    2    0    0  0.00000000000E+00  0.00000000000E+00 -0.19753557426E+04  0.31559895794E+04  0.24613492063E+04 0.  0.
        4    1    3    3  502    0  0.27014283448E+03 -0.14919940279E+03  0.53989734280E+03  0.62187488008E+03  0.12699999809E+01 0.  1.
       -4    1    3    3    0  502 -0.27014283448E+03  0.14919940279E+03 -0.25152530854E+04  0.25341146994E+04  0.12699999809E+01 0. -1.
</event>
<event>
 5   0  0.6290861E-06  0.2488080E+04  0.7818609E-02  0.8407244E-01
       -1   -1    0    0    0  501  0.00000000000E+00  0.00000000000E+00  0.10886488250E+04  0.10886488250E+04  0.50400001928E-02 0.  1.
        1   -1    0    0  501    0  0.00000000000E+00  0.00000000000E+00 -0.14216118677E+04  0.14216118677E+04  0.50400001928E-02 0. -1.
    10030    2    1    2    0    0  0.00000000000E+00  0.00000000000E+00 -0.33296304274E+03  0.25102606927E+04  0.24880804564E+04 0.  0.
        1    1    3    3  502    0 -0.34272364402E+03  0.28842632807E+03  0.10044623642E+04  0.10998153864E+04  0.50400001928E-02 0.  1.
       -1    1    3    3    0  502  0.34272364402E+03 -0.28842632807E+03 -0.13374254070E+04  0.14104453063E+04  0.50400001928E-02 0. -1.
</event>
<event>
 5   0  0.1468512E-05  0.2474489E+04  0.7818609E-02  0.8412131E-01
        2   -1    0    0  501    0  0.00000000000E+00  0.00000000000E+00  0.49877611086E+03  0.49877611087E+03  0.25500000920E-02 0.  1.
       -2   -1    0    0    0  501  0.00000000000E+00  0.00000000000E+00 -0.30690608448E+04  0.30690608448E+04  0.25500000920E-02 0. -1.
    10030    2    1    2    0    0  0.00000000000E+00  0.00000000000E+00 -0.25702847339E+04  0.35678369556E+04  0.24744892258E+04 0.  0.
        4    1    3    3  502    0 -0.57084708376E+03 -0.15633562814E+03 -0.28516988676E+04  0.29124723631E+04  0.12699999809E+01 0. -1.
       -4    1    3    3    0  502  0.57084708376E+03  0.15633562814E+03  0.28141413363E+03  0.65536459256E+03  0.12699999809E+01 0.  1.
</event>
<event>
 5   0  0.6105353E-06  0.2494871E+04  0.7818609E-02  0.8404815E-01
        1   -1    0    0  501    0  0.00000000000E+00  0.00000000000E+00  0.17961480712E+04  0.17961480712E+04  0.50400001928E-02 0.  1.
       -1   -1    0    0    0  501  0.00000000000E+00  0.00000000000E+00 -0.86635105908E+03  0.86635105910E+03  0.50400001928E-02 0. -1.
    10030    2    1    2    0    0  0.00000000000E+00  0.00000000000E+00  0.92979701215E+03  0.26624991303E+04  0.24948705648E+04 0.  0.
        3    1    3    3  502    0  0.30977300462E+03 -0.18317358952E+03  0.17395456046E+04  0.17763813777E+04  0.10100000352E+00 0.  1.
       -3    1    3    3    0  502 -0.30977300462E+03  0.18317358952E+03 -0.80974859248E+03  0.88611775263E+03  0.10100000352E+00 0. -1.
</event>
<event>
 5   0  0.6290861E-06  0.2448428E+04  0.7818609E-02  0.8421592E-01
       -1   -1    0    0    0  501  0.00000000000E+00  0.00000000000E+00  0.14116854943E+04  0.14116854943E+04  0.50400001928E-02 0. -1.
        1   -1    0    0  501    0  0.00000000000E+00  0.00000000000E+00 -0.10616383203E+04  0.10616383203E+04  0.50400001928E-02 0.  1.
    10030    2    1    2    0    0  0.00000000000E+00  0.00000000000E+00  0.35004717392E+03  0.24733238146E+04  0.24484275909E+04 0.  0.
        1    1    3    3  502    0 -0.59544178352E+03  0.54635760820E+03  0.11039620632E+04  0.13681336889E+04  0.50400001928E-02 0. -1.
       -1    1    3    3    0  502  0.59544178352E+03 -0.54635760820E+03 -0.75391488932E+03  0.11051901257E+04  0.50400001928E-02 0.  1.
</event>
<event>
 5   0  0.6290861E-06  0.2488712E+04  0.7818609E-02  0.8407018E-01
        1   -1    0    0  501    0  0.00000000000E+00  0.00000000000E+00  0.11538128756E+04  0.11538128757E+04  0.50400001928E-02 0. -1.
       -1   -1    0    0    0  501  0.00000000000E+00  0.00000000000E+00 -0.13420042242E+04  0.13420042242E+04  0.50400001928E-02 0.  1.
    10030    2    1    2    0    0  0.00000000000E+00  0.00000000000E+00 -0.18819134855E+03  0.24958170999E+04  0.24887119183E+04 0.  0.
        1    1    3    3  502    0  0.63712534361E+03 -0.48030945541E+01 -0.11660111150E+04  0.13287338686E+04  0.50400001928E-02 0.  1.
       -1    1    3    3    0  502 -0.63712534361E+03  0.48030945541E+01  0.97781976642E+03  0.11670832313E+04  0.50400001928E-02 0. -1.
</event>
<event>
 5   0  0.6477703E-06  0.2500772E+04  0.7818609E-02  0.8402710E-01
        1   -1    0    0  501    0  0.00000000000E+00  0.00000000000E+00  0.14205881676E+04  0.14205881677E+04  0.50400001928E-02 0.  1.
       -1   -1    0    0    0  501  0.00000000000E+00  0.00000000000E+00 -0.11005760764E+04  0.11005760764E+04  0.50400001928E-02 0. -1.
    10030    2    1    2    0    0  0.00000000000E+00  0.00000000000E+00  0.32001209126E+03  0.25211642441E+04  0.25007721621E+04 0.  0.
        5    1    3    3  502    0 -0.48298750060E+03 -0.80507123970E+03 -0.67257722578E+03  0.11549020917E+04  0.46999998093E+01 0. -1.
       -5    1    3    3    0  502  0.48298750060E+03  0.80507123970E+03  0.99258931704E+03  0.13662621524E+04  0.46999998093E+01 0.  1.
</event>
<event>
 5   0  0.6477703E-06  0.2570533E+04  0.7818609E-02  0.8378280E-01
       -1   -1    0    0    0  501  0.00000000000E+00  0.00000000000E+00  0.66318691526E+03  0.66318691528E+03  0.50400001928E-02 0.  1.
        1   -1    0    0  501    0  0.00000000000E+00  0.00000000000E+00 -0.24908655219E+04  0.24908655219E+04  0.50400001928E-02 0. -1.
    10030    2    1    2    0    0  0.00000000000E+00  0.00000000000E+00 -0.18276786066E+04  0.31540524371E+04  0.25705325688E+04 0.  0.
        5    1    3    3  502    0  0.71068661507E+02 -0.25905004553E+03  0.62834821368E+03  0.68337489592E+03  0.46999998093E+01 0.  1.
       -5    1    3    3    0  502 -0.71068661507E+02  0.25905004553E+03 -0.24560268203E+04  0.24706775412E+04  0.46999998093E+01 0. -1.
</event>
<event>
 5   0  0.6104486E-06  0.2508071E+04  0.7818609E-02  0.8400116E-01
       -1   -1    0    0    0  501  0.00000000000E+00  0.00000000000E+00  0.11922133612E+04  0.11922133612E+04  0.50400001928E-02 0.  1.
        1   -1    0    0  501    0  0.00000000000E+00  0.00000000000E+00 -0.13190635614E+04  0.13190635614E+04  0.50400001928E-02 0. -1.
    10030    2    1    2    0    0  0.00000000000E+00  0.00000000000E+00 -0.12685020026E+03  0.25112769226E+04  0.25080711331E+04 0.  0.
        2    1    3    3  502    0  0.34521316918E+03  0.92056452752E+03 -0.84287629218E+03  0.12950102800E+04  0.25500000920E-02 0. -1.
       -2    1    3    3    0  502 -0.34521316918E+03 -0.92056452752E+03  0.71602609192E+03  0.12162666426E+04  0.25500000920E-02 0.  1.
</event>
<event>
 5   0  0.6104486E-06  0.2497415E+04  0.7818609E-02  0.8403907E-01
        1   -1    0    0  501    0  0.00000000000E+00  0.00000000000E+00  0.94743758105E+03  0.94743758106E+03  0.50400001928E-02 0. -1.
       -1   -1    0    0    0  501  0.00000000000E+00  0.00000000000E+00 -0.16457763401E+04  0.16457763401E+04  0.50400001928E-02 0.  1.
    10030    2    1    2    0    0  0.00000000000E+00  0.00000000000E+00 -0.69833875904E+03  0.25932139212E+04  0.24974149472E+04 0.  0.
        2    1    3    3  502    0  0.67504730409E+03  0.51259299027E+03 -0.13013113643E+04  0.15530137485E+04  0.25500000920E-02 0.  1.
       -2    1    3    3    0  502 -0.67504730409E+03 -0.51259299027E+03  0.60297260521E+03  0.10402001726E+04  0.25500000920E-02 0. -1.
</event>
<event>
 5   0  0.6104486E-06  0.2504220E+04  0.7818609E-02  0.8401484E-01
        1   -1    0    0  501    0  0.00000000000E+00  0.00000000000E+00  0.10056056856E+04  0.10056056857E+04  0.50400001928E-02 0.  1.
       -1   -1    0    0    0  501  0.00000000000E+00  0.00000000000E+00 -0.15590394578E+04  0.15590394578E+04  0.50400001928E-02 0. -1.
    10030    2    1    2    0    0  0.00000000000E+00  0.00000000000E+00 -0.55343377215E+03  0.25646451434E+04  0.25042195933E+04 0.  0.
        2    1    3    3  502    0 -0.13842967392E+03  0.95913392249E+03  0.53530756002E+03  0.11070929680E+04  0.25500000920E-02 0.  1.
       -2    1    3    3    0  502  0.13842967392E+03 -0.95913392249E+03 -0.10887413322E+04  0.14575521755E+04  0.25500000920E-02 0. -1.
</event>
<event>
 5   0  0.1550483E-05  0.2501929E+04  0.7818609E-02  0.8402299E-01
        2   -1    0    0  501    0  0.00000000000E+00  0.00000000000E+00  0.99922651673E+03  0.99922651673E+03  0.25500000920E-02 0. -1.
       -2   -1    0    0    0  501  0.00000000000E+00  0.00000000000E+00 -0.15661235074E+04  0.15661235074E+04  0.25500000920E-02 0.  1.
    10030    2    1    2    0    0  0.00000000000E+00  0.00000000000E+00 -0.56689699063E+03  0.25653500241E+04  0.25019289654E+04 0.  0.
        5    1    3    3  502    0 -0.78698048199E+03  0.20401892359E+03  0.69140327735E+03  0.10672500092E+04  0.46999998093E+01 0. -1.
       -5    1    3    3    0  502  0.78698048199E+03 -0.20401892359E+03 -0.12583002680E+04  0.14981000149E+04  0.46999998093E+01 0.  1.
</event>
<event>
 5   0  0.6290861E-06  0.2484659E+04  0.7818609E-02  0.8408471E-01
        1   -1    0    0  501    0  0.00000000000E+00  0.00000000000E+00  0.19952458214E+04  0.19952458214E+04  0.50400001928E-02 0.  1.
       -1   -1    0    0    0  501  0.00000000000E+00  0.00000000000E+00 -0.77353002023E+03  0.77353002025E+03  0.50400001928E-02 0. -1.
    10030    2    1    2    0    0  0.00000000000E+00  0.00000000000E+00  0.12217158012E+04  0.27687758417E+04  0.24846589630E+04 0.  0.
        1    1    3    3  502    0 -0.74449990310E+03  0.60726182995E+03 -0.26681831432E+03  0.99711536379E+03  0.50400001928E-02 0. -1.
       -1    1    3    3    0  502  0.74449990310E+03 -0.60726182995E+03  0.14885341155E+04  0.17716604779E+04  0.50400001928E-02 0.  1.
</event>
<event>
 5   0  0.5164625E-06  0.2495210E+04  0.7818609E-02  0.8404694E-01
        3   -1    0    0  501    0  0.00000000000E+00  0.00000000000E+00  0.16700639536E+04  0.16700639566E+04  0.10100000352E+00 0.  1.
       -3   -1    0    0    0  501  0.00000000000E+00  0.00000000000E+00 -0.93201078751E+03  0.93201079298E+03  0.10100000352E+00 0. -1.
    10030    2    1    2    0    0  0.00000000000E+00  0.00000000000E+00  0.73805316606E+03  0.26020747496E+04  0.24952095156E+04 0.  0.
        3    1    3    3  502    0  0.51149171385E+03 -0.66499707831E+03 -0.59392386209E+03  0.10279058574E+04  0.10100000352E+00 0. -1.
       -3    1    3    3    0  502 -0.51149171385E+03  0.66499707831E+03  0.13319770282E+04  0.15741688922E+04  0.10100000352E+00 0.  1.
</event>
<event>
 5   0  0.1501947E-05  0.2484729E+04  0.7818609E-02  0.8408446E-01
       -2   -1    0    0    0  501  0.00000000000E+00  0.00000000000E+00  0.13463265151E+04  0.13463265151E+04  0.25500000920E-02 0.  1.
        2   -1    0    0  501    0  0.00000000000E+00  0.00000000000E+00 -0.11464305257E+04  0.11464305257E+04  0.25500000920E-02 0. -1.
    10030    2    1    2    0    0  0.00000000000E+00  0.00000000000E+00  0.19989598938E+03  0.24927570407E+04  0.24847292121E+04 0.  0.
        3    1    3    3  502    0  0.11808374023E+04 -0.33814577938E+03  0.28696450480E+03  0.12613755095E+04  0.10100000352E+00 0.  1.
       -3    1    3    3    0  502 -0.11808374023E+04  0.33814577938E+03 -0.87068515416E+02  0.12313815312E+04  0.10100000352E+00 0. -1.
</event>
<event>
 5   0  0.6346420E-06  0.2498898E+04  0.7818609E-02  0.8403378E-01
       -1   -1    0    0    0  501  0.00000000000E+00  0.00000000000E+00  0.11623834654E+04  0.11623834655E+04  0.50400001928E-02 0.  1.
        1   -1    0    0  501    0  0.00000000000E+00  0.00000000000E+00 -0.13430357514E+04  0.13430357514E+04  0.50400001928E-02 0. -1.
    10030    2    1    2    0    0  0.00000000000E+00  0.00000000000E+00 -0.18065228595E+03  0.25054192169E+04  0.24988977978E+04 0.  0.
        4    1    3    3  502    0 -0.43117274955E+03 -0.11431536856E+04  0.17191073474E+03  0.12338011195E+04  0.12699999809E+01 0.  1.
       -4    1    3    3    0  502  0.43117274955E+03  0.11431536856E+04 -0.35256302069E+03  0.12716180973E+04  0.12699999809E+01 0. -1.
</event>
<event>
 5   0  0.1468512E-05  0.2496254E+04  0.7818609E-02  0.8404321E-01
        2   -1    0    0  501    0  0.00000000000E+00  0.00000000000E+00  0.15321629479E+04  0.15321629479E+04  0.25500000920E-02 0. -1.
       -2   -1    0    0    0  501  0.00000000000E+00  0.00000000000E+00 -0.10167465174E+04  0.10167465174E+04  0.25500000920E-02 0.  1.
    10030    2    1    2    0    0  0.00000000000E+00  0.00000000000E+00  0.51541643046E+03  0.25489094653E+04  0.24962542670E+04 0.  0.
        4    1    3    3  502    0 -0.19981957720E+03 -0.44968672228E+03  0.14289314767E+04  0.15112884535E+04  0.12699999809E+01 0. -1.
       -4    1    3    3    0  502  0.19981957720E+03  0.44968672228E+03 -0.91351504625E+03  0.10376210119E+04  0.12699999809E+01 0.  1.
</event>
<event>
 5   0  0.1572732E-05  0.2533119E+04  0.7818609E-02  0.8391281E-01
        2   -1    0    0  501    0  0.00000000000E+00  0.00000000000E+00  0.80507903805E+03  0.80507903805E+03  0.25500000920E-02 0.  1.
       -2   -1    0    0    0  501  0.00000000000E+00  0.00000000000E+00 -0.19925661230E+04  0.19925661230E+04  0.25500000920E-02 0. -1.
    10030    2    1    2    0    0  0.00000000000E+00  0.00000000000E+00 -0.11874870849E+04  0.27976451610E+04  0.25331191978E+04 0.  0.
        1    1    3    3  502    0  0.12959273688E+03  0.10053294857E+04  0.24496062950E+03  0.10428266214E+04  0.50400001928E-02 0.  1.
       -1    1    3    3    0  502 -0.12959273688E+03 -0.10053294857E+04 -0.14324477144E+04  0.17548185396E+04  0.50400001928E-02 0. -1.
</event>
<event>
 5   0  0.6105353E-06  0.2490617E+04  0.7818609E-02  0.8406336E-01
        1   -1    0    0  501    0  0.00000000000E+00  0.00000000000E+00  0.95722701500E+03  0.95722701501E+03  0.50400001928E-02 0. -1.
       -1   -1    0    0    0  501  0.00000000000E+00  0.00000000000E+00 -0.16200888591E+04  0.16200888591E+04  0.50400001928E-02 0.  1.
    10030    2    1    2    0    0  0.00000000000E+00  0.00000000000E+00 -0.66286184413E+03  0.25773158742E+04  0.24906166487E+04 0.  0.
        3    1    3    3  502    0  0.42873504392E+03 -0.75740278580E+03 -0.12531211635E+04  0.15257081564E+04  0.10100000352E+00 0.  1.
       -3    1    3    3    0  502 -0.42873504392E+03  0.75740278580E+03  0.59025931935E+03  0.10516077178E+04  0.10100000352E+00 0. -1.
</event>
<event>
 5   0  0.1501947E-05  0.2511541E+04  0.7818609E-02  0.8398886E-01
       -2   -1    0    0    0  501  0.00000000000E+00  0.00000000000E+00  0.18189241216E+04  0.18189241216E+04  0.25500000920E-02 0.  1.
        2   -1    0    0  501    0  0.00000000000E+00  0.00000000000E+00 -0.86697376981E+03  0.86697376982E+03  0.25500000920E-02 0. -1.
    10030    2    1    2    0    0  0.00000000000E+00  0.00000000000E+00  0.95195035183E+03  0.26858978915E+04  0.25115409634E+04 0.  0.
        3    1    3    3  502    0 -0.12236271669E+04 -0.17771090537E+03  0.71055407826E+03  0.14260896598E+04  0.10100000352E+00 0.  1.
       -3    1    3    3    0  502  0.12236271669E+04  0.17771090537E+03  0.24139627357E+03  0.12598082317E+04  0.10100000352E+00 0. -1.
</event>
<event>
 5   0  0.6346420E-06  0.2455570E+04  0.7818609E-02  0.8418987E-01
       -1   -1    0    0    0  501  0.00000000000E+00  0.00000000000E+00  0.17243995524E+04  0.17243995524E+04  0.50400001928E-02 0. -1.
        1   -1    0    0  501    0  0.00000000000E+00  0.00000000000E+00 -0.87419148940E+03  0.87419148941E+03  0.50400001928E-02 0.  1.
    10030    2    1    2    0    0  0.00000000000E+00  0.00000000000E+00  0.85020806301E+03  0.25985910418E+04  0.24555695169E+04 0.  0.
        4    1    3    3  502    0  0.30108757575E+03 -0.10057105399E+04 -0.24864608601E+03  0.10788576863E+04  0.12699999809E+01 0. -1.
       -4    1    3    3    0  502 -0.30108757575E+03  0.10057105399E+04  0.10988541490E+04  0.15197333555E+04  0.12699999809E+01 0.  1.
</event>
<event>
 5   0  0.1526824E-05  0.2501786E+04  0.7818609E-02  0.8402349E-01
        2   -1    0    0  501    0  0.00000000000E+00  0.00000000000E+00  0.14383292733E+04  0.14383292733E+04  0.25500000920E-02 0. -1.
       -2   -1    0    0    0  501  0.00000000000E+00  0.00000000000E+00 -0.10878828802E+04  0.10878828802E+04  0.25500000920E-02 0.  1.
    10030    2    1    2    0    0  0.00000000000E+00  0.00000000000E+00  0.35044639308E+03  0.25262121535E+04  0.25017863958E+04 0.  0.
        2    1    3    3  502    0 -0.76202400629E+02 -0.65949474922E+03 -0.89531341603E+03  0.11145968971E+04  0.25500000920E-02 0.  1.
       -2    1    3    3    0  502  0.76202400629E+02  0.65949474922E+03  0.12457598091E+04  0.14116152564E+04  0.25500000920E-02 0. -1.
</event>
<event>
 5   0  0.6346420E-06  0.2501563E+04  0.7818609E-02  0.8402429E-01
        1   -1    0    0  501    0  0.00000000000E+00  0.00000000000E+00  0.15170675024E+04  0.15170675024E+04  0.50400001928E-02 0.  1.
       -1   -1    0    0    0  501  0.00000000000E+00  0.00000000000E+00 -0.10312362083E+04  0.10312362083E+04  0.50400001928E-02 0. -1.
    10030    2    1    2    0    0  0.00000000000E+00  0.00000000000E+00  0.48583129409E+03  0.25483037107E+04  0.25015634623E+04 0.  0.
        4    1    3    3  502    0  0.19053681251E+03 -0.11541010614E+04  0.69413625873E+03  0.13601765677E+04  0.12699999809E+01 0.  1.
       -4    1    3    3    0  502 -0.19053681251E+03  0.11541010614E+04 -0.20830496464E+03  0.11881271430E+04  0.12699999809E+01 0. -1.
</event>
<event>
 5   0  0.6346420E-06  0.2517482E+04  0.7818609E-02  0.8396784E-01
        1   -1    0    0  501    0  0.00000000000E+00  0.00000000000E+00  0.57262581764E+03  0.57262581767E+03  0.50400001928E-02 0.  1.
       -1   -1    0    0    0  501  0.00000000000E+00  0.00000000000E+00 -0.27669535922E+04  0.27669535922E+04  0.50400001928E-02 0. -1.
    10030    2    1    2    0    0  0.00000000000E+00  0.00000000000E+00 -0.21943277746E+04  0.33395794099E+04  0.25174821256E+04 0.  0.
        4    1    3    3  502    0 -0.88290085159E+03  0.89641950638E+03 -0.11458252419E+04  0.17017634803E+04  0.12699999809E+01 0. -1.
       -4    1    3    3    0  502  0.88290085159E+03 -0.89641950638E+03 -0.10485025327E+04  0.16378159296E+04  0.12699999809E+01 0.  1.
</event>
<event>
 5   0  0.6104486E-06  0.2493370E+04  0.7818609E-02  0.8405351E-01
       -1   -1    0    0    0  501  0.00000000000E+00  0.00000000000E+00  0.13350651653E+04  0.13350651653E+04  0.50400001928E-02 0.  1.
        1   -1    0    0  501    0  0.00000000000E+00  0.00000000000E+00 -0.11641554478E+04  0.11641554478E+04  0.50400001928E-02 0. -1.
    10030    2    1    2    0    0  0.00000000000E+00  0.00000000000E+00  0.17090971749E+03  0.24992206130E+04  0.24933699166E+04 0.  0.
        2    1    3    3  502    0  0.57425825316E+03  0.85108918811E+03  0.79429034957E+03  0.12980841679E+04  0.25500000920E-02 0.  1.
       -2    1    3    3    0  502 -0.57425825316E+03 -0.85108918811E+03 -0.62338063208E+03  0.12011364452E+04  0.25500000920E-02 0. -1.
</event>
<event>
 5   0  0.1526824E-05  0.2491078E+04  0.7818609E-02  0.8406171E-01
        2   -1    0    0  501    0  0.00000000000E+00  0.00000000000E+00  0.15226372607E+04  0.15226372607E+04  0.25500000920E-02 0. -1.
       -2   -1    0    0    0  501  0.00000000000E+00  0.00000000000E+00 -0.10188683406E+04  0.10188683406E+04  0.25500000920E-02 0.  1.
    10030    2    1    2    0    0  0.00000000000E+00  0.00000000000E+00  0.50376892013E+03  0.25415056012E+04  0.24910775974E+04 0.  0.
        2    1    3    3  502    0  0.43975401826E+03 -0.10659541880E+04  0.73229344253E+03  0.13659778964E+04  0.25500000920E-02 0. -1.
       -2    1    3    3    0  502 -0.43975401826E+03  0.10659541880E+04 -0.22852452240E+03  0.11755277048E+04  0.25500000920E-02 0.  1.
</event>
<event>
 5   0  0.1572732E-05  0.2498705E+04  0.7818609E-02  0.8403447E-01
       -2   -1    0    0    0  501  0.00000000000E+00  0.00000000000E+00  0.10764098645E+04  0.10764098645E+04  0.25500000920E-02 0.  1.
        2   -1    0    0  501    0  0.00000000000E+00  0.00000000000E+00 -0.14500812947E+04  0.14500812947E+04  0.25500000920E-02 0. -1.
    10030    2    1    2    0    0  0.00000000000E+00  0.00000000000E+00 -0.37367143015E+03  0.25264911592E+04  0.24987051127E+04 0.  0.
        1    1    3    3  502    0 -0.30922592296E+03 -0.84340303119E+02 -0.14078016820E+04  0.14438280833E+04  0.50400001928E-02 0. -1.
       -1    1    3    3    0  502  0.30922592296E+03  0.84340303119E+02  0.10341302519E+04  0.10826630760E+04  0.50400001928E-02 0.  1.
</event>
<event>
 5   0  0.5164625E-06  0.2485816E+04  0.7818609E-02  0.8408056E-01
        4   -1    0    0  501    0  0.00000000000E+00  0.00000000000E+00  0.86789983330E+03  0.86790076250E+03  0.12699999809E+01 0. -1.
       -4   -1    0    0    0  501  0.00000000000E+00  0.00000000000E+00 -0.17799507366E+04  0.17799511897E+04  0.12699999809E+01 0.  1.
    10030    2    1    2    0    0  0.00000000000E+00  0.00000000000E+00 -0.91205090335E+03  0.26478519522E+04  0.24858163871E+04 0.  0.
        1    1    3    3  502    0 -0.60666376965E+03 -0.31218290743E+02 -0.16110530273E+04  0.17217744823E+04  0.50400001928E-02 0.  1.
       -1    1    3    3    0  502  0.60666376965E+03  0.31218290743E+02  0.69900212392E+03  0.92607746996E+03  0.50400001928E-02 0. -1.
</event>
<event>
 5   0  0.1572732E-05  0.2512229E+04  0.7818609E-02  0.8398642E-01
       -2   -1    0    0    0  501  0.00000000000E+00  0.00000000000E+00  0.65215924753E+03  0.65215924753E+03  0.25500000920E-02 0.  1.
        2   -1    0    0  501    0  0.00000000000E+00  0.00000000000E+00 -0.24193836882E+04  0.24193836882E+04  0.25500000920E-02 0. -1.
    10030    2    1    2    0    0  0.00000000000E+00  0.00000000000E+00 -0.17672244407E+04  0.30715429358E+04  0.25122288475E+04 0.  0.
        1    1    3    3  502    0  0.36803516791E+03 -0.49195529316E+02  0.58352793949E+03  0.69164654349E+03  0.50400001928E-02 0.  1.
       -1    1    3    3    0  502 -0.36803516791E+03  0.49195529316E+02 -0.23507523802E+04  0.23798963923E+04  0.50400001928E-02 0. -1.
</event>
<event>
 5   0  0.6290861E-06  0.2576792E+04  0.7818609E-02  0.8376127E-01
        1   -1    0    0  501    0  0.00000000000E+00  0.00000000000E+00  0.93239990056E+03  0.93239990057E+03  0.50400001928E-02 0. -1.
       -1   -1    0    0    0  501  0.00000000000E+00  0.00000000000E+00 -0.17803133923E+04  0.17803133923E+04  0.50400001928E-02 0.  1.
    10030    2    1    2    0    0  0.00000000000E+00  0.00000000000E+00 -0.84791349171E+03  0.27127132928E+04  0.25767918270E+04 0.  0.
        1    1    3    3  502    0 -0.10726537277E+04 -0.71412541727E+01 -0.11752732279E+04  0.15911958325E+04  0.50400001928E-02 0.  1.
       -1    1    3    3    0  502  0.10726537277E+04  0.71412541727E+01  0.32735973615E+03  0.11215174604E+04  0.50400001928E-02 0. -1.
</event>
<event>
 5   0  0.1550483E-05  0.2514872E+04  0.7818609E-02  0.8397706E-01
        2   -1    0    0  501    0  0.00000000000E+00  0.00000000000E+00  0.93079566117E+03  0.93079566117E+03  0.25500000920E-02 0. -1.
       -2   -1    0    0    0  501  0.00000000000E+00  0.00000000000E+00 -0.16987025280E+04  0.16987025280E+04  0.25500000920E-02 0.  1.
    10030    2    1    2    0    0  0.00000000000E+00  0.00000000000E+00 -0.76790686687E+03  0.26294981892E+04  0.25148717206E+04 0.  0.
        5    1    3    3  502    0  0.46858939704E+03 -0.54298008866E+02 -0.16026697147E+04  0.16706575356E+04  0.46999998093E+01 0.  1.
       -5    1    3    3    0  502 -0.46858939704E+03  0.54298008866E+02  0.83476284787E+03  0.95884065359E+03  0.46999998093E+01 0. -1.
</event>
<event>
 5   0  0.1468512E-05  0.2500917E+04  0.7818609E-02  0.8402659E-01
       -2   -1    0    0    0  501  0.00000000000E+00  0.00000000000E+00  0.11208009007E+04  0.11208009007E+04  0.25500000920E-02 0.  1.
        2   -1    0    0  501    0  0.00000000000E+00  0.00000000000E+00 -0.13951156363E+04  0.13951156363E+04  0.25500000920E-02 0. -1.
    10030    2    1    2    0    0  0.00000000000E+00  0.00000000000E+00 -0.27431473567E+03  0.25159165370E+04  0.25009173211E+04 0.  0.
        4    1    3    3  502    0  0.79101668194E+03 -0.61727573553E+02 -0.11094567036E+04  0.13639697484E+04  0.12699999809E+01 0. -1.
       -4    1    3    3    0  502 -0.79101668194E+03  0.61727573553E+02  0.83514196788E+03  0.11519467886E+04  0.12699999809E+01 0.  1.
</event>
<event>
 5   0  0.1468512E-05  0.2486928E+04  0.7818609E-02  0.8407657E-01
        2   -1    0    0  501    0  0.00000000000E+00  0.00000000000E+00  0.78506889469E+03  0.78506889469E+03  0.25500000920E-02 0.  1.
       -2   -1    0    0    0  501  0.00000000000E+00  0.00000000000E+00 -0.19695121059E+04  0.19695121059E+04  0.25500000920E-02 0. -1.
    10030    2    1    2    0    0  0.00000000000E+00  0.00000000000E+00 -0.11844432112E+04  0.27545810006E+04  0.24869279781E+04 0.  0.
        4    1    3    3  502    0  0.63034502335E+03 -0.10419227108E+04 -0.87081335147E+03  0.14970822588E+04  0.12699999809E+01 0.  1.
       -4    1    3    3    0  502 -0.63034502335E+03  0.10419227108E+04 -0.31362985970E+03  0.12574987417E+04  0.12699999809E+01 0. -1.
</event>
<event>
 5   0  0.6104486E-06  0.2485236E+04  0.7818609E-02  0.8408264E-01
        1   -1    0    0  501    0  0.00000000000E+00  0.00000000000E+00  0.12168973918E+04  0.12168973918E+04  0.50400001928E-02 0. -1.
       -1   -1    0    0    0  501  0.00000000000E+00  0.00000000000E+00 -0.12688817950E+04  0.12688817950E+04  0.50400001928E-02 0.  1.
    10030    2    1    2    0    0  0.00000000000E+00  0.00000000000E+00 -0.51984403243E+02  0.24857791868E+04  0.24852355598E+04 0.  0.
        2    1    3    3  502    0 -0.86076904882E+03 -0.76801654002E+03 -0.48796571062E+03  0.12525507159E+04  0.25500000920E-02 0.  1.
       -2    1    3    3    0  502  0.86076904882E+03  0.76801654002E+03  0.43598130738E+03  0.12332284709E+04  0.25500000920E-02 0. -1.
</event>
<event>
 5   0  0.6105353E-06  0.2502670E+04  0.7818609E-02  0.8402035E-01
        1   -1    0    0  501    0  0.00000000000E+00  0.00000000000E+00  0.81600895556E+03  0.81600895558E+03  0.50400001928E-02 0.  1.
       -1   -1    0    0    0  501  0.00000000000E+00  0.00000000000E+00 -0.19188998007E+04  0.19188998007E+04  0.50400001928E-02 0. -1.
    10030    2    1    2    0    0  0.00000000000E+00  0.00000000000E+00 -0.11028908451E+04  0.27349087562E+04  0.25026701119E+04 0.  0.
        3    1    3    3  502    0  0.10848525504E+04  0.27987082803E+03  0.57592909209E+02  0.11218510106E+04  0.10100000352E+00 0. -1.
       -3    1    3    3    0  502 -0.10848525504E+04 -0.27987082803E+03 -0.11604837543E+04  0.16130577456E+04  0.10100000352E+00 0.  1.
</event>
<event>
 5   0  0.6477703E-06  0.2481315E+04  0.7818609E-02  0.8409673E-01
       -1   -1    0    0    0  501  0.00000000000E+00  0.00000000000E+00  0.70559596721E+03  0.70559596723E+03  0.50400001928E-02 0.  1.
        1   -1    0    0  501    0  0.00000000000E+00  0.00000000000E+00 -0.21814616178E+04  0.21814616178E+04  0.50400001928E-02 0. -1.
    10030    2    1    2    0    0  0.00000000000E+00  0.00000000000E+00 -0.14758656506E+04  0.28870575850E+04  0.24813145872E+04 0.  0.
        5    1    3    3  502    0 -0.28550746576E+03 -0.12019542261E+04 -0.60527143308E+03  0.13757122055E+04  0.46999998093E+01 0.  1.
       -5    1    3    3    0  502  0.28550746576E+03  0.12019542261E+04 -0.87059421748E+03  0.15113453795E+04  0.46999998093E+01 0. -1.
</event>
<event>
 5   0  0.1468512E-05  0.2506120E+04  0.7818609E-02  0.8400809E-01
        2   -1    0    0  501    0  0.00000000000E+00  0.00000000000E+00  0.16091343635E+04  0.16091343635E+04  0.25500000920E-02 0.  1.
       -2   -1    0    0    0  501  0.00000000000E+00  0.00000000000E+00 -0.97577881760E+03  0.97577881760E+03  0.25500000920E-02 0. -1.
    10030    2    1    2    0    0  0.00000000000E+00  0.00000000000E+00  0.63335554590E+03  0.25849131811E+04  0.25061198907E+04 0.  0.
        4    1    3    3  502    0 -0.47722089349E+03  0.47589372591E+03  0.14062728258E+04  0.15594292203E+04  0.12699999809E+01 0.  1.
       -4    1    3    3    0  502  0.47722089349E+03 -0.47589372591E+03 -0.77291727988E+03  0.10254839609E+04  0.12699999809E+01 0. -1.
</event>
<event>
 5   0  0.1550483E-05  0.2577788E+04  0.7818609E-02  0.8375785E-01
       -2   -1    0    0    0  501  0.00000000000E+00  0.00000000000E+00  0.93593078426E+03  0.93593078426E+03  0.25500000920E-02 0.  1.
        2   -1    0    0  501    0  0.00000000000E+00  0.00000000000E+00 -0.17749691628E+04  0.17749691628E+04  0.25500000920E-02 0. -1.
    10030    2    1    2    0    0  0.00000000000E+00  0.00000000000E+00 -0.83903837852E+03  0.27108999470E+04  0.25777884169E+04 0.  0.
        5    1    3    3  502    0 -0.54079931746E+03  0.25635669493E+03 -0.16199736339E+04  0.17269971978E+04  0.46999998093E+01 0. -1.
       -5    1    3    3    0  502  0.54079931746E+03 -0.25635669493E+03  0.78093525538E+03  0.98390274920E+03  0.46999998093E+01 0.  1.
</event>
<event>
 5   0  0.1572732E-05  0.2485393E+04  0.7818609E-02  0.8408208E-01
        2   -1    0    0  501    0  0.00000000000E+00  0.00000000000E+00  0.19847341799E+04  0.19847341799E+04  0.25500000920E-02 0. -1.
       -2   -1    0    0    0  501  0.00000000000E+00  0.00000000000E+00 -0.77808655127E+03  0.77808655128E+03  0.25500000920E-02 0.  1.
    10030    2    1    2    0    0  0.00000000000E+00  0.00000000000E+00  0.12066476286E+04  0.27628207311E+04  0.24853933075E+04 0.  0.
        1    1    3    3  502    0  0.10425291521E+04 -0.40060716705E+03 -0.24259833702E+01  0.11168522824E+04  0.50400001928E-02 0.  1.
       -1    1    3    3    0  502 -0.10425291521E+04  0.40060716705E+03  0.12090736120E+04  0.16459684488E+04  0.50400001928E-02 0. -1.
</event>
<event>
 5   0  0.1572732E-05  0.2416679E+04  0.7818609E-02  0.8433286E-01
        2   -1    0    0  501    0  0.00000000000E+00  0.00000000000E+00  0.16079259964E+04  0.16079259964E+04  0.25500000920E-02 0.  1.
       -2   -1    0    0    0  501  0.00000000000E+00  0.00000000000E+00 -0.90805425139E+03  0.90805425140E+03  0.25500000920E-02 0. -1.
    10030    2    1    2    0    0  0.00000000000E+00  0.00000000000E+00  0.69987174501E+03  0.25159802478E+04  0.24166787432E+04 0.  0.
        1    1    3    3  502    0  0.40634366447E+03 -0.11165217690E+04  0.12101912155E+03  0.11943122130E+04  0.50400001928E-02 0. -1.
       -1    1    3    3    0  502 -0.40634366447E+03  0.11165217690E+04  0.57885262345E+03  0.13216680348E+04  0.50400001928E-02 0.  1.
</event>
<event>
 5   0  0.5164625E-06  0.2499535E+04  0.7818609E-02  0.8403151E-01
       -3   -1    0    0    0  501  0.00000000000E+00  0.00000000000E+00  0.17092920470E+04  0.17092920500E+04  0.10100000352E+00 0.  1.
        3   -1    0    0  501    0  0.00000000000E+00  0.00000000000E+00 -0.91378096467E+03  0.91378097025E+03  0.10100000352E+00 0. -1.
    10030    2    1    2    0    0  0.00000000000E+00  0.00000000000E+00  0.79551108233E+03  0.26230730202E+04  0.24995347942E+04 0.  0.
        2    1    3    3  502    0  0.11257697354E+04  0.48231083180E+03  0.13658308812E+03  0.12323295726E+04  0.25500000920E-02 0. -1.
       -2    1    3    3    0  502 -0.11257697354E+04 -0.48231083180E+03  0.65892799421E+03  0.13907434476E+04  0.25500000920E-02 0.  1.
</event>
<event>
 5   0  0.5164625E-06  0.2537874E+04  0.7818609E-02  0.8389616E-01
        3   -1    0    0  501    0  0.00000000000E+00  0.00000000000E+00  0.11409895527E+04  0.11409895572E+04  0.10100000352E+00 0.  1.
       -3   -1    0    0    0  501  0.00000000000E+00  0.00000000000E+00 -0.14112323090E+04  0.14112323126E+04  0.10100000352E+00 0. -1.
    10030    2    1    2    0    0  0.00000000000E+00  0.00000000000E+00 -0.27024275626E+03  0.25522218697E+04  0.25378741744E+04 0.  0.
        4    1    3    3  502    0  0.87963550815E+03 -0.89488861501E+03 -0.32490887834E+03  0.12962066396E+04  0.12699999809E+01 0.  1.
       -4    1    3    3    0  502 -0.87963550815E+03  0.89488861501E+03  0.54666122082E+02  0.12560152301E+04  0.12699999809E+01 0. -1.
</event>
<event>
 5   0  0.1468512E-05  0.2550130E+04  0.7818609E-02  0.8385341E-01
        2   -1    0    0  501    0  0.00000000000E+00  0.00000000000E+00  0.21943139699E+04  0.21943139699E+04  0.25500000920E-02 0. -1.
       -2   -1    0    0    0  501  0.00000000000E+00  0.00000000000E+00 -0.74091043751E+03  0.74091043751E+03  0.25500000920E-02 0.  1.
    10030    2    1    2    0    0  0.00000000000E+00  0.00000000000E+00  0.14534035323E+04  0.29352244074E+04  0.25501295053E+04 0.  0.
        4    1    3    3  502    0  0.81051001299E+03 -0.67793795511E+03  0.15480924582E+04  0.18743314072E+04  0.12699999809E+01 0. -1.
       -4    1    3    3    0  502 -0.81051001299E+03  0.67793795511E+03 -0.94688925850E+02  0.10608930001E+04  0.12699999809E+01 0.  1.
</event>
<event>
 5   0  0.6346420E-06  0.2520027E+04  0.7818609E-02  0.8395885E-01
       -1   -1    0    0    0  501  0.00000000000E+00  0.00000000000E+00  0.10826336308E+04  0.10826336308E+04  0.50400001928E-02 0. -1.
        1   -1    0    0  501    0  0.00000000000E+00  0.00000000000E+00 -0.14664559402E+04  0.14664559403E+04  0.50400001928E-02 0.  1.
    10030    2    1    2    0    0  0.00000000000E+00  0.00000000000E+00 -0.38382230950E+03  0.25490895710E+04  0.25200273958E+04 0.  0.
        4    1    3    3  502    0  0.36550072594E+03 -0.72623114686E+03 -0.11656289723E+04  0.14211597283E+04  0.12699999809E+01 0.  1.
       -4    1    3    3    0  502 -0.36550072594E+03  0.72623114686E+03  0.78180666277E+03  0.11279298428E+04  0.12699999809E+01 0. -1.
</event>
<event>
 5   0  0.1468512E-05  0.2518367E+04  0.7818609E-02  0.8396471E-01
       -2   -1    0    0    0  501  0.00000000000E+00  0.00000000000E+00  0.14769523507E+04  0.14769523507E+04  0.25500000920E-02 0.  1.
        2   -1    0    0  501    0  0.00000000000E+00  0.00000000000E+00 -0.10735232243E+04  0.10735232243E+04  0.25500000920E-02 0. -1.
    10030    2    1    2    0    0  0.00000000000E+00  0.00000000000E+00  0.40342912648E+03  0.25504755750E+04  0.25183666529E+04 0.  0.
        4    1    3    3  502    0  0.43007610199E+03  0.48022757257E+02 -0.99584641208E+03  0.10858099871E+04  0.12699999809E+01 0. -1.
       -4    1    3    3    0  502 -0.43007610199E+03 -0.48022757257E+02  0.13992755386E+04  0.14646655879E+04  0.12699999809E+01 0.  1.
</event>
<event>
 5   0  0.6105353E-06  0.2484285E+04  0.7818609E-02  0.8408605E-01
       -1   -1    0    0    0  501  0.00000000000E+00  0.00000000000E+00  0.92713606733E+03  0.92713606735E+03  0.50400001928E-02 0.  1.
        1   -1    0    0  501    0  0.00000000000E+00  0.00000000000E+00 -0.16641765914E+04  0.16641765914E+04  0.50400001928E-02 0. -1.
    10030    2    1    2    0    0  0.00000000000E+00  0.00000000000E+00 -0.73704052406E+03  0.25913126588E+04  0.24842851208E+04 0.  0.
        3    1    3    3  502    0  0.24568180765E+03  0.12147734189E+04 -0.28197513776E+03  0.12710405180E+04  0.10100000352E+00 0.  1.
       -3    1    3    3    0  502 -0.24568180765E+03 -0.12147734189E+04 -0.45506538630E+03  0.13202721408E+04  0.10100000352E+00 0. -1.
</event>
<event>
 5   0  0.6346420E-06  0.2498283E+04  0.7818609E-02  0.8403597E-01
       -1   -1    0    0    0  501  0.00000000000E+00  0.00000000000E+00  0.83489655304E+03  0.83489655306E+03  0.50400001928E-02 0.  1.
        1   -1    0    0  501    0  0.00000000000E+00  0.00000000000E+00 -0.18689195908E+04  0.18689195908E+04  0.50400001928E-02 0. -1.
    10030    2    1    2    0    0  0.00000000000E+00  0.00000000000E+00 -0.10340230377E+04  0.27038161438E+04  0.24982830298E+04 0.  0.
        4    1    3    3  502    0  0.48669548668E+03  0.91057721197E+03 -0.12779399435E+04  0.16429106695E+04  0.12699999809E+01 0. -1.
       -4    1    3    3    0  502 -0.48669548668E+03 -0.91057721197E+03  0.24391690579E+03  0.10609054744E+04  0.12699999809E+01 0.  1.
</event>
<event>
 5   0  0.6104486E-06  0.2485243E+04  0.7818609E-02  0.8408262E-01
       -1   -1    0    0    0  501  0.00000000000E+00  0.00000000000E+00  0.80381024005E+03  0.80381024006E+03  0.50400001928E-02 0.  1.
        1   -1    0    0  501    0  0.00000000000E+00  0.00000000000E+00 -0.19209860636E+04  0.19209860636E+04  0.50400001928E-02 0. -1.
    10030    2    1    2    0    0  0.00000000000E+00  0.00000000000E+00 -0.11171758235E+04  0.27247963036E+04  0.24852430617E+04 0.  0.
        2    1    3    3  502    0 -0.26988219351E+03  0.12115186437E+04 -0.62339975521E+03  0.13889712298E+04  0.25500000920E-02 0.  1.
       -2    1    3    3    0  502  0.26988219351E+03 -0.12115186437E+04 -0.49377606832E+03  0.13358250739E+04  0.25500000920E-02 0. -1.
</event>
<event>
 5   0  0.1572732E-05  0.2511163E+04  0.7818609E-02  0.8399019E-01
       -2   -1    0    0    0  501  0.00000000000E+00  0.00000000000E+00  0.86200060429E+03  0.86200060429E+03  0.25500000920E-02 0. -1.
        2   -1    0    0  501    0  0.00000000000E+00  0.00000000000E+00 -0.18288677824E+04  0.18288677824E+04  0.25500000920E-02 0.  1.
    10030    2    1    2    0    0  0.00000000000E+00  0.00000000000E+00 -0.96686717811E+03  0.26908683867E+04  0.25111631835E+04 0.  0.
        1    1    3    3  502    0  0.76015052156E+03  0.78714853250E+03 -0.11431659385E+04  0.15824853840E+04  0.50400001928E-02 0.  1.
       -1    1    3    3    0  502 -0.76015052156E+03 -0.78714853250E+03  0.17629876042E+03  0.11083830027E+04  0.50400001928E-02 0. -1.
</event>
<event>
 5   0  0.6105353E-06  0.2498575E+04  0.7818609E-02  0.8403493E-01
       -1   -1    0    0    0  501  0.00000000000E+00  0.00000000000E+00  0.15251975758E+04  0.15251975758E+04  0.50400001928E-02 0.  1.
        1   -1    0    0  501    0  0.00000000000E+00  0.00000000000E+00 -0.10232901683E+04  0.10232901683E+04  0.50400001928E-02 0. -1.
    10030    2    1    2    0    0  0.00000000000E+00  0.00000000000E+00  0.50190740744E+03  0.25484877441E+04  0.24985753413E+04 0.  0.
        3    1    3    3  502    0  0.24227234385E+03  0.37800599686E+03 -0.93815467216E+03  0.10400570279E+04  0.10100000352E+00 0. -1.
       -3    1    3    3    0  502 -0.24227234385E+03 -0.37800599686E+03  0.14400620796E+04  0.15084307162E+04  0.10100000352E+00 0.  1.
</event>
<event>
 5   0  0.1572732E-05  0.2495571E+04  0.7818609E-02  0.8404565E-01
       -2   -1    0    0    0  501  0.00000000000E+00  0.00000000000E+00  0.14338996610E+04  0.14338996610E+04  0.25500000920E-02 0.  1.
        2   -1    0    0  501    0  0.00000000000E+00  0.00000000000E+00 -0.10858283904E+04  0.10858283904E+04  0.25500000920E-02 0. -1.
    10030    2    1    2    0    0  0.00000000000E+00  0.00000000000E+00  0.34807127056E+03  0.25197280514E+04  0.24955712460E+04 0.  0.
        1    1    3    3  502    0  0.87258754329E+03  0.20552679899E+03 -0.70230523152E+03  0.11388076765E+04  0.50400001928E-02 0. -1.
       -1    1    3    3    0  502 -0.87258754329E+03 -0.20552679899E+03  0.10503765021E+04  0.13809203749E+04  0.50400001928E-02 0.  1.
</event>
<event>
 5   0  0.1526824E-05  0.2497283E+04  0.7818609E-02  0.8403954E-01
       -2   -1    0    0    0  501  0.00000000000E+00  0.00000000000E+00  0.11956368721E+04  0.11956368721E+04  0.25500000920E-02 0.  1.
        2   -1    0    0  501    0  0.00000000000E+00  0.00000000000E+00 -0.13039962587E+04  0.13039962587E+04  0.25500000920E-02 0. -1.
    10030    2    1    2    0    0  0.00000000000E+00  0.00000000000E+00 -0.10835938659E+03  0.24996331307E+04  0.24972833303E+04 0.  0.
        2    1    3    3  502    0  0.61050742310E+03 -0.29961776606E+03  0.99399995008E+03  0.12043778561E+04  0.25500000920E-02 0.  1.
       -2    1    3    3    0  502 -0.61050742310E+03  0.29961776606E+03 -0.11023593367E+04  0.12952552747E+04  0.25500000920E-02 0. -1.
</event>
<event>
 5   0  0.1468512E-05  0.2509930E+04  0.7818609E-02  0.8399456E-01
        2   -1    0    0  501    0  0.00000000000E+00  0.00000000000E+00  0.11826477537E+04  0.11826477537E+04  0.25500000920E-02 0.  1.
       -2   -1    0    0    0  501  0.00000000000E+00  0.00000000000E+00 -0.13317043784E+04  0.13317043784E+04  0.25500000920E-02 0. -1.
    10030    2    1    2    0    0  0.00000000000E+00  0.00000000000E+00 -0.14905662473E+03  0.25143521321E+04  0.25099300322E+04 0.  0.
        4    1    3    3  502    0 -0.53724405859E+03 -0.11213644195E+04 -0.24466935278E+03  0.12672624214E+04  0.12699999809E+01 0. -1.
       -4    1    3    3    0  502  0.53724405859E+03  0.11213644195E+04  0.95612728050E+02  0.12470897106E+04  0.12699999809E+01 0.  1.
</event>
<event>
 5   0  0.6346420E-06  0.2511805E+04  0.7818609E-02  0.8398792E-01
       -1   -1    0    0    0  501  0.00000000000E+00  0.00000000000E+00  0.11547253401E+04  0.11547253401E+04  0.50400001928E-02 0.  1.
        1   -1    0    0  501    0  0.00000000000E+00  0.00000000000E+00 -0.13659446531E+04  0.13659446531E+04  0.50400001928E-02 0. -1.
    10030    2    1    2    0    0  0.00000000000E+00  0.00000000000E+00 -0.21121931304E+03  0.25206699932E+04  0.25118048524E+04 0.  0.
        4    1    3    3  502    0 -0.61408038540E+03  0.12893196715E+03 -0.11973699015E+04  0.13518189471E+04  0.12699999809E+01 0. -1.
       -4    1    3    3    0  502  0.61408038540E+03 -0.12893196715E+03  0.98615058848E+03  0.11688510461E+04  0.12699999809E+01 0.  1.
</event>
<event>
 5   0  0.6290861E-06  0.2502032E+04  0.7818609E-02  0.8402262E-01
       -1   -1    0    0    0  501  0.00000000000E+00  0.00000000000E+00  0.68082325133E+03  0.68082325135E+03  0.50400001928E-02 0. -1.
        1   -1    0    0  501    0  0.00000000000E+00  0.00000000000E+00 -0.22987477917E+04  0.22987477917E+04  0.50400001928E-02 0.  1.
    10030    2    1    2    0    0  0.00000000000E+00  0.00000000000E+00 -0.16179245403E+04  0.29795710430E+04  0.25020319307E+04 0.  0.
        1    1    3    3  502    0  0.76699852766E+03 -0.23446658452E+03 -0.19522997733E+04  0.21106244871E+04  0.50400001928E-02 0.  1.
       -1    1    3    3    0  502 -0.76699852766E+03  0.23446658452E+03  0.33437523292E+03  0.86894655596E+03  0.50400001928E-02 0. -1.
</event>
<event>
 5   0  0.1468512E-05  0.2486443E+04  0.7818609E-02  0.8407831E-01
       -2   -1    0    0    0  501  0.00000000000E+00  0.00000000000E+00  0.80744671974E+03  0.80744671975E+03  0.25500000920E-02 0.  1.
        2   -1    0    0  501    0  0.00000000000E+00  0.00000000000E+00 -0.19141817729E+04  0.19141817729E+04  0.25500000920E-02 0. -1.
    10030    2    1    2    0    0  0.00000000000E+00  0.00000000000E+00 -0.11067350531E+04  0.27216284926E+04  0.24864430768E+04 0.  0.
        4    1    3    3  502    0 -0.62655830981E+03  0.69855903289E+03  0.33926683126E+03  0.99782946124E+03  0.12699999809E+01 0.  1.
       -4    1    3    3    0  502  0.62655830981E+03 -0.69855903289E+03 -0.14460018844E+04  0.17237990314E+04  0.12699999809E+01 0. -1.
</event>
<event>
 5   0  0.1550483E-05  0.2506415E+04  0.7818609E-02  0.8400704E-01
       -2   -1    0    0    0  501  0.00000000000E+00  0.00000000000E+00  0.13448103317E+04  0.13448103317E+04  0.25500000920E-02 0. -1.
        2   -1    0    0  501    0  0.00000000000E+00  0.00000000000E+00 -0.11678440528E+04  0.11678440528E+04  0.25500000920E-02 0.  1.
    10030    2    1    2    0    0  0.00000000000E+00  0.00000000000E+00  0.17696627896E+03  0.25126543845E+04  0.25064147686E+04 0.  0.
        5    1    3    3  502    0  0.48938062252E+03 -0.63735554520E+03 -0.87557150806E+03  0.11884288117E+04  0.46999998093E+01 0.  1.
       -5    1    3    3    0  502 -0.48938062252E+03  0.63735554520E+03  0.10525377870E+04  0.13242255728E+04  0.46999998093E+01 0. -1.
</event>
<event>
 5   0  0.6104486E-06  0.2500394E+04  0.7818609E-02  0.8402845E-01
       -1   -1    0    0    0  501  0.00000000000E+00  0.00000000000E+00  0.12535783337E+04  0.12535783337E+04  0.50400001928E-02 0.  1.
        1   -1    0    0  501    0  0.00000000000E+00  0.00000000000E+00 -0.12468251774E+04  0.12468251774E+04  0.50400001928E-02 0. -1.
    10030    2    1    2    0    0  0.00000000000E+00  0.00000000000E+00  0.67531563095E+01  0.25004035112E+04  0.25003943916E+04 0.  0.
        2    1    3    3  502    0  0.11080512900E+04  0.27122111977E+03  0.51490016495E+03  0.12515832921E+04  0.25500000920E-02 0.  1.
       -2    1    3    3    0  502 -0.11080512900E+04 -0.27122111977E+03 -0.50814700864E+03  0.12488202191E+04  0.25500000920E-02 0. -1.
</event>
<event>
 5   0  0.6105353E-06  0.2502801E+04  0.7818609E-02  0.8401988E-01
       -1   -1    0    0    0  501  0.00000000000E+00  0.00000000000E+00  0.12520976641E+04  0.12520976641E+04  0.50400001928E-02 0.  1.
        1   -1    0    0  501    0  0.00000000000E+00  0.00000000000E+00 -0.12507036785E+04  0.12507036785E+04  0.50400001928E-02 0. -1.
    10030    2    1    2    0    0  0.00000000000E+00  0.00000000000E+00  0.13939856013E+01  0.25028013427E+04  0.25028009545E+04 0.  0.
        3    1    3    3  502    0  0.15625570498E+03 -0.10122334901E+04  0.71970382226E+03  0.12518011367E+04  0.10100000352E+00 0.  1.
       -3    1    3    3    0  502 -0.15625570498E+03  0.10122334901E+04 -0.71830983666E+03  0.12510002060E+04  0.10100000352E+00 0. -1.
</event>
<event>
 5   0  0.1526824E-05  0.2493949E+04  0.7818609E-02  0.8405144E-01
       -2   -1    0    0    0  501  0.00000000000E+00  0.00000000000E+00  0.80199481053E+03  0.80199481053E+03  0.25500000920E-02 0. -1.
        2   -1    0    0  501    0  0.00000000000E+00  0.00000000000E+00 -0.19388470415E+04  0.19388470415E+04  0.25500000920E-02 0.  1.
    10030    2    1    2    0    0  0.00000000000E+00  0.00000000000E+00 -0.11368522309E+04  0.27408418520E+04  0.24939488893E+04 0.  0.
        2    1    3    3  502    0  0.10099359628E+04 -0.20967400851E+03  0.20166520387E+03  0.10510008056E+04  0.25500000920E-02 0. -1.
       -2    1    3    3    0  502 -0.10099359628E+04  0.20967400851E+03 -0.13385174348E+04  0.16898410464E+04  0.25500000920E-02 0.  1.
</event>
<event>
 5   0  0.1468512E-05  0.2541428E+04  0.7818609E-02  0.8388374E-01
       -2   -1    0    0    0  501  0.00000000000E+00  0.00000000000E+00  0.89201138974E+03  0.89201138974E+03  0.25500000920E-02 0. -1.
        2   -1    0    0  501    0  0.00000000000E+00  0.00000000000E+00 -0.18101941100E+04  0.18101941100E+04  0.25500000920E-02 0.  1.
    10030    2    1    2    0    0  0.00000000000E+00  0.00000000000E+00 -0.91818272025E+03  0.27022054997E+04  0.25414277592E+04 0.  0.
        4    1    3    3  502    0 -0.74484855671E+03  0.10282414960E+04 -0.51364206865E+03  0.13696385414E+04  0.12699999809E+01 0. -1.
       -4    1    3    3    0  502  0.74484855671E+03 -0.10282414960E+04 -0.40454065160E+03  0.13325669583E+04  0.12699999809E+01 0.  1.
</event>
<event>
 5   0  0.6290861E-06  0.2498494E+04  0.7818609E-02  0.8403522E-01
       -1   -1    0    0    0  501  0.00000000000E+00  0.00000000000E+00  0.12010694347E+04  0.12010694347E+04  0.50400001928E-02 0.  1.
        1   -1    0    0  501    0  0.00000000000E+00  0.00000000000E+00 -0.12993570825E+04  0.12993570825E+04  0.50400001928E-02 0. -1.
    10030    2    1    2    0    0  0.00000000000E+00  0.00000000000E+00 -0.98287647797E+02  0.25004265172E+04  0.24984940077E+04 0.  0.
        1    1    3    3  502    0  0.41310881633E+03 -0.11784605328E+04 -0.14621416735E+02  0.12488562397E+04  0.50400001928E-02 0. -1.
       -1    1    3    3    0  502 -0.41310881633E+03  0.11784605328E+04 -0.83666231062E+02  0.12515702776E+04  0.50400001928E-02 0.  1.
</event>
<event>
 5   0  0.6290861E-06  0.2501454E+04  0.7818609E-02  0.8402468E-01
       -1   -1    0    0    0  501  0.00000000000E+00  0.00000000000E+00  0.72967325320E+03  0.72967325322E+03  0.50400001928E-02 0. -1.
        1   -1    0    0  501    0  0.00000000000E+00  0.00000000000E+00 -0.21438612730E+04  0.21438612730E+04  0.50400001928E-02 0.  1.
    10030    2    1    2    0    0  0.00000000000E+00  0.00000000000E+00 -0.14141880198E+04  0.28735345263E+04  0.25014541607E+04 0.  0.
        1    1    3    3  502    0  0.67797120793E+03  0.79700441079E+03  0.79991453218E+02  0.10494091777E+04  0.50400001928E-02 0. -1.
       -1    1    3    3    0  502 -0.67797120793E+03 -0.79700441079E+03 -0.14941794730E+04  0.18241253486E+04  0.50400001928E-02 0.  1.
</event>
<event>
 5   0  0.1501947E-05  0.2507260E+04  0.7818609E-02  0.8400404E-01
        2   -1    0    0  501    0  0.00000000000E+00  0.00000000000E+00  0.10162773431E+04  0.10162773431E+04  0.25500000920E-02 0. -1.
       -2   -1    0    0    0  501  0.00000000000E+00  0.00000000000E+00 -0.15464168525E+04  0.15464168526E+04  0.25500000920E-02 0.  1.
    10030    2    1    2    0    0  0.00000000000E+00  0.00000000000E+00 -0.53013950941E+03  0.25626941957E+04  0.25072601862E+04 0.  0.
        3    1    3    3  502    0 -0.16920542954E+03 -0.11464487139E+04  0.22363672567E+03  0.11802493492E+04  0.10100000352E+00 0. -1.
       -3    1    3    3    0  502  0.16920542954E+03  0.11464487139E+04 -0.75377623509E+03  0.13824448465E+04  0.10100000352E+00 0.  1.
</event>
<event>
 5   0  0.6346420E-06  0.2649992E+04  0.7818609E-02  0.8351416E-01
        1   -1    0    0  501    0  0.00000000000E+00  0.00000000000E+00  0.23187399124E+04  0.23187399124E+04  0.50400001928E-02 0. -1.
       -1   -1    0    0    0  501  0.00000000000E+00  0.00000000000E+00 -0.75714157062E+03  0.75714157064E+03  0.50400001928E-02 0.  1.
    10030    2    1    2    0    0  0.00000000000E+00  0.00000000000E+00  0.15615983418E+04  0.30758814831E+04  0.26499919843E+04 0.  0.
        4    1    3    3  502    0  0.10164804874E+04  0.28240856203E+03 -0.14967440615E+03  0.10655473795E+04  0.12699999809E+01 0.  1.
       -4    1    3    3    0  502 -0.10164804874E+04 -0.28240856203E+03  0.17112727480E+04  0.20103341036E+04  0.12699999809E+01 0. -1.
</event>
<event>
 5   0  0.6105353E-06  0.2509646E+04  0.7818609E-02  0.8399557E-01
        1   -1    0    0  501    0  0.00000000000E+00  0.00000000000E+00  0.29818726340E+04  0.29818726340E+04  0.50400001928E-02 0.  1.
       -1   -1    0    0    0  501  0.00000000000E+00  0.00000000000E+00 -0.52805097493E+03  0.52805097495E+03  0.50400001928E-02 0. -1.
    10030    2    1    2    0    0  0.00000000000E+00  0.00000000000E+00  0.24538216591E+04  0.35099236090E+04  0.25096459922E+04 0.  0.
        3    1    3    3  502    0 -0.13710312118E+03  0.78974663536E+03 -0.12333443470E+03  0.81099223602E+03  0.10100000352E+00 0. -1.
       -3    1    3    3    0  502  0.13710312118E+03 -0.78974663536E+03  0.25771560938E+04  0.26989313729E+04  0.10100000352E+00 0.  1.
</event>
<event>
 5   0  0.6290861E-06  0.2481295E+04  0.7818609E-02  0.8409680E-01
        1   -1    0    0  501    0  0.00000000000E+00  0.00000000000E+00  0.21972572388E+04  0.21972572388E+04  0.50400001928E-02 0.  1.
       -1   -1    0    0    0  501  0.00000000000E+00  0.00000000000E+00 -0.70051228667E+03  0.70051228669E+03  0.50400001928E-02 0. -1.
    10030    2    1    2    0    0  0.00000000000E+00  0.00000000000E+00  0.14967449521E+04  0.28977695255E+04  0.24812945757E+04 0.  0.
        1    1    3    3  502    0 -0.12072060090E+04  0.10574466006E+03  0.10588469015E+04  0.16092498383E+04  0.50400001928E-02 0. -1.
       -1    1    3    3    0  502  0.12072060090E+04 -0.10574466006E+03  0.43789805067E+03  0.12885196872E+04  0.50400001928E-02 0.  1.
</event>
<event>
 5   0  0.6105353E-06  0.2487551E+04  0.7818609E-02  0.8407434E-01
        1   -1    0    0  501    0  0.00000000000E+00  0.00000000000E+00  0.13695396237E+04  0.13695396237E+04  0.50400001928E-02 0. -1.
       -1   -1    0    0    0  501  0.00000000000E+00  0.00000000000E+00 -0.11295605748E+04  0.11295605748E+04  0.50400001928E-02 0.  1.
    10030    2    1    2    0    0  0.00000000000E+00  0.00000000000E+00  0.23997904888E+03  0.24991001985E+04  0.24875513780E+04 0.  0.
        3    1    3    3  502    0 -0.53685885388E+03 -0.23497362816E+03  0.12221461171E+04  0.13553859881E+04  0.10100000352E+00 0. -1.
       -3    1    3    3    0  502  0.53685885388E+03  0.23497362816E+03 -0.98216706824E+03  0.11437142104E+04  0.10100000352E+00 0.  1.
</event>
<event>
 5   0  0.1550483E-05  0.2472472E+04  0.7818609E-02  0.8412859E-01
        2   -1    0    0  501    0  0.00000000000E+00  0.00000000000E+00  0.12239092065E+04  0.12239092065E+04  0.25500000920E-02 0.  1.
       -2   -1    0    0    0  501  0.00000000000E+00  0.00000000000E+00 -0.12486871308E+04  0.12486871308E+04  0.25500000920E-02 0. -1.
    10030    2    1    2    0    0  0.00000000000E+00  0.00000000000E+00 -0.24777924337E+02  0.24725963373E+04  0.24724721843E+04 0.  0.
        5    1    3    3  502    0 -0.55661173529E+03  0.44039246402E+03 -0.10246134087E+04  0.12464416848E+04  0.46999998093E+01 0. -1.
       -5    1    3    3    0  502  0.55661173529E+03 -0.44039246402E+03  0.99983548437E+03  0.12261546526E+04  0.46999998093E+01 0.  1.
</event>
<event>
 5   0  0.6346420E-06  0.2477274E+04  0.7818609E-02  0.8411127E-01
       -1   -1    0    0    0  501  0.00000000000E+00  0.00000000000E+00  0.79765617268E+03  0.79765617269E+03  0.50400001928E-02 0. -1.
        1   -1    0    0  501    0  0.00000000000E+00  0.00000000000E+00 -0.19234114982E+04  0.19234114982E+04  0.50400001928E-02 0.  1.
    10030    2    1    2    0    0  0.00000000000E+00  0.00000000000E+00 -0.11257553255E+04  0.27210676709E+04  0.24772735450E+04 0.  0.
        4    1    3    3  502    0  0.90166256546E+03 -0.28983675094E+03 -0.14396960320E+04  0.17232895872E+04  0.12699999809E+01 0.  1.
       -4    1    3    3    0  502 -0.90166256546E+03  0.28983675094E+03  0.31394070645E+03  0.99777808365E+03  0.12699999809E+01 0. -1.
</event>
<event>
 5   0  0.6290861E-06  0.2499634E+04  0.7818609E-02  0.8403116E-01
        1   -1    0    0  501    0  0.00000000000E+00  0.00000000000E+00  0.25875311968E+04  0.25875311968E+04  0.50400001928E-02 0. -1.
       -1   -1    0    0    0  501  0.00000000000E+00  0.00000000000E+00 -0.60368048481E+03  0.60368048483E+03  0.50400001928E-02 0.  1.
    10030    2    1    2    0    0  0.00000000000E+00  0.00000000000E+00  0.19838507120E+04  0.31912116817E+04  0.24996336431E+04 0.  0.
        1    1    3    3  502    0 -0.12145665235E+04  0.27577549653E+03  0.11247122488E+04  0.16781542263E+04  0.50400001928E-02 0. -1.
       -1    1    3    3    0  502  0.12145665235E+04 -0.27577549653E+03  0.85913846317E+03  0.15130574554E+04  0.50400001928E-02 0.  1.
</event>
<event>
 5   0  0.6105353E-06  0.2484589E+04  0.7818609E-02  0.8408497E-01
       -1   -1    0    0    0  501  0.00000000000E+00  0.00000000000E+00  0.12410284200E+04  0.12410284200E+04  0.50400001928E-02 0. -1.
        1   -1    0    0  501    0  0.00000000000E+00  0.00000000000E+00 -0.12435614381E+04  0.12435614382E+04  0.50400001928E-02 0.  1.
    10030    2    1    2    0    0  0.00000000000E+00  0.00000000000E+00 -0.25330181070E+01  0.24845898582E+04  0.24845885670E+04 0.  0.
        3    1    3    3  502    0  0.63158142095E+03  0.37152752710E+03  0.10019126015E+04  0.12412721966E+04  0.10100000352E+00 0. -1.
       -3    1    3    3    0  502 -0.63158142095E+03 -0.37152752710E+03 -0.10044456196E+04  0.12433176616E+04  0.10100000352E+00 0.  1.
</event>
<event>
 5   0  0.1550483E-05  0.2467592E+04  0.7818609E-02  0.8414623E-01
       -2   -1    0    0    0  501  0.00000000000E+00  0.00000000000E+00  0.64474797427E+03  0.64474797428E+03  0.25500000920E-02 0.  1.
        2   -1    0    0  501    0  0.00000000000E+00  0.00000000000E+00 -0.23610036558E+04  0.23610036558E+04  0.25500000920E-02 0. -1.
    10030    2    1    2    0    0  0.00000000000E+00  0.00000000000E+00 -0.17162556815E+04  0.30057516301E+04  0.24675918012E+04 0.  0.
        5    1    3    3  502    0 -0.36771504199E+03 -0.73595755428E+03 -0.19780977736E+04  0.21423680276E+04  0.46999998093E+01 0. -1.
       -5    1    3    3    0  502  0.36771504199E+03  0.73595755428E+03  0.26184209209E+03  0.86338360246E+03  0.46999998093E+01 0.  1.
</event>
<event>
 5   0  0.1468512E-05  0.2489305E+04  0.7818609E-02  0.8406805E-01
       -2   -1    0    0    0  501  0.00000000000E+00  0.00000000000E+00  0.11221234956E+04  0.11221234956E+04  0.25500000920E-02 0. -1.
        2   -1    0    0  501    0  0.00000000000E+00  0.00000000000E+00 -0.13805613877E+04  0.13805613877E+04  0.25500000920E-02 0.  1.
    10030    2    1    2    0    0  0.00000000000E+00  0.00000000000E+00 -0.25843789205E+03  0.25026848833E+04  0.24893054214E+04 0.  0.
        4    1    3    3  502    0  0.11574914226E+04  0.43516474959E+03  0.12976752524E+02  0.12366587087E+04  0.12699999809E+01 0.  1.
       -4    1    3    3    0  502 -0.11574914226E+04 -0.43516474959E+03 -0.27141464457E+03  0.12660261747E+04  0.12699999809E+01 0. -1.
</event>
<event>
 5   0  0.6477703E-06  0.2507454E+04  0.7818609E-02  0.8400335E-01
        1   -1    0    0  501    0  0.00000000000E+00  0.00000000000E+00  0.14294482175E+04  0.14294482175E+04  0.50400001928E-02 0.  1.
       -1   -1    0    0    0  501  0.00000000000E+00  0.00000000000E+00 -0.10996068817E+04  0.10996068817E+04  0.50400001928E-02 0. -1.
    10030    2    1    2    0    0  0.00000000000E+00  0.00000000000E+00  0.32984133579E+03  0.25290550991E+04  0.25074537658E+04 0.  0.
        5    1    3    3  502    0  0.42254375748E+03 -0.48724731684E+02  0.13544413896E+04  0.14196657686E+04  0.46999998093E+01 0.  1.
       -5    1    3    3    0  502 -0.42254375748E+03  0.48724731684E+02 -0.10246000538E+04  0.11093893306E+04  0.46999998093E+01 0. -1.
</event>
<event>
 5   0  0.1468512E-05  0.2518347E+04  0.7818609E-02  0.8396478E-01
        2   -1    0    0  501    0  0.00000000000E+00  0.00000000000E+00  0.19615158080E+04  0.19615158080E+04  0.25500000920E-02 0. -1.
       -2   -1    0    0    0  501  0.00000000000E+00  0.00000000000E+00 -0.80831250871E+03  0.80831250871E+03  0.25500000920E-02 0.  1.
    10030    2    1    2    0    0  0.00000000000E+00  0.00000000000E+00  0.11532032993E+04  0.27698283167E+04  0.25183468893E+04 0.  0.
        4    1    3    3  502    0  0.86415670640E+03 -0.43250286970E+03  0.14644893284E+04  0.17545814747E+04  0.12699999809E+01 0. -1.
       -4    1    3    3    0  502 -0.86415670640E+03  0.43250286970E+03 -0.31128602905E+03  0.10152468421E+04  0.12699999809E+01 0.  1.
</event>
<event>
 5   0  0.6105353E-06  0.2476607E+04  0.7818609E-02  0.8411367E-01
        1   -1    0    0  501    0  0.00000000000E+00  0.00000000000E+00  0.12300738884E+04  0.12300738885E+04  0.50400001928E-02 0.  1.
       -1   -1    0    0    0  501  0.00000000000E+00  0.00000000000E+00 -0.12465885002E+04  0.12465885002E+04  0.50400001928E-02 0. -1.
    10030    2    1    2    0    0  0.00000000000E+00  0.00000000000E+00 -0.16514611725E+02  0.24766623886E+04  0.24766073275E+04 0.  0.
        3    1    3    3  502    0  0.58672909925E+03 -0.29137189945E+03  0.10425977910E+04  0.12313239962E+04  0.10100000352E+00 0.  1.
       -3    1    3    3    0  502 -0.58672909925E+03  0.29137189945E+03 -0.10591124027E+04  0.12453383924E+04  0.10100000352E+00 0. -1.
</event>
<event>
 5   0  0.1526824E-05  0.2491368E+04  0.7818609E-02  0.8406067E-01
       -2   -1    0    0    0  501  0.00000000000E+00  0.00000000000E+00  0.12178288310E+04  0.12178288310E+04  0.25500000920E-02 0.  1.
        2   -1    0    0  501    0  0.00000000000E+00  0.00000000000E+00 -0.12741761322E+04  0.12741761322E+04  0.25500000920E-02 0. -1.
    10030    2    1    2    0    0  0.00000000000E+00  0.00000000000E+00 -0.56347301185E+02  0.24920049632E+04  0.24913678408E+04 0.  0.
        2    1    3    3  502    0  0.10968471311E+04 -0.36237234586E+03  0.43814411650E+03  0.12354584626E+04  0.25500000920E-02 0.  1.
       -2    1    3    3    0  502 -0.10968471311E+04  0.36237234586E+03 -0.49449141768E+03  0.12565465006E+04  0.25500000920E-02 0. -1.
</event>
<event>
 5   0  0.1572732E-05  0.2525588E+04  0.7818609E-02  0.8393926E-01
        2   -1    0    0  501    0  0.00000000000E+00  0.00000000000E+00  0.23326733385E+04  0.23326733385E+04  0.25500000920E-02 0.  1.
       -2   -1    0    0    0  501  0.00000000000E+00  0.00000000000E+00 -0.68361403332E+03  0.68361403333E+03  0.25500000920E-02 0. -1.
    10030    2    1    2    0    0  0.00000000000E+00  0.00000000000E+00  0.16490593051E+04  0.30162873718E+04  0.25255876380E+04 0.  0.
        1    1    3    3  502    0 -0.12238312702E+03 -0.84876237573E+03 -0.28254233754E+03  0.90288724255E+03  0.50400001928E-02 0. -1.
       -1    1    3    3    0  502  0.12238312702E+03  0.84876237573E+03  0.19316016427E+04  0.21134001292E+04  0.50400001928E-02 0.  1.
</event>
<event>
 5   0  0.6346420E-06  0.2502984E+04  0.7818609E-02  0.8401923E-01
        1   -1    0    0  501    0  0.00000000000E+00  0.00000000000E+00  0.20798970403E+04  0.20798970403E+04  0.50400001928E-02 0. -1.
       -1   -1    0    0    0  501  0.00000000000E+00  0.00000000000E+00 -0.75303343031E+03  0.75303343032E+03  0.50400001928E-02 0.  1.
    10030    2    1    2    0    0  0.00000000000E+00  0.00000000000E+00  0.13268636100E+04  0.28329304706E+04  0.25029838217E+04 0.  0.
        4    1    3    3  502    0 -0.95037868318E+03  0.78659854515E+03  0.90158131384E+03  0.15280076541E+04  0.12699999809E+01 0. -1.
       -4    1    3    3    0  502  0.95037868318E+03 -0.78659854515E+03  0.42528229612E+03  0.13049228165E+04  0.12699999809E+01 0.  1.
</event>
<event>
 5   0  0.1572732E-05  0.2497568E+04  0.7818609E-02  0.8403852E-01
       -2   -1    0    0    0  501  0.00000000000E+00  0.00000000000E+00  0.15513043932E+04  0.15513043932E+04  0.25500000920E-02 0.  1.
        2   -1    0    0  501    0  0.00000000000E+00  0.00000000000E+00 -0.10052586057E+04  0.10052586057E+04  0.25500000920E-02 0. -1.
    10030    2    1    2    0    0  0.00000000000E+00  0.00000000000E+00  0.54604578754E+03  0.25565629989E+04  0.24975684906E+04 0.  0.
        1    1    3    3  502    0  0.72224937308E+03  0.89277281189E+03 -0.22925546223E+03  0.11710019289E+04  0.50400001928E-02 0. -1.
       -1    1    3    3    0  502 -0.72224937308E+03 -0.89277281189E+03  0.77530124978E+03  0.13855610699E+04  0.50400001928E-02 0.  1.
</event>
<event>
 5   0  0.6104486E-06  0.2493311E+04  0.7818609E-02  0.8405372E-01
       -1   -1    0    0    0  501  0.00000000000E+00  0.00000000000E+00  0.91408974764E+03  0.91408974765E+03  0.50400001928E-02 0. -1.
        1   -1    0    0  501    0  0.00000000000E+00  0.00000000000E+00 -0.17002162255E+04  0.17002162255E+04  0.50400001928E-02 0.  1.
    10030    2    1    2    0    0  0.00000000000E+00  0.00000000000E+00 -0.78612647782E+03  0.26143059731E+04  0.24933112285E+04 0.  0.
        2    1    3    3  502    0  0.81768187530E+03 -0.65057040272E+03 -0.11059886376E+04  0.15215309279E+04  0.25500000920E-02 0.  1.
       -2    1    3    3    0  502 -0.81768187530E+03  0.65057040272E+03  0.31986215981E+03  0.10927750452E+04  0.25500000920E-02 0. -1.
</event>
<event>
 5   0  0.1468512E-05  0.2497995E+04  0.7818609E-02  0.8403700E-01
        2   -1    0    0  501    0  0.00000000000E+00  0.00000000000E+00  0.26177307585E+04  0.26177307585E+04  0.25500000920E-02 0. -1.
       -2   -1    0    0    0  501  0.00000000000E+00  0.00000000000E+00 -0.59593409964E+03  0.59593409965E+03  0.25500000920E-02 0.  1.
    10030    2    1    2    0    0  0.00000000000E+00  0.00000000000E+00  0.20217966589E+04  0.32136648582E+04  0.24979952143E+04 0.  0.
        4    1    3    3  502    0 -0.12419439206E+04  0.11406989515E+03  0.10977418446E+04  0.16614678489E+04  0.12699999809E+01 0.  1.
       -4    1    3    3    0  502  0.12419439206E+04 -0.11406989515E+03  0.92405481434E+03  0.15521970093E+04  0.12699999809E+01 0. -1.
</event>
<event>
 5   0  0.1501947E-05  0.2509298E+04  0.7818609E-02  0.8399680E-01
        2   -1    0    0  501    0  0.00000000000E+00  0.00000000000E+00  0.10192628784E+04  0.10192628784E+04  0.25500000920E-02 0.  1.
       -2   -1    0    0    0  501  0.00000000000E+00  0.00000000000E+00 -0.15443951157E+04  0.15443951157E+04  0.25500000920E-02 0. -1.
    10030    2    1    2    0    0  0.00000000000E+00  0.00000000000E+00 -0.52513223729E+03  0.25636579941E+04  0.25092983968E+04 0.  0.
        3    1    3    3  502    0  0.29865598144E+03  0.52204309340E+03 -0.13875190783E+04  0.15122610851E+04  0.10100000352E+00 0. -1.
       -3    1    3    3    0  502 -0.29865598144E+03 -0.52204309340E+03  0.86238684102E+03  0.10513969091E+04  0.10100000352E+00 0.  1.
</event>
<event>
 5   0  0.6104486E-06  0.2496023E+04  0.7818609E-02  0.8404404E-01
       -1   -1    0    0    0  501  0.00000000000E+00  0.00000000000E+00  0.10525199176E+04  0.10525199176E+04  0.50400001928E-02 0.  1.
        1   -1    0    0  501    0  0.00000000000E+00  0.00000000000E+00 -0.14798134029E+04  0.14798134029E+04  0.50400001928E-02 0. -1.
    10030    2    1    2    0    0  0.00000000000E+00  0.00000000000E+00 -0.42729348528E+03  0.25323333204E+04  0.24960233018E+04 0.  0.
        2    1    3    3  502    0 -0.85812118772E+03  0.69255084323E+02 -0.11303196173E+04  0.14208415383E+04  0.25500000920E-02 0. -1.
       -2    1    3    3    0  502  0.85812118772E+03 -0.69255084323E+02  0.70302613204E+03  0.11114917822E+04  0.25500000920E-02 0.  1.
</event>
<event>
 5   0  0.6346420E-06  0.2450486E+04  0.7818609E-02  0.8420841E-01
        1   -1    0    0  501    0  0.00000000000E+00  0.00000000000E+00  0.14198430357E+04  0.14198430357E+04  0.50400001928E-02 0.  1.
       -1   -1    0    0    0  501  0.00000000000E+00  0.00000000000E+00 -0.10573143846E+04  0.10573143846E+04  0.50400001928E-02 0. -1.
    10030    2    1    2    0    0  0.00000000000E+00  0.00000000000E+00  0.36252865119E+03  0.24771574203E+04  0.24504860461E+04 0.  0.
        4    1    3    3  502    0 -0.81501960753E+03  0.31450329159E+03 -0.68718431310E+03  0.11114824219E+04  0.12699999809E+01 0. -1.
       -4    1    3    3    0  502  0.81501960753E+03 -0.31450329159E+03  0.10497129643E+04  0.13656749984E+04  0.12699999809E+01 0.  1.
</event>
<event>
 5   0  0.6105353E-06  0.2510401E+04  0.7818609E-02  0.8399289E-01
        1   -1    0    0  501    0  0.00000000000E+00  0.00000000000E+00  0.16698351578E+04  0.16698351578E+04  0.50400001928E-02 0. -1.
       -1   -1    0    0    0  501  0.00000000000E+00  0.00000000000E+00 -0.94352324688E+03  0.94352324690E+03  0.50400001928E-02 0.  1.
    10030    2    1    2    0    0  0.00000000000E+00  0.00000000000E+00  0.72631191090E+03  0.26133584047E+04  0.25104009957E+04 0.  0.
        3    1    3    3  502    0  0.10896807448E+03  0.11417403529E+04  0.89405510545E+03  0.14542281858E+04  0.10100000352E+00 0. -1.
       -3    1    3    3    0  502 -0.10896807448E+03 -0.11417403529E+04 -0.16774319455E+03  0.11591302188E+04  0.10100000352E+00 0.  1.
</event>
<event>
 5   0  0.6105353E-06  0.2429902E+04  0.7818609E-02  0.8428393E-01
       -1   -1    0    0    0  501  0.00000000000E+00  0.00000000000E+00  0.61551862606E+03  0.61551862608E+03  0.50400001928E-02 0.  1.
        1   -1    0    0  501    0  0.00000000000E+00  0.00000000000E+00 -0.23981499847E+04  0.23981499847E+04  0.50400001928E-02 0. -1.
    10030    2    1    2    0    0  0.00000000000E+00  0.00000000000E+00 -0.17826313587E+04  0.30136686108E+04  0.24299020422E+04 0.  0.
        3    1    3    3  502    0 -0.68755962058E+03  0.76533403340E+03 -0.16928154148E+04  0.19809337327E+04  0.10100000352E+00 0. -1.
       -3    1    3    3    0  502  0.68755962058E+03 -0.76533403340E+03 -0.89815943879E+02  0.10327348781E+04  0.10100000352E+00 0.  1.
</event>
<event>
 5   0  0.1572732E-05  0.2468712E+04  0.7818609E-02  0.8414218E-01
       -2   -1    0    0    0  501  0.00000000000E+00  0.00000000000E+00  0.15584935308E+04  0.15584935308E+04  0.25500000920E-02 0. -1.
        2   -1    0    0  501    0  0.00000000000E+00  0.00000000000E+00 -0.97763264020E+03  0.97763264021E+03  0.25500000920E-02 0.  1.
    10030    2    1    2    0    0  0.00000000000E+00  0.00000000000E+00  0.58086089062E+03  0.25361261710E+04  0.24687115225E+04 0.  0.
        1    1    3    3  502    0  0.43233480968E+03 -0.11557701185E+04  0.32152565367E+03  0.12751849672E+04  0.50400001928E-02 0.  1.
       -1    1    3    3    0  502 -0.43233480968E+03  0.11557701185E+04  0.25933523695E+03  0.12609412039E+04  0.50400001928E-02 0. -1.
</event>
<event>
 5   0  0.1550483E-05  0.2487784E+04  0.7818609E-02  0.8407350E-01
        2   -1    0    0  501    0  0.00000000000E+00  0.00000000000E+00  0.17518506696E+04  0.17518506696E+04  0.25500000920E-02 0.  1.
       -2   -1    0    0    0  501  0.00000000000E+00  0.00000000000E+00 -0.88321873852E+03  0.88321873853E+03  0.25500000920E-02 0. -1.
    10030    2    1    2    0    0  0.00000000000E+00  0.00000000000E+00  0.86863193111E+03  0.26350694082E+04  0.24877840248E+04 0.  0.
        5    1    3    3  502    0 -0.86692176412E+03 -0.18943429952E+03  0.13575905930E+04  0.16218856332E+04  0.46999998093E+01 0.  1.
       -5    1    3    3    0  502  0.86692176412E+03  0.18943429952E+03 -0.48895866185E+03  0.10131837750E+04  0.46999998093E+01 0. -1.
</event>
<event>
 5   0  0.1526824E-05  0.2420106E+04  0.7818609E-02  0.8432014E-01
        2   -1    0    0  501    0  0.00000000000E+00  0.00000000000E+00  0.24582975301E+04  0.24582975301E+04  0.25500000920E-02 0. -1.
       -2   -1    0    0    0  501  0.00000000000E+00  0.00000000000E+00 -0.59562697572E+03  0.59562697572E+03  0.25500000920E-02 0.  1.
    10030    2    1    2    0    0  0.00000000000E+00  0.00000000000E+00  0.18626705543E+04  0.30539245058E+04  0.24201060500E+04 0.  0.
        2    1    3    3  502    0  0.26523580215E+03 -0.42671845148E+02 -0.55751995746E+03  0.61886946934E+03  0.25500000920E-02 0.  1.
       -2    1    3    3    0  502 -0.26523580215E+03  0.42671845148E+02  0.24201905118E+04  0.24350550364E+04  0.25500000920E-02 0. -1.
</event>
<event>
 5   0  0.6290861E-06  0.2499961E+04  0.7818609E-02  0.8402999E-01
        1   -1    0    0  501    0  0.00000000000E+00  0.00000000000E+00  0.23658000964E+04  0.23658000964E+04  0.50400001928E-02 0. -1.
       -1   -1    0    0    0  501  0.00000000000E+00  0.00000000000E+00 -0.66043269448E+03  0.66043269450E+03  0.50400001928E-02 0.  1.
    10030    2    1    2    0    0  0.00000000000E+00  0.00000000000E+00  0.17053674019E+04  0.30262327909E+04  0.24999613856E+04 0.  0.
        1    1    3    3  502    0 -0.94412619264E+03 -0.34766677423E+03 -0.45223405026E+02  0.10071204545E+04  0.50400001928E-02 0.  1.
       -1    1    3    3    0  502  0.94412619264E+03  0.34766677423E+03  0.17505908070E+04  0.20191123364E+04  0.50400001928E-02 0. -1.
</event>
<event>
 5   0  0.1526824E-05  0.2554734E+04  0.7818609E-02  0.8383742E-01
        2   -1    0    0  501    0  0.00000000000E+00  0.00000000000E+00  0.11791908874E+04  0.11791908874E+04  0.25500000920E-02 0.  1.
       -2   -1    0    0    0  501  0.00000000000E+00  0.00000000000E+00 -0.13837166098E+04  0.13837166098E+04  0.25500000920E-02 0. -1.
    10030    2    1    2    0    0  0.00000000000E+00  0.00000000000E+00 -0.20452572239E+03  0.25629074972E+04  0.25547336589E+04 0.  0.
        2    1    3    3  502    0 -0.81240893863E+03 -0.63269311240E+03  0.65603728248E+03  0.12209397094E+04  0.25500000920E-02 0.  1.
       -2    1    3    3    0  502  0.81240893863E+03  0.63269311240E+03 -0.86056300487E+03  0.13419677878E+04  0.25500000920E-02 0. -1.
</event>
<event>
 5   0  0.6290861E-06  0.2501716E+04  0.7818609E-02  0.8402375E-01
        1   -1    0    0  501    0  0.00000000000E+00  0.00000000000E+00  0.15057399876E+04  0.15057399876E+04  0.50400001928E-02 0.  1.
       -1   -1    0    0    0  501  0.00000000000E+00  0.00000000000E+00 -0.10391205133E+04  0.10391205133E+04  0.50400001928E-02 0. -1.
    10030    2    1    2    0    0  0.00000000000E+00  0.00000000000E+00  0.46661947431E+03  0.25448605009E+04  0.25017156583E+04 0.  0.
        1    1    3    3  502    0  0.54119960698E+03 -0.14498415578E+02 -0.91376237542E+03  0.10621058786E+04  0.50400001928E-02 0. -1.
       -1    1    3    3    0  502 -0.54119960698E+03  0.14498415578E+02  0.13803818497E+04  0.14827546222E+04  0.50400001928E-02 0.  1.
</event>
<event>
 5   0  0.6477703E-06  0.2489279E+04  0.7818609E-02  0.8406815E-01
       -1   -1    0    0    0  501  0.00000000000E+00  0.00000000000E+00  0.98457104299E+03  0.98457104300E+03  0.50400001928E-02 0. -1.
        1   -1    0    0  501    0  0.00000000000E+00  0.00000000000E+00 -0.15734036584E+04  0.15734036584E+04  0.50400001928E-02 0.  1.
    10030    2    1    2    0    0  0.00000000000E+00  0.00000000000E+00 -0.58883261544E+03  0.25579747014E+04  0.24892791575E+04 0.  0.
        5    1    3    3  502    0  0.10148487117E+04 -0.27971445793E+02  0.44545698519E+03  0.11086723254E+04  0.46999998093E+01 0. -1.
       -5    1    3    3    0  502 -0.10148487117E+04  0.27971445793E+02 -0.10342896006E+04  0.14493023761E+04  0.46999998093E+01 0.  1.
</event>
<event>
 5   0  0.1468512E-05  0.2496900E+04  0.7818609E-02  0.8404091E-01
        2   -1    0    0  501    0  0.00000000000E+00  0.00000000000E+00  0.22467141401E+04  0.22467141401E+04  0.25500000920E-02 0. -1.
       -2   -1    0    0    0  501  0.00000000000E+00  0.00000000000E+00 -0.69373619973E+03  0.69373619973E+03  0.25500000920E-02 0.  1.
    10030    2    1    2    0    0  0.00000000000E+00  0.00000000000E+00  0.15529779404E+04  0.29404503398E+04  0.24968996211E+04 0.  0.
        4    1    3    3  502    0  0.12038610595E+04 -0.21346234937E+03  0.10738932149E+04  0.16272971072E+04  0.12699999809E+01 0. -1.
       -4    1    3    3    0  502 -0.12038610595E+04  0.21346234937E+03  0.47908472541E+03  0.13131532326E+04  0.12699999809E+01 0.  1.
</event>
<event>
 5   0  0.6105353E-06  0.2516187E+04  0.7818609E-02  0.8397242E-01
        1   -1    0    0  501    0  0.00000000000E+00  0.00000000000E+00  0.10819495124E+04  0.10819495124E+04  0.50400001928E-02 0.  1.
       -1   -1    0    0    0  501  0.00000000000E+00  0.00000000000E+00 -0.14629138978E+04  0.14629138978E+04  0.50400001928E-02 0. -1.
    10030    2    1    2    0    0  0.00000000000E+00  0.00000000000E+00 -0.38096438533E+03  0.25448634102E+04  0.25161867804E+04 0.  0.
        3    1    3    3  502    0  0.41343018421E+03  0.11395409556E+04  0.14998599190E+03  0.12214638409E+04  0.10100000352E+00 0. -1.
       -3    1    3    3    0  502 -0.41343018421E+03 -0.11395409556E+04 -0.53095037724E+03  0.13233995693E+04  0.10100000352E+00 0.  1.
</event>
<event>
 5   0  0.5164625E-06  0.2501028E+04  0.7818609E-02  0.8402619E-01
        3   -1    0    0  501    0  0.00000000000E+00  0.00000000000E+00  0.11708485679E+04  0.11708485722E+04  0.10100000352E+00 0. -1.
       -3   -1    0    0    0  501  0.00000000000E+00  0.00000000000E+00 -0.13356000730E+04  0.13356000768E+04  0.10100000352E+00 0.  1.
    10030    2    1    2    0    0  0.00000000000E+00  0.00000000000E+00 -0.16475150516E+03  0.25064486490E+04  0.25010281429E+04 0.  0.
        3    1    3    3  502    0  0.62232397551E+03 -0.84451333298E+03  0.59975760682E+03  0.12083869816E+04  0.10100000352E+00 0. -1.
       -3    1    3    3    0  502 -0.62232397551E+03  0.84451333298E+03 -0.76450911198E+03  0.12980616675E+04  0.10100000352E+00 0.  1.
</event>
<event>
 5   0  0.6290861E-06  0.2516136E+04  0.7818609E-02  0.8397260E-01
       -1   -1    0    0    0  501  0.00000000000E+00  0.00000000000E+00  0.70586477955E+03  0.70586477957E+03  0.50400001928E-02 0.  1.
        1   -1    0    0  501    0  0.00000000000E+00  0.00000000000E+00 -0.22422630402E+04  0.22422630402E+04  0.50400001928E-02 0. -1.
    10030    2    1    2    0    0  0.00000000000E+00  0.00000000000E+00 -0.15363982606E+04  0.29481278197E+04  0.25161355342E+04 0.  0.
        1    1    3    3  502    0 -0.11959266140E+04 -0.19104289314E+03 -0.36914206195E+03  0.12660978300E+04  0.50400001928E-02 0.  1.
       -1    1    3    3    0  502  0.11959266140E+04  0.19104289314E+03 -0.11672561987E+04  0.16820299898E+04  0.50400001928E-02 0. -1.
</event>
<event>
 5   0  0.6104486E-06  0.2498116E+04  0.7818609E-02  0.8403657E-01
        1   -1    0    0  501    0  0.00000000000E+00  0.00000000000E+00  0.10912055040E+04  0.10912055041E+04  0.50400001928E-02 0.  1.
       -1   -1    0    0    0  501  0.00000000000E+00  0.00000000000E+00 -0.14297457079E+04  0.14297457079E+04  0.50400001928E-02 0. -1.
    10030    2    1    2    0    0  0.00000000000E+00  0.00000000000E+00 -0.33854020384E+03  0.25209512119E+04  0.24981163991E+04 0.  0.
        2    1    3    3  502    0  0.49042477494E+03 -0.44043877631E+03  0.90139149564E+03  0.11166957526E+04  0.25500000920E-02 0.  1.
       -2    1    3    3    0  502 -0.49042477494E+03  0.44043877631E+03 -0.12399316995E+04  0.14042554593E+04  0.25500000920E-02 0. -1.
</event>
<event>
 5   0  0.6346420E-06  0.2549104E+04  0.7818609E-02  0.8385698E-01
        1   -1    0    0  501    0  0.00000000000E+00  0.00000000000E+00  0.11602251721E+04  0.11602251721E+04  0.50400001928E-02 0.  1.
       -1   -1    0    0    0  501  0.00000000000E+00  0.00000000000E+00 -0.14001449034E+04  0.14001449034E+04  0.50400001928E-02 0. -1.
    10030    2    1    2    0    0  0.00000000000E+00  0.00000000000E+00 -0.23991973128E+03  0.25603700755E+04  0.25491044400E+04 0.  0.
        4    1    3    3  502    0 -0.33700872223E+03 -0.67847200144E+03 -0.11494690321E+04  0.13766552961E+04  0.12699999809E+01 0. -1.
       -4    1    3    3    0  502  0.33700872223E+03  0.67847200144E+03  0.90954930077E+03  0.11837147794E+04  0.12699999809E+01 0.  1.
</event>
<event>
 5   0  0.5164625E-06  0.2492722E+04  0.7818609E-02  0.8405583E-01
        3   -1    0    0  501    0  0.00000000000E+00  0.00000000000E+00  0.20180886089E+04  0.20180886114E+04  0.10100000352E+00 0. -1.
       -3   -1    0    0    0  501  0.00000000000E+00  0.00000000000E+00 -0.76974625521E+03  0.76974626183E+03  0.10100000352E+00 0.  1.
    10030    2    1    2    0    0  0.00000000000E+00  0.00000000000E+00  0.12483423537E+04  0.27878348732E+04  0.24927223368E+04 0.  0.
        2    1    3    3  502    0  0.25859875074E+03  0.11735153309E+04  0.99409386209E+03  0.15595621669E+04  0.25500000920E-02 0. -1.
       -2    1    3    3    0  502 -0.25859875074E+03 -0.11735153309E+04  0.25424849159E+03  0.12282727064E+04  0.25500000920E-02 0.  1.
</event>
<event>
 5   0  0.1572732E-05  0.2517209E+04  0.7818609E-02  0.8396880E-01
        2   -1    0    0  501    0  0.00000000000E+00  0.00000000000E+00  0.25453871411E+04  0.25453871411E+04  0.25500000920E-02 0.  1.
       -2   -1    0    0    0  501  0.00000000000E+00  0.00000000000E+00 -0.62233563818E+03  0.62233563819E+03  0.25500000920E-02 0. -1.
    10030    2    1    2    0    0  0.00000000000E+00  0.00000000000E+00  0.19230515029E+04  0.31677227793E+04  0.25172088756E+04 0.  0.
        1    1    3    3  502    0  0.25273536121E+03  0.10067571537E+04  0.18572656874E+04  0.21276444635E+04  0.50400001928E-02 0.  1.
       -1    1    3    3    0  502 -0.25273536121E+03 -0.10067571537E+04  0.65785815510E+02  0.10400783158E+04  0.50400001928E-02 0. -1.
</event>
<event>
 5   0  0.6104486E-06  0.2452938E+04  0.7818609E-02  0.8419946E-01
        1   -1    0    0  501    0  0.00000000000E+00  0.00000000000E+00  0.79484998891E+03  0.79484998892E+03  0.50400001928E-02 0.  1.
       -1   -1    0    0    0  501  0.00000000000E+00  0.00000000000E+00 -0.18924660667E+04  0.18924660667E+04  0.50400001928E-02 0. -1.
    10030    2    1    2    0    0  0.00000000000E+00  0.00000000000E+00 -0.10976160778E+04  0.26873160556E+04  0.24529383459E+04 0.  0.
        2    1    3    3  502    0 -0.11236209527E+04 -0.18546088881E+03 -0.49993692032E+02  0.11399206796E+04  0.25500000920E-02 0.  1.
       -2    1    3    3    0  502  0.11236209527E+04  0.18546088881E+03 -0.10476223858E+04  0.15473953760E+04  0.25500000920E-02 0. -1.
</event>
<event>
 5   0  0.1501947E-05  0.2515529E+04  0.7818609E-02  0.8397474E-01
       -2   -1    0    0    0  501  0.00000000000E+00  0.00000000000E+00  0.16596050821E+04  0.16596050821E+04  0.25500000920E-02 0.  1.
        2   -1    0    0  501    0  0.00000000000E+00  0.00000000000E+00 -0.95322182882E+03  0.95322182883E+03  0.25500000920E-02 0. -1.
    10030    2    1    2    0    0  0.00000000000E+00  0.00000000000E+00  0.70638325331E+03  0.26128269110E+04  0.25155292020E+04 0.  0.
        3    1    3    3  502    0  0.58217582996E+03  0.64146057105E+03 -0.59398517910E+03  0.10503422130E+04  0.10100000352E+00 0. -1.
       -3    1    3    3    0  502 -0.58217582996E+03 -0.64146057105E+03  0.13003684324E+04  0.15624846980E+04  0.10100000352E+00 0.  1.
</event>
<event>
 5   0  0.6346420E-06  0.2472814E+04  0.7818609E-02  0.8412735E-01
        1   -1    0    0  501    0  0.00000000000E+00  0.00000000000E+00  0.23595037348E+04  0.23595037348E+04  0.50400001928E-02 0.  1.
       -1   -1    0    0    0  501  0.00000000000E+00  0.00000000000E+00 -0.64789128772E+03  0.64789128774E+03  0.50400001928E-02 0. -1.
    10030    2    1    2    0    0  0.00000000000E+00  0.00000000000E+00  0.17116124471E+04  0.30073950226E+04  0.24728137117E+04 0.  0.
        4    1    3    3  502    0  0.36211864969E+03  0.11708558621E+04  0.65720330814E+03  0.13906657281E+04  0.12699999809E+01 0. -1.
       -4    1    3    3    0  502 -0.36211864969E+03 -0.11708558621E+04  0.10544091390E+04  0.16167292944E+04  0.12699999809E+01 0.  1.
</event>
<event>
 5   0  0.1572732E-05  0.2484565E+04  0.7818609E-02  0.8408505E-01
        2   -1    0    0  501    0  0.00000000000E+00  0.00000000000E+00  0.10102007555E+04  0.10102007555E+04  0.25500000920E-02 0.  1.
       -2   -1    0    0    0  501  0.00000000000E+00  0.00000000000E+00 -0.15276825558E+04  0.15276825558E+04  0.25500000920E-02 0. -1.
    10030    2    1    2    0    0  0.00000000000E+00  0.00000000000E+00 -0.51748180032E+03  0.25378833113E+04  0.24845652111E+04 0.  0.
        1    1    3    3  502    0 -0.61364328471E+03 -0.69957453588E+03 -0.10993864089E+04  0.14403517238E+04  0.50400001928E-02 0. -1.
       -1    1    3    3    0  502  0.61364328471E+03  0.69957453588E+03  0.58190460854E+03  0.10975315875E+04  0.50400001928E-02 0.  1.
</event>
<event>
 5   0  0.6105353E-06  0.2486293E+04  0.7818609E-02  0.8407885E-01
       -1   -1    0    0    0  501  0.00000000000E+00  0.00000000000E+00  0.10883278764E+04  0.10883278764E+04  0.50400001928E-02 0.  1.
        1   -1    0    0  501    0  0.00000000000E+00  0.00000000000E+00 -0.14199883955E+04  0.14199883955E+04  0.50400001928E-02 0. -1.
    10030    2    1    2    0    0  0.00000000000E+00  0.00000000000E+00 -0.33166051913E+03  0.25083162719E+04  0.24862927865E+04 0.  0.
        3    1    3    3  502    0 -0.12535105763E+03 -0.77793640499E+03  0.80420385533E+03  0.11258959939E+04  0.10100000352E+00 0.  1.
       -3    1    3    3    0  502  0.12535105763E+03  0.77793640499E+03 -0.11358643745E+04  0.13824202781E+04  0.10100000352E+00 0. -1.
</event>
<event>
 5   0  0.1468512E-05  0.2500751E+04  0.7818609E-02  0.8402718E-01
        2   -1    0    0  501    0  0.00000000000E+00  0.00000000000E+00  0.19409883855E+04  0.19409883855E+04  0.25500000920E-02 0. -1.
       -2   -1    0    0    0  501  0.00000000000E+00  0.00000000000E+00 -0.80548599352E+03  0.80548599353E+03  0.25500000920E-02 0.  1.
    10030    2    1    2    0    0  0.00000000000E+00  0.00000000000E+00  0.11355023920E+04  0.27464743790E+04  0.25007510537E+04 0.  0.
        4    1    3    3  502    0  0.60037909046E+03  0.98775993759E+03  0.10913719418E+04  0.15897229554E+04  0.12699999809E+01 0. -1.
       -4    1    3    3    0  502 -0.60037909046E+03 -0.98775993759E+03  0.44130450145E+02  0.11567514236E+04  0.12699999809E+01 0.  1.
</event>
<event>
 5   0  0.1468512E-05  0.2500483E+04  0.7818609E-02  0.8402814E-01
       -2   -1    0    0    0  501  0.00000000000E+00  0.00000000000E+00  0.15014250721E+04  0.15014250721E+04  0.25500000920E-02 0. -1.
        2   -1    0    0  501    0  0.00000000000E+00  0.00000000000E+00 -0.10410799186E+04  0.10410799186E+04  0.25500000920E-02 0.  1.
    10030    2    1    2    0    0  0.00000000000E+00  0.00000000000E+00  0.46034515351E+03  0.25425049908E+04  0.25004827470E+04 0.  0.
        4    1    3    3  502    0  0.88675499647E+03 -0.60492883843E+03  0.88190340294E+03  0.13892546737E+04  0.12699999809E+01 0. -1.
       -4    1    3    3    0  502 -0.88675499647E+03  0.60492883843E+03 -0.42155824943E+03  0.11532503171E+04  0.12699999809E+01 0.  1.
</event>
<event>
 5   0  0.1550483E-05  0.2480564E+04  0.7818609E-02  0.8409943E-01
        2   -1    0    0  501    0  0.00000000000E+00  0.00000000000E+00  0.13580300841E+04  0.13580300841E+04  0.25500000920E-02 0. -1.
       -2   -1    0    0    0  501  0.00000000000E+00  0.00000000000E+00 -0.11327430794E+04  0.11327430794E+04  0.25500000920E-02 0.  1.
    10030    2    1    2    0    0  0.00000000000E+00  0.00000000000E+00  0.22528700469E+03  0.24907731635E+04  0.24805637902E+04 0.  0.
        5    1    3    3  502    0  0.78814995538E+03  0.23105217827E+03 -0.82054238274E+03  0.11609812027E+04  0.46999998093E+01 0.  1.
       -5    1    3    3    0  502 -0.78814995538E+03 -0.23105217827E+03  0.10458293874E+04  0.13297919607E+04  0.46999998093E+01 0. -1.
</event>
<event>
 5   0  0.1526824E-05  0.2444893E+04  0.7818609E-02  0.8422885E-01
        2   -1    0    0  501    0  0.00000000000E+00  0.00000000000E+00  0.12614063568E+04  0.12614063568E+04  0.25500000920E-02 0. -1.
       -2   -1    0    0    0  501  0.00000000000E+00  0.00000000000E+00 -0.11846895546E+04  0.11846895546E+04  0.25500000920E-02 0.  1.
    10030    2    1    2    0    0  0.00000000000E+00  0.00000000000E+00  0.76716802215E+02  0.24460959114E+04  0.24448925825E+04 0.  0.
        2    1    3    3  502    0 -0.11397743270E+03 -0.11186632360E+04 -0.44143643008E+03  0.12080001708E+04  0.25500000920E-02 0.  1.
       -2    1    3    3    0  502  0.11397743270E+03  0.11186632360E+04  0.51815323229E+03  0.12380957406E+04  0.25500000920E-02 0. -1.
</event>
<event>
 5   0  0.1501947E-05  0.2485767E+04  0.7818609E-02  0.8408074E-01
       -2   -1    0    0    0  501  0.00000000000E+00  0.00000000000E+00  0.11321874318E+04  0.11321874318E+04  0.25500000920E-02 0.  1.
        2   -1    0    0  501    0  0.00000000000E+00  0.00000000000E+00 -0.13644024682E+04  0.13644024682E+04  0.25500000920E-02 0. -1.
    10030    2    1    2    0    0  0.00000000000E+00  0.00000000000E+00 -0.23221503641E+03  0.24965898999E+04  0.24857669451E+04 0.  0.
        3    1    3    3  502    0  0.97625640738E+03 -0.76318488317E+03 -0.21260694991E+03  0.12572706408E+04  0.10100000352E+00 0. -1.
       -3    1    3    3    0  502 -0.97625640738E+03  0.76318488317E+03 -0.19608086499E+02  0.12393192591E+04  0.10100000352E+00 0.  1.
</event>
<event>
 5   0  0.1501947E-05  0.2485281E+04  0.7818609E-02  0.8408248E-01
        2   -1    0    0  501    0  0.00000000000E+00  0.00000000000E+00  0.14780910596E+04  0.14780910596E+04  0.25500000920E-02 0. -1.
       -2   -1    0    0    0  501  0.00000000000E+00  0.00000000000E+00 -0.10446956607E+04  0.10446956607E+04  0.25500000920E-02 0.  1.
    10030    2    1    2    0    0  0.00000000000E+00  0.00000000000E+00  0.43339539888E+03  0.25227867203E+04  0.24852809226E+04 0.  0.
        3    1    3    3  502    0 -0.37752170146E+03 -0.11590517345E+04  0.46165193974E+03  0.13034746189E+04  0.10100000352E+00 0. -1.
       -3    1    3    3    0  502  0.37752170146E+03  0.11590517345E+04 -0.28256540859E+02  0.12193121014E+04  0.10100000352E+00 0.  1.
</event>
<event>
 5   0  0.1526824E-05  0.2502947E+04  0.7818609E-02  0.8401937E-01
        2   -1    0    0  501    0  0.00000000000E+00  0.00000000000E+00  0.11768318227E+04  0.11768318227E+04  0.25500000920E-02 0.  1.
       -2   -1    0    0    0  501  0.00000000000E+00  0.00000000000E+00 -0.13308490960E+04  0.13308490960E+04  0.25500000920E-02 0. -1.
    10030    2    1    2    0    0  0.00000000000E+00  0.00000000000E+00 -0.15401727330E+03  0.25076809187E+04  0.25029467173E+04 0.  0.
        2    1    3    3  502    0  0.17303814484E+03 -0.89927157315E+03 -0.93158974698E+03  0.13063273015E+04  0.25500000920E-02 0. -1.
       -2    1    3    3    0  502 -0.17303814484E+03  0.89927157315E+03  0.77757247367E+03  0.12013536172E+04  0.25500000920E-02 0.  1.
</event>
<event>
 5   0  0.5164625E-06  0.2497536E+04  0.7818609E-02  0.8403864E-01
        4   -1    0    0  501    0  0.00000000000E+00  0.00000000000E+00  0.11465621335E+04  0.11465628369E+04  0.12699999809E+01 0. -1.
       -4   -1    0    0    0  501  0.00000000000E+00  0.00000000000E+00 -0.13600831036E+04  0.13600836965E+04  0.12699999809E+01 0.  1.
    10030    2    1    2    0    0  0.00000000000E+00  0.00000000000E+00 -0.21352097004E+03  0.25066465334E+04  0.24975359134E+04 0.  0.
        1    1    3    3  502    0  0.37490219548E+03 -0.30411864886E+03 -0.12626480728E+04  0.13517839933E+04  0.50400001928E-02 0.  1.
       -1    1    3    3    0  502 -0.37490219548E+03  0.30411864886E+03  0.10491271028E+04  0.11548625401E+04  0.50400001928E-02 0. -1.
</event>
<event>
 5   0  0.1501947E-05  0.2500691E+04  0.7818609E-02  0.8402739E-01
       -2   -1    0    0    0  501  0.00000000000E+00  0.00000000000E+00  0.94682718938E+03  0.94682718938E+03  0.25500000920E-02 0.  1.
        2   -1    0    0  501    0  0.00000000000E+00  0.00000000000E+00 -0.16511603873E+04  0.16511603873E+04  0.25500000920E-02 0. -1.
    10030    2    1    2    0    0  0.00000000000E+00  0.00000000000E+00 -0.70433319795E+03  0.25979875767E+04  0.25006907436E+04 0.  0.
        3    1    3    3  502    0  0.88413896365E+03 -0.85641372806E+03 -0.58029470141E+03  0.13608409648E+04  0.10100000352E+00 0. -1.
       -3    1    3    3    0  502 -0.88413896365E+03  0.85641372806E+03 -0.12403849653E+03  0.12371466120E+04  0.10100000352E+00 0.  1.
</event>
<event>
 5   0  0.6346420E-06  0.2490160E+04  0.7818609E-02  0.8406499E-01
       -1   -1    0    0    0  501  0.00000000000E+00  0.00000000000E+00  0.63693846114E+03  0.63693846116E+03  0.50400001928E-02 0. -1.
        1   -1    0    0  501    0  0.00000000000E+00  0.00000000000E+00 -0.24338685788E+04  0.24338685788E+04  0.50400001928E-02 0.  1.
    10030    2    1    2    0    0  0.00000000000E+00  0.00000000000E+00 -0.17969301177E+04  0.30708070400E+04  0.24901602416E+04 0.  0.
        4    1    3    3  502    0  0.31874779594E+03  0.10301478025E+04 -0.13089987763E+03  0.10862509118E+04  0.12699999809E+01 0. -1.
       -4    1    3    3    0  502 -0.31874779594E+03 -0.10301478025E+04 -0.16660302400E+04  0.19845561282E+04  0.12699999809E+01 0.  1.
</event>
<event>
 5   0  0.1572732E-05  0.2490185E+04  0.7818609E-02  0.8406491E-01
        2   -1    0    0  501    0  0.00000000000E+00  0.00000000000E+00  0.25233884324E+04  0.25233884324E+04  0.25500000920E-02 0. -1.
       -2   -1    0    0    0  501  0.00000000000E+00  0.00000000000E+00 -0.61435442548E+03  0.61435442549E+03  0.25500000920E-02 0.  1.
    10030    2    1    2    0    0  0.00000000000E+00  0.00000000000E+00  0.19090340069E+04  0.31377428579E+04  0.24901846122E+04 0.  0.
        1    1    3    3  502    0  0.60960194342E+03  0.10799993695E+04  0.10939309978E+04  0.16536922917E+04  0.50400001928E-02 0.  1.
       -1    1    3    3    0  502 -0.60960194342E+03 -0.10799993695E+04  0.81510300908E+03  0.14840505662E+04  0.50400001928E-02 0. -1.
</event>
<event>
 5   0  0.1526824E-05  0.2485568E+04  0.7818609E-02  0.8408145E-01
       -2   -1    0    0    0  501  0.00000000000E+00  0.00000000000E+00  0.84492593918E+03  0.84492593919E+03  0.25500000920E-02 0. -1.
        2   -1    0    0  501    0  0.00000000000E+00  0.00000000000E+00 -0.18279856242E+04  0.18279856242E+04  0.25500000920E-02 0.  1.
    10030    2    1    2    0    0  0.00000000000E+00  0.00000000000E+00 -0.98305968503E+03  0.26729115634E+04  0.24855683216E+04 0.  0.
        2    1    3    3  502    0 -0.12052273800E+04  0.12249978946E+03 -0.19325551163E+03  0.12267546327E+04  0.25500000920E-02 0. -1.
       -2    1    3    3    0  502  0.12052273800E+04 -0.12249978946E+03 -0.78980417340E+03  0.14461569307E+04  0.25500000920E-02 0.  1.
</event>
<event>
 5   0  0.6104486E-06  0.2514993E+04  0.7818609E-02  0.8397664E-01
       -1   -1    0    0    0  501  0.00000000000E+00  0.00000000000E+00  0.10812923758E+04  0.10812923759E+04  0.50400001928E-02 0. -1.
        1   -1    0    0  501    0  0.00000000000E+00  0.00000000000E+00 -0.14624146398E+04  0.14624146399E+04  0.50400001928E-02 0.  1.
    10030    2    1    2    0    0  0.00000000000E+00  0.00000000000E+00 -0.38112226400E+03  0.25437070157E+04  0.25149932806E+04 0.  0.
        2    1    3    3  502    0  0.94955009047E+03 -0.68061715339E+03 -0.66107415349E+03  0.13423502226E+04  0.25500000920E-02 0.  1.
       -2    1    3    3    0  502 -0.94955009047E+03  0.68061715339E+03  0.27995188949E+03  0.12013567931E+04  0.25500000920E-02 0. -1.
</event>
<event>
 5   0  0.1550483E-05  0.2508432E+04  0.7818609E-02  0.8399988E-01
       -2   -1    0    0    0  501  0.00000000000E+00  0.00000000000E+00  0.14666537743E+04  0.14666537743E+04  0.25500000920E-02 0. -1.
        2   -1    0    0  501    0  0.00000000000E+00  0.00000000000E+00 -0.10725489318E+04  0.10725489318E+04  0.25500000920E-02 0.  1.
    10030    2    1    2    0    0  0.00000000000E+00  0.00000000000E+00  0.39410484253E+03  0.25392027061E+04  0.25084321310E+04 0.  0.
        5    1    3    3  502    0  0.60010157590E+03  0.93808301979E+03  0.78111741065E+03  0.13602529738E+04  0.46999998093E+01 0. -1.
       -5    1    3    3    0  502 -0.60010157590E+03 -0.93808301979E+03 -0.38701256812E+03  0.11789497323E+04  0.46999998093E+01 0.  1.
</event>
<event>
 5   0  0.6105353E-06  0.2499452E+04  0.7818609E-02  0.8403181E-01
       -1   -1    0    0    0  501  0.00000000000E+00  0.00000000000E+00  0.14985332275E+04  0.14985332275E+04  0.50400001928E-02 0.  1.
        1   -1    0    0  501    0  0.00000000000E+00  0.00000000000E+00 -0.10422292482E+04  0.10422292482E+04  0.50400001928E-02 0. -1.
    10030    2    1    2    0    0  0.00000000000E+00  0.00000000000E+00  0.45630397927E+03  0.25407624757E+04  0.24994520672E+04 0.  0.
        3    1    3    3  502    0 -0.27957650761E+03  0.43173639923E+03 -0.92964406646E+03  0.10624487953E+04  0.10100000352E+00 0. -1.
       -3    1    3    3    0  502  0.27957650761E+03 -0.43173639923E+03  0.13859480457E+04  0.14783136804E+04  0.10100000352E+00 0.  1.
</event>
<event>
 5   0  0.6105353E-06  0.2501116E+04  0.7818609E-02  0.8402588E-01
        1   -1    0    0  501    0  0.00000000000E+00  0.00000000000E+00  0.12019382113E+04  0.12019382113E+04  0.50400001928E-02 0. -1.
       -1   -1    0    0    0  501  0.00000000000E+00  0.00000000000E+00 -0.13011448761E+04  0.13011448761E+04  0.50400001928E-02 0.  1.
    10030    2    1    2    0    0  0.00000000000E+00  0.00000000000E+00 -0.99206664799E+02  0.25030830874E+04  0.25011163467E+04 0.  0.
        3    1    3    3  502    0  0.12124110501E+04 -0.13570630298E+03  0.22545634429E+03  0.12406398867E+04  0.10100000352E+00 0.  1.
       -3    1    3    3    0  502 -0.12124110501E+04  0.13570630298E+03 -0.32466300909E+03  0.12624432006E+04  0.10100000352E+00 0. -1.
</event>
<event>
 5   0  0.6346420E-06  0.2491118E+04  0.7818609E-02  0.8406156E-01
       -1   -1    0    0    0  501  0.00000000000E+00  0.00000000000E+00  0.80031470577E+03  0.80031470579E+03  0.50400001928E-02 0. -1.
        1   -1    0    0  501    0  0.00000000000E+00  0.00000000000E+00 -0.19385096569E+04  0.19385096570E+04  0.50400001928E-02 0.  1.
    10030    2    1    2    0    0  0.00000000000E+00  0.00000000000E+00 -0.11381949512E+04  0.27388243627E+04  0.24911184522E+04 0.  0.
        4    1    3    3  502    0 -0.97208661068E+02 -0.21576995389E+02  0.79593103002E+03  0.80213646467E+03  0.12699999809E+01 0. -1.
       -4    1    3    3    0  502  0.97208661068E+02  0.21576995389E+02 -0.19341259812E+04  0.19366878981E+04  0.12699999809E+01 0.  1.
</event>
<event>
 5   0  0.1468512E-05  0.2527109E+04  0.7818609E-02  0.8393391E-01
       -2   -1    0    0    0  501  0.00000000000E+00  0.00000000000E+00  0.14119047494E+04  0.14119047494E+04  0.25500000920E-02 0.  1.
        2   -1    0    0  501    0  0.00000000000E+00  0.00000000000E+00 -0.11307915727E+04  0.11307915727E+04  0.25500000920E-02 0. -1.
    10030    2    1    2    0    0  0.00000000000E+00  0.00000000000E+00  0.28111317671E+03  0.25426963221E+04  0.25271090139E+04 0.  0.
        4    1    3    3  502    0 -0.16813469260E+03 -0.48115405301E+03 -0.10227711750E+04  0.11427339965E+04  0.12699999809E+01 0. -1.
       -4    1    3    3    0  502  0.16813469260E+03  0.48115405301E+03  0.13038843517E+04  0.13999623256E+04  0.12699999809E+01 0.  1.
</event>
<event>
 5   0  0.1526824E-05  0.2491180E+04  0.7818609E-02  0.8406134E-01
        2   -1    0    0  501    0  0.00000000000E+00  0.00000000000E+00  0.17343005733E+04  0.17343005733E+04  0.25500000920E-02 0. -1.
       -2   -1    0    0    0  501  0.00000000000E+00  0.00000000000E+00 -0.89459393715E+03  0.89459393715E+03  0.25500000920E-02 0.  1.
    10030    2    1    2    0    0  0.00000000000E+00  0.00000000000E+00  0.83970663614E+03  0.26288945104E+04  0.24911802649E+04 0.  0.
        2    1    3    3  502    0  0.21980520763E+02  0.91207848697E+03 -0.47503747051E+03  0.10286062940E+04  0.25500000920E-02 0.  1.
       -2    1    3    3    0  502 -0.21980520763E+02 -0.91207848697E+03  0.13147441067E+04  0.16002882164E+04  0.25500000920E-02 0. -1.
</event>
<event>
 5   0  0.1468512E-05  0.2506084E+04  0.7818609E-02  0.8400821E-01
       -2   -1    0    0    0  501  0.00000000000E+00  0.00000000000E+00  0.10263605012E+04  0.10263605012E+04  0.25500000920E-02 0.  1.
        2   -1    0    0  501    0  0.00000000000E+00  0.00000000000E+00 -0.15297885055E+04  0.15297885055E+04  0.25500000920E-02 0. -1.
    10030    2    1    2    0    0  0.00000000000E+00  0.00000000000E+00 -0.50342800435E+03  0.25561490068E+04  0.25060841943E+04 0.  0.
        4    1    3    3  502    0  0.38244905820E+03 -0.16553119086E+03 -0.14570341917E+04  0.15154597012E+04  0.12699999809E+01 0. -1.
       -4    1    3    3    0  502 -0.38244905820E+03  0.16553119086E+03  0.95360618735E+03  0.10406893056E+04  0.12699999809E+01 0.  1.
</event>
<event>
 5   0  0.1572732E-05  0.2501593E+04  0.7818609E-02  0.8402418E-01
        2   -1    0    0  501    0  0.00000000000E+00  0.00000000000E+00  0.20031434030E+04  0.20031434030E+04  0.25500000920E-02 0. -1.
       -2   -1    0    0    0  501  0.00000000000E+00  0.00000000000E+00 -0.78101825551E+03  0.78101825551E+03  0.25500000920E-02 0.  1.
    10030    2    1    2    0    0  0.00000000000E+00  0.00000000000E+00  0.12221251475E+04  0.27841616585E+04  0.25015927455E+04 0.  0.
        1    1    3    3  502    0 -0.59631519589E+03  0.50691412441E+03 -0.47481816859E+03  0.91542669593E+03  0.50400001928E-02 0.  1.
       -1    1    3    3    0  502  0.59631519589E+03 -0.50691412441E+03  0.16969433160E+04  0.18687349625E+04  0.50400001928E-02 0. -1.
</event>
<event>
 5   0  0.1501947E-05  0.2477887E+04  0.7818609E-02  0.8410906E-01
        2   -1    0    0  501    0  0.00000000000E+00  0.00000000000E+00  0.19727875151E+04  0.19727875151E+04  0.25500000920E-02 0.  1.
       -2   -1    0    0    0  501  0.00000000000E+00  0.00000000000E+00 -0.77807716565E+03  0.77807716566E+03  0.25500000920E-02 0. -1.
    10030    2    1    2    0    0  0.00000000000E+00  0.00000000000E+00  0.11947103495E+04  0.27508646808E+04  0.24778869371E+04 0.  0.
        3    1    3    3  502    0  0.56203430342E+03  0.11014306210E+04  0.68298152307E+03  0.14126201691E+04  0.10100000352E+00 0. -1.
       -3    1    3    3    0  502 -0.56203430342E+03 -0.11014306210E+04  0.51172882640E+03  0.13382445117E+04  0.10100000352E+00 0.  1.
</event>
<event>
 5   0  0.6290861E-06  0.2488360E+04  0.7818609E-02  0.8407144E-01
        1   -1    0    0  501    0  0.00000000000E+00  0.00000000000E+00  0.19076055419E+04  0.19076055419E+04  0.50400001928E-02 0. -1.
       -1   -1    0    0    0  501  0.00000000000E+00  0.00000000000E+00 -0.81148017401E+03  0.81148017402E+03  0.50400001928E-02 0.  1.
    10030    2    1    2    0    0  0.00000000000E+00  0.00000000000E+00  0.10961253679E+04  0.27190857160E+04  0.24883601646E+04 0.  0.
        1    1    3    3  502    0 -0.32468731459E+03  0.12667583554E+03 -0.75704966561E+03  0.83342235139E+03  0.50400001928E-02 0.  1.
       -1    1    3    3    0  502  0.32468731459E+03 -0.12667583554E+03  0.18531750335E+04  0.18856633646E+04  0.50400001928E-02 0. -1.
</event>
<event>
 5   0  0.1526824E-05  0.2385058E+04  0.7818609E-02  0.8445119E-01
       -2   -1    0    0    0  501  0.00000000000E+00  0.00000000000E+00  0.11785039851E+04  0.11785039851E+04  0.25500000920E-02 0.  1.
        2   -1    0    0  501    0  0.00000000000E+00  0.00000000000E+00 -0.12067207015E+04  0.12067207015E+04  0.25500000920E-02 0. -1.
    10030    2    1    2    0    0  0.00000000000E+00  0.00000000000E+00 -0.28216716360E+02  0.23852246866E+04  0.23850577818E+04 0.  0.
        2    1    3    3  502    0  0.73530135490E+03  0.93881081686E+03 -0.45513692885E+01  0.11924992861E+04  0.25500000920E-02 0. -1.
       -2    1    3    3    0  502 -0.73530135490E+03 -0.93881081686E+03 -0.23665347072E+02  0.11927254005E+04  0.25500000920E-02 0.  1.
</event>
<event>
 5   0  0.6104486E-06  0.2512222E+04  0.7818609E-02  0.8398644E-01
       -1   -1    0    0    0  501  0.00000000000E+00  0.00000000000E+00  0.12986667739E+04  0.12986667739E+04  0.50400001928E-02 0. -1.
        1   -1    0    0  501    0  0.00000000000E+00  0.00000000000E+00 -0.12149494934E+04  0.12149494934E+04  0.50400001928E-02 0.  1.
    10030    2    1    2    0    0  0.00000000000E+00  0.00000000000E+00  0.83717280509E+02  0.25136162673E+04  0.25122217570E+04 0.  0.
        2    1    3    3  502    0 -0.10914288503E+04 -0.52290491841E+03  0.37844996823E+03  0.12680184807E+04  0.25500000920E-02 0.  1.
       -2    1    3    3    0  502  0.10914288503E+04  0.52290491841E+03 -0.29473268773E+03  0.12455977867E+04  0.25500000920E-02 0. -1.
</event>
<event>
 5   0  0.1468512E-05  0.2532990E+04  0.7818609E-02  0.8391326E-01
        2   -1    0    0  501    0  0.00000000000E+00  0.00000000000E+00  0.17774166560E+04  0.17774166560E+04  0.25500000920E-02 0. -1.
       -2   -1    0    0    0  501  0.00000000000E+00  0.00000000000E+00 -0.90243862422E+03  0.90243862422E+03  0.25500000920E-02 0.  1.
    10030    2    1    2    0    0  0.00000000000E+00  0.00000000000E+00  0.87497803180E+03  0.26798552802E+04  0.25329898869E+04 0.  0.
        4    1    3    3  502    0  0.50005143461E+03  0.77619112201E+03 -0.47965529810E+03  0.10404782136E+04  0.12699999809E+01 0.  1.
       -4    1    3    3    0  502 -0.50005143461E+03 -0.77619112201E+03  0.13546333299E+04  0.16393770666E+04  0.12699999809E+01 0. -1.
</event>
<event>
 5   0  0.1468512E-05  0.2496922E+04  0.7818609E-02  0.8404083E-01
       -2   -1    0    0    0  501  0.00000000000E+00  0.00000000000E+00  0.77421893937E+03  0.77421893937E+03  0.25500000920E-02 0.  1.
        2   -1    0    0  501    0  0.00000000000E+00  0.00000000000E+00 -0.20131971120E+04  0.20131971120E+04  0.25500000920E-02 0. -1.
    10030    2    1    2    0    0  0.00000000000E+00  0.00000000000E+00 -0.12389781726E+04  0.27874160514E+04  0.24969223719E+04 0.  0.
        4    1    3    3  502    0  0.10401169475E+04  0.20031940041E+03 -0.13571889384E+04  0.17216081303E+04  0.12699999809E+01 0. -1.
       -4    1    3    3    0  502 -0.10401169475E+04 -0.20031940041E+03  0.11821076579E+03  0.10658079211E+04  0.12699999809E+01 0.  1.
</event>
<event>
 5   0  0.6290861E-06  0.2512586E+04  0.7818609E-02  0.8398515E-01
       -1   -1    0    0    0  501  0.00000000000E+00  0.00000000000E+00  0.98904155870E+03  0.98904155872E+03  0.50400001928E-02 0. -1.
        1   -1    0    0  501    0  0.00000000000E+00  0.00000000000E+00 -0.15957591402E+04  0.15957591402E+04  0.50400001928E-02 0.  1.
    10030    2    1    2    0    0  0.00000000000E+00  0.00000000000E+00 -0.60671758149E+03  0.25848006989E+04  0.25125860044E+04 0.  0.
        1    1    3    3  502    0  0.11200840197E+04 -0.20701649647E+03  0.24180421946E+03  0.11644369118E+04  0.50400001928E-02 0. -1.
       -1    1    3    3    0  502 -0.11200840197E+04  0.20701649647E+03 -0.84852180095E+03  0.14203637871E+04  0.50400001928E-02 0.  1.
</event>
<event>
 5   0  0.6105353E-06  0.2485856E+04  0.7818609E-02  0.8408042E-01
        1   -1    0    0  501    0  0.00000000000E+00  0.00000000000E+00  0.17091509327E+04  0.17091509327E+04  0.50400001928E-02 0.  1.
       -1   -1    0    0    0  501  0.00000000000E+00  0.00000000000E+00 -0.90388125648E+03  0.90388125649E+03  0.50400001928E-02 0. -1.
    10030    2    1    2    0    0  0.00000000000E+00  0.00000000000E+00  0.80526967625E+03  0.26130321892E+04  0.24858555812E+04 0.  0.
        3    1    3    3  502    0  0.63347564934E+03  0.13655341278E+03  0.15175244174E+04  0.16500965427E+04  0.10100000352E+00 0.  1.
       -3    1    3    3    0  502 -0.63347564934E+03 -0.13655341278E+03 -0.71225474112E+03  0.96293564649E+03  0.10100000352E+00 0. -1.
</event>
<event>
 5   0  0.1501947E-05  0.2276624E+04  0.7818609E-02  0.8487195E-01
       -2   -1    0    0    0  501  0.00000000000E+00  0.00000000000E+00  0.55498431228E+03  0.55498431228E+03  0.25500000920E-02 0. -1.
        2   -1    0    0  501    0  0.00000000000E+00  0.00000000000E+00 -0.23347583412E+04  0.23347583412E+04  0.25500000920E-02 0.  1.
    10030    2    1    2    0    0  0.00000000000E+00  0.00000000000E+00 -0.17797740290E+04  0.28897426535E+04  0.22766240378E+04 0.  0.
        3    1    3    3  502    0 -0.38820302527E+03  0.49521128233E+03  0.31416513001E+03  0.70330330732E+03  0.10100000352E+00 0. -1.
       -3    1    3    3    0  502  0.38820302527E+03 -0.49521128233E+03 -0.20939391590E+04  0.21864393462E+04  0.10100000352E+00 0.  1.
</event>
<event>
 5   0  0.6477703E-06  0.2495975E+04  0.7818609E-02  0.8404421E-01
        1   -1    0    0  501    0  0.00000000000E+00  0.00000000000E+00  0.14436734386E+04  0.14436734386E+04  0.50400001928E-02 0. -1.
       -1   -1    0    0    0  501  0.00000000000E+00  0.00000000000E+00 -0.10788263513E+04  0.10788263513E+04  0.50400001928E-02 0.  1.
    10030    2    1    2    0    0  0.00000000000E+00  0.00000000000E+00  0.36484708730E+03  0.25224997898E+04  0.24959751186E+04 0.  0.
        5    1    3    3  502    0  0.85240052462E+03 -0.38188469453E+03  0.10188834686E+04  0.13822330437E+04  0.46999998093E+01 0. -1.
       -5    1    3    3    0  502 -0.85240052462E+03  0.38188469453E+03 -0.65403638134E+03  0.11402667462E+04  0.46999998093E+01 0.  1.
</event>
<event>
 5   0  0.6346420E-06  0.2493350E+04  0.7818609E-02  0.8405358E-01
       -1   -1    0    0    0  501  0.00000000000E+00  0.00000000000E+00  0.30718118057E+04  0.30718118057E+04  0.50400001928E-02 0. -1.
        1   -1    0    0  501    0  0.00000000000E+00  0.00000000000E+00 -0.50595518640E+03  0.50595518643E+03  0.50400001928E-02 0.  1.
    10030    2    1    2    0    0  0.00000000000E+00  0.00000000000E+00  0.25658566193E+04  0.35777669921E+04  0.24933504485E+04 0.  0.
        4    1    3    3  502    0 -0.10287509966E+03 -0.12344264410E+04  0.14848683713E+04  0.19337082555E+04  0.12699999809E+01 0. -1.
       -4    1    3    3    0  502  0.10287509966E+03  0.12344264410E+04  0.10809882480E+04  0.16440587367E+04  0.12699999809E+01 0.  1.
</event>
<event>
 5   0  0.1468512E-05  0.2514482E+04  0.7818609E-02  0.8397844E-01
        2   -1    0    0  501    0  0.00000000000E+00  0.00000000000E+00  0.19118377159E+04  0.19118377159E+04  0.25500000920E-02 0. -1.
       -2   -1    0    0    0  501  0.00000000000E+00  0.00000000000E+00 -0.82677285521E+03  0.82677285521E+03  0.25500000920E-02 0.  1.
    10030    2    1    2    0    0  0.00000000000E+00  0.00000000000E+00  0.10850648607E+04  0.27386105712E+04  0.25144824733E+04 0.  0.
        4    1    3    3  502    0 -0.84122649371E+03  0.54291343103E+02 -0.47337085101E+03  0.96679425895E+03  0.12699999809E+01 0.  1.
       -4    1    3    3    0  502  0.84122649371E+03 -0.54291343103E+02  0.15584357117E+04  0.17718163122E+04  0.12699999809E+01 0. -1.
</event>
<event>
 5   0  0.1572732E-05  0.2372254E+04  0.7818609E-02  0.8449965E-01
       -2   -1    0    0    0  501  0.00000000000E+00  0.00000000000E+00  0.65108491787E+03  0.65108491788E+03  0.25500000920E-02 0.  1.
        2   -1    0    0  501    0  0.00000000000E+00  0.00000000000E+00 -0.21608512716E+04  0.21608512716E+04  0.25500000920E-02 0. -1.
    10030    2    1    2    0    0  0.00000000000E+00  0.00000000000E+00 -0.15097663537E+04  0.28119361895E+04  0.23722543478E+04 0.  0.
        1    1    3    3  502    0  0.23687666311E+03  0.30453282320E+03 -0.20843962807E+04  0.21198015588E+04  0.50400001928E-02 0. -1.
       -1    1    3    3    0  502 -0.23687666311E+03 -0.30453282320E+03  0.57462992696E+03  0.69213463063E+03  0.50400001928E-02 0.  1.
</event>
<event>
 5   0  0.6104486E-06  0.2521402E+04  0.7818609E-02  0.8395400E-01
       -1   -1    0    0    0  501  0.00000000000E+00  0.00000000000E+00  0.15552730748E+04  0.15552730748E+04  0.50400001928E-02 0. -1.
        1   -1    0    0  501    0  0.00000000000E+00  0.00000000000E+00 -0.10219217804E+04  0.10219217805E+04  0.50400001928E-02 0.  1.
    10030    2    1    2    0    0  0.00000000000E+00  0.00000000000E+00  0.53335129434E+03  0.25771948553E+04  0.25214023318E+04 0.  0.
        2    1    3    3  502    0 -0.45630028098E+03 -0.65904336902E+03  0.12612532189E+04  0.14944255722E+04  0.25500000920E-02 0. -1.
       -2    1    3    3    0  502  0.45630028098E+03  0.65904336902E+03 -0.72790192452E+03  0.10827692831E+04  0.25500000920E-02 0.  1.
</event>
<event>
 5   0  0.1526824E-05  0.2493854E+04  0.7818609E-02  0.8405178E-01
       -2   -1    0    0    0  501  0.00000000000E+00  0.00000000000E+00  0.15945996091E+04  0.15945996091E+04  0.25500000920E-02 0. -1.
        2   -1    0    0  501    0  0.00000000000E+00  0.00000000000E+00 -0.97505795220E+03  0.97505795220E+03  0.25500000920E-02 0.  1.
    10030    2    1    2    0    0  0.00000000000E+00  0.00000000000E+00  0.61954165695E+03  0.25696575614E+04  0.24938540691E+04 0.  0.
        2    1    3    3  502    0  0.29733528224E+03 -0.25866719927E+03  0.15287386033E+04  0.15787205919E+04  0.25500000920E-02 0. -1.
       -2    1    3    3    0  502 -0.29733528224E+03  0.25866719927E+03 -0.90919694639E+03  0.99093696942E+03  0.25500000920E-02 0.  1.
</event>
<event>
 5   0  0.1572732E-05  0.2495171E+04  0.7818609E-02  0.8404708E-01
       -2   -1    0    0    0  501  0.00000000000E+00  0.00000000000E+00  0.11399197046E+04  0.11399197046E+04  0.25500000920E-02 0. -1.
        2   -1    0    0  501    0  0.00000000000E+00  0.00000000000E+00 -0.13654203381E+04  0.13654203381E+04  0.25500000920E-02 0.  1.
    10030    2    1    2    0    0  0.00000000000E+00  0.00000000000E+00 -0.22550063346E+03  0.25053400427E+04  0.24951709749E+04 0.  0.
        1    1    3    3  502    0 -0.39560152934E+02 -0.12410881148E+04  0.85926708814E+01  0.12417481824E+04  0.50400001928E-02 0.  1.
       -1    1    3    3    0  502  0.39560152934E+02  0.12410881148E+04 -0.23409330434E+03  0.12635918603E+04  0.50400001928E-02 0. -1.
</event>
<event>
 5   0  0.1501947E-05  0.2469621E+04  0.7818609E-02  0.8413889E-01
        2   -1    0    0  501    0  0.00000000000E+00  0.00000000000E+00  0.12156460289E+04  0.12156460289E+04  0.25500000920E-02 0.  1.
       -2   -1    0    0    0  501  0.00000000000E+00  0.00000000000E+00 -0.12542769579E+04  0.12542769579E+04  0.25500000920E-02 0. -1.
    10030    2    1    2    0    0  0.00000000000E+00  0.00000000000E+00 -0.38630928923E+02  0.24699229868E+04  0.24696208640E+04 0.  0.
        3    1    3    3  502    0  0.10348011953E+04 -0.13141944739E+03 -0.68020808481E+03  0.12452982108E+04  0.10100000352E+00 0.  1.
       -3    1    3    3    0  502 -0.10348011953E+04  0.13141944739E+03  0.64157715589E+03  0.12246247760E+04  0.10100000352E+00 0. -1.
</event>
<event>
 5   0  0.1526824E-05  0.2500226E+04  0.7818609E-02  0.8402905E-01
        2   -1    0    0  501    0  0.00000000000E+00  0.00000000000E+00  0.98027788759E+03  0.98027788760E+03  0.25500000920E-02 0. -1.
       -2   -1    0    0    0  501  0.00000000000E+00  0.00000000000E+00 -0.15942235838E+04  0.15942235838E+04  0.25500000920E-02 0.  1.
    10030    2    1    2    0    0  0.00000000000E+00  0.00000000000E+00 -0.61394569623E+03  0.25745014714E+04  0.25002256915E+04 0.  0.
        2    1    3    3  502    0  0.50824181901E+03  0.92246803911E+03 -0.10004219555E+04  0.14526187107E+04  0.25500000920E-02 0.  1.
       -2    1    3    3    0  502 -0.50824181901E+03 -0.92246803911E+03  0.38647625925E+03  0.11218827607E+04  0.25500000920E-02 0. -1.
</event>
<event>
 5   0  0.6477703E-06  0.2331803E+04  0.7818609E-02  0.8465486E-01
       -1   -1    0    0    0  501  0.00000000000E+00  0.00000000000E+00  0.97501322494E+03  0.97501322496E+03  0.50400001928E-02 0. -1.
        1   -1    0    0  501    0  0.00000000000E+00  0.00000000000E+00 -0.13941614043E+04  0.13941614043E+04  0.50400001928E-02 0.  1.
    10030    2    1    2    0    0  0.00000000000E+00  0.00000000000E+00 -0.41914817931E+03  0.23691746292E+04  0.23318025704E+04 0.  0.
        5    1    3    3  502    0 -0.64575861382E+03  0.74466659438E+03 -0.84226714544E+03  0.12965217154E+04  0.46999998093E+01 0.  1.
       -5    1    3    3    0  502  0.64575861382E+03 -0.74466659438E+03  0.42311896613E+03  0.10726529139E+04  0.46999998093E+01 0. -1.
</event>
<event>
 5   0  0.1468512E-05  0.2551388E+04  0.7818609E-02  0.8384904E-01
        2   -1    0    0  501    0  0.00000000000E+00  0.00000000000E+00  0.21018299107E+04  0.21018299107E+04  0.25500000920E-02 0.  1.
       -2   -1    0    0    0  501  0.00000000000E+00  0.00000000000E+00 -0.77427533451E+03  0.77427533451E+03  0.25500000920E-02 0. -1.
    10030    2    1    2    0    0  0.00000000000E+00  0.00000000000E+00  0.13275545762E+04  0.28761052452E+04  0.25513879024E+04 0.  0.
        4    1    3    3  502    0 -0.11240312323E+04  0.46829077450E+03  0.23504224955E+03  0.12401568177E+04  0.12699999809E+01 0. -1.
       -4    1    3    3    0  502  0.11240312323E+04 -0.46829077450E+03  0.10925123266E+04  0.16359484275E+04  0.12699999809E+01 0.  1.
</event>
<event>
 5   0  0.6105353E-06  0.2520137E+04  0.7818609E-02  0.8395846E-01
       -1   -1    0    0    0  501  0.00000000000E+00  0.00000000000E+00  0.79338217123E+03  0.79338217125E+03  0.50400001928E-02 0.  1.
        1   -1    0    0  501    0  0.00000000000E+00  0.00000000000E+00 -0.20012711876E+04  0.20012711876E+04  0.50400001928E-02 0. -1.
    10030    2    1    2    0    0  0.00000000000E+00  0.00000000000E+00 -0.12078890164E+04  0.27946533589E+04  0.25201372027E+04 0.  0.
        3    1    3    3  502    0 -0.57416083423E+03  0.34125465835E+03  0.58092813278E+03  0.88520783496E+03  0.10100000352E+00 0.  1.
       -3    1    3    3    0  502  0.57416083423E+03 -0.34125465835E+03 -0.17888171492E+04  0.19094455239E+04  0.10100000352E+00 0. -1.
</event>
<event>
 5   0  0.6105353E-06  0.2479381E+04  0.7818609E-02  0.8410368E-01
       -1   -1    0    0    0  501  0.00000000000E+00  0.00000000000E+00  0.13424402122E+04  0.13424402122E+04  0.50400001928E-02 0.  1.
        1   -1    0    0  501    0  0.00000000000E+00  0.00000000000E+00 -0.11448049453E+04  0.11448049453E+04  0.50400001928E-02 0. -1.
    10030    2    1    2    0    0  0.00000000000E+00  0.00000000000E+00  0.19763526684E+03  0.24872451575E+04  0.24793807241E+04 0.  0.
        3    1    3    3  502    0 -0.24704848346E+03 -0.10390474212E+04  0.73024220136E+03  0.12937952618E+04  0.10100000352E+00 0.  1.
       -3    1    3    3    0  502  0.24704848346E+03  0.10390474212E+04 -0.53260693453E+03  0.11934498957E+04  0.10100000352E+00 0. -1.
</event>
<event>
 5   0  0.1501947E-05  0.2512786E+04  0.7818609E-02  0.8398444E-01
       -2   -1    0    0    0  501  0.00000000000E+00  0.00000000000E+00  0.85474344342E+03  0.85474344342E+03  0.25500000920E-02 0.  1.
        2   -1    0    0  501    0  0.00000000000E+00  0.00000000000E+00 -0.18467809887E+04  0.18467809888E+04  0.25500000920E-02 0. -1.
    10030    2    1    2    0    0  0.00000000000E+00  0.00000000000E+00 -0.99203754533E+03  0.27015244322E+04  0.25127864546E+04 0.  0.
        3    1    3    3  502    0 -0.49875959732E+03  0.56511125369E+03 -0.15767123720E+04  0.17476080165E+04  0.10100000352E+00 0. -1.
       -3    1    3    3    0  502  0.49875959732E+03 -0.56511125369E+03  0.58467482669E+03  0.95391641569E+03  0.10100000352E+00 0.  1.
</event>
<event>
 5   0  0.5164625E-06  0.2395748E+04  0.7818609E-02  0.8441097E-01
        3   -1    0    0  501    0  0.00000000000E+00  0.00000000000E+00  0.59219253231E+03  0.59219254092E+03  0.10100000352E+00 0. -1.
       -3   -1    0    0    0  501  0.00000000000E+00  0.00000000000E+00 -0.24230340911E+04  0.24230340932E+04  0.10100000352E+00 0.  1.
    10030    2    1    2    0    0  0.00000000000E+00  0.00000000000E+00 -0.18308415587E+04  0.30152266341E+04  0.23957484930E+04 0.  0.
        3    1    3    3  502    0 -0.48170127735E+03  0.27116943771E+03  0.42206718926E+03  0.69549242052E+03  0.10100000352E+00 0. -1.
       -3    1    3    3    0  502  0.48170127735E+03 -0.27116943771E+03 -0.22529087480E+04  0.23197342136E+04  0.10100000352E+00 0.  1.
</event>
<event>
 5   0  0.6105353E-06  0.2498350E+04  0.7818609E-02  0.8403574E-01
       -1   -1    0    0    0  501  0.00000000000E+00  0.00000000000E+00  0.76941866261E+03  0.76941866262E+03  0.50400001928E-02 0. -1.
        1   -1    0    0  501    0  0.00000000000E+00  0.00000000000E+00 -0.20280736973E+04  0.20280736973E+04  0.50400001928E-02 0.  1.
    10030    2    1    2    0    0  0.00000000000E+00  0.00000000000E+00 -0.12586550347E+04  0.27974923599E+04  0.24983496568E+04 0.  0.
        3    1    3    3  502    0  0.11731069297E+04 -0.27052275263E+03 -0.10025127613E+04  0.15666506550E+04  0.10100000352E+00 0. -1.
       -3    1    3    3    0  502 -0.11731069297E+04  0.27052275263E+03 -0.25614227341E+03  0.12308417049E+04  0.10100000352E+00 0.  1.
</event>
<event>
 5   0  0.6346420E-06  0.2459561E+04  0.7818609E-02  0.8417536E-01
       -1   -1    0    0    0  501  0.00000000000E+00  0.00000000000E+00  0.92796277991E+03  0.92796277992E+03  0.50400001928E-02 0.  1.
        1   -1    0    0  501    0  0.00000000000E+00  0.00000000000E+00 -0.16297631688E+04  0.16297631688E+04  0.50400001928E-02 0. -1.
    10030    2    1    2    0    0  0.00000000000E+00  0.00000000000E+00 -0.70180038886E+03  0.25577259487E+04  0.24595605792E+04 0.  0.
        4    1    3    3  502    0 -0.19736538646E+03 -0.69467197071E+02  0.90931631961E+03  0.93307907985E+03  0.12699999809E+01 0.  1.
       -4    1    3    3    0  502  0.19736538646E+03  0.69467197071E+02 -0.16111167085E+04  0.16246468688E+04  0.12699999809E+01 0. -1.
</event>
<event>
 5   0  0.6477703E-06  0.2569453E+04  0.7818609E-02  0.8378652E-01
       -1   -1    0    0    0  501  0.00000000000E+00  0.00000000000E+00  0.10820155290E+04  0.10820155290E+04  0.50400001928E-02 0.  1.
        1   -1    0    0  501    0  0.00000000000E+00  0.00000000000E+00 -0.15254149900E+04  0.15254149900E+04  0.50400001928E-02 0. -1.
    10030    2    1    2    0    0  0.00000000000E+00  0.00000000000E+00 -0.44339946093E+03  0.26074305190E+04  0.25694534106E+04 0.  0.
        5    1    3    3  502    0  0.61657672930E+03  0.59541823825E+03  0.74942473494E+03  0.11385733463E+04  0.46999998093E+01 0.  1.
       -5    1    3    3    0  502 -0.61657672930E+03 -0.59541823825E+03 -0.11928241959E+04  0.14688571727E+04  0.46999998093E+01 0. -1.
</event>
<event>
 5   0  0.6346420E-06  0.2506879E+04  0.7818609E-02  0.8400539E-01
       -1   -1    0    0    0  501  0.00000000000E+00  0.00000000000E+00  0.10556693692E+04  0.10556693693E+04  0.50400001928E-02 0. -1.
        1   -1    0    0  501    0  0.00000000000E+00  0.00000000000E+00 -0.14882604690E+04  0.14882604690E+04  0.50400001928E-02 0.  1.
    10030    2    1    2    0    0  0.00000000000E+00  0.00000000000E+00 -0.43259109976E+03  0.25439298383E+04  0.25068793275E+04 0.  0.
        4    1    3    3  502    0  0.11255210110E+04 -0.32603690526E+03 -0.66785735557E+03  0.13487522641E+04  0.12699999809E+01 0. -1.
       -4    1    3    3    0  502 -0.11255210110E+04  0.32603690526E+03  0.23526625581E+03  0.11951775741E+04  0.12699999809E+01 0.  1.
</event>
<event>
 5   0  0.1501947E-05  0.2515878E+04  0.7818609E-02  0.8397351E-01
       -2   -1    0    0    0  501  0.00000000000E+00  0.00000000000E+00  0.10860411237E+04  0.10860411237E+04  0.25500000920E-02 0. -1.
        2   -1    0    0  501    0  0.00000000000E+00  0.00000000000E+00 -0.14570449935E+04  0.14570449935E+04  0.25500000920E-02 0.  1.
    10030    2    1    2    0    0  0.00000000000E+00  0.00000000000E+00 -0.37100386977E+03  0.25430861172E+04  0.25158782021E+04 0.  0.
        3    1    3    3  502    0 -0.66734017025E+03  0.10651360610E+04 -0.13442788281E+03  0.12640920050E+04  0.10100000352E+00 0. -1.
       -3    1    3    3    0  502  0.66734017025E+03 -0.10651360610E+04 -0.23657598696E+03  0.12789941122E+04  0.10100000352E+00 0.  1.
</event>
<event>
 5   0  0.6290861E-06  0.2510416E+04  0.7818609E-02  0.8399284E-01
        1   -1    0    0  501    0  0.00000000000E+00  0.00000000000E+00  0.10995614875E+04  0.10995614875E+04  0.50400001928E-02 0. -1.
       -1   -1    0    0    0  501  0.00000000000E+00  0.00000000000E+00 -0.14328866529E+04  0.14328866529E+04  0.50400001928E-02 0.  1.
    10030    2    1    2    0    0  0.00000000000E+00  0.00000000000E+00 -0.33332516546E+03  0.25324481404E+04  0.25104158854E+04 0.  0.
        1    1    3    3  502    0 -0.17753808560E+03 -0.11988246813E+04 -0.49640530681E+03  0.13096253728E+04  0.50400001928E-02 0.  1.
       -1    1    3    3    0  502  0.17753808560E+03  0.11988246813E+04  0.16308014136E+03  0.12228227676E+04  0.50400001928E-02 0. -1.
</event>
<event>
 5   0  0.1501947E-05  0.2485139E+04  0.7818609E-02  0.8408299E-01
        2   -1    0    0  501    0  0.00000000000E+00  0.00000000000E+00  0.83866251072E+03  0.83866251072E+03  0.25500000920E-02 0. -1.
       -2   -1    0    0    0  501  0.00000000000E+00  0.00000000000E+00 -0.18410014636E+04  0.18410014636E+04  0.25500000920E-02 0.  1.
    10030    2    1    2    0    0  0.00000000000E+00  0.00000000000E+00 -0.10023389529E+04  0.26796639744E+04  0.24851389577E+04 0.  0.
        3    1    3    3  502    0  0.82863551748E+03  0.91721379994E+03 -0.63782113981E+03  0.13909470846E+04  0.10100000352E+00 0.  1.
       -3    1    3    3    0  502 -0.82863551748E+03 -0.91721379994E+03 -0.36451781311E+03  0.12887168897E+04  0.10100000352E+00 0. -1.
</event>
<event>
 5   0  0.1468512E-05  0.2612769E+04  0.7818609E-02  0.8363877E-01
       -2   -1    0    0    0  501  0.00000000000E+00  0.00000000000E+00  0.96066871888E+03  0.96066871888E+03  0.25500000920E-02 0.  1.
        2   -1    0    0  501    0  0.00000000000E+00  0.00000000000E+00 -0.17765135745E+04  0.17765135745E+04  0.25500000920E-02 0. -1.
    10030    2    1    2    0    0  0.00000000000E+00  0.00000000000E+00 -0.81584485560E+03  0.27371822934E+04  0.26127694270E+04 0.  0.
        4    1    3    3  502    0  0.59279774871E+03  0.25867317507E+03 -0.15970111092E+04  0.17230110499E+04  0.12699999809E+01 0.  1.
       -4    1    3    3    0  502 -0.59279774871E+03 -0.25867317507E+03  0.78116625359E+03  0.10141712434E+04  0.12699999809E+01 0. -1.
</event>
<event>
 5   0  0.6346420E-06  0.2499887E+04  0.7818609E-02  0.8403026E-01
       -1   -1    0    0    0  501  0.00000000000E+00  0.00000000000E+00  0.18054064358E+04  0.18054064358E+04  0.50400001928E-02 0. -1.
        1   -1    0    0  501    0  0.00000000000E+00  0.00000000000E+00 -0.86537783473E+03  0.86537783474E+03  0.50400001928E-02 0.  1.
    10030    2    1    2    0    0  0.00000000000E+00  0.00000000000E+00  0.94002860104E+03  0.26707842705E+04  0.24998869672E+04 0.  0.
        4    1    3    3  502    0  0.70406279696E+03 -0.74591904317E+03 -0.29314133934E+03  0.10667863417E+04  0.12699999809E+01 0.  1.
       -4    1    3    3    0  502 -0.70406279696E+03  0.74591904317E+03  0.12331699404E+04  0.16039979289E+04  0.12699999809E+01 0. -1.
</event>
<event>
 5   0  0.6290861E-06  0.2505181E+04  0.7818609E-02  0.8401142E-01
        1   -1    0    0  501    0  0.00000000000E+00  0.00000000000E+00  0.14778769371E+04  0.14778769371E+04  0.50400001928E-02 0.  1.
       -1   -1    0    0    0  501  0.00000000000E+00  0.00000000000E+00 -0.10616463428E+04  0.10616463428E+04  0.50400001928E-02 0. -1.
    10030    2    1    2    0    0  0.00000000000E+00  0.00000000000E+00  0.41623059431E+03  0.25395232799E+04  0.25051807483E+04 0.  0.
        1    1    3    3  502    0 -0.12120255438E+03  0.13652199938E+03 -0.10480878210E+04  0.10638685991E+04  0.50400001928E-02 0. -1.
       -1    1    3    3    0  502  0.12120255438E+03 -0.13652199938E+03  0.14643184154E+04  0.14756546808E+04  0.50400001928E-02 0.  1.
</event>
<event>
 5   0  0.1526824E-05  0.2512742E+04  0.7818609E-02  0.8398460E-01
        2   -1    0    0  501    0  0.00000000000E+00  0.00000000000E+00  0.17081827791E+04  0.17081827791E+04  0.25500000920E-02 0. -1.
       -2   -1    0    0    0  501  0.00000000000E+00  0.00000000000E+00 -0.92406259657E+03  0.92406259657E+03  0.25500000920E-02 0.  1.
    10030    2    1    2    0    0  0.00000000000E+00  0.00000000000E+00  0.78412018249E+03  0.26322453756E+04  0.25127417808E+04 0.  0.
        2    1    3    3  502    0 -0.53732571114E+03 -0.11306579301E+04  0.28040022538E+03  0.12828603046E+04  0.25500000920E-02 0.  1.
       -2    1    3    3    0  502  0.53732571114E+03  0.11306579301E+04  0.50371995711E+03  0.13493850710E+04  0.25500000920E-02 0. -1.
</event>
<event>
 5   0  0.1501947E-05  0.2502165E+04  0.7818609E-02  0.8402215E-01
       -2   -1    0    0    0  501  0.00000000000E+00  0.00000000000E+00  0.11407034762E+04  0.11407034762E+04  0.25500000920E-02 0. -1.
        2   -1    0    0  501    0  0.00000000000E+00  0.00000000000E+00 -0.13721418287E+04  0.13721418287E+04  0.25500000920E-02 0.  1.
    10030    2    1    2    0    0  0.00000000000E+00  0.00000000000E+00 -0.23143835251E+03  0.25128453048E+04  0.25021646259E+04 0.  0.
        3    1    3    3  502    0 -0.42978365002E+03 -0.10583698362E+03  0.10594430631E+04  0.11481877316E+04  0.10100000352E+00 0. -1.
       -3    1    3    3    0  502  0.42978365002E+03  0.10583698362E+03 -0.12908814156E+04  0.13646575732E+04  0.10100000352E+00 0.  1.
</event>
<event>
 5   0  0.6346420E-06  0.2500170E+04  0.7818609E-02  0.8402925E-01
       -1   -1    0    0    0  501  0.00000000000E+00  0.00000000000E+00  0.71522688360E+03  0.71522688362E+03  0.50400001928E-02 0. -1.
        1   -1    0    0  501    0  0.00000000000E+00  0.00000000000E+00 -0.21849189165E+04  0.21849189165E+04  0.50400001928E-02 0.  1.
    10030    2    1    2    0    0  0.00000000000E+00  0.00000000000E+00 -0.14696920329E+04  0.29001458002E+04  0.25001701923E+04 0.  0.
        4    1    3    3  502    0  0.12418931551E+03  0.65831809403E+03 -0.19591081598E+04  0.20704859559E+04  0.12699999809E+01 0.  1.
       -4    1    3    3    0  502 -0.12418931551E+03 -0.65831809403E+03  0.48941612685E+03  0.82965984424E+03  0.12699999809E+01 0. -1.
</event>
<event>
 5   0  0.6104486E-06  0.2500337E+04  0.7818609E-02  0.8402865E-01
        1   -1    0    0  501    0  0.00000000000E+00  0.00000000000E+00  0.19098659110E+04  0.19098659110E+04  0.50400001928E-02 0.  1.
       -1   -1    0    0    0  501  0.00000000000E+00  0.00000000000E+00 -0.81834082162E+03  0.81834082164E+03  0.50400001928E-02 0. -1.
    10030    2    1    2    0    0  0.00000000000E+00  0.00000000000E+00  0.10915250894E+04  0.27282067326E+04  0.25003369683E+04 0.  0.
        2    1    3    3  502    0  0.30020259081E+03 -0.60696831637E+03  0.16924360851E+04  0.18228746624E+04  0.25500000920E-02 0.  1.
       -2    1    3    3    0  502 -0.30020259081E+03  0.60696831637E+03 -0.60091099574E+03  0.90533207025E+03  0.25500000920E-02 0. -1.
</event>
<event>
 5   0  0.6290861E-06  0.2495511E+04  0.7818609E-02  0.8404586E-01
       -1   -1    0    0    0  501  0.00000000000E+00  0.00000000000E+00  0.11876832323E+04  0.11876832323E+04  0.50400001928E-02 0.  1.
        1   -1    0    0  501    0  0.00000000000E+00  0.00000000000E+00 -0.13108665662E+04  0.13108665662E+04  0.50400001928E-02 0. -1.
    10030    2    1    2    0    0  0.00000000000E+00  0.00000000000E+00 -0.12318333394E+03  0.24985497985E+04  0.24955113628E+04 0.  0.
        1    1    3    3  502    0  0.11010807400E+04 -0.38425074274E+03  0.38264531647E+03  0.12273731574E+04  0.50400001928E-02 0.  1.
       -1    1    3    3    0  502 -0.11010807400E+04  0.38425074274E+03 -0.50582865041E+03  0.12711766411E+04  0.50400001928E-02 0. -1.
</event>
<event>
 5   0  0.1526824E-05  0.2520392E+04  0.7818609E-02  0.8395756E-01
       -2   -1    0    0    0  501  0.00000000000E+00  0.00000000000E+00  0.68646165234E+03  0.68646165234E+03  0.25500000920E-02 0.  1.
        2   -1    0    0  501    0  0.00000000000E+00  0.00000000000E+00 -0.23134496530E+04  0.23134496530E+04  0.25500000920E-02 0. -1.
    10030    2    1    2    0    0  0.00000000000E+00  0.00000000000E+00 -0.16269880006E+04  0.29999113053E+04  0.25203924071E+04 0.  0.
        2    1    3    3  502    0  0.57752759942E+03 -0.11040202662E+04 -0.10383723083E+04  0.16219173614E+04  0.25500000920E-02 0. -1.
       -2    1    3    3    0  502 -0.57752759942E+03  0.11040202662E+04 -0.58861569232E+03  0.13779939440E+04  0.25500000920E-02 0.  1.
</event>
<event>
 5   0  0.6477703E-06  0.2499624E+04  0.7818609E-02  0.8403120E-01
        1   -1    0    0  501    0  0.00000000000E+00  0.00000000000E+00  0.89088350964E+03  0.89088350965E+03  0.50400001928E-02 0. -1.
       -1   -1    0    0    0  501  0.00000000000E+00  0.00000000000E+00 -0.17533492684E+04  0.17533492684E+04  0.50400001928E-02 0.  1.
    10030    2    1    2    0    0  0.00000000000E+00  0.00000000000E+00 -0.86246575874E+03  0.26442327780E+04  0.24996239316E+04 0.  0.
        5    1    3    3  502    0  0.39864098239E+03 -0.70722527869E+03  0.57396369860E+03  0.99425280737E+03  0.46999998093E+01 0. -1.
       -5    1    3    3    0  502 -0.39864098239E+03  0.70722527869E+03 -0.14364294573E+04  0.16499799707E+04  0.46999998093E+01 0.  1.
</event>
<event>
 5   0  0.6105353E-06  0.2479171E+04  0.7818609E-02  0.8410444E-01
        1   -1    0    0  501    0  0.00000000000E+00  0.00000000000E+00  0.20314866922E+04  0.20314866922E+04  0.50400001928E-02 0.  1.
       -1   -1    0    0    0  501  0.00000000000E+00  0.00000000000E+00 -0.75637828259E+03  0.75637828261E+03  0.50400001928E-02 0. -1.
    10030    2    1    2    0    0  0.00000000000E+00  0.00000000000E+00  0.12751084096E+04  0.27878649748E+04  0.24791711642E+04 0.  0.
        3    1    3    3  502    0  0.66241807261E+03  0.54600982845E+03 -0.36802120164E+03  0.93400430981E+03  0.10100000352E+00 0. -1.
       -3    1    3    3    0  502 -0.66241807261E+03 -0.54600982845E+03  0.16431296112E+04  0.18538606650E+04  0.10100000352E+00 0.  1.
</event>
<event>
 5   0  0.1501947E-05  0.2513228E+04  0.7818609E-02  0.8398288E-01
        2   -1    0    0  501    0  0.00000000000E+00  0.00000000000E+00  0.11353591471E+04  0.11353591472E+04  0.25500000920E-02 0. -1.
       -2   -1    0    0    0  501  0.00000000000E+00  0.00000000000E+00 -0.13908183545E+04  0.13908183545E+04  0.25500000920E-02 0.  1.
    10030    2    1    2    0    0  0.00000000000E+00  0.00000000000E+00 -0.25545920739E+03  0.25261775017E+04  0.25132276784E+04 0.  0.
        3    1    3    3  502    0  0.60688798460E+03 -0.32551006224E+03 -0.11842442774E+04  0.13699285913E+04  0.10100000352E+00 0.  1.
       -3    1    3    3    0  502 -0.60688798460E+03  0.32551006224E+03  0.92878506998E+03  0.11562489104E+04  0.10100000352E+00 0. -1.
</event>
<event>
 5   0  0.1501947E-05  0.2494515E+04  0.7818609E-02  0.8404942E-01
        2   -1    0    0  501    0  0.00000000000E+00  0.00000000000E+00  0.20375714223E+04  0.20375714223E+04  0.25500000920E-02 0. -1.
       -2   -1    0    0    0  501  0.00000000000E+00  0.00000000000E+00 -0.76348330302E+03  0.76348330302E+03  0.25500000920E-02 0.  1.
    10030    2    1    2    0    0  0.00000000000E+00  0.00000000000E+00  0.12740881193E+04  0.28010547253E+04  0.24945153915E+04 0.  0.
        3    1    3    3  502    0 -0.29815227590E+03  0.48204699517E+02  0.19958899349E+04  0.20186121755E+04  0.10100000352E+00 0. -1.
       -3    1    3    3    0  502  0.29815227590E+03 -0.48204699517E+02 -0.72180181557E+03  0.78244254986E+03  0.10100000352E+00 0.  1.
</event>
<event>
 5   0  0.6290861E-06  0.2488269E+04  0.7818609E-02  0.8407177E-01
        1   -1    0    0  501    0  0.00000000000E+00  0.00000000000E+00  0.22140263350E+04  0.22140263350E+04  0.50400001928E-02 0. -1.
       -1   -1    0    0    0  501  0.00000000000E+00  0.00000000000E+00 -0.69912020025E+03  0.69912020027E+03  0.50400001928E-02 0.  1.
    10030    2    1    2    0    0  0.00000000000E+00  0.00000000000E+00  0.15149061348E+04  0.29131465353E+04  0.24882689040E+04 0.  0.
        1    1    3    3  502    0  0.93616012498E+03  0.39524615494E+03 -0.82927930371E+02  0.10195549736E+04  0.50400001928E-02 0.  1.
       -1    1    3    3    0  502 -0.93616012498E+03 -0.39524615494E+03  0.15978340651E+04  0.18935915616E+04  0.50400001928E-02 0. -1.
</event>
<event>
 5   0  0.1572732E-05  0.2472104E+04  0.7818609E-02  0.8412992E-01
       -2   -1    0    0    0  501  0.00000000000E+00  0.00000000000E+00  0.12181752759E+04  0.12181752759E+04  0.25500000920E-02 0.  1.
        2   -1    0    0  501    0  0.00000000000E+00  0.00000000000E+00 -0.12541908465E+04  0.12541908465E+04  0.25500000920E-02 0. -1.
    10030    2    1    2    0    0  0.00000000000E+00  0.00000000000E+00 -0.36015570587E+02  0.24723661225E+04  0.24721037847E+04 0.  0.
        1    1    3    3  502    0 -0.89901063234E+03  0.84275402831E+03  0.78800272035E+02  0.12347728342E+04  0.50400001928E-02 0. -1.
       -1    1    3    3    0  502  0.89901063234E+03 -0.84275402831E+03 -0.11481584262E+03  0.12375932882E+04  0.50400001928E-02 0.  1.
</event>
<event>
 5   0  0.6104486E-06  0.2510776E+04  0.7818609E-02  0.8399157E-01
        1   -1    0    0  501    0  0.00000000000E+00  0.00000000000E+00  0.11880773069E+04  0.11880773069E+04  0.50400001928E-02 0. -1.
       -1   -1    0    0    0  501  0.00000000000E+00  0.00000000000E+00 -0.13265119357E+04  0.13265119357E+04  0.50400001928E-02 0.  1.
    10030    2    1    2    0    0  0.00000000000E+00  0.00000000000E+00 -0.13843462884E+03  0.25145892426E+04  0.25107757591E+04 0.  0.
        2    1    3    3  502    0 -0.58287370976E+03 -0.10649627891E+04  0.25081650024E+03  0.12396759337E+04  0.25500000920E-02 0. -1.
       -2    1    3    3    0  502  0.58287370976E+03  0.10649627891E+04 -0.38925112908E+03  0.12749133089E+04  0.25500000920E-02 0.  1.
</event>
<event>
 5   0  0.6290861E-06  0.2499437E+04  0.7818609E-02  0.8403186E-01
        1   -1    0    0  501    0  0.00000000000E+00  0.00000000000E+00  0.13481983132E+04  0.13481983132E+04  0.50400001928E-02 0. -1.
       -1   -1    0    0    0  501  0.00000000000E+00  0.00000000000E+00 -0.11584319755E+04  0.11584319755E+04  0.50400001928E-02 0.  1.
    10030    2    1    2    0    0  0.00000000000E+00  0.00000000000E+00  0.18976633775E+03  0.25066302887E+04  0.24994367648E+04 0.  0.
        1    1    3    3  502    0  0.29042934399E+03  0.23586380953E+03 -0.11009475067E+04  0.11627838806E+04  0.50400001928E-02 0.  1.
       -1    1    3    3    0  502 -0.29042934399E+03 -0.23586380953E+03  0.12907138444E+04  0.13438464081E+04  0.50400001928E-02 0. -1.
</event>
<event>
 5   0  0.6104486E-06  0.2503844E+04  0.7818609E-02  0.8401617E-01
        1   -1    0    0  501    0  0.00000000000E+00  0.00000000000E+00  0.11348495239E+04  0.11348495239E+04  0.50400001928E-02 0. -1.
       -1   -1    0    0    0  501  0.00000000000E+00  0.00000000000E+00 -0.13810723613E+04  0.13810723613E+04  0.50400001928E-02 0.  1.
    10030    2    1    2    0    0  0.00000000000E+00  0.00000000000E+00 -0.24622283739E+03  0.25159218852E+04  0.25038444933E+04 0.  0.
        2    1    3    3  502    0  0.30245204064E+03  0.78511214498E+03  0.80841527903E+03  0.11667962892E+04  0.25500000920E-02 0. -1.
       -2    1    3    3    0  502 -0.30245204064E+03 -0.78511214498E+03 -0.10546381164E+04  0.13491255960E+04  0.25500000920E-02 0.  1.
</event>
<event>
 5   0  0.1572732E-05  0.2501163E+04  0.7818609E-02  0.8402571E-01
       -2   -1    0    0    0  501  0.00000000000E+00  0.00000000000E+00  0.12245569983E+04  0.12245569984E+04  0.25500000920E-02 0. -1.
        2   -1    0    0  501    0  0.00000000000E+00  0.00000000000E+00 -0.12771595025E+04  0.12771595025E+04  0.25500000920E-02 0.  1.
    10030    2    1    2    0    0  0.00000000000E+00  0.00000000000E+00 -0.52602504190E+02  0.25017165009E+04  0.25011634148E+04 0.  0.
        1    1    3    3  502    0  0.47919221325E+03  0.33953403264E+03 -0.11306495979E+04  0.12740789025E+04  0.50400001928E-02 0.  1.
       -1    1    3    3    0  502 -0.47919221325E+03 -0.33953403264E+03  0.10780470937E+04  0.12276375984E+04  0.50400001928E-02 0. -1.
</event>
<event>
 5   0  0.6346420E-06  0.2503257E+04  0.7818609E-02  0.8401826E-01
        1   -1    0    0  501    0  0.00000000000E+00  0.00000000000E+00  0.23661291550E+04  0.23661291550E+04  0.50400001928E-02 0.  1.
       -1   -1    0    0    0  501  0.00000000000E+00  0.00000000000E+00 -0.66208297996E+03  0.66208297998E+03  0.50400001928E-02 0. -1.
    10030    2    1    2    0    0  0.00000000000E+00  0.00000000000E+00  0.17040461750E+04  0.30282121350E+04  0.25032569520E+04 0.  0.
        4    1    3    3  502    0  0.28720004553E+03 -0.11844509758E+04  0.11966611587E+04  0.17080420141E+04  0.12699999809E+01 0.  1.
       -4    1    3    3    0  502 -0.28720004553E+03  0.11844509758E+04  0.50738501637E+03  0.13201701209E+04  0.12699999809E+01 0. -1.
</event>
<event>
 5   0  0.6104486E-06  0.2508630E+04  0.7818609E-02  0.8399918E-01
        1   -1    0    0  501    0  0.00000000000E+00  0.00000000000E+00  0.13915518234E+04  0.13915518234E+04  0.50400001928E-02 0.  1.
       -1   -1    0    0    0  501  0.00000000000E+00  0.00000000000E+00 -0.11306123027E+04  0.11306123027E+04  0.50400001928E-02 0. -1.
    10030    2    1    2    0    0  0.00000000000E+00  0.00000000000E+00  0.26093952072E+03  0.25221641261E+04  0.25086295952E+04 0.  0.
        2    1    3    3  502    0 -0.43067096447E+03 -0.11572438698E+04 -0.91207357035E+02  0.12381476631E+04  0.25500000920E-02 0. -1.
       -2    1    3    3    0  502  0.43067096447E+03  0.11572438698E+04  0.35214687776E+03  0.12840164630E+04  0.25500000920E-02 0.  1.
</event>
<event>
 5   0  0.1526824E-05  0.2488685E+04  0.7818609E-02  0.8407028E-01
        2   -1    0    0  501    0  0.00000000000E+00  0.00000000000E+00  0.11770232001E+04  0.11770232001E+04  0.25500000920E-02 0.  1.
       -2   -1    0    0    0  501  0.00000000000E+00  0.00000000000E+00 -0.13155118087E+04  0.13155118087E+04  0.25500000920E-02 0. -1.
    10030    2    1    2    0    0  0.00000000000E+00  0.00000000000E+00 -0.13848860862E+03  0.24925350088E+04  0.24886847280E+04 0.  0.
        2    1    3    3  502    0  0.73965616778E+03 -0.59431398982E+03 -0.87552864415E+03  0.12910657504E+04  0.25500000920E-02 0. -1.
       -2    1    3    3    0  502 -0.73965616778E+03  0.59431398982E+03  0.73704003553E+03  0.12014692585E+04  0.25500000920E-02 0.  1.
</event>
<event>
 5   0  0.6105353E-06  0.2528406E+04  0.7818609E-02  0.8392935E-01
       -1   -1    0    0    0  501  0.00000000000E+00  0.00000000000E+00  0.62440395805E+03  0.62440395807E+03  0.50400001928E-02 0.  1.
        1   -1    0    0  501    0  0.00000000000E+00  0.00000000000E+00 -0.25595763102E+04  0.25595763102E+04  0.50400001928E-02 0. -1.
    10030    2    1    2    0    0  0.00000000000E+00  0.00000000000E+00 -0.19351723521E+04  0.31839802682E+04  0.25284062799E+04 0.  0.
        3    1    3    3  502    0 -0.50585992510E+02 -0.18882617460E+03 -0.25404283747E+04  0.25479385008E+04  0.10100000352E+00 0. -1.
       -3    1    3    3    0  502  0.50585992510E+02  0.18882617460E+03  0.60525602257E+03  0.63604176743E+03  0.10100000352E+00 0.  1.
</event>
<event>
 5   0  0.1550483E-05  0.2515747E+04  0.7818609E-02  0.8397397E-01
        2   -1    0    0  501    0  0.00000000000E+00  0.00000000000E+00  0.21759825002E+04  0.21759825002E+04  0.25500000920E-02 0.  1.
       -2   -1    0    0    0  501  0.00000000000E+00  0.00000000000E+00 -0.72714063690E+03  0.72714063690E+03  0.25500000920E-02 0. -1.
    10030    2    1    2    0    0  0.00000000000E+00  0.00000000000E+00  0.14488418633E+04  0.29031231371E+04  0.25157466495E+04 0.  0.
        5    1    3    3  502    0  0.88133732038E+03 -0.11225617447E+03 -0.30311858036E+03  0.93875443262E+03  0.46999998093E+01 0. -1.
       -5    1    3    3    0  502 -0.88133732038E+03  0.11225617447E+03  0.17519604436E+04  0.19643687044E+04  0.46999998093E+01 0.  1.
</event>
<event>
 5   0  0.6105353E-06  0.2502347E+04  0.7818609E-02  0.8402150E-01
        1   -1    0    0  501    0  0.00000000000E+00  0.00000000000E+00  0.18793851799E+04  0.18793851799E+04  0.50400001928E-02 0. -1.
       -1   -1    0    0    0  501  0.00000000000E+00  0.00000000000E+00 -0.83295098206E+03  0.83295098208E+03  0.50400001928E-02 0.  1.
    10030    2    1    2    0    0  0.00000000000E+00  0.00000000000E+00  0.10464341979E+04  0.27123361620E+04  0.25023474829E+04 0.  0.
        3    1    3    3  502    0 -0.10859986714E+04 -0.82814120766E+01  0.11966199283E+04  0.16159705935E+04  0.10100000352E+00 0. -1.
       -3    1    3    3    0  502  0.10859986714E+04  0.82814120766E+01 -0.15018573044E+03  0.10963655685E+04  0.10100000352E+00 0.  1.
</event>
<event>
 5   0  0.1526824E-05  0.2499873E+04  0.7818609E-02  0.8403031E-01
        2   -1    0    0  501    0  0.00000000000E+00  0.00000000000E+00  0.22170061901E+04  0.22170061901E+04  0.25500000920E-02 0. -1.
       -2   -1    0    0    0  501  0.00000000000E+00  0.00000000000E+00 -0.70470746695E+03  0.70470746696E+03  0.25500000920E-02 0.  1.
    10030    2    1    2    0    0  0.00000000000E+00  0.00000000000E+00  0.15122987232E+04  0.29217136571E+04  0.24998726499E+04 0.  0.
        2    1    3    3  502    0 -0.66434429500E+03  0.47044677581E+03 -0.35241454527E+03  0.88705666273E+03  0.25500000920E-02 0.  1.
       -2    1    3    3    0  502  0.66434429500E+03 -0.47044677581E+03  0.18647132684E+04  0.20346569943E+04  0.25500000920E-02 0. -1.
</event>
<event>
 5   0  0.1526824E-05  0.2280658E+04  0.7818609E-02  0.8485587E-01
        2   -1    0    0  501    0  0.00000000000E+00  0.00000000000E+00  0.75850340205E+03  0.75850340206E+03  0.25500000920E-02 0. -1.
       -2   -1    0    0    0  501  0.00000000000E+00  0.00000000000E+00 -0.17143633951E+04  0.17143633951E+04  0.25500000920E-02 0.  1.
    10030    2    1    2    0    0  0.00000000000E+00  0.00000000000E+00 -0.95585999306E+03  0.24728667972E+04  0.22806582099E+04 0.  0.
        2    1    3    3  502    0 -0.31088318568E+03  0.13955670886E+03  0.70200429114E+03  0.78034252409E+03  0.25500000920E-02 0. -1.
       -2    1    3    3    0  502  0.31088318568E+03 -0.13955670886E+03 -0.16578642842E+04  0.16925242731E+04  0.25500000920E-02 0.  1.
</event>
<event>
 5   0  0.6290861E-06  0.2498649E+04  0.7818609E-02  0.8403467E-01
       -1   -1    0    0    0  501  0.00000000000E+00  0.00000000000E+00  0.13891782989E+04  0.13891782989E+04  0.50400001928E-02 0.  1.
        1   -1    0    0  501    0  0.00000000000E+00  0.00000000000E+00 -0.11235503205E+04  0.11235503205E+04  0.50400001928E-02 0. -1.
    10030    2    1    2    0    0  0.00000000000E+00  0.00000000000E+00  0.26562797836E+03  0.25127286194E+04  0.24986490134E+04 0.  0.
        1    1    3    3  502    0  0.30718992516E+03 -0.56608014914E+03  0.12093597987E+04  0.13701691531E+04  0.50400001928E-02 0.  1.
       -1    1    3    3    0  502 -0.30718992516E+03  0.56608014914E+03 -0.94373182033E+03  0.11425594663E+04  0.50400001928E-02 0. -1.
</event>
<event>
 5   0  0.1501947E-05  0.2514165E+04  0.7818609E-02  0.8397957E-01
       -2   -1    0    0    0  501  0.00000000000E+00  0.00000000000E+00  0.10739822807E+04  0.10739822807E+04  0.25500000920E-02 0.  1.
        2   -1    0    0  501    0  0.00000000000E+00  0.00000000000E+00 -0.14713989771E+04  0.14713989771E+04  0.25500000920E-02 0. -1.
    10030    2    1    2    0    0  0.00000000000E+00  0.00000000000E+00 -0.39741669634E+03  0.25453812578E+04  0.25141650139E+04 0.  0.
        3    1    3    3  502    0  0.25014732538E+03  0.98237196255E+03  0.55391126261E+03  0.11551822602E+04  0.10100000352E+00 0.  1.
       -3    1    3    3    0  502 -0.25014732538E+03 -0.98237196255E+03 -0.95132795895E+03  0.13901989976E+04  0.10100000352E+00 0. -1.
</event>
<event>
 5   0  0.1526824E-05  0.2508111E+04  0.7818609E-02  0.8400102E-01
        2   -1    0    0  501    0  0.00000000000E+00  0.00000000000E+00  0.19996550997E+04  0.19996550997E+04  0.25500000920E-02 0. -1.
       -2   -1    0    0    0  501  0.00000000000E+00  0.00000000000E+00 -0.78646337166E+03  0.78646337167E+03  0.25500000920E-02 0.  1.
    10030    2    1    2    0    0  0.00000000000E+00  0.00000000000E+00  0.12131917280E+04  0.27861184714E+04  0.25081112351E+04 0.  0.
        2    1    3    3  502    0  0.32350576128E+03  0.84572982265E+03 -0.35717867963E+03  0.97339176064E+03  0.25500000920E-02 0.  1.
       -2    1    3    3    0  502 -0.32350576128E+03 -0.84572982265E+03  0.15703704077E+04  0.18127267107E+04  0.25500000920E-02 0. -1.
</event>
<event>
 5   0  0.6105353E-06  0.2520277E+04  0.7818609E-02  0.8395797E-01
        1   -1    0    0  501    0  0.00000000000E+00  0.00000000000E+00  0.11994770227E+04  0.11994770227E+04  0.50400001928E-02 0.  1.
       -1   -1    0    0    0  501  0.00000000000E+00  0.00000000000E+00 -0.13238682943E+04  0.13238682943E+04  0.50400001928E-02 0. -1.
    10030    2    1    2    0    0  0.00000000000E+00  0.00000000000E+00 -0.12439127157E+03  0.25233453170E+04  0.25202774451E+04 0.  0.
        3    1    3    3  502    0 -0.90483658058E+03 -0.29389001516E+03 -0.88954831378E+03  0.13024579806E+04  0.10100000352E+00 0.  1.
       -3    1    3    3    0  502  0.90483658058E+03  0.29389001516E+03  0.76515704221E+03  0.12208873363E+04  0.10100000352E+00 0. -1.
</event>
<event>
 5   0  0.6105353E-06  0.2477507E+04  0.7818609E-02  0.8411043E-01
        1   -1    0    0  501    0  0.00000000000E+00  0.00000000000E+00  0.10820588888E+04  0.10820588888E+04  0.50400001928E-02 0. -1.
       -1   -1    0    0    0  501  0.00000000000E+00  0.00000000000E+00 -0.14181396935E+04  0.14181396935E+04  0.50400001928E-02 0.  1.
    10030    2    1    2    0    0  0.00000000000E+00  0.00000000000E+00 -0.33608080466E+03  0.25001985823E+04  0.24775073448E+04 0.  0.
        3    1    3    3  502    0 -0.50163877572E+03 -0.11281425452E+04 -0.66302434285E+02  0.12364235062E+04  0.10100000352E+00 0. -1.
       -3    1    3    3    0  502  0.50163877572E+03  0.11281425452E+04 -0.26977837037E+03  0.12637750761E+04  0.10100000352E+00 0.  1.
</event>
<event>
 5   0  0.6346420E-06  0.2491539E+04  0.7818609E-02  0.8406006E-01
        1   -1    0    0  501    0  0.00000000000E+00  0.00000000000E+00  0.99072095965E+03  0.99072095967E+03  0.50400001928E-02 0.  1.
       -1   -1    0    0    0  501  0.00000000000E+00  0.00000000000E+00 -0.15664776546E+04  0.15664776546E+04  0.50400001928E-02 0. -1.
    10030    2    1    2    0    0  0.00000000000E+00  0.00000000000E+00 -0.57575669498E+03  0.25571986143E+04  0.24915394802E+04 0.  0.
        4    1    3    3  502    0 -0.12445132808E+04 -0.53214699482E+02 -0.27023456656E+03  0.12746267862E+04  0.12699999809E+01 0.  1.
       -4    1    3    3    0  502  0.12445132808E+04  0.53214699482E+02 -0.30552212843E+03  0.12825718281E+04  0.12699999809E+01 0. -1.
</event>
<event>
 5   0  0.1501947E-05  0.2485107E+04  0.7818609E-02  0.8408311E-01
        2   -1    0    0  501    0  0.00000000000E+00  0.00000000000E+00  0.13091926211E+04  0.13091926211E+04  0.25500000920E-02 0. -1.
       -2   -1    0    0    0  501  0.00000000000E+00  0.00000000000E+00 -0.11793060581E+04  0.11793060581E+04  0.25500000920E-02 0.  1.
    10030    2    1    2    0    0  0.00000000000E+00  0.00000000000E+00  0.12988656306E+03  0.24884986792E+04  0.24851066691E+04 0.  0.
        3    1    3    3  502    0 -0.10411999102E+04  0.22568411055E+03 -0.57538884843E+03  0.12108273650E+04  0.10100000352E+00 0.  1.
       -3    1    3    3    0  502  0.10411999102E+04 -0.22568411055E+03  0.70527541149E+03  0.12776713142E+04  0.10100000352E+00 0. -1.
</event>
<event>
 5   0  0.1526824E-05  0.2502837E+04  0.7818609E-02  0.8401975E-01
       -2   -1    0    0    0  501  0.00000000000E+00  0.00000000000E+00  0.12343378130E+04  0.12343378130E+04  0.25500000920E-02 0.  1.
        2   -1    0    0  501    0  0.00000000000E+00  0.00000000000E+00 -0.12687360052E+04  0.12687360052E+04  0.25500000920E-02 0. -1.
    10030    2    1    2    0    0  0.00000000000E+00  0.00000000000E+00 -0.34398192142E+02  0.25030738182E+04  0.25028374505E+04 0.  0.
        2    1    3    3  502    0  0.59331498284E+03  0.44335214137E+03 -0.10259890759E+04  0.12654000846E+04  0.25500000920E-02 0. -1.
       -2    1    3    3    0  502 -0.59331498284E+03 -0.44335214137E+03  0.99159088377E+03  0.12376737336E+04  0.25500000920E-02 0.  1.
</event>
<event>
 5   0  0.1468512E-05  0.2482879E+04  0.7818609E-02  0.8409110E-01
       -2   -1    0    0    0  501  0.00000000000E+00  0.00000000000E+00  0.58138713760E+03  0.58138713760E+03  0.25500000920E-02 0. -1.
        2   -1    0    0  501    0  0.00000000000E+00  0.00000000000E+00 -0.26508535448E+04  0.26508535448E+04  0.25500000920E-02 0.  1.
    10030    2    1    2    0    0  0.00000000000E+00  0.00000000000E+00 -0.20694664072E+04  0.32322406824E+04  0.24828790986E+04 0.  0.
        4    1    3    3  502    0 -0.68477213734E+02 -0.12258404890E+04 -0.79541042421E+03  0.14628921317E+04  0.12699999809E+01 0. -1.
       -4    1    3    3    0  502  0.68477213734E+02  0.12258404890E+04 -0.12740559830E+04  0.17693485507E+04  0.12699999809E+01 0.  1.
</event>
<event>
 5   0  0.6104486E-06  0.2493700E+04  0.7818609E-02  0.8405233E-01
       -1   -1    0    0    0  501  0.00000000000E+00  0.00000000000E+00  0.74369016699E+03  0.74369016700E+03  0.50400001928E-02 0. -1.
        1   -1    0    0  501    0  0.00000000000E+00  0.00000000000E+00 -0.20904337718E+04  0.20904337718E+04  0.50400001928E-02 0.  1.
    10030    2    1    2    0    0  0.00000000000E+00  0.00000000000E+00 -0.13467436048E+04  0.28341239388E+04  0.24937000949E+04 0.  0.
        2    1    3    3  502    0 -0.10938416984E+04  0.13666473828E+03 -0.13355488451E+04  0.17317210022E+04  0.25500000920E-02 0.  1.
       -2    1    3    3    0  502  0.10938416984E+04 -0.13666473828E+03 -0.11194759731E+02  0.11024029366E+04  0.25500000920E-02 0. -1.
</event>
<event>
 5   0  0.1501947E-05  0.2512617E+04  0.7818609E-02  0.8398504E-01
       -2   -1    0    0    0  501  0.00000000000E+00  0.00000000000E+00  0.10065614260E+04  0.10065614260E+04  0.25500000920E-02 0.  1.
        2   -1    0    0  501    0  0.00000000000E+00  0.00000000000E+00 -0.15680230342E+04  0.15680230342E+04  0.25500000920E-02 0. -1.
    10030    2    1    2    0    0  0.00000000000E+00  0.00000000000E+00 -0.56146160823E+03  0.25745844602E+04  0.25126173615E+04 0.  0.
        3    1    3    3  502    0 -0.87225595721E+03 -0.16164759334E+03 -0.11922491001E+04  0.14860748050E+04  0.10100000352E+00 0. -1.
       -3    1    3    3    0  502  0.87225595721E+03  0.16164759334E+03  0.63078749186E+03  0.10885096552E+04  0.10100000352E+00 0.  1.
</event>
<event>
 5   0  0.1526824E-05  0.2497378E+04  0.7818609E-02  0.8403920E-01
        2   -1    0    0  501    0  0.00000000000E+00  0.00000000000E+00  0.12050004207E+04  0.12050004207E+04  0.25500000920E-02 0. -1.
       -2   -1    0    0    0  501  0.00000000000E+00  0.00000000000E+00 -0.12939618884E+04  0.12939618884E+04  0.25500000920E-02 0.  1.
    10030    2    1    2    0    0  0.00000000000E+00  0.00000000000E+00 -0.88961467619E+02  0.24989623091E+04  0.24973783213E+04 0.  0.
        2    1    3    3  502    0 -0.58656434523E+03  0.11015751120E+04 -0.32337039340E+01  0.12480127865E+04  0.25500000920E-02 0. -1.
       -2    1    3    3    0  502  0.58656434523E+03 -0.11015751120E+04 -0.85727763685E+02  0.12509495226E+04  0.25500000920E-02 0.  1.
</event>
<event>
 5   0  0.6290861E-06  0.2489562E+04  0.7818609E-02  0.8406714E-01
        1   -1    0    0  501    0  0.00000000000E+00  0.00000000000E+00  0.20345517929E+04  0.20345517929E+04  0.50400001928E-02 0. -1.
       -1   -1    0    0    0  501  0.00000000000E+00  0.00000000000E+00 -0.76158258106E+03  0.76158258108E+03  0.50400001928E-02 0.  1.
    10030    2    1    2    0    0  0.00000000000E+00  0.00000000000E+00  0.12729692119E+04  0.27961343740E+04  0.24895615725E+04 0.  0.
        1    1    3    3  502    0  0.19434192549E+03 -0.15060105168E+03 -0.73404005118E+03  0.77412160384E+03  0.50400001928E-02 0.  1.
       -1    1    3    3    0  502 -0.19434192549E+03  0.15060105168E+03  0.20070092630E+04  0.20220127702E+04  0.50400001928E-02 0. -1.
</event>
<event>
 5   0  0.6105353E-06  0.2509468E+04  0.7818609E-02  0.8399620E-01
       -1   -1    0    0    0  501  0.00000000000E+00  0.00000000000E+00  0.11777473337E+04  0.11777473337E+04  0.50400001928E-02 0. -1.
        1   -1    0    0  501    0  0.00000000000E+00  0.00000000000E+00 -0.13367529479E+04  0.13367529479E+04  0.50400001928E-02 0.  1.
    10030    2    1    2    0    0  0.00000000000E+00  0.00000000000E+00 -0.15900561413E+03  0.25145002816E+04  0.25094678482E+04 0.  0.
        3    1    3    3  502    0 -0.82840308888E+03 -0.84136687640E+03  0.34585681045E+03  0.12303523243E+04  0.10100000352E+00 0.  1.
       -3    1    3    3    0  502  0.82840308888E+03  0.84136687640E+03 -0.50486242458E+03  0.12841479573E+04  0.10100000352E+00 0. -1.
</event>
<event>
 5   0  0.6346420E-06  0.2492813E+04  0.7818609E-02  0.8405550E-01
        1   -1    0    0  501    0  0.00000000000E+00  0.00000000000E+00  0.18188991139E+04  0.18188991139E+04  0.50400001928E-02 0. -1.
       -1   -1    0    0    0  501  0.00000000000E+00  0.00000000000E+00 -0.85410437076E+03  0.85410437077E+03  0.50400001928E-02 0.  1.
    10030    2    1    2    0    0  0.00000000000E+00  0.00000000000E+00  0.96479474316E+03  0.26730034847E+04  0.24928134172E+04 0.  0.
        4    1    3    3  502    0  0.11567758073E+04 -0.15754731083E+03  0.14290957473E+02  0.11675432617E+04  0.12699999809E+01 0.  1.
       -4    1    3    3    0  502 -0.11567758073E+04  0.15754731083E+03  0.95050378569E+03  0.15054602230E+04  0.12699999809E+01 0. -1.
</event>
<event>
 5   0  0.6105353E-06  0.2443720E+04  0.7818609E-02  0.8423315E-01
       -1   -1    0    0    0  501  0.00000000000E+00  0.00000000000E+00  0.19076410727E+04  0.19076410727E+04  0.50400001928E-02 0. -1.
        1   -1    0    0  501    0  0.00000000000E+00  0.00000000000E+00 -0.78261140717E+03  0.78261140719E+03  0.50400001928E-02 0.  1.
    10030    2    1    2    0    0  0.00000000000E+00  0.00000000000E+00  0.11250296655E+04  0.26902524799E+04  0.24437198402E+04 0.  0.
        3    1    3    3  502    0 -0.11058124732E+04  0.24592947408E+03  0.58459990069E+02  0.11343368604E+04  0.10100000352E+00 0.  1.
       -3    1    3    3    0  502  0.11058124732E+04 -0.24592947408E+03  0.10665696755E+04  0.15559156195E+04  0.10100000352E+00 0. -1.
</event>
<event>
 5   0  0.1501947E-05  0.2420081E+04  0.7818609E-02  0.8432024E-01
       -2   -1    0    0    0  501  0.00000000000E+00  0.00000000000E+00  0.15302983177E+04  0.15302983177E+04  0.25500000920E-02 0. -1.
        2   -1    0    0  501    0  0.00000000000E+00  0.00000000000E+00 -0.95680554502E+03  0.95680554503E+03  0.25500000920E-02 0.  1.
    10030    2    1    2    0    0  0.00000000000E+00  0.00000000000E+00  0.57349277265E+03  0.24871038627E+04  0.24200809209E+04 0.  0.
        3    1    3    3  502    0 -0.73048186790E+03 -0.32501095627E+03  0.12201747915E+04  0.14587879945E+04  0.10100000352E+00 0. -1.
       -3    1    3    3    0  502  0.73048186790E+03  0.32501095627E+03 -0.64668201884E+03  0.10283158682E+04  0.10100000352E+00 0.  1.
</event>
<event>
 5   0  0.6104486E-06  0.2474486E+04  0.7818609E-02  0.8412132E-01
       -1   -1    0    0    0  501  0.00000000000E+00  0.00000000000E+00  0.87695346945E+03  0.87695346946E+03  0.50400001928E-02 0. -1.
        1   -1    0    0  501    0  0.00000000000E+00  0.00000000000E+00 -0.17455544400E+04  0.17455544400E+04  0.50400001928E-02 0.  1.
    10030    2    1    2    0    0  0.00000000000E+00  0.00000000000E+00 -0.86860097056E+03  0.26225079095E+04  0.24744858232E+04 0.  0.
        2    1    3    3  502    0 -0.99372937415E+02  0.26545309757E+03 -0.17106810362E+04  0.17340040183E+04  0.25500000920E-02 0.  1.
       -2    1    3    3    0  502  0.99372937415E+02 -0.26545309757E+03  0.84208006566E+03  0.88850389120E+03  0.25500000920E-02 0. -1.
</event>
<event>
 5   0  0.1572732E-05  0.2485050E+04  0.7818609E-02  0.8408331E-01
       -2   -1    0    0    0  501  0.00000000000E+00  0.00000000000E+00  0.88935427546E+03  0.88935427546E+03  0.25500000920E-02 0. -1.
        2   -1    0    0  501    0  0.00000000000E+00  0.00000000000E+00 -0.17359429515E+04  0.17359429515E+04  0.25500000920E-02 0.  1.
    10030    2    1    2    0    0  0.00000000000E+00  0.00000000000E+00 -0.84658867600E+03  0.26252972269E+04  0.24850499277E+04 0.  0.
        1    1    3    3  502    0  0.17929209083E+03 -0.86208837631E+02 -0.17190086082E+04  0.17304820752E+04  0.50400001928E-02 0.  1.
       -1    1    3    3    0  502 -0.17929209083E+03  0.86208837631E+02  0.87241993223E+03  0.89481515169E+03  0.50400001928E-02 0. -1.
</event>
<event>
 5   0  0.6104486E-06  0.2487615E+04  0.7818609E-02  0.8407411E-01
        1   -1    0    0  501    0  0.00000000000E+00  0.00000000000E+00  0.17612569508E+04  0.17612569508E+04  0.50400001928E-02 0.  1.
       -1   -1    0    0    0  501  0.00000000000E+00  0.00000000000E+00 -0.87838244522E+03  0.87838244523E+03  0.50400001928E-02 0. -1.
    10030    2    1    2    0    0  0.00000000000E+00  0.00000000000E+00  0.88287450562E+03  0.26396393961E+04  0.24876150724E+04 0.  0.
        2    1    3    3  502    0 -0.94145540906E+03  0.79414195586E+03  0.62540323205E+03  0.13813504030E+04  0.25500000920E-02 0.  1.
       -2    1    3    3    0  502  0.94145540906E+03 -0.79414195586E+03  0.25747127357E+03  0.12582889930E+04  0.25500000920E-02 0. -1.
</event>
<event>
 5   0  0.6105353E-06  0.2428880E+04  0.7818609E-02  0.8428770E-01
       -1   -1    0    0    0  501  0.00000000000E+00  0.00000000000E+00  0.11318102738E+04  0.11318102738E+04  0.50400001928E-02 0. -1.
        1   -1    0    0  501    0  0.00000000000E+00  0.00000000000E+00 -0.13031022612E+04  0.13031022612E+04  0.50400001928E-02 0.  1.
    10030    2    1    2    0    0  0.00000000000E+00  0.00000000000E+00 -0.17129198738E+03  0.24349125350E+04  0.24288800110E+04 0.  0.
        3    1    3    3  502    0 -0.82500881345E+03  0.75630967589E+03 -0.55821965219E+03  0.12507010268E+04  0.10100000352E+00 0.  1.
       -3    1    3    3    0  502  0.82500881345E+03 -0.75630967589E+03  0.38692766482E+03  0.11842115082E+04  0.10100000352E+00 0. -1.
</event>
<event>
 5   0  0.1468512E-05  0.2404699E+04  0.7818609E-02  0.8437747E-01
        2   -1    0    0  501    0  0.00000000000E+00  0.00000000000E+00  0.19305547636E+04  0.19305547636E+04  0.25500000920E-02 0. -1.
       -2   -1    0    0    0  501  0.00000000000E+00  0.00000000000E+00 -0.74882312213E+03  0.74882312214E+03  0.25500000920E-02 0.  1.
    10030    2    1    2    0    0  0.00000000000E+00  0.00000000000E+00  0.11817316415E+04  0.26793778857E+04  0.24046987716E+04 0.  0.
        4    1    3    3  502    0 -0.36228151271E+03  0.11102860346E+04  0.27246327044E+03  0.11992584458E+04  0.12699999809E+01 0. -1.
       -4    1    3    3    0  502  0.36228151271E+03 -0.11102860346E+04  0.90926837102E+03  0.14801194400E+04  0.12699999809E+01 0.  1.
</event>
<event>
 5   0  0.6346420E-06  0.2343691E+04  0.7818609E-02  0.8460891E-01
        1   -1    0    0  501    0  0.00000000000E+00  0.00000000000E+00  0.14853629297E+04  0.14853629297E+04  0.50400001928E-02 0. -1.
       -1   -1    0    0    0  501  0.00000000000E+00  0.00000000000E+00 -0.92450281479E+03  0.92450281480E+03  0.50400001928E-02 0.  1.
    10030    2    1    2    0    0  0.00000000000E+00  0.00000000000E+00  0.56086011495E+03  0.24098657445E+04  0.23436912847E+04 0.  0.
        4    1    3    3  502    0  0.71929269717E+03  0.43374921773E+03 -0.55977096510E+03  0.10093886835E+04  0.12699999809E+01 0.  1.
       -4    1    3    3    0  502 -0.71929269717E+03 -0.43374921773E+03  0.11206310801E+04  0.14004770611E+04  0.12699999809E+01 0. -1.
</event>
<event>
 5   0  0.1526824E-05  0.2519207E+04  0.7818609E-02  0.8396175E-01
        2   -1    0    0  501    0  0.00000000000E+00  0.00000000000E+00  0.27809586605E+04  0.27809586605E+04  0.25500000920E-02 0. -1.
       -2   -1    0    0    0  501  0.00000000000E+00  0.00000000000E+00 -0.57052302179E+03  0.57052302180E+03  0.25500000920E-02 0.  1.
    10030    2    1    2    0    0  0.00000000000E+00  0.00000000000E+00  0.22104356387E+04  0.33514816823E+04  0.25192069692E+04 0.  0.
        2    1    3    3  502    0 -0.10731810284E+04  0.65335801753E+03  0.98617579280E+03  0.15972278839E+04  0.25500000920E-02 0.  1.
       -2    1    3    3    0  502  0.10731810284E+04 -0.65335801753E+03  0.12242598459E+04  0.17542537984E+04  0.25500000920E-02 0. -1.
</event>
<event>
 5   0  0.6477703E-06  0.2493176E+04  0.7818609E-02  0.8405421E-01
       -1   -1    0    0    0  501  0.00000000000E+00  0.00000000000E+00  0.65492894599E+03  0.65492894601E+03  0.50400001928E-02 0.  1.
        1   -1    0    0  501    0  0.00000000000E+00  0.00000000000E+00 -0.23727476069E+04  0.23727476069E+04  0.50400001928E-02 0. -1.
    10030    2    1    2    0    0  0.00000000000E+00  0.00000000000E+00 -0.17178186609E+04  0.30276765529E+04  0.24931755568E+04 0.  0.
        5    1    3    3  502    0 -0.30270375882E+03  0.96973244933E+03 -0.17362543333E+04  0.20116191958E+04  0.46999998093E+01 0. -1.
       -5    1    3    3    0  502  0.30270375882E+03 -0.96973244933E+03  0.18435672445E+02  0.10160573571E+04  0.46999998093E+01 0.  1.
</event>
<event>
 5   0  0.1501947E-05  0.2485522E+04  0.7818609E-02  0.8408162E-01
       -2   -1    0    0    0  501  0.00000000000E+00  0.00000000000E+00  0.70451929944E+03  0.70451929945E+03  0.25500000920E-02 0. -1.
        2   -1    0    0  501    0  0.00000000000E+00  0.00000000000E+00 -0.21922101209E+04  0.21922101209E+04  0.25500000920E-02 0.  1.
    10030    2    1    2    0    0  0.00000000000E+00  0.00000000000E+00 -0.14876908215E+04  0.28967294204E+04  0.24855215458E+04 0.  0.
        3    1    3    3  502    0  0.94401564348E+03 -0.14330576872E+03 -0.16709041389E+04  0.19244798596E+04  0.10100000352E+00 0.  1.
       -3    1    3    3    0  502 -0.94401564348E+03  0.14330576872E+03  0.18321331742E+03  0.97224956074E+03  0.10100000352E+00 0. -1.
</event>
<event>
 5   0  0.6104486E-06  0.2492543E+04  0.7818609E-02  0.8405647E-01
        1   -1    0    0  501    0  0.00000000000E+00  0.00000000000E+00  0.16813277521E+04  0.16813277521E+04  0.50400001928E-02 0.  1.
       -1   -1    0    0    0  501  0.00000000000E+00  0.00000000000E+00 -0.92378911324E+03  0.92378911325E+03  0.50400001928E-02 0. -1.
    10030    2    1    2    0    0  0.00000000000E+00  0.00000000000E+00  0.75753863889E+03  0.26051168654E+04  0.24925426963E+04 0.  0.
        2    1    3    3  502    0  0.10395317803E+04  0.58273256474E+03 -0.23772270381E+01  0.11917253104E+04  0.25500000920E-02 0. -1.
       -2    1    3    3    0  502 -0.10395317803E+04 -0.58273256474E+03  0.75991586593E+03  0.14133915550E+04  0.25500000920E-02 0.  1.
</event>
<event>
 5   0  0.1526824E-05  0.2450611E+04  0.7818609E-02  0.8420795E-01
        2   -1    0    0  501    0  0.00000000000E+00  0.00000000000E+00  0.18761949710E+04  0.18761949710E+04  0.25500000920E-02 0. -1.
       -2   -1    0    0    0  501  0.00000000000E+00  0.00000000000E+00 -0.80022268776E+03  0.80022268776E+03  0.25500000920E-02 0.  1.
    10030    2    1    2    0    0  0.00000000000E+00  0.00000000000E+00  0.10759722832E+04  0.26764176588E+04  0.24506111748E+04 0.  0.
        2    1    3    3  502    0 -0.26776286297E+03  0.20652176373E+03 -0.74825297892E+03  0.82111552789E+03  0.25500000920E-02 0.  1.
       -2    1    3    3    0  502  0.26776286297E+03 -0.20652176373E+03  0.18242252622E+04  0.18553021309E+04  0.25500000920E-02 0. -1.
</event>
<event>
 5   0  0.1572732E-05  0.2472435E+04  0.7818609E-02  0.8412872E-01
       -2   -1    0    0    0  501  0.00000000000E+00  0.00000000000E+00  0.99003241409E+03  0.99003241409E+03  0.25500000920E-02 0.  1.
        2   -1    0    0  501    0  0.00000000000E+00  0.00000000000E+00 -0.15436204084E+04  0.15436204084E+04  0.25500000920E-02 0. -1.
    10030    2    1    2    0    0  0.00000000000E+00  0.00000000000E+00 -0.55358799430E+03  0.25336528225E+04  0.24724354304E+04 0.  0.
        1    1    3    3  502    0  0.10511630810E+04  0.59878073093E+03 -0.53755876706E+03  0.13238019545E+04  0.50400001928E-02 0.  1.
       -1    1    3    3    0  502 -0.10511630810E+04 -0.59878073093E+03 -0.16029227235E+02  0.12098508680E+04  0.50400001928E-02 0. -1.
</event>
<event>
 5   0  0.6105353E-06  0.2496323E+04  0.7818609E-02  0.8404297E-01
       -1   -1    0    0    0  501  0.00000000000E+00  0.00000000000E+00  0.21092297523E+04  0.21092297523E+04  0.50400001928E-02 0. -1.
        1   -1    0    0  501    0  0.00000000000E+00  0.00000000000E+00 -0.73861443061E+03  0.73861443063E+03  0.50400001928E-02 0.  1.
    10030    2    1    2    0    0  0.00000000000E+00  0.00000000000E+00  0.13706153217E+04  0.28478441829E+04  0.24963233224E+04 0.  0.
        3    1    3    3  502    0 -0.10876674873E+04  0.84264731699E+02  0.13771597088E+04  0.17568978290E+04  0.10100000352E+00 0. -1.
       -3    1    3    3    0  502  0.10876674873E+04 -0.84264731699E+02 -0.65443871536E+01  0.10909463539E+04  0.10100000352E+00 0.  1.
</event>
<event>
 5   0  0.6346420E-06  0.2501942E+04  0.7818609E-02  0.8402294E-01
        1   -1    0    0  501    0  0.00000000000E+00  0.00000000000E+00  0.12393044334E+04  0.12393044334E+04  0.50400001928E-02 0. -1.
       -1   -1    0    0    0  501  0.00000000000E+00  0.00000000000E+00 -0.12627473829E+04  0.12627473830E+04  0.50400001928E-02 0.  1.
    10030    2    1    2    0    0  0.00000000000E+00  0.00000000000E+00 -0.23442949542E+02  0.25020518164E+04  0.25019419897E+04 0.  0.
        4    1    3    3  502    0  0.71763479222E+03  0.93711509019E+03  0.40271489904E+03  0.12471428507E+04  0.12699999809E+01 0. -1.
       -4    1    3    3    0  502 -0.71763479222E+03 -0.93711509019E+03 -0.42615784858E+03  0.12549089657E+04  0.12699999809E+01 0.  1.
</event>
<event>
 5   0  0.1526824E-05  0.2483311E+04  0.7818609E-02  0.8408955E-01
        2   -1    0    0  501    0  0.00000000000E+00  0.00000000000E+00  0.21245367173E+04  0.21245367173E+04  0.25500000920E-02 0.  1.
       -2   -1    0    0    0  501  0.00000000000E+00  0.00000000000E+00 -0.72566815629E+03  0.72566815630E+03  0.25500000920E-02 0. -1.
    10030    2    1    2    0    0  0.00000000000E+00  0.00000000000E+00  0.13988685610E+04  0.28502048736E+04  0.24833112110E+04 0.  0.
        2    1    3    3  502    0 -0.96966132099E+02  0.11833711653E+04  0.28253480022E+03  0.12204899258E+04  0.25500000920E-02 0. -1.
       -2    1    3    3    0  502  0.96966132099E+02 -0.11833711653E+04  0.11163337608E+04  0.16297149478E+04  0.25500000920E-02 0.  1.
</event>
<event>
 5   0  0.1468512E-05  0.2435380E+04  0.7818609E-02  0.8426375E-01
        2   -1    0    0  501    0  0.00000000000E+00  0.00000000000E+00  0.15156933470E+04  0.15156933470E+04  0.25500000920E-02 0. -1.
       -2   -1    0    0    0  501  0.00000000000E+00  0.00000000000E+00 -0.97827767307E+03  0.97827767307E+03  0.25500000920E-02 0.  1.
    10030    2    1    2    0    0  0.00000000000E+00  0.00000000000E+00  0.53741567388E+03  0.24939710200E+04  0.24353800201E+04 0.  0.
        4    1    3    3  502    0 -0.78993637027E+03 -0.59609183504E+03  0.99531480717E+03  0.14035590914E+04  0.12699999809E+01 0.  1.
       -4    1    3    3    0  502  0.78993637027E+03  0.59609183504E+03 -0.45789913328E+03  0.10904119286E+04  0.12699999809E+01 0. -1.
</event>
<event>
 5   0  0.1501947E-05  0.2511875E+04  0.7818609E-02  0.8398767E-01
        2   -1    0    0  501    0  0.00000000000E+00  0.00000000000E+00  0.16223174167E+04  0.16223174167E+04  0.25500000920E-02 0.  1.
       -2   -1    0    0    0  501  0.00000000000E+00  0.00000000000E+00 -0.97229990419E+03  0.97229990419E+03  0.25500000920E-02 0. -1.
    10030    2    1    2    0    0  0.00000000000E+00  0.00000000000E+00  0.65001751254E+03  0.25946173209E+04  0.25118750517E+04 0.  0.
        3    1    3    3  502    0 -0.86278376936E+03  0.24787083356E+02  0.12674042135E+04  0.15334026486E+04  0.10100000352E+00 0.  1.
       -3    1    3    3    0  502  0.86278376936E+03 -0.24787083356E+02 -0.61738670091E+03  0.10612146724E+04  0.10100000352E+00 0. -1.
</event>
<event>
 5   0  0.1550483E-05  0.2474760E+04  0.7818609E-02  0.8412033E-01
       -2   -1    0    0    0  501  0.00000000000E+00  0.00000000000E+00  0.73160288064E+03  0.73160288064E+03  0.25500000920E-02 0.  1.
        2   -1    0    0  501    0  0.00000000000E+00  0.00000000000E+00 -0.20928143794E+04  0.20928143794E+04  0.25500000920E-02 0. -1.
    10030    2    1    2    0    0  0.00000000000E+00  0.00000000000E+00 -0.13612114988E+04  0.28244172601E+04  0.24747598095E+04 0.  0.
        5    1    3    3  502    0 -0.46798039560E+03 -0.78289647757E+03  0.27368859048E+03  0.95229201394E+03  0.46999998093E+01 0.  1.
       -5    1    3    3    0  502  0.46798039560E+03  0.78289647757E+03 -0.16349000893E+04  0.18721252461E+04  0.46999998093E+01 0. -1.
</event>
<event>
 5   0  0.6346420E-06  0.2485985E+04  0.7818609E-02  0.8407995E-01
        1   -1    0    0  501    0  0.00000000000E+00  0.00000000000E+00  0.28675560393E+04  0.28675560393E+04  0.50400001928E-02 0.  1.
       -1   -1    0    0    0  501  0.00000000000E+00  0.00000000000E+00 -0.53879696308E+03  0.53879696310E+03  0.50400001928E-02 0. -1.
    10030    2    1    2    0    0  0.00000000000E+00  0.00000000000E+00  0.23287590762E+04  0.34063530024E+04  0.24859851049E+04 0.  0.
        4    1    3    3  502    0 -0.92194165020E+03 -0.36811190060E+03  0.21893446064E+04  0.24038956292E+04  0.12699999809E+01 0.  1.
       -4    1    3    3    0  502  0.92194165020E+03  0.36811190060E+03  0.13941446982E+03  0.10024573732E+04  0.12699999809E+01 0. -1.
</event>
<event>
 5   0  0.6477703E-06  0.2600759E+04  0.7818609E-02  0.8367943E-01
       -1   -1    0    0    0  501  0.00000000000E+00  0.00000000000E+00  0.86517526261E+03  0.86517526263E+03  0.50400001928E-02 0.  1.
        1   -1    0    0  501    0  0.00000000000E+00  0.00000000000E+00 -0.19545026468E+04  0.19545026468E+04  0.50400001928E-02 0. -1.
    10030    2    1    2    0    0  0.00000000000E+00  0.00000000000E+00 -0.10893273842E+04  0.28196779094E+04  0.26007593820E+04 0.  0.
        5    1    3    3  502    0  0.44809188087E+03  0.12200093435E+04 -0.49923018358E+03  0.13922866077E+04  0.46999998093E+01 0. -1.
       -5    1    3    3    0  502 -0.44809188087E+03 -0.12200093435E+04 -0.59009720057E+03  0.14273913016E+04  0.46999998093E+01 0.  1.
</event>
<event>
 5   0  0.6290861E-06  0.2488535E+04  0.7818609E-02  0.8407082E-01
        1   -1    0    0  501    0  0.00000000000E+00  0.00000000000E+00  0.12745929993E+04  0.12745929993E+04  0.50400001928E-02 0. -1.
       -1   -1    0    0    0  501  0.00000000000E+00  0.00000000000E+00 -0.12146630816E+04  0.12146630816E+04  0.50400001928E-02 0.  1.
    10030    2    1    2    0    0  0.00000000000E+00  0.00000000000E+00  0.59929917676E+02  0.24892560809E+04  0.24885345569E+04 0.  0.
        1    1    3    3  502    0  0.11274812271E+04 -0.45811712527E+02 -0.49448509103E+03  0.12320016785E+04  0.50400001928E-02 0.  1.
       -1    1    3    3    0  502 -0.11274812271E+04  0.45811712527E+02  0.55441500871E+03  0.12572544024E+04  0.50400001928E-02 0. -1.
</event>
<event>
 5   0  0.1468512E-05  0.2505237E+04  0.7818609E-02  0.8401122E-01
       -2   -1    0    0    0  501  0.00000000000E+00  0.00000000000E+00  0.96026463051E+03  0.96026463051E+03  0.25500000920E-02 0. -1.
        2   -1    0    0  501    0  0.00000000000E+00  0.00000000000E+00 -0.16339794879E+04  0.16339794879E+04  0.25500000920E-02 0.  1.
    10030    2    1    2    0    0  0.00000000000E+00  0.00000000000E+00 -0.67371485739E+03  0.25942441184E+04  0.25052366828E+04 0.  0.
        4    1    3    3  502    0 -0.90900261623E+03 -0.38970937296E+03  0.45914815342E+03  0.10904025823E+04  0.12699999809E+01 0.  1.
       -4    1    3    3    0  502  0.90900261623E+03  0.38970937296E+03 -0.11328630108E+04  0.15038415362E+04  0.12699999809E+01 0. -1.
</event>
<event>
 5   0  0.1468512E-05  0.2489711E+04  0.7818609E-02  0.8406660E-01
        2   -1    0    0  501    0  0.00000000000E+00  0.00000000000E+00  0.16260367910E+04  0.16260367910E+04  0.25500000920E-02 0. -1.
       -2   -1    0    0    0  501  0.00000000000E+00  0.00000000000E+00 -0.95303180050E+03  0.95303180050E+03  0.25500000920E-02 0.  1.
    10030    2    1    2    0    0  0.00000000000E+00  0.00000000000E+00  0.67300499051E+03  0.25790685915E+04  0.24897106423E+04 0.  0.
        4    1    3    3  502    0  0.58251891041E+03  0.99804791977E+03  0.81597030872E+03  0.14146508717E+04  0.12699999809E+01 0. -1.
       -4    1    3    3    0  502 -0.58251891041E+03 -0.99804791977E+03 -0.14296531821E+03  0.11644177198E+04  0.12699999809E+01 0.  1.
</event>
<event>
 5   0  0.5164625E-06  0.2521760E+04  0.7818609E-02  0.8395274E-01
        3   -1    0    0  501    0  0.00000000000E+00  0.00000000000E+00  0.10392688258E+04  0.10392688307E+04  0.10100000352E+00 0. -1.
       -3   -1    0    0    0  501  0.00000000000E+00  0.00000000000E+00 -0.15297470397E+04  0.15297470430E+04  0.10100000352E+00 0.  1.
    10030    2    1    2    0    0  0.00000000000E+00  0.00000000000E+00 -0.49047821383E+03  0.25690158738E+04  0.25217600364E+04 0.  0.
        4    1    3    3  502    0 -0.11062483458E+04  0.51290341573E+03 -0.57212820848E+03  0.13469178209E+04  0.12699999809E+01 0. -1.
       -4    1    3    3    0  502  0.11062483458E+04 -0.51290341573E+03  0.81649994652E+02  0.12220980529E+04  0.12699999809E+01 0.  1.
</event>
<event>
 5   0  0.1526824E-05  0.2502632E+04  0.7818609E-02  0.8402048E-01
       -2   -1    0    0    0  501  0.00000000000E+00  0.00000000000E+00  0.65184666004E+03  0.65184666005E+03  0.25500000920E-02 0.  1.
        2   -1    0    0  501    0  0.00000000000E+00  0.00000000000E+00 -0.24020865780E+04  0.24020865780E+04  0.25500000920E-02 0. -1.
    10030    2    1    2    0    0  0.00000000000E+00  0.00000000000E+00 -0.17502399179E+04  0.30539332380E+04  0.25026323046E+04 0.  0.
        2    1    3    3  502    0  0.11547615293E+03  0.77696338267E+03  0.31350941894E+03  0.84575114287E+03  0.25500000920E-02 0.  1.
       -2    1    3    3    0  502 -0.11547615293E+03 -0.77696338267E+03 -0.20637493369E+04  0.22081820952E+04  0.25500000920E-02 0. -1.
</event>
<event>
 5   0  0.6104486E-06  0.2481844E+04  0.7818609E-02  0.8409482E-01
       -1   -1    0    0    0  501  0.00000000000E+00  0.00000000000E+00  0.10387746442E+04  0.10387746443E+04  0.50400001928E-02 0.  1.
        1   -1    0    0  501    0  0.00000000000E+00  0.00000000000E+00 -0.14824075171E+04  0.14824075171E+04  0.50400001928E-02 0. -1.
    10030    2    1    2    0    0  0.00000000000E+00  0.00000000000E+00 -0.44363287289E+03  0.25211821614E+04  0.24818439445E+04 0.  0.
        2    1    3    3  502    0  0.36778080613E+03 -0.93985319826E+03 -0.95527209239E+03  0.13896515844E+04  0.25500000920E-02 0. -1.
       -2    1    3    3    0  502 -0.36778080613E+03  0.93985319826E+03  0.51163921950E+03  0.11315305770E+04  0.25500000920E-02 0.  1.
</event>
<event>
 5   0  0.6105353E-06  0.2500848E+04  0.7818609E-02  0.8402683E-01
        1   -1    0    0  501    0  0.00000000000E+00  0.00000000000E+00  0.16272737982E+04  0.16272737983E+04  0.50400001928E-02 0.  1.
       -1   -1    0    0    0  501  0.00000000000E+00  0.00000000000E+00 -0.96084648296E+03  0.96084648298E+03  0.50400001928E-02 0. -1.
    10030    2    1    2    0    0  0.00000000000E+00  0.00000000000E+00  0.66642731529E+03  0.25881202812E+04  0.25008481009E+04 0.  0.
        3    1    3    3  502    0  0.96881991692E+03 -0.76866502643E+03  0.52432622255E+03  0.13432706176E+04  0.10100000352E+00 0.  1.
       -3    1    3    3    0  502 -0.96881991692E+03  0.76866502643E+03  0.14210109274E+03  0.12448496636E+04  0.10100000352E+00 0. -1.
</event>
<event>
 5   0  0.1550483E-05  0.2509759E+04  0.7818609E-02  0.8399517E-01
       -2   -1    0    0    0  501  0.00000000000E+00  0.00000000000E+00  0.11085337639E+04  0.11085337639E+04  0.25500000920E-02 0. -1.
        2   -1    0    0  501    0  0.00000000000E+00  0.00000000000E+00 -0.14205455472E+04  0.14205455472E+04  0.25500000920E-02 0.  1.
    10030    2    1    2    0    0  0.00000000000E+00  0.00000000000E+00 -0.31201178325E+03  0.25290793111E+04  0.25097591137E+04 0.  0.
        5    1    3    3  502    0 -0.68963423256E+03 -0.18168711445E+03  0.88446124692E+03  0.11361775256E+04  0.46999998093E+01 0. -1.
       -5    1    3    3    0  502  0.68963423256E+03  0.18168711445E+03 -0.11964730302E+04  0.13929017856E+04  0.46999998093E+01 0.  1.
</event>
<event>
 5   0  0.1572732E-05  0.2250436E+04  0.7818609E-02  0.8497724E-01
       -2   -1    0    0    0  501  0.00000000000E+00  0.00000000000E+00  0.95487384745E+03  0.95487384746E+03  0.25500000920E-02 0. -1.
        2   -1    0    0  501    0  0.00000000000E+00  0.00000000000E+00 -0.13259509825E+04  0.13259509825E+04  0.25500000920E-02 0.  1.
    10030    2    1    2    0    0  0.00000000000E+00  0.00000000000E+00 -0.37107713509E+03  0.22808248300E+04  0.22504363277E+04 0.  0.
        1    1    3    3  502    0  0.62633222630E+03  0.73634234376E+02  0.75892579300E+03  0.98675347351E+03  0.50400001928E-02 0. -1.
       -1    1    3    3    0  502 -0.62633222630E+03 -0.73634234376E+02 -0.11300029281E+04  0.12940713565E+04  0.50400001928E-02 0.  1.
</event>
<event>
 5   0  0.6346420E-06  0.2459436E+04  0.7818609E-02  0.8417581E-01
        1   -1    0    0  501    0  0.00000000000E+00  0.00000000000E+00  0.16185355301E+04  0.16185355301E+04  0.50400001928E-02 0.  1.
       -1   -1    0    0    0  501  0.00000000000E+00  0.00000000000E+00 -0.93430564143E+03  0.93430564144E+03  0.50400001928E-02 0. -1.
    10030    2    1    2    0    0  0.00000000000E+00  0.00000000000E+00  0.68422988864E+03  0.25528411715E+04  0.24594364205E+04 0.  0.
        4    1    3    3  502    0 -0.11424749882E+04 -0.44642264435E+03  0.43297798373E+03  0.13007743168E+04  0.12699999809E+01 0.  1.
       -4    1    3    3    0  502  0.11424749882E+04  0.44642264435E+03  0.25125190491E+03  0.12520668547E+04  0.12699999809E+01 0. -1.
</event>
<event>
 5   0  0.6346420E-06  0.2492800E+04  0.7818609E-02  0.8405555E-01
       -1   -1    0    0    0  501  0.00000000000E+00  0.00000000000E+00  0.81720911914E+03  0.81720911915E+03  0.50400001928E-02 0. -1.
        1   -1    0    0  501    0  0.00000000000E+00  0.00000000000E+00 -0.19009975847E+04  0.19009975847E+04  0.50400001928E-02 0.  1.
    10030    2    1    2    0    0  0.00000000000E+00  0.00000000000E+00 -0.10837884656E+04  0.27182067039E+04  0.24927996805E+04 0.  0.
        4    1    3    3  502    0  0.18682703239E+03  0.86889380083E+02  0.79850910338E+03  0.82466508685E+03  0.12699999809E+01 0. -1.
       -4    1    3    3    0  502 -0.18682703239E+03 -0.86889380083E+02 -0.18822975690E+04  0.18935416170E+04  0.12699999809E+01 0.  1.
</event>
<event>
 5   0  0.6477703E-06  0.2502834E+04  0.7818609E-02  0.8401977E-01
       -1   -1    0    0    0  501  0.00000000000E+00  0.00000000000E+00  0.12166253115E+04  0.12166253115E+04  0.50400001928E-02 0.  1.
        1   -1    0    0  501    0  0.00000000000E+00  0.00000000000E+00 -0.12872032924E+04  0.12872032924E+04  0.50400001928E-02 0. -1.
    10030    2    1    2    0    0  0.00000000000E+00  0.00000000000E+00 -0.70577980845E+02  0.25038286039E+04  0.25028336793E+04 0.  0.
        5    1    3    3  502    0  0.58340624772E+03 -0.62041237485E+03 -0.95257641072E+03  0.12777708218E+04  0.46999998093E+01 0. -1.
       -5    1    3    3    0  502 -0.58340624772E+03  0.62041237485E+03  0.88199842987E+03  0.12260577821E+04  0.46999998093E+01 0.  1.
</event>
<event>
 5   0  0.1468512E-05  0.2491111E+04  0.7818609E-02  0.8406159E-01
       -2   -1    0    0    0  501  0.00000000000E+00  0.00000000000E+00  0.96414988017E+03  0.96414988017E+03  0.25500000920E-02 0. -1.
        2   -1    0    0  501    0  0.00000000000E+00  0.00000000000E+00 -0.16090943683E+04  0.16090943683E+04  0.25500000920E-02 0.  1.
    10030    2    1    2    0    0  0.00000000000E+00  0.00000000000E+00 -0.64494448816E+03  0.25732442485E+04  0.24911107100E+04 0.  0.
        4    1    3    3  502    0 -0.44844296947E+03 -0.62566193494E+02 -0.15210702928E+04  0.15870324741E+04  0.12699999809E+01 0.  1.
       -4    1    3    3    0  502  0.44844296947E+03  0.62566193494E+02  0.87612580464E+03  0.98621177436E+03  0.12699999809E+01 0. -1.
</event>
<event>
 5   0  0.6477703E-06  0.2499974E+04  0.7818609E-02  0.8402995E-01
        1   -1    0    0  501    0  0.00000000000E+00  0.00000000000E+00  0.14838079094E+04  0.14838079094E+04  0.50400001928E-02 0. -1.
       -1   -1    0    0    0  501  0.00000000000E+00  0.00000000000E+00 -0.10530118119E+04  0.10530118119E+04  0.50400001928E-02 0.  1.
    10030    2    1    2    0    0  0.00000000000E+00  0.00000000000E+00  0.43079609757E+03  0.25368197213E+04  0.24999738040E+04 0.  0.
        5    1    3    3  502    0  0.80830699585E+03 -0.95339219459E+03  0.22689145557E+03  0.12703616410E+04  0.46999998093E+01 0. -1.
       -5    1    3    3    0  502 -0.80830699585E+03  0.95339219459E+03  0.20390464201E+03  0.12664580803E+04  0.46999998093E+01 0.  1.
</event>
<event>
 5   0  0.1501947E-05  0.2488428E+04  0.7818609E-02  0.8407120E-01
        2   -1    0    0  501    0  0.00000000000E+00  0.00000000000E+00  0.12670951355E+04  0.12670951355E+04  0.25500000920E-02 0. -1.
       -2   -1    0    0    0  501  0.00000000000E+00  0.00000000000E+00 -0.12217459031E+04  0.12217459031E+04  0.25500000920E-02 0.  1.
    10030    2    1    2    0    0  0.00000000000E+00  0.00000000000E+00  0.45349232405E+02  0.24888410385E+04  0.24884278495E+04 0.  0.
        3    1    3    3  502    0  0.10844852139E+04  0.57780253066E+03 -0.17256111773E+03  0.12408631243E+04  0.10100000352E+00 0. -1.
       -3    1    3    3    0  502 -0.10844852139E+04 -0.57780253066E+03  0.21791035013E+03  0.12479779143E+04  0.10100000352E+00 0.  1.
</event>
<event>
 5   0  0.1501947E-05  0.2494884E+04  0.7818609E-02  0.8404810E-01
        2   -1    0    0  501    0  0.00000000000E+00  0.00000000000E+00  0.12521802605E+04  0.12521802605E+04  0.25500000920E-02 0. -1.
       -2   -1    0    0    0  501  0.00000000000E+00  0.00000000000E+00 -0.12427216652E+04  0.12427216652E+04  0.25500000920E-02 0.  1.
    10030    2    1    2    0    0  0.00000000000E+00  0.00000000000E+00  0.94585952226E+01  0.24949019257E+04  0.24948839961E+04 0.  0.
        3    1    3    3  502    0 -0.25851072191E+03  0.45873033543E+03 -0.11261414268E+04  0.12431636407E+04  0.10100000352E+00 0.  1.
       -3    1    3    3    0  502  0.25851072191E+03 -0.45873033543E+03  0.11356000221E+04  0.12517382851E+04  0.10100000352E+00 0. -1.
</event>
<event>
 5   0  0.5164625E-06  0.2493262E+04  0.7818609E-02  0.8405390E-01
       -3   -1    0    0    0  501  0.00000000000E+00  0.00000000000E+00  0.19705183134E+04  0.19705183160E+04  0.10100000352E+00 0.  1.
        3   -1    0    0  501    0  0.00000000000E+00  0.00000000000E+00 -0.78867023180E+03  0.78867023826E+03  0.10100000352E+00 0. -1.
    10030    2    1    2    0    0  0.00000000000E+00  0.00000000000E+00  0.11818480816E+04  0.27591885542E+04  0.24932622385E+04 0.  0.
        3    1    3    3  502    0 -0.83155009166E+03  0.56979939437E+02  0.16168185927E+04  0.18190174931E+04  0.10100000352E+00 0.  1.
       -3    1    3    3    0  502  0.83155009166E+03 -0.56979939437E+02 -0.43497051110E+03  0.94017106111E+03  0.10100000352E+00 0. -1.
</event>
<event>
 5   0  0.6477703E-06  0.2521714E+04  0.7818609E-02  0.8395290E-01
       -1   -1    0    0    0  501  0.00000000000E+00  0.00000000000E+00  0.10440711205E+04  0.10440711205E+04  0.50400001928E-02 0. -1.
        1   -1    0    0  501    0  0.00000000000E+00  0.00000000000E+00 -0.15226549965E+04  0.15226549965E+04  0.50400001928E-02 0.  1.
    10030    2    1    2    0    0  0.00000000000E+00  0.00000000000E+00 -0.47858387606E+03  0.25667261170E+04  0.25217137889E+04 0.  0.
        5    1    3    3  502    0 -0.10381765470E+04  0.18969334511E+03 -0.94149322921E+03  0.14142933566E+04  0.46999998093E+01 0.  1.
       -5    1    3    3    0  502  0.10381765470E+04 -0.18969334511E+03  0.46290935316E+03  0.11524327604E+04  0.46999998093E+01 0. -1.
</event>
<event>
 5   0  0.1501947E-05  0.2500383E+04  0.7818609E-02  0.8402849E-01
       -2   -1    0    0    0  501  0.00000000000E+00  0.00000000000E+00  0.82144053474E+03  0.82144053474E+03  0.25500000920E-02 0. -1.
        2   -1    0    0  501    0  0.00000000000E+00  0.00000000000E+00 -0.19027293487E+04  0.19027293487E+04  0.25500000920E-02 0.  1.
    10030    2    1    2    0    0  0.00000000000E+00  0.00000000000E+00 -0.10812888139E+04  0.27241698834E+04  0.25003831815E+04 0.  0.
        3    1    3    3  502    0  0.62746948318E+03  0.70471883000E+03  0.35290077382E+03  0.10074152808E+04  0.10100000352E+00 0. -1.
       -3    1    3    3    0  502 -0.62746948318E+03 -0.70471883000E+03 -0.14341895878E+04  0.17167546026E+04  0.10100000352E+00 0.  1.
</event>
<event>
 5   0  0.1526824E-05  0.2506210E+04  0.7818609E-02  0.8400776E-01
        2   -1    0    0  501    0  0.00000000000E+00  0.00000000000E+00  0.13203641508E+04  0.13203641508E+04  0.25500000920E-02 0. -1.
       -2   -1    0    0    0  501  0.00000000000E+00  0.00000000000E+00 -0.11892723205E+04  0.11892723205E+04  0.25500000920E-02 0.  1.
    10030    2    1    2    0    0  0.00000000000E+00  0.00000000000E+00  0.13109183031E+03  0.25096364713E+04  0.25062103165E+04 0.  0.
        2    1    3    3  502    0 -0.10676671876E+04 -0.56335935010E+03  0.40213867405E+03  0.12724002884E+04  0.25500000920E-02 0. -1.
       -2    1    3    3    0  502  0.10676671876E+04  0.56335935010E+03 -0.27104684374E+03  0.12372361829E+04  0.25500000920E-02 0.  1.
</event>
<event>
 5   0  0.1572732E-05  0.2504247E+04  0.7818609E-02  0.8401474E-01
       -2   -1    0    0    0  501  0.00000000000E+00  0.00000000000E+00  0.11123051379E+04  0.11123051379E+04  0.25500000920E-02 0. -1.
        2   -1    0    0  501    0  0.00000000000E+00  0.00000000000E+00 -0.14095167244E+04  0.14095167244E+04  0.25500000920E-02 0.  1.
    10030    2    1    2    0    0  0.00000000000E+00  0.00000000000E+00 -0.29721158650E+03  0.25218218623E+04  0.25042465490E+04 0.  0.
        1    1    3    3  502    0  0.32576326618E+03 -0.63949248133E+03  0.88462646597E+03  0.11391384128E+04  0.50400001928E-02 0. -1.
       -1    1    3    3    0  502 -0.32576326618E+03  0.63949248133E+03 -0.11818380525E+04  0.13826834495E+04  0.50400001928E-02 0.  1.
</event>
<event>
 5   0  0.6290861E-06  0.2502317E+04  0.7818609E-02  0.8402160E-01
       -1   -1    0    0    0  501  0.00000000000E+00  0.00000000000E+00  0.17380027298E+04  0.17380027298E+04  0.50400001928E-02 0.  1.
        1   -1    0    0  501    0  0.00000000000E+00  0.00000000000E+00 -0.90068789317E+03  0.90068789319E+03  0.50400001928E-02 0. -1.
    10030    2    1    2    0    0  0.00000000000E+00  0.00000000000E+00  0.83731483667E+03  0.26386906230E+04  0.25023173397E+04 0.  0.
        1    1    3    3  502    0  0.10169242955E+04  0.22425492738E+03  0.11499755002E+04  0.15514086974E+04  0.50400001928E-02 0. -1.
       -1    1    3    3    0  502 -0.10169242955E+04 -0.22425492738E+03 -0.31266066352E+03  0.10872819256E+04  0.50400001928E-02 0.  1.
</event>
<event>
 5   0  0.1468512E-05  0.2493096E+04  0.7818609E-02  0.8405449E-01
        2   -1    0    0  501    0  0.00000000000E+00  0.00000000000E+00  0.11874457826E+04  0.11874457826E+04  0.25500000920E-02 0.  1.
       -2   -1    0    0    0  501  0.00000000000E+00  0.00000000000E+00 -0.13085921676E+04  0.13085921676E+04  0.25500000920E-02 0. -1.
    10030    2    1    2    0    0  0.00000000000E+00  0.00000000000E+00 -0.12114638499E+03  0.24960379503E+04  0.24930962682E+04 0.  0.
        4    1    3    3  502    0  0.56522938172E+02  0.12415157851E+04  0.36103422062E+02  0.12433267298E+04  0.12699999809E+01 0. -1.
       -4    1    3    3    0  502 -0.56522938172E+02 -0.12415157851E+04 -0.15724980706E+03  0.12527112204E+04  0.12699999809E+01 0.  1.
</event>
<event>
 5   0  0.1468512E-05  0.2486957E+04  0.7818609E-02  0.8407647E-01
       -2   -1    0    0    0  501  0.00000000000E+00  0.00000000000E+00  0.61082463945E+03  0.61082463945E+03  0.25500000920E-02 0. -1.
        2   -1    0    0  501    0  0.00000000000E+00  0.00000000000E+00 -0.25313951305E+04  0.25313951305E+04  0.25500000920E-02 0.  1.
    10030    2    1    2    0    0  0.00000000000E+00  0.00000000000E+00 -0.19205704911E+04  0.31422197700E+04  0.24869567893E+04 0.  0.
        4    1    3    3  502    0 -0.11923822598E+04 -0.69431075858E+02 -0.13973119045E+04  0.18382269444E+04  0.12699999809E+01 0.  1.
       -4    1    3    3    0  502  0.11923822598E+04  0.69431075858E+02 -0.52325858660E+03  0.13039928256E+04  0.12699999809E+01 0. -1.
</event>
<event>
 5   0  0.1550483E-05  0.2498079E+04  0.7818609E-02  0.8403670E-01
       -2   -1    0    0    0  501  0.00000000000E+00  0.00000000000E+00  0.13038899509E+04  0.13038899509E+04  0.25500000920E-02 0. -1.
        2   -1    0    0  501    0  0.00000000000E+00  0.00000000000E+00 -0.11964965640E+04  0.11964965641E+04  0.25500000920E-02 0.  1.
    10030    2    1    2    0    0  0.00000000000E+00  0.00000000000E+00  0.10739338686E+03  0.25003865150E+04  0.24980791390E+04 0.  0.
        5    1    3    3  502    0 -0.77897411175E+02 -0.50990992273E+03 -0.10848959288E+04  0.12012898911E+04  0.46999998093E+01 0.  1.
       -5    1    3    3    0  502  0.77897411175E+02  0.50990992273E+03  0.11922893157E+04  0.12990966239E+04  0.46999998093E+01 0. -1.
</event>
<event>
 5   0  0.6346420E-06  0.2482736E+04  0.7818609E-02  0.8409162E-01
        1   -1    0    0  501    0  0.00000000000E+00  0.00000000000E+00  0.63178593142E+03  0.63178593144E+03  0.50400001928E-02 0.  1.
       -1   -1    0    0    0  501  0.00000000000E+00  0.00000000000E+00 -0.24391086763E+04  0.24391086763E+04  0.50400001928E-02 0. -1.
    10030    2    1    2    0    0  0.00000000000E+00  0.00000000000E+00 -0.18073227449E+04  0.30708946078E+04  0.24827360286E+04 0.  0.
        4    1    3    3  502    0 -0.12849675213E+03 -0.11609917988E+04 -0.38389930317E+03  0.12295501860E+04  0.12699999809E+01 0. -1.
       -4    1    3    3    0  502  0.12849675213E+03  0.11609917988E+04 -0.14234234417E+04  0.18413444217E+04  0.12699999809E+01 0.  1.
</event>
<event>
 5   0  0.6104486E-06  0.2486358E+04  0.7818609E-02  0.8407862E-01
        1   -1    0    0  501    0  0.00000000000E+00  0.00000000000E+00  0.14540242338E+04  0.14540242338E+04  0.50400001928E-02 0. -1.
       -1   -1    0    0    0  501  0.00000000000E+00  0.00000000000E+00 -0.10629083938E+04  0.10629083938E+04  0.50400001928E-02 0.  1.
    10030    2    1    2    0    0  0.00000000000E+00  0.00000000000E+00  0.39111583999E+03  0.25169326277E+04  0.24863584319E+04 0.  0.
        2    1    3    3  502    0  0.38600216689E+02  0.11087129304E+04  0.76349180002E+03  0.13467197435E+04  0.25500000920E-02 0. -1.
       -2    1    3    3    0  502 -0.38600216689E+02 -0.11087129304E+04 -0.37237596003E+03  0.11702128842E+04  0.25500000920E-02 0.  1.
</event>
<event>
 5   0  0.1501947E-05  0.2479908E+04  0.7818609E-02  0.8410179E-01
       -2   -1    0    0    0  501  0.00000000000E+00  0.00000000000E+00  0.13405894567E+04  0.13405894567E+04  0.25500000920E-02 0.  1.
        2   -1    0    0  501    0  0.00000000000E+00  0.00000000000E+00 -0.11468730050E+04  0.11468730050E+04  0.25500000920E-02 0. -1.
    10030    2    1    2    0    0  0.00000000000E+00  0.00000000000E+00  0.19371645175E+03  0.24874624617E+04  0.24799079489E+04 0.  0.
        3    1    3    3  502    0  0.71648153111E+03 -0.97576477038E+03  0.36604710371E+03  0.12646948896E+04  0.10100000352E+00 0. -1.
       -3    1    3    3    0  502 -0.71648153111E+03  0.97576477038E+03 -0.17233065196E+03  0.12227675721E+04  0.10100000352E+00 0.  1.
</event>
<event>
 5   0  0.1468512E-05  0.2509080E+04  0.7818609E-02  0.8399758E-01
        2   -1    0    0  501    0  0.00000000000E+00  0.00000000000E+00  0.14670103692E+04  0.14670103692E+04  0.25500000920E-02 0. -1.
       -2   -1    0    0    0  501  0.00000000000E+00  0.00000000000E+00 -0.10728421255E+04  0.10728421255E+04  0.25500000920E-02 0.  1.
    10030    2    1    2    0    0  0.00000000000E+00  0.00000000000E+00  0.39416824369E+03  0.25398524947E+04  0.25090799291E+04 0.  0.
        4    1    3    3  502    0 -0.42632365921E+03 -0.88741316826E+02 -0.99388366241E+03  0.10850959548E+04  0.12699999809E+01 0.  1.
       -4    1    3    3    0  502  0.42632365921E+03  0.88741316826E+02  0.13880519061E+04  0.14547565400E+04  0.12699999809E+01 0. -1.
</event>
<event>
 5   0  0.1468512E-05  0.2499150E+04  0.7818609E-02  0.8403288E-01
       -2   -1    0    0    0  501  0.00000000000E+00  0.00000000000E+00  0.72479169618E+03  0.72479169618E+03  0.25500000920E-02 0.  1.
        2   -1    0    0  501    0  0.00000000000E+00  0.00000000000E+00 -0.21543264714E+04  0.21543264714E+04  0.25500000920E-02 0. -1.
    10030    2    1    2    0    0  0.00000000000E+00  0.00000000000E+00 -0.14295347752E+04  0.28791181676E+04  0.24991502054E+04 0.  0.
        4    1    3    3  502    0  0.12117487860E+04 -0.21128404203E+03 -0.96837365957E+03  0.15654792315E+04  0.12699999809E+01 0.  1.
       -4    1    3    3    0  502 -0.12117487860E+04  0.21128404203E+03 -0.46116111565E+03  0.13136389361E+04  0.12699999809E+01 0. -1.
</event>
<event>
 5   0  0.6105353E-06  0.2496545E+04  0.7818609E-02  0.8404217E-01
        1   -1    0    0  501    0  0.00000000000E+00  0.00000000000E+00  0.17382926124E+04  0.17382926124E+04  0.50400001928E-02 0.  1.
       -1   -1    0    0    0  501  0.00000000000E+00  0.00000000000E+00 -0.89638764094E+03  0.89638764096E+03  0.50400001928E-02 0. -1.
    10030    2    1    2    0    0  0.00000000000E+00  0.00000000000E+00  0.84190497143E+03  0.26346802533E+04  0.24965448236E+04 0.  0.
        3    1    3    3  502    0  0.95023331867E+03 -0.70189366487E+03 -0.45773586755E+01  0.11813632122E+04  0.10100000352E+00 0.  1.
       -3    1    3    3    0  502 -0.95023331867E+03  0.70189366487E+03  0.84648233010E+03  0.14533170411E+04  0.10100000352E+00 0. -1.
</event>
<event>
 5   0  0.6290861E-06  0.2492712E+04  0.7818609E-02  0.8405587E-01
        1   -1    0    0  501    0  0.00000000000E+00  0.00000000000E+00  0.12409465573E+04  0.12409465573E+04  0.50400001928E-02 0.  1.
       -1   -1    0    0    0  501  0.00000000000E+00  0.00000000000E+00 -0.12517890580E+04  0.12517890580E+04  0.50400001928E-02 0. -1.
    10030    2    1    2    0    0  0.00000000000E+00  0.00000000000E+00 -0.10842500691E+02  0.24927356153E+04  0.24927120347E+04 0.  0.
        1    1    3    3  502    0  0.11489913107E+04  0.21629750374E+03 -0.43720963270E+03  0.12482459313E+04  0.50400001928E-02 0. -1.
       -1    1    3    3    0  502 -0.11489913107E+04 -0.21629750374E+03  0.42636713201E+03  0.12444896839E+04  0.50400001928E-02 0.  1.
</event>
<event>
 5   0  0.6346420E-06  0.2485146E+04  0.7818609E-02  0.8408296E-01
       -1   -1    0    0    0  501  0.00000000000E+00  0.00000000000E+00  0.11162726023E+04  0.11162726023E+04  0.50400001928E-02 0.  1.
        1   -1    0    0  501    0  0.00000000000E+00  0.00000000000E+00 -0.13831637458E+04  0.13831637458E+04  0.50400001928E-02 0. -1.
    10030    2    1    2    0    0  0.00000000000E+00  0.00000000000E+00 -0.26689114354E+03  0.24994363481E+04  0.24851461076E+04 0.  0.
        4    1    3    3  502    0 -0.48388009657E+03  0.87563202429E+03 -0.87464652565E+03  0.13288640064E+04  0.12699999809E+01 0. -1.
       -4    1    3    3    0  502  0.48388009657E+03 -0.87563202429E+03  0.60775538211E+03  0.11705723417E+04  0.12699999809E+01 0.  1.
</event>
<event>
 5   0  0.1572732E-05  0.2501314E+04  0.7818609E-02  0.8402518E-01
        2   -1    0    0  501    0  0.00000000000E+00  0.00000000000E+00  0.23680424864E+04  0.23680424864E+04  0.25500000920E-02 0.  1.
       -2   -1    0    0    0  501  0.00000000000E+00  0.00000000000E+00 -0.66052149586E+03  0.66052149587E+03  0.25500000920E-02 0. -1.
    10030    2    1    2    0    0  0.00000000000E+00  0.00000000000E+00  0.17075209906E+04  0.30285639823E+04  0.25013140270E+04 0.  0.
        1    1    3    3  502    0  0.45674083875E+03  0.10771710751E+04  0.13887501977E+04  0.18159121208E+04  0.50400001928E-02 0.  1.
       -1    1    3    3    0  502 -0.45674083875E+03 -0.10771710751E+04  0.31877079287E+03  0.12126518615E+04  0.50400001928E-02 0. -1.
</event>
<event>
 5   0  0.1468512E-05  0.2692894E+04  0.7818609E-02  0.8337314E-01
       -2   -1    0    0    0  501  0.00000000000E+00  0.00000000000E+00  0.23272667149E+04  0.23272667149E+04  0.25500000920E-02 0. -1.
        2   -1    0    0  501    0  0.00000000000E+00  0.00000000000E+00 -0.77899081670E+03  0.77899081670E+03  0.25500000920E-02 0.  1.
    10030    2    1    2    0    0  0.00000000000E+00  0.00000000000E+00  0.15482758982E+04  0.31062575316E+04  0.26928939073E+04 0.  0.
        4    1    3    3  502    0 -0.74150401023E+03  0.27020382054E+03 -0.48422580274E+03  0.92591281596E+03  0.12699999809E+01 0.  1.
       -4    1    3    3    0  502  0.74150401023E+03 -0.27020382054E+03  0.20325017010E+04  0.21803447157E+04  0.12699999809E+01 0. -1.
</event>
<event>
 5   0  0.6477703E-06  0.2543446E+04  0.7818609E-02  0.8387669E-01
        1   -1    0    0  501    0  0.00000000000E+00  0.00000000000E+00  0.17292171285E+04  0.17292171285E+04  0.50400001928E-02 0. -1.
       -1   -1    0    0    0  501  0.00000000000E+00  0.00000000000E+00 -0.93526684916E+03  0.93526684917E+03  0.50400001928E-02 0.  1.
    10030    2    1    2    0    0  0.00000000000E+00  0.00000000000E+00  0.79395027937E+03  0.26644839777E+04  0.25434460524E+04 0.  0.
        5    1    3    3  502    0  0.28663289372E+03  0.10667099866E+04 -0.26327867886E+03  0.11355026922E+04  0.46999998093E+01 0.  1.
       -5    1    3    3    0  502 -0.28663289372E+03 -0.10667099866E+04  0.10572289582E+04  0.15289812855E+04  0.46999998093E+01 0. -1.
</event>
<event>
 5   0  0.1572732E-05  0.2490119E+04  0.7818609E-02  0.8406514E-01
       -2   -1    0    0    0  501  0.00000000000E+00  0.00000000000E+00  0.76919653743E+03  0.76919653744E+03  0.25500000920E-02 0.  1.
        2   -1    0    0  501    0  0.00000000000E+00  0.00000000000E+00 -0.20153153329E+04  0.20153153329E+04  0.25500000920E-02 0. -1.
    10030    2    1    2    0    0  0.00000000000E+00  0.00000000000E+00 -0.12461187955E+04  0.27845118703E+04  0.24901193352E+04 0.  0.
        1    1    3    3  502    0  0.65437793047E+03 -0.79595037608E+03 -0.14045582494E+04  0.17419906295E+04  0.50400001928E-02 0. -1.
       -1    1    3    3    0  502 -0.65437793047E+03  0.79595037608E+03  0.15843945397E+03  0.10425212409E+04  0.50400001928E-02 0.  1.
</event>
<event>
 5   0  0.6105353E-06  0.2496004E+04  0.7818609E-02  0.8404410E-01
       -1   -1    0    0    0  501  0.00000000000E+00  0.00000000000E+00  0.61755682458E+03  0.61755682460E+03  0.50400001928E-02 0.  1.
        1   -1    0    0  501    0  0.00000000000E+00  0.00000000000E+00 -0.25220502034E+04  0.25220502034E+04  0.50400001928E-02 0. -1.
    10030    2    1    2    0    0  0.00000000000E+00  0.00000000000E+00 -0.19044933788E+04  0.31396070280E+04  0.24960042589E+04 0.  0.
        3    1    3    3  502    0 -0.11733077937E+03  0.10454028026E+04 -0.17968609711E+04  0.20821486237E+04  0.10100000352E+00 0. -1.
       -3    1    3    3    0  502  0.11733077937E+03 -0.10454028026E+04 -0.10763240777E+03  0.10574584043E+04  0.10100000352E+00 0.  1.
</event>
<event>
 5   0  0.5164625E-06  0.2478854E+04  0.7818609E-02  0.8410558E-01
        3   -1    0    0  501    0  0.00000000000E+00  0.00000000000E+00  0.90112943591E+03  0.90112944157E+03  0.10100000352E+00 0.  1.
       -3   -1    0    0    0  501  0.00000000000E+00  0.00000000000E+00 -0.17047270608E+04  0.17047270638E+04  0.10100000352E+00 0. -1.
    10030    2    1    2    0    0  0.00000000000E+00  0.00000000000E+00 -0.80359762493E+03  0.26058565054E+04  0.24788543692E+04 0.  0.
        2    1    3    3  502    0 -0.31024238615E+03 -0.11981862783E+04 -0.33303290558E+03  0.12817221274E+04  0.25500000920E-02 0. -1.
       -2    1    3    3    0  502  0.31024238615E+03  0.11981862783E+04 -0.47056471935E+03  0.13241343780E+04  0.25500000920E-02 0.  1.
</event>
<event>
 5   0  0.6477703E-06  0.2505531E+04  0.7818609E-02  0.8401018E-01
       -1   -1    0    0    0  501  0.00000000000E+00  0.00000000000E+00  0.90700024523E+03  0.90700024525E+03  0.50400001928E-02 0.  1.
        1   -1    0    0  501    0  0.00000000000E+00  0.00000000000E+00 -0.17303426917E+04  0.17303426917E+04  0.50400001928E-02 0. -1.
    10030    2    1    2    0    0  0.00000000000E+00  0.00000000000E+00 -0.82334244643E+03  0.26373429369E+04  0.25055308784E+04 0.  0.
        5    1    3    3  502    0 -0.11207561437E+04  0.55968601428E+03 -0.40376702370E+03  0.13162038853E+04  0.46999998093E+01 0. -1.
       -5    1    3    3    0  502  0.11207561437E+04 -0.55968601428E+03 -0.41957542273E+03  0.13211390516E+04  0.46999998093E+01 0.  1.
</event>
<event>
 5   0  0.5164625E-06  0.2483781E+04  0.7818609E-02  0.8408787E-01
        4   -1    0    0  501    0  0.00000000000E+00  0.00000000000E+00  0.12352197774E+04  0.12352204303E+04  0.12699999809E+01 0.  1.
       -4   -1    0    0    0  501  0.00000000000E+00  0.00000000000E+00 -0.12485958138E+04  0.12485964597E+04  0.12699999809E+01 0. -1.
    10030    2    1    2    0    0  0.00000000000E+00  0.00000000000E+00 -0.13376036356E+02  0.24838168900E+04  0.24837808729E+04 0.  0.
        1    1    3    3  502    0  0.10483442591E+04  0.18534035189E+03  0.63278597173E+03  0.12384647019E+04  0.50400001928E-02 0.  1.
       -1    1    3    3    0  502 -0.10483442591E+04 -0.18534035189E+03 -0.64616200809E+03  0.12453521881E+04  0.50400001928E-02 0. -1.
</event>
<event>
 5   0  0.1550483E-05  0.2498820E+04  0.7818609E-02  0.8403406E-01
        2   -1    0    0  501    0  0.00000000000E+00  0.00000000000E+00  0.25401193822E+04  0.25401193822E+04  0.25500000920E-02 0.  1.
       -2   -1    0    0    0  501  0.00000000000E+00  0.00000000000E+00 -0.61454787349E+03  0.61454787350E+03  0.25500000920E-02 0. -1.
    10030    2    1    2    0    0  0.00000000000E+00  0.00000000000E+00  0.19255715088E+04  0.31546672557E+04  0.24988196932E+04 0.  0.
        5    1    3    3  502    0  0.81547762508E+03  0.36561096746E+03 -0.13948808235E+03  0.90451874035E+03  0.46999998093E+01 0. -1.
       -5    1    3    3    0  502 -0.81547762508E+03 -0.36561096746E+03  0.20650595911E+04  0.22501485154E+04  0.46999998093E+01 0.  1.
</event>
<event>
 5   0  0.1468512E-05  0.2501649E+04  0.7818609E-02  0.8402398E-01
        2   -1    0    0  501    0  0.00000000000E+00  0.00000000000E+00  0.12389660571E+04  0.12389660571E+04  0.25500000920E-02 0. -1.
       -2   -1    0    0    0  501  0.00000000000E+00  0.00000000000E+00 -0.12627963666E+04  0.12627963666E+04  0.25500000920E-02 0.  1.
    10030    2    1    2    0    0  0.00000000000E+00  0.00000000000E+00 -0.23830309441E+02  0.25017624237E+04  0.25016489244E+04 0.  0.
        4    1    3    3  502    0 -0.76513509654E+03  0.20751394020E+03 -0.97946433241E+03  0.12600975132E+04  0.12699999809E+01 0.  1.
       -4    1    3    3    0  502  0.76513509654E+03 -0.20751394020E+03  0.95563402297E+03  0.12416649106E+04  0.12699999809E+01 0. -1.
</event>
<event>
 5   0  0.6290861E-06  0.2493030E+04  0.7818609E-02  0.8405473E-01
        1   -1    0    0  501    0  0.00000000000E+00  0.00000000000E+00  0.19572208033E+04  0.19572208033E+04  0.50400001928E-02 0.  1.
       -1   -1    0    0    0  501  0.00000000000E+00  0.00000000000E+00 -0.79388048469E+03  0.79388048471E+03  0.50400001928E-02 0. -1.
    10030    2    1    2    0    0  0.00000000000E+00  0.00000000000E+00  0.11633403186E+04  0.27511012880E+04  0.24930298033E+04 0.  0.
        1    1    3    3  502    0  0.10279986793E+04 -0.48332189377E+03  0.15298015147E+02  0.11360525370E+04  0.50400001928E-02 0. -1.
       -1    1    3    3    0  502 -0.10279986793E+04  0.48332189377E+03  0.11480423034E+04  0.16150487510E+04  0.50400001928E-02 0.  1.
</event>
<event>
 5   0  0.1550483E-05  0.2503424E+04  0.7818609E-02  0.8401767E-01
        2   -1    0    0  501    0  0.00000000000E+00  0.00000000000E+00  0.11999427771E+04  0.11999427771E+04  0.25500000920E-02 0.  1.
       -2   -1    0    0    0  501  0.00000000000E+00  0.00000000000E+00 -0.13057145307E+04  0.13057145307E+04  0.25500000920E-02 0. -1.
    10030    2    1    2    0    0  0.00000000000E+00  0.00000000000E+00 -0.10577175360E+03  0.25056573078E+04  0.25034238315E+04 0.  0.
        5    1    3    3  502    0  0.72415564236E+03 -0.50025055066E+03  0.83791300155E+03  0.12152252038E+04  0.46999998093E+01 0.  1.
       -5    1    3    3    0  502 -0.72415564236E+03  0.50025055066E+03 -0.94368475515E+03  0.12904321039E+04  0.46999998093E+01 0. -1.
</event>
<event>
 5   0  0.6477703E-06  0.2367091E+04  0.7818609E-02  0.8451928E-01
       -1   -1    0    0    0  501  0.00000000000E+00  0.00000000000E+00  0.10868057202E+04  0.10868057202E+04  0.50400001928E-02 0. -1.
        1   -1    0    0  501    0  0.00000000000E+00  0.00000000000E+00 -0.12888967899E+04  0.12888967899E+04  0.50400001928E-02 0.  1.
    10030    2    1    2    0    0  0.00000000000E+00  0.00000000000E+00 -0.20209106964E+03  0.23757025101E+04  0.23670913831E+04 0.  0.
        5    1    3    3  502    0 -0.53015653999E+03  0.98495171627E+03  0.28709442088E+03  0.11548338135E+04  0.46999998093E+01 0. -1.
       -5    1    3    3    0  502  0.53015653999E+03 -0.98495171627E+03 -0.48918549053E+03  0.12208686966E+04  0.46999998093E+01 0.  1.
</event>
<event>
 5   0  0.1501947E-05  0.2487179E+04  0.7818609E-02  0.8407568E-01
        2   -1    0    0  501    0  0.00000000000E+00  0.00000000000E+00  0.15482145116E+04  0.15482145116E+04  0.25500000920E-02 0.  1.
       -2   -1    0    0    0  501  0.00000000000E+00  0.00000000000E+00 -0.99890179923E+03  0.99890179923E+03  0.25500000920E-02 0. -1.
    10030    2    1    2    0    0  0.00000000000E+00  0.00000000000E+00  0.54931271238E+03  0.25471163108E+04  0.24871785310E+04 0.  0.
        3    1    3    3  502    0  0.28112974481E+02  0.10488754771E+04  0.95826363983E+03  0.14209853340E+04  0.10100000352E+00 0. -1.
       -3    1    3    3    0  502 -0.28112974481E+02 -0.10488754771E+04 -0.40895092746E+03  0.11261309769E+04  0.10100000352E+00 0.  1.
</event>
<event>
 5   0  0.1550483E-05  0.2317622E+04  0.7818609E-02  0.8471005E-01
        2   -1    0    0  501    0  0.00000000000E+00  0.00000000000E+00  0.10490857509E+04  0.10490857509E+04  0.25500000920E-02 0.  1.
       -2   -1    0    0    0  501  0.00000000000E+00  0.00000000000E+00 -0.12800121944E+04  0.12800121944E+04  0.25500000920E-02 0. -1.
    10030    2    1    2    0    0  0.00000000000E+00  0.00000000000E+00 -0.23092644351E+03  0.23290979453E+04  0.23176216724E+04 0.  0.
        5    1    3    3  502    0 -0.32753464096E+03 -0.26025852672E+02 -0.12322102491E+04  0.12752727058E+04  0.46999998093E+01 0. -1.
       -5    1    3    3    0  502  0.32753464096E+03  0.26025852672E+02  0.10012838056E+04  0.10538252395E+04  0.46999998093E+01 0.  1.
</event>
<event>
 5   0  0.6346420E-06  0.2531371E+04  0.7818609E-02  0.8391894E-01
       -1   -1    0    0    0  501  0.00000000000E+00  0.00000000000E+00  0.87459549218E+03  0.87459549219E+03  0.50400001928E-02 0. -1.
        1   -1    0    0  501    0  0.00000000000E+00  0.00000000000E+00 -0.18316578984E+04  0.18316578984E+04  0.50400001928E-02 0.  1.
    10030    2    1    2    0    0  0.00000000000E+00  0.00000000000E+00 -0.95706240624E+03  0.27062533906E+04  0.25313709655E+04 0.  0.
        4    1    3    3  502    0 -0.47448597885E+03  0.52463844256E+03  0.64353849609E+03  0.95630844835E+03  0.12699999809E+01 0. -1.
       -4    1    3    3    0  502  0.47448597885E+03 -0.52463844256E+03 -0.16006009023E+04  0.17499449423E+04  0.12699999809E+01 0.  1.
</event>
<event>
 5   0  0.1501947E-05  0.2505306E+04  0.7818609E-02  0.8401098E-01
        2   -1    0    0  501    0  0.00000000000E+00  0.00000000000E+00  0.13935227586E+04  0.13935227586E+04  0.25500000920E-02 0. -1.
       -2   -1    0    0    0  501  0.00000000000E+00  0.00000000000E+00 -0.11260234948E+04  0.11260234948E+04  0.25500000920E-02 0.  1.
    10030    2    1    2    0    0  0.00000000000E+00  0.00000000000E+00  0.26749926382E+03  0.25195462535E+04  0.25053058630E+04 0.  0.
        3    1    3    3  502    0 -0.11844766457E+04  0.23032304979E+03 -0.20447394256E+03  0.12238640590E+04  0.10100000352E+00 0. -1.
       -3    1    3    3    0  502  0.11844766457E+04 -0.23032304979E+03  0.47197320638E+03  0.12956821945E+04  0.10100000352E+00 0.  1.
</event>
<event>
 5   0  0.1526824E-05  0.2506899E+04  0.7818609E-02  0.8400532E-01
        2   -1    0    0  501    0  0.00000000000E+00  0.00000000000E+00  0.17408338358E+04  0.17408338358E+04  0.25500000920E-02 0. -1.
       -2   -1    0    0    0  501  0.00000000000E+00  0.00000000000E+00 -0.90251880866E+03  0.90251880866E+03  0.25500000920E-02 0.  1.
    10030    2    1    2    0    0  0.00000000000E+00  0.00000000000E+00  0.83831502718E+03  0.26433526445E+04  0.25068987053E+04 0.  0.
        2    1    3    3  502    0  0.81897614801E+03  0.48958190964E+03 -0.43793558819E+03  0.10498571125E+04  0.25500000920E-02 0.  1.
       -2    1    3    3    0  502 -0.81897614801E+03 -0.48958190964E+03  0.12762506154E+04  0.15934955320E+04  0.25500000920E-02 0. -1.
</event>
<event>
 5   0  0.1468512E-05  0.2498486E+04  0.7818609E-02  0.8403525E-01
        2   -1    0    0  501    0  0.00000000000E+00  0.00000000000E+00  0.16170870577E+04  0.16170870577E+04  0.25500000920E-02 0. -1.
       -2   -1    0    0    0  501  0.00000000000E+00  0.00000000000E+00 -0.96507361129E+03  0.96507361129E+03  0.25500000920E-02 0.  1.
    10030    2    1    2    0    0  0.00000000000E+00  0.00000000000E+00  0.65201344637E+03  0.25821606690E+04  0.24984859788E+04 0.  0.
        4    1    3    3  502    0  0.98941953971E+03  0.76038491622E+03  0.26512558005E+03  0.12757074243E+04  0.12699999809E+01 0.  1.
       -4    1    3    3    0  502 -0.98941953971E+03 -0.76038491622E+03  0.38688786632E+03  0.13064532446E+04  0.12699999809E+01 0. -1.
</event>
<event>
 5   0  0.1550483E-05  0.2493844E+04  0.7818609E-02  0.8405182E-01
        2   -1    0    0  501    0  0.00000000000E+00  0.00000000000E+00  0.13535911625E+04  0.13535911625E+04  0.25500000920E-02 0. -1.
       -2   -1    0    0    0  501  0.00000000000E+00  0.00000000000E+00 -0.11486588175E+04  0.11486588175E+04  0.25500000920E-02 0.  1.
    10030    2    1    2    0    0  0.00000000000E+00  0.00000000000E+00  0.20493234505E+03  0.25022499800E+04  0.24938439599E+04 0.  0.
        5    1    3    3  502    0  0.37462512889E+03 -0.97153413629E+03 -0.58582694970E+03  0.11947543137E+04  0.46999998093E+01 0.  1.
       -5    1    3    3    0  502 -0.37462512889E+03  0.97153413629E+03  0.79075929475E+03  0.13074956663E+04  0.46999998093E+01 0. -1.
</event>
<event>
 5   0  0.1572732E-05  0.2344769E+04  0.7818609E-02  0.8460476E-01
        2   -1    0    0  501    0  0.00000000000E+00  0.00000000000E+00  0.17491712846E+04  0.17491712846E+04  0.25500000920E-02 0.  1.
       -2   -1    0    0    0  501  0.00000000000E+00  0.00000000000E+00 -0.78579210069E+03  0.78579210070E+03  0.25500000920E-02 0. -1.
    10030    2    1    2    0    0  0.00000000000E+00  0.00000000000E+00  0.96337918395E+03  0.25349633853E+04  0.23447686267E+04 0.  0.
        1    1    3    3  502    0 -0.51512253473E+03 -0.49593764418E+03  0.14861256191E+04  0.16492042713E+04  0.50400001928E-02 0.  1.
       -1    1    3    3    0  502  0.51512253473E+03  0.49593764418E+03 -0.52274643512E+03  0.88575911407E+03  0.50400001928E-02 0. -1.
</event>
<event>
 5   0  0.1572732E-05  0.2503961E+04  0.7818609E-02  0.8401576E-01
       -2   -1    0    0    0  501  0.00000000000E+00  0.00000000000E+00  0.15888742229E+04  0.15888742229E+04  0.25500000920E-02 0.  1.
        2   -1    0    0  501    0  0.00000000000E+00  0.00000000000E+00 -0.98651942134E+03  0.98651942135E+03  0.25500000920E-02 0. -1.
    10030    2    1    2    0    0  0.00000000000E+00  0.00000000000E+00  0.60235480160E+03  0.25753936443E+04  0.25039610852E+04 0.  0.
        1    1    3    3  502    0  0.42430461371E+03 -0.88776714649E+03  0.10974003540E+04  0.14739241665E+04  0.50400001928E-02 0.  1.
       -1    1    3    3    0  502 -0.42430461371E+03  0.88776714649E+03 -0.49504555237E+03  0.11014694778E+04  0.50400001928E-02 0. -1.
</event>
<event>
 5   0  0.6290861E-06  0.2477117E+04  0.7818609E-02  0.8411183E-01
        1   -1    0    0  501    0  0.00000000000E+00  0.00000000000E+00  0.94347816757E+03  0.94347816758E+03  0.50400001928E-02 0. -1.
       -1   -1    0    0    0  501  0.00000000000E+00  0.00000000000E+00 -0.16259277750E+04  0.16259277750E+04  0.50400001928E-02 0.  1.
    10030    2    1    2    0    0  0.00000000000E+00  0.00000000000E+00 -0.68244960744E+03  0.25694059426E+04  0.24771171614E+04 0.  0.
        1    1    3    3  502    0 -0.11787654367E+04  0.35269955105E+03 -0.19401317978E+03  0.12456026823E+04  0.50400001928E-02 0. -1.
       -1    1    3    3    0  502  0.11787654367E+04 -0.35269955105E+03 -0.48843642766E+03  0.13238032603E+04  0.50400001928E-02 0.  1.
</event>
<event>
 5   0  0.6104486E-06  0.2505184E+04  0.7818609E-02  0.8401141E-01
       -1   -1    0    0    0  501  0.00000000000E+00  0.00000000000E+00  0.83376614415E+03  0.83376614416E+03  0.50400001928E-02 0. -1.
        1   -1    0    0  501    0  0.00000000000E+00  0.00000000000E+00 -0.18818065288E+04  0.18818065288E+04  0.50400001928E-02 0.  1.
    10030    2    1    2    0    0  0.00000000000E+00  0.00000000000E+00 -0.10480403847E+04  0.27155726730E+04  0.25051838844E+04 0.  0.
        2    1    3    3  502    0  0.87643139676E+03 -0.36977861221E+03 -0.14073940918E+04  0.16987131438E+04  0.25500000920E-02 0.  1.
       -2    1    3    3    0  502 -0.87643139676E+03  0.36977861221E+03  0.35935370713E+03  0.10168595292E+04  0.25500000920E-02 0. -1.
</event>
<event>
 5   0  0.1572732E-05  0.2502440E+04  0.7818609E-02  0.8402117E-01
        2   -1    0    0  501    0  0.00000000000E+00  0.00000000000E+00  0.18756872618E+04  0.18756872618E+04  0.25500000920E-02 0.  1.
       -2   -1    0    0    0  501  0.00000000000E+00  0.00000000000E+00 -0.83465517586E+03  0.83465517587E+03  0.25500000920E-02 0. -1.
    10030    2    1    2    0    0  0.00000000000E+00  0.00000000000E+00  0.10410320859E+04  0.27103424376E+04  0.25024404739E+04 0.  0.
        1    1    3    3  502    0 -0.52103515435E+03  0.76256678947E+02 -0.70879579625E+03  0.88299727857E+03  0.50400001928E-02 0. -1.
       -1    1    3    3    0  502  0.52103515435E+03 -0.76256678947E+02  0.17498278822E+04  0.18273451591E+04  0.50400001928E-02 0.  1.
</event>
<event>
 5   0  0.6477703E-06  0.2660849E+04  0.7818609E-02  0.8347821E-01
        1   -1    0    0  501    0  0.00000000000E+00  0.00000000000E+00  0.17988323126E+04  0.17988323126E+04  0.50400001928E-02 0. -1.
       -1   -1    0    0    0  501  0.00000000000E+00  0.00000000000E+00 -0.98398797863E+03  0.98398797864E+03  0.50400001928E-02 0.  1.
    10030    2    1    2    0    0  0.00000000000E+00  0.00000000000E+00  0.81484433396E+03  0.27828202912E+04  0.26608490158E+04 0.  0.
        5    1    3    3  502    0 -0.54008015281E+03 -0.10793869738E+02 -0.86412403653E+03  0.10190856292E+04  0.46999998093E+01 0.  1.
       -5    1    3    3    0  502  0.54008015281E+03  0.10793869738E+02  0.16789683705E+04  0.17637346621E+04  0.46999998093E+01 0. -1.
</event>
<event>
 5   0  0.1550483E-05  0.2320523E+04  0.7818609E-02  0.8469873E-01
       -2   -1    0    0    0  501  0.00000000000E+00  0.00000000000E+00  0.10596226033E+04  0.10596226033E+04  0.25500000920E-02 0. -1.
        2   -1    0    0  501    0  0.00000000000E+00  0.00000000000E+00 -0.12704588501E+04  0.12704588502E+04  0.25500000920E-02 0.  1.
    10030    2    1    2    0    0  0.00000000000E+00  0.00000000000E+00 -0.21083624688E+03  0.23300814534E+04  0.23205231429E+04 0.  0.
        5    1    3    3  502    0  0.11401885857E+04  0.13559273593E+03 -0.27274612689E+03  0.11801813168E+04  0.46999998093E+01 0. -1.
       -5    1    3    3    0  502 -0.11401885857E+04 -0.13559273593E+03  0.61909880009E+02  0.11499001366E+04  0.46999998093E+01 0.  1.
</event>
<event>
 5   0  0.6105353E-06  0.2508198E+04  0.7818609E-02  0.8400071E-01
        1   -1    0    0  501    0  0.00000000000E+00  0.00000000000E+00  0.16344398810E+04  0.16344398810E+04  0.50400001928E-02 0.  1.
       -1   -1    0    0    0  501  0.00000000000E+00  0.00000000000E+00 -0.96226479391E+03  0.96226479392E+03  0.50400001928E-02 0. -1.
    10030    2    1    2    0    0  0.00000000000E+00  0.00000000000E+00  0.67217508712E+03  0.25967046750E+04  0.25081977237E+04 0.  0.
        3    1    3    3  502    0  0.90882359072E+03 -0.76988222696E+03  0.74247561087E+03  0.14035487186E+04  0.10100000352E+00 0. -1.
       -3    1    3    3    0  502 -0.90882359072E+03  0.76988222696E+03 -0.70300523749E+02  0.11931559564E+04  0.10100000352E+00 0.  1.
</event>
<event>
 5   0  0.1526824E-05  0.2482492E+04  0.7818609E-02  0.8409249E-01
       -2   -1    0    0    0  501  0.00000000000E+00  0.00000000000E+00  0.11582450357E+04  0.11582450357E+04  0.25500000920E-02 0.  1.
        2   -1    0    0  501    0  0.00000000000E+00  0.00000000000E+00 -0.13301949653E+04  0.13301949653E+04  0.25500000920E-02 0. -1.
    10030    2    1    2    0    0  0.00000000000E+00  0.00000000000E+00 -0.17194992960E+03  0.24884400010E+04  0.24824920666E+04 0.  0.
        2    1    3    3  502    0 -0.10198552469E+04 -0.19538444921E+03 -0.76761298925E+03  0.12913208389E+04  0.25500000920E-02 0.  1.
       -2    1    3    3    0  502  0.10198552469E+04  0.19538444921E+03  0.59566305966E+03  0.11971191621E+04  0.25500000920E-02 0. -1.
</event>
<event>
 5   0  0.6346420E-06  0.2510665E+04  0.7818609E-02  0.8399196E-01
        1   -1    0    0  501    0  0.00000000000E+00  0.00000000000E+00  0.16019666277E+04  0.16019666277E+04  0.50400001928E-02 0.  1.
       -1   -1    0    0    0  501  0.00000000000E+00  0.00000000000E+00 -0.98370307058E+03  0.98370307059E+03  0.50400001928E-02 0. -1.
    10030    2    1    2    0    0  0.00000000000E+00  0.00000000000E+00  0.61826355716E+03  0.25856696983E+04  0.25106648448E+04 0.  0.
        4    1    3    3  502    0 -0.27719055832E+03  0.99653314689E+03  0.10416795326E+04  0.14679954973E+04  0.12699999809E+01 0.  1.
       -4    1    3    3    0  502  0.27719055832E+03 -0.99653314689E+03 -0.42341597548E+03  0.11176742010E+04  0.12699999809E+01 0. -1.
</event>
<event>
 5   0  0.6477703E-06  0.2386443E+04  0.7818609E-02  0.8444596E-01
        1   -1    0    0  501    0  0.00000000000E+00  0.00000000000E+00  0.18880434789E+04  0.18880434789E+04  0.50400001928E-02 0. -1.
       -1   -1    0    0    0  501  0.00000000000E+00  0.00000000000E+00 -0.75410238108E+03  0.75410238110E+03  0.50400001928E-02 0.  1.
    10030    2    1    2    0    0  0.00000000000E+00  0.00000000000E+00  0.11339410978E+04  0.26421458600E+04  0.23864434484E+04 0.  0.
        5    1    3    3  502    0  0.52683440006E+03 -0.48760158182E+03  0.16222202784E+04  0.17739589931E+04  0.46999998093E+01 0. -1.
       -5    1    3    3    0  502 -0.52683440006E+03  0.48760158182E+03 -0.48827918056E+03  0.86818686689E+03  0.46999998093E+01 0.  1.
</event>
<event>
 5   0  0.6290861E-06  0.2506341E+04  0.7818609E-02  0.8400730E-01
        1   -1    0    0  501    0  0.00000000000E+00  0.00000000000E+00  0.10626199148E+04  0.10626199149E+04  0.50400001928E-02 0.  1.
       -1   -1    0    0    0  501  0.00000000000E+00  0.00000000000E+00 -0.14778914512E+04  0.14778914512E+04  0.50400001928E-02 0. -1.
    10030    2    1    2    0    0  0.00000000000E+00  0.00000000000E+00 -0.41527153637E+03  0.25405113661E+04  0.25063414676E+04 0.  0.
        1    1    3    3  502    0 -0.34277199054E+03  0.15791149181E+03  0.10036489971E+04  0.10722592906E+04  0.50400001928E-02 0.  1.
       -1    1    3    3    0  502  0.34277199054E+03 -0.15791149181E+03 -0.14189205335E+04  0.14682520755E+04  0.50400001928E-02 0. -1.
</event>
<event>
 5   0  0.6104486E-06  0.2489918E+04  0.7818609E-02  0.8406586E-01
        1   -1    0    0  501    0  0.00000000000E+00  0.00000000000E+00  0.23588938870E+04  0.23588938870E+04  0.50400001928E-02 0. -1.
       -1   -1    0    0    0  501  0.00000000000E+00  0.00000000000E+00 -0.65705516643E+03  0.65705516645E+03  0.50400001928E-02 0.  1.
    10030    2    1    2    0    0  0.00000000000E+00  0.00000000000E+00  0.17018387206E+04  0.30159490535E+04  0.24899184048E+04 0.  0.
        2    1    3    3  502    0  0.67331040630E+03 -0.37164723749E+03 -0.33491686656E+03  0.83883125828E+03  0.25500000920E-02 0.  1.
       -2    1    3    3    0  502 -0.67331040630E+03  0.37164723749E+03  0.20367555872E+04  0.21771177952E+04  0.25500000920E-02 0. -1.
</event>
<event>
 5   0  0.1501947E-05  0.2481048E+04  0.7818609E-02  0.8409769E-01
       -2   -1    0    0    0  501  0.00000000000E+00  0.00000000000E+00  0.90205799013E+03  0.90205799013E+03  0.25500000920E-02 0. -1.
        2   -1    0    0  501    0  0.00000000000E+00  0.00000000000E+00 -0.17059873750E+04  0.17059873750E+04  0.25500000920E-02 0.  1.
    10030    2    1    2    0    0  0.00000000000E+00  0.00000000000E+00 -0.80392938490E+03  0.26080453652E+04  0.24810477970E+04 0.  0.
        3    1    3    3  502    0  0.34536332929E+03  0.89566616291E+03  0.42400739790E+03  0.10494169754E+04  0.10100000352E+00 0. -1.
       -3    1    3    3    0  502 -0.34536332929E+03 -0.89566616291E+03 -0.12279367828E+04  0.15586283898E+04  0.10100000352E+00 0.  1.
</event>
<event>
 5   0  0.1572732E-05  0.2484929E+04  0.7818609E-02  0.8408374E-01
       -2   -1    0    0    0  501  0.00000000000E+00  0.00000000000E+00  0.64070343071E+03  0.64070343071E+03  0.25500000920E-02 0. -1.
        2   -1    0    0  501    0  0.00000000000E+00  0.00000000000E+00 -0.24094117776E+04  0.24094117776E+04  0.25500000920E-02 0.  1.
    10030    2    1    2    0    0  0.00000000000E+00  0.00000000000E+00 -0.17687083469E+04  0.30501152083E+04  0.24849292883E+04 0.  0.
        1    1    3    3  502    0  0.31051692696E+03 -0.66714355001E+03  0.34445124033E+03  0.81249488321E+03  0.50400001928E-02 0. -1.
       -1    1    3    3    0  502 -0.31051692696E+03  0.66714355001E+03 -0.21131595872E+04  0.22376203251E+04  0.50400001928E-02 0.  1.
</event>
<event>
 5   0  0.6104486E-06  0.2506680E+04  0.7818609E-02  0.8400609E-01
       -1   -1    0    0    0  501  0.00000000000E+00  0.00000000000E+00  0.12187236137E+04  0.12187236137E+04  0.50400001928E-02 0.  1.
        1   -1    0    0  501    0  0.00000000000E+00  0.00000000000E+00 -0.12889399792E+04  0.12889399792E+04  0.50400001928E-02 0. -1.
    10030    2    1    2    0    0  0.00000000000E+00  0.00000000000E+00 -0.70216365541E+02  0.25076635929E+04  0.25066803461E+04 0.  0.
        2    1    3    3  502    0 -0.47189112639E+03 -0.33390633946E+03  0.10773922816E+04  0.12226809916E+04  0.25500000920E-02 0.  1.
       -2    1    3    3    0  502  0.47189112639E+03  0.33390633946E+03 -0.11476086472E+04  0.12849826013E+04  0.25500000920E-02 0. -1.
</event>
<event>
 5   0  0.6346420E-06  0.2479984E+04  0.7818609E-02  0.8410151E-01
       -1   -1    0    0    0  501  0.00000000000E+00  0.00000000000E+00  0.12998575869E+04  0.12998575869E+04  0.50400001928E-02 0.  1.
        1   -1    0    0  501    0  0.00000000000E+00  0.00000000000E+00 -0.11828837070E+04  0.11828837070E+04  0.50400001928E-02 0. -1.
    10030    2    1    2    0    0  0.00000000000E+00  0.00000000000E+00  0.11697387990E+03  0.24827412940E+04  0.24799841621E+04 0.  0.
        4    1    3    3  502    0  0.32885485947E+03  0.10017546607E+04  0.71183860173E+03  0.12721531852E+04  0.12699999809E+01 0.  1.
       -4    1    3    3    0  502 -0.32885485947E+03 -0.10017546607E+04 -0.59486472183E+03  0.12105881087E+04  0.12699999809E+01 0. -1.
</event>
<event>
 5   0  0.6105353E-06  0.2500458E+04  0.7818609E-02  0.8402822E-01
       -1   -1    0    0    0  501  0.00000000000E+00  0.00000000000E+00  0.67316881933E+03  0.67316881935E+03  0.50400001928E-02 0. -1.
        1   -1    0    0  501    0  0.00000000000E+00  0.00000000000E+00 -0.23219617171E+04  0.23219617171E+04  0.50400001928E-02 0.  1.
    10030    2    1    2    0    0  0.00000000000E+00  0.00000000000E+00 -0.16487928977E+04  0.29951305364E+04  0.25004577402E+04 0.  0.
        3    1    3    3  502    0 -0.48766049769E+03 -0.11440556604E+04 -0.97777567594E+03  0.15819991776E+04  0.10100000352E+00 0. -1.
       -3    1    3    3    0  502  0.48766049769E+03  0.11440556604E+04 -0.67101722180E+03  0.14131313588E+04  0.10100000352E+00 0.  1.
</event>
<event>
 5   0  0.6346420E-06  0.2510679E+04  0.7818609E-02  0.8399191E-01
       -1   -1    0    0    0  501  0.00000000000E+00  0.00000000000E+00  0.69427420346E+03  0.69427420348E+03  0.50400001928E-02 0. -1.
        1   -1    0    0  501    0  0.00000000000E+00  0.00000000000E+00 -0.22698188522E+04  0.22698188522E+04  0.50400001928E-02 0.  1.
    10030    2    1    2    0    0  0.00000000000E+00  0.00000000000E+00 -0.15755446487E+04  0.29640930557E+04  0.25106785343E+04 0.  0.
        4    1    3    3  502    0 -0.33065948469E+03  0.94720007180E+03 -0.16785942912E+04  0.19555572296E+04  0.12699999809E+01 0.  1.
       -4    1    3    3    0  502  0.33065948469E+03 -0.94720007180E+03  0.10304964245E+03  0.10085358261E+04  0.12699999809E+01 0. -1.
</event>
<event>
 5   0  0.1526824E-05  0.2455191E+04  0.7818609E-02  0.8419125E-01
       -2   -1    0    0    0  501  0.00000000000E+00  0.00000000000E+00  0.20486430500E+04  0.20486430500E+04  0.25500000920E-02 0. -1.
        2   -1    0    0  501    0  0.00000000000E+00  0.00000000000E+00 -0.73560413474E+03  0.73560413475E+03  0.25500000920E-02 0.  1.
    10030    2    1    2    0    0  0.00000000000E+00  0.00000000000E+00  0.13130389153E+04  0.27842471848E+04  0.24551906632E+04 0.  0.
        2    1    3    3  502    0  0.80530470642E+02 -0.11960043086E+04  0.35631578367E+03  0.12505488398E+04  0.25500000920E-02 0.  1.
       -2    1    3    3    0  502 -0.80530470642E+02  0.11960043086E+04  0.95672313159E+03  0.15336983450E+04  0.25500000920E-02 0. -1.
</event>
<event>
 5   0  0.1572732E-05  0.2494064E+04  0.7818609E-02  0.8405103E-01
       -2   -1    0    0    0  501  0.00000000000E+00  0.00000000000E+00  0.80079686401E+03  0.80079686402E+03  0.25500000920E-02 0. -1.
        2   -1    0    0  501    0  0.00000000000E+00  0.00000000000E+00 -0.19419273029E+04  0.19419273029E+04  0.25500000920E-02 0.  1.
    10030    2    1    2    0    0  0.00000000000E+00  0.00000000000E+00 -0.11411304389E+04  0.27427241669E+04  0.24940643891E+04 0.  0.
        1    1    3    3  502    0 -0.58050646111E+03  0.49873004342E+03 -0.16532928851E+04  0.18218388435E+04  0.50400001928E-02 0.  1.
       -1    1    3    3    0  502  0.58050646111E+03 -0.49873004342E+03  0.51216244622E+03  0.92088532345E+03  0.50400001928E-02 0. -1.
</event>
<event>
 5   0  0.6290861E-06  0.2505274E+04  0.7818609E-02  0.8401109E-01
       -1   -1    0    0    0  501  0.00000000000E+00  0.00000000000E+00  0.17981426197E+04  0.17981426197E+04  0.50400001928E-02 0. -1.
        1   -1    0    0  501    0  0.00000000000E+00  0.00000000000E+00 -0.87262224718E+03  0.87262224719E+03  0.50400001928E-02 0.  1.
    10030    2    1    2    0    0  0.00000000000E+00  0.00000000000E+00  0.92552037251E+03  0.26707648669E+04  0.25052738402E+04 0.  0.
        1    1    3    3  502    0  0.36556781468E+02  0.49875785407E+03  0.16871040759E+04  0.17596635923E+04  0.50400001928E-02 0. -1.
       -1    1    3    3    0  502 -0.36556781468E+02 -0.49875785407E+03 -0.76158370337E+03  0.91110127457E+03  0.50400001928E-02 0.  1.
</event>
<event>
 5   0  0.1526824E-05  0.2491127E+04  0.7818609E-02  0.8406153E-01
       -2   -1    0    0    0  501  0.00000000000E+00  0.00000000000E+00  0.11094920766E+04  0.11094920766E+04  0.25500000920E-02 0. -1.
        2   -1    0    0  501    0  0.00000000000E+00  0.00000000000E+00 -0.13983235746E+04  0.13983235746E+04  0.25500000920E-02 0.  1.
    10030    2    1    2    0    0  0.00000000000E+00  0.00000000000E+00 -0.28883149800E+03  0.25078156512E+04  0.24911273967E+04 0.  0.
        2    1    3    3  502    0 -0.80854170896E+03 -0.59656667976E+03  0.59658413505E+03  0.11685649870E+04  0.25500000920E-02 0. -1.
       -2    1    3    3    0  502  0.80854170896E+03  0.59656667976E+03 -0.88541563305E+03  0.13392506643E+04  0.25500000920E-02 0.  1.
</event>
<event>
 5   0  0.6105353E-06  0.2502633E+04  0.7818609E-02  0.8402048E-01
        1   -1    0    0  501    0  0.00000000000E+00  0.00000000000E+00  0.13010320772E+04  0.13010320772E+04  0.50400001928E-02 0. -1.
       -1   -1    0    0    0  501  0.00000000000E+00  0.00000000000E+00 -0.12035007181E+04  0.12035007181E+04  0.50400001928E-02 0.  1.
    10030    2    1    2    0    0  0.00000000000E+00  0.00000000000E+00  0.97531359096E+02  0.25045327953E+04  0.25026330447E+04 0.  0.
        3    1    3    3  502    0  0.68185138754E+03 -0.80894465212E+03  0.71746469129E+03  0.12783068326E+04  0.10100000352E+00 0. -1.
       -3    1    3    3    0  502 -0.68185138754E+03  0.80894465212E+03 -0.61993333219E+03  0.12262259626E+04  0.10100000352E+00 0.  1.
</event>
<event>
 5   0  0.1572732E-05  0.2471092E+04  0.7818609E-02  0.8413357E-01
       -2   -1    0    0    0  501  0.00000000000E+00  0.00000000000E+00  0.72564215387E+03  0.72564215387E+03  0.25500000920E-02 0.  1.
        2   -1    0    0  501    0  0.00000000000E+00  0.00000000000E+00 -0.21037562778E+04  0.21037562778E+04  0.25500000920E-02 0. -1.
    10030    2    1    2    0    0  0.00000000000E+00  0.00000000000E+00 -0.13781141239E+04  0.28293984317E+04  0.24710922578E+04 0.  0.
        1    1    3    3  502    0  0.41553130576E+03 -0.20328615368E+03  0.62274554034E+03  0.77575997214E+03  0.50400001928E-02 0.  1.
       -1    1    3    3    0  502 -0.41553130576E+03  0.20328615368E+03 -0.20008596643E+04  0.20536384595E+04  0.50400001928E-02 0. -1.
</event>
<event>
 5   0  0.6105353E-06  0.2539627E+04  0.7818609E-02  0.8389003E-01
       -1   -1    0    0    0  501  0.00000000000E+00  0.00000000000E+00  0.14679222934E+04  0.14679222934E+04  0.50400001928E-02 0.  1.
        1   -1    0    0  501    0  0.00000000000E+00  0.00000000000E+00 -0.10984412040E+04  0.10984412040E+04  0.50400001928E-02 0. -1.
    10030    2    1    2    0    0  0.00000000000E+00  0.00000000000E+00  0.36948108936E+03  0.25663634974E+04  0.25396270052E+04 0.  0.
        3    1    3    3  502    0  0.12632763200E+04 -0.11246649836E+03  0.12154783167E+03  0.12740838510E+04  0.10100000352E+00 0. -1.
       -3    1    3    3    0  502 -0.12632763200E+04  0.11246649836E+03  0.24793325770E+03  0.12922796464E+04  0.10100000352E+00 0.  1.
</event>
<event>
 5   0  0.1550483E-05  0.2519031E+04  0.7818609E-02  0.8396237E-01
       -2   -1    0    0    0  501  0.00000000000E+00  0.00000000000E+00  0.77946742227E+03  0.77946742227E+03  0.25500000920E-02 0. -1.
        2   -1    0    0  501    0  0.00000000000E+00  0.00000000000E+00 -0.20352100401E+04  0.20352100401E+04  0.25500000920E-02 0.  1.
    10030    2    1    2    0    0  0.00000000000E+00  0.00000000000E+00 -0.12557426178E+04  0.28146774624E+04  0.25190314994E+04 0.  0.
        5    1    3    3  502    0  0.32583027477E+03 -0.12143895065E+04 -0.54537834925E+03  0.13705352514E+04  0.46999998093E+01 0. -1.
       -5    1    3    3    0  502 -0.32583027477E+03  0.12143895065E+04 -0.71036426858E+03  0.14441422110E+04  0.46999998093E+01 0.  1.
</event>
<event>
 5   0  0.1572732E-05  0.2503666E+04  0.7818609E-02  0.8401681E-01
        2   -1    0    0  501    0  0.00000000000E+00  0.00000000000E+00  0.10412938268E+04  0.10412938268E+04  0.25500000920E-02 0.  1.
       -2   -1    0    0    0  501  0.00000000000E+00  0.00000000000E+00 -0.15049405810E+04  0.15049405810E+04  0.25500000920E-02 0. -1.
    10030    2    1    2    0    0  0.00000000000E+00  0.00000000000E+00 -0.46364675414E+03  0.25462344078E+04  0.25036655821E+04 0.  0.
        1    1    3    3  502    0  0.50348464108E+03 -0.10998067083E+04 -0.55981855246E+03  0.13328422229E+04  0.50400001928E-02 0. -1.
       -1    1    3    3    0  502 -0.50348464108E+03  0.10998067083E+04  0.96171798314E+02  0.12133921849E+04  0.50400001928E-02 0.  1.
</event>
<event>
 5   0  0.6104486E-06  0.2487328E+04  0.7818609E-02  0.8407514E-01
        1   -1    0    0  501    0  0.00000000000E+00  0.00000000000E+00  0.25468569013E+04  0.25468569013E+04  0.50400001928E-02 0.  1.
       -1   -1    0    0    0  501  0.00000000000E+00  0.00000000000E+00 -0.60729783316E+03  0.60729783318E+03  0.50400001928E-02 0. -1.
    10030    2    1    2    0    0  0.00000000000E+00  0.00000000000E+00  0.19395590682E+04  0.31541547345E+04  0.24873284283E+04 0.  0.
        2    1    3    3  502    0  0.18689293169E+03  0.11585309712E+04  0.44758270579E+03  0.12559670607E+04  0.25500000920E-02 0. -1.
       -2    1    3    3    0  502 -0.18689293169E+03 -0.11585309712E+04  0.14919763624E+04  0.18981876738E+04  0.25500000920E-02 0.  1.
</event>
<event>
 5   0  0.1526824E-05  0.2505096E+04  0.7818609E-02  0.8401172E-01
        2   -1    0    0  501    0  0.00000000000E+00  0.00000000000E+00  0.14191201071E+04  0.14191201071E+04  0.25500000920E-02 0. -1.
       -2   -1    0    0    0  501  0.00000000000E+00  0.00000000000E+00 -0.11055278750E+04  0.11055278750E+04  0.25500000920E-02 0.  1.
    10030    2    1    2    0    0  0.00000000000E+00  0.00000000000E+00  0.31359223204E+03  0.25246479821E+04  0.25050962747E+04 0.  0.
        2    1    3    3  502    0 -0.53145093096E+03  0.66948923960E+03  0.10794857766E+04  0.13769333592E+04  0.25500000920E-02 0. -1.
       -2    1    3    3    0  502  0.53145093096E+03 -0.66948923960E+03 -0.76589354454E+03  0.11477146229E+04  0.25500000920E-02 0.  1.
</event>
<event>
 5   0  0.1572732E-05  0.2501608E+04  0.7818609E-02  0.8402413E-01
        2   -1    0    0  501    0  0.00000000000E+00  0.00000000000E+00  0.19734363863E+04  0.19734363863E+04  0.25500000920E-02 0. -1.
       -2   -1    0    0    0  501  0.00000000000E+00  0.00000000000E+00 -0.79278504405E+03  0.79278504406E+03  0.25500000920E-02 0.  1.
    10030    2    1    2    0    0  0.00000000000E+00  0.00000000000E+00  0.11806513422E+04  0.27662214303E+04  0.25016081647E+04 0.  0.
        1    1    3    3  502    0 -0.24127971859E+03 -0.81264776298E+02 -0.76382985515E+03  0.80514341214E+03  0.50400001928E-02 0.  1.
       -1    1    3    3    0  502  0.24127971859E+03  0.81264776298E+02  0.19444811974E+04  0.19610780182E+04  0.50400001928E-02 0. -1.
</event>
<event>
 5   0  0.6104486E-06  0.2503240E+04  0.7818609E-02  0.8401832E-01
       -1   -1    0    0    0  501  0.00000000000E+00  0.00000000000E+00  0.10422494893E+04  0.10422494893E+04  0.50400001928E-02 0. -1.
        1   -1    0    0  501    0  0.00000000000E+00  0.00000000000E+00 -0.15030497964E+04  0.15030497964E+04  0.50400001928E-02 0.  1.
    10030    2    1    2    0    0  0.00000000000E+00  0.00000000000E+00 -0.46080030713E+03  0.25452992857E+04  0.25032402064E+04 0.  0.
        2    1    3    3  502    0  0.78917861615E+03  0.63500385903E+03  0.51715329885E+03  0.11373127642E+04  0.25500000920E-02 0. -1.
       -2    1    3    3    0  502 -0.78917861615E+03 -0.63500385903E+03 -0.97795360598E+03  0.14079865215E+04  0.25500000920E-02 0.  1.
</event>
<event>
 5   0  0.6346420E-06  0.2514002E+04  0.7818609E-02  0.8398014E-01
       -1   -1    0    0    0  501  0.00000000000E+00  0.00000000000E+00  0.88832109563E+03  0.88832109564E+03  0.50400001928E-02 0.  1.
        1   -1    0    0  501    0  0.00000000000E+00  0.00000000000E+00 -0.17786947816E+04  0.17786947816E+04  0.50400001928E-02 0. -1.
    10030    2    1    2    0    0  0.00000000000E+00  0.00000000000E+00 -0.89037368599E+03  0.26670158773E+04  0.25140024640E+04 0.  0.
        4    1    3    3  502    0 -0.77948589203E+03 -0.50090457222E+03 -0.13463266321E+04  0.16343502255E+04  0.12699999809E+01 0. -1.
       -4    1    3    3    0  502  0.77948589203E+03  0.50090457222E+03  0.45595294613E+03  0.10326656518E+04  0.12699999809E+01 0.  1.
</event>
<event>
 5   0  0.1550483E-05  0.2485970E+04  0.7818609E-02  0.8408001E-01
        2   -1    0    0  501    0  0.00000000000E+00  0.00000000000E+00  0.14358240710E+04  0.14358240710E+04  0.25500000920E-02 0. -1.
       -2   -1    0    0    0  501  0.00000000000E+00  0.00000000000E+00 -0.10760451916E+04  0.10760451916E+04  0.25500000920E-02 0.  1.
    10030    2    1    2    0    0  0.00000000000E+00  0.00000000000E+00  0.35977887942E+03  0.25118692626E+04  0.24859699014E+04 0.  0.
        5    1    3    3  502    0 -0.28587787802E+02 -0.43366530945E+03 -0.99676269184E+03  0.10874009454E+04  0.46999998093E+01 0.  1.
       -5    1    3    3    0  502  0.28587787802E+02  0.43366530945E+03  0.13565415713E+04  0.14244683172E+04  0.46999998093E+01 0. -1.
</event>
<event>
 5   0  0.6105353E-06  0.2514296E+04  0.7818609E-02  0.8397910E-01
        1   -1    0    0  501    0  0.00000000000E+00  0.00000000000E+00  0.15906512222E+04  0.15906512222E+04  0.50400001928E-02 0.  1.
       -1   -1    0    0    0  501  0.00000000000E+00  0.00000000000E+00 -0.99356844770E+03  0.99356844771E+03  0.50400001928E-02 0. -1.
    10030    2    1    2    0    0  0.00000000000E+00  0.00000000000E+00  0.59708277447E+03  0.25842196699E+04  0.25142958184E+04 0.  0.
        3    1    3    3  502    0 -0.64003851701E+03 -0.10721433170E+04  0.14860690623E+03  0.12574675416E+04  0.10100000352E+00 0.  1.
       -3    1    3    3    0  502  0.64003851701E+03  0.10721433170E+04  0.44847586824E+03  0.13267521283E+04  0.10100000352E+00 0. -1.
</event>
<event>
 5   0  0.6105353E-06  0.2402441E+04  0.7818609E-02  0.8438590E-01
        1   -1    0    0  501    0  0.00000000000E+00  0.00000000000E+00  0.13975554764E+04  0.13975554764E+04  0.50400001928E-02 0. -1.
       -1   -1    0    0    0  501  0.00000000000E+00  0.00000000000E+00 -0.10324678790E+04  0.10324678790E+04  0.50400001928E-02 0.  1.
    10030    2    1    2    0    0  0.00000000000E+00  0.00000000000E+00  0.36508759744E+03  0.24300233554E+04  0.24024413737E+04 0.  0.
        3    1    3    3  502    0  0.11192446316E+04  0.43489676335E+03  0.21589795427E+03  0.12200228182E+04  0.10100000352E+00 0.  1.
       -3    1    3    3    0  502 -0.11192446316E+04 -0.43489676335E+03  0.14918964317E+03  0.12100005372E+04  0.10100000352E+00 0. -1.
</event>
<event>
 5   0  0.1501947E-05  0.2495480E+04  0.7818609E-02  0.8404598E-01
       -2   -1    0    0    0  501  0.00000000000E+00  0.00000000000E+00  0.11848237521E+04  0.11848237521E+04  0.25500000920E-02 0. -1.
        2   -1    0    0  501    0  0.00000000000E+00  0.00000000000E+00 -0.13139970895E+04  0.13139970895E+04  0.25500000920E-02 0.  1.
    10030    2    1    2    0    0  0.00000000000E+00  0.00000000000E+00 -0.12917333741E+03  0.24988208416E+04  0.24954798832E+04 0.  0.
        3    1    3    3  502    0 -0.10209643179E+03  0.89627964687E+03  0.79860807465E+03  0.12047886760E+04  0.10100000352E+00 0. -1.
       -3    1    3    3    0  502  0.10209643179E+03 -0.89627964687E+03 -0.92778141206E+03  0.12940321656E+04  0.10100000352E+00 0.  1.
</event>
<event>
 5   0  0.1550483E-05  0.2501299E+04  0.7818609E-02  0.8402523E-01
       -2   -1    0    0    0  501  0.00000000000E+00  0.00000000000E+00  0.54008431720E+03  0.54008431720E+03  0.25500000920E-02 0.  1.
        2   -1    0    0  501    0  0.00000000000E+00  0.00000000000E+00 -0.28960734431E+04  0.28960734431E+04  0.25500000920E-02 0. -1.
    10030    2    1    2    0    0  0.00000000000E+00  0.00000000000E+00 -0.23559891259E+04  0.34361577603E+04  0.25012987411E+04 0.  0.
        5    1    3    3  502    0  0.68180469185E+02  0.34146337904E+03 -0.28281278176E+04  0.28494867710E+04  0.46999998093E+01 0. -1.
       -5    1    3    3    0  502 -0.68180469185E+02 -0.34146337904E+03  0.47213869163E+03  0.58667098934E+03  0.46999998093E+01 0.  1.
</event>
<event>
 5   0  0.6477703E-06  0.2498284E+04  0.7818609E-02  0.8403597E-01
        1   -1    0    0  501    0  0.00000000000E+00  0.00000000000E+00  0.12126139766E+04  0.12126139766E+04  0.50400001928E-02 0.  1.
       -1   -1    0    0    0  501  0.00000000000E+00  0.00000000000E+00 -0.12867701306E+04  0.12867701306E+04  0.50400001928E-02 0. -1.
    10030    2    1    2    0    0  0.00000000000E+00  0.00000000000E+00 -0.74156153986E+02  0.24993841073E+04  0.24982837670E+04 0.  0.
        5    1    3    3  502    0  0.76014842163E+03 -0.68165451212E+03 -0.75701635572E+03  0.12710524575E+04  0.46999998093E+01 0. -1.
       -5    1    3    3    0  502 -0.76014842163E+03  0.68165451212E+03  0.68286020173E+03  0.12283316498E+04  0.46999998093E+01 0.  1.
</event>
<event>
 5   0  0.6104486E-06  0.2503604E+04  0.7818609E-02  0.8401703E-01
        1   -1    0    0  501    0  0.00000000000E+00  0.00000000000E+00  0.13724505143E+04  0.13724505143E+04  0.50400001928E-02 0.  1.
       -1   -1    0    0    0  501  0.00000000000E+00  0.00000000000E+00 -0.11417589606E+04  0.11417589607E+04  0.50400001928E-02 0. -1.
    10030    2    1    2    0    0  0.00000000000E+00  0.00000000000E+00  0.23069155368E+03  0.25142094750E+04  0.25036035411E+04 0.  0.
        2    1    3    3  502    0 -0.11679013982E+04 -0.19382312248E+03  0.52382015203E+03  0.12945843466E+04  0.25500000920E-02 0. -1.
       -2    1    3    3    0  502  0.11679013982E+04  0.19382312248E+03 -0.29312859835E+03  0.12196251284E+04  0.25500000920E-02 0.  1.
</event>
<event>
 5   0  0.1468512E-05  0.2400666E+04  0.7818609E-02  0.8439254E-01
        2   -1    0    0  501    0  0.00000000000E+00  0.00000000000E+00  0.18629414252E+04  0.18629414252E+04  0.25500000920E-02 0.  1.
       -2   -1    0    0    0  501  0.00000000000E+00  0.00000000000E+00 -0.77340048324E+03  0.77340048325E+03  0.25500000920E-02 0. -1.
    10030    2    1    2    0    0  0.00000000000E+00  0.00000000000E+00  0.10895409420E+04  0.26363419085E+04  0.24006664063E+04 0.  0.
        4    1    3    3  502    0 -0.70896323424E+03  0.48225037314E+03 -0.37769560373E+03  0.93693642894E+03  0.12699999809E+01 0. -1.
       -4    1    3    3    0  502  0.70896323424E+03 -0.48225037314E+03  0.14672365457E+04  0.16994054795E+04  0.12699999809E+01 0.  1.
</event>
<event>
 5   0  0.1550483E-05  0.2491186E+04  0.7818609E-02  0.8406132E-01
        2   -1    0    0  501    0  0.00000000000E+00  0.00000000000E+00  0.17221458331E+04  0.17221458331E+04  0.25500000920E-02 0.  1.
       -2   -1    0    0    0  501  0.00000000000E+00  0.00000000000E+00 -0.90091215712E+03  0.90091215713E+03  0.25500000920E-02 0. -1.
    10030    2    1    2    0    0  0.00000000000E+00  0.00000000000E+00  0.82123367596E+03  0.26230579902E+04  0.24911861571E+04 0.  0.
        5    1    3    3  502    0  0.39399746431E+03 -0.93276999105E+03 -0.35316868844E+03  0.10724010773E+04  0.46999998093E+01 0. -1.
       -5    1    3    3    0  502 -0.39399746431E+03  0.93276999105E+03  0.11744023644E+04  0.15506569129E+04  0.46999998093E+01 0.  1.
</event>
<event>
 5   0  0.6290861E-06  0.2507000E+04  0.7818609E-02  0.8400496E-01
        1   -1    0    0  501    0  0.00000000000E+00  0.00000000000E+00  0.48826450637E+03  0.48826450640E+03  0.50400001928E-02 0.  1.
       -1   -1    0    0    0  501  0.00000000000E+00  0.00000000000E+00 -0.32180563773E+04  0.32180563773E+04  0.50400001928E-02 0. -1.
    10030    2    1    2    0    0  0.00000000000E+00  0.00000000000E+00 -0.27297918709E+04  0.37063208837E+04  0.25070003658E+04 0.  0.
        1    1    3    3  502    0  0.26850457413E+03  0.11819816513E+04 -0.18372576004E+04  0.22010658374E+04  0.50400001928E-02 0.  1.
       -1    1    3    3    0  502 -0.26850457413E+03 -0.11819816513E+04 -0.89253427051E+03  0.15052550463E+04  0.50400001928E-02 0. -1.
</event>
<event>
 5   0  0.1526824E-05  0.2503288E+04  0.7818609E-02  0.8401815E-01
        2   -1    0    0  501    0  0.00000000000E+00  0.00000000000E+00  0.22772533014E+04  0.22772533014E+04  0.25500000920E-02 0. -1.
       -2   -1    0    0    0  501  0.00000000000E+00  0.00000000000E+00 -0.68793973721E+03  0.68793973721E+03  0.25500000920E-02 0.  1.
    10030    2    1    2    0    0  0.00000000000E+00  0.00000000000E+00  0.15893135642E+04  0.29651930387E+04  0.25032882677E+04 0.  0.
        2    1    3    3  502    0 -0.89757184527E+03 -0.66716570049E+02  0.18249343489E+04  0.20348149046E+04  0.25500000920E-02 0. -1.
       -2    1    3    3    0  502  0.89757184527E+03  0.66716570049E+02 -0.23562078468E+03  0.93037813405E+03  0.25500000920E-02 0.  1.
</event>
<event>
 5   0  0.6104486E-06  0.2491609E+04  0.7818609E-02  0.8405981E-01
       -1   -1    0    0    0  501  0.00000000000E+00  0.00000000000E+00  0.86762644258E+03  0.86762644260E+03  0.50400001928E-02 0.  1.
        1   -1    0    0  501    0  0.00000000000E+00  0.00000000000E+00 -0.17888208949E+04  0.17888208949E+04  0.50400001928E-02 0. -1.
    10030    2    1    2    0    0  0.00000000000E+00  0.00000000000E+00 -0.92119445230E+03  0.26564473375E+04  0.24916085643E+04 0.  0.
        2    1    3    3  502    0 -0.61711606341E+03  0.10758528050E+04 -0.33563912116E+03  0.12848910901E+04  0.25500000920E-02 0.  1.
       -2    1    3    3    0  502  0.61711606341E+03 -0.10758528050E+04 -0.58555533114E+03  0.13715562474E+04  0.25500000920E-02 0. -1.
</event>
<event>
 5   0  0.1572732E-05  0.2497115E+04  0.7818609E-02  0.8404014E-01
        2   -1    0    0  501    0  0.00000000000E+00  0.00000000000E+00  0.16401277822E+04  0.16401277822E+04  0.25500000920E-02 0.  1.
       -2   -1    0    0    0  501  0.00000000000E+00  0.00000000000E+00 -0.95047219575E+03  0.95047219575E+03  0.25500000920E-02 0. -1.
    10030    2    1    2    0    0  0.00000000000E+00  0.00000000000E+00  0.68965558648E+03  0.25905999780E+04  0.24971150190E+04 0.  0.
        1    1    3    3  502    0 -0.14758851955E+03 -0.18661853348E+03  0.16163919173E+04  0.16338089480E+04  0.50400001928E-02 0.  1.
       -1    1    3    3    0  502  0.14758851955E+03  0.18661853348E+03 -0.92673633084E+03  0.95679102999E+03  0.50400001928E-02 0. -1.
</event>
<event>
 5   0  0.6105353E-06  0.2500446E+04  0.7818609E-02  0.8402827E-01
       -1   -1    0    0    0  501  0.00000000000E+00  0.00000000000E+00  0.11984015976E+04  0.11984015976E+04  0.50400001928E-02 0. -1.
        1   -1    0    0  501    0  0.00000000000E+00  0.00000000000E+00 -0.13042848836E+04  0.13042848836E+04  0.50400001928E-02 0.  1.
    10030    2    1    2    0    0  0.00000000000E+00  0.00000000000E+00 -0.10588328608E+03  0.25026864812E+04  0.25004456309E+04 0.  0.
        3    1    3    3  502    0  0.55639842314E+03 -0.57621432389E+03 -0.10137263460E+04  0.12919919764E+04  0.10100000352E+00 0.  1.
       -3    1    3    3    0  502 -0.55639842314E+03  0.57621432389E+03  0.90784305991E+03  0.12106945048E+04  0.10100000352E+00 0. -1.
</event>
<event>
 5   0  0.6105353E-06  0.2502886E+04  0.7818609E-02  0.8401958E-01
        1   -1    0    0  501    0  0.00000000000E+00  0.00000000000E+00  0.14435989851E+04  0.14435989851E+04  0.50400001928E-02 0.  1.
       -1   -1    0    0    0  501  0.00000000000E+00  0.00000000000E+00 -0.10848645495E+04  0.10848645495E+04  0.50400001928E-02 0. -1.
    10030    2    1    2    0    0  0.00000000000E+00  0.00000000000E+00  0.35873443563E+03  0.25284635346E+04  0.25028858245E+04 0.  0.
        3    1    3    3  502    0  0.90480706131E+03  0.63179718376E+03  0.77553857020E+03  0.13488156226E+04  0.10100000352E+00 0.  1.
       -3    1    3    3    0  502 -0.90480706131E+03 -0.63179718376E+03 -0.41680413458E+03  0.11796479121E+04  0.10100000352E+00 0. -1.
</event>
<event>
 5   0  0.1468512E-05  0.2498528E+04  0.7818609E-02  0.8403510E-01
       -2   -1    0    0    0  501  0.00000000000E+00  0.00000000000E+00  0.90168415672E+03  0.90168415673E+03  0.25500000920E-02 0.  1.
        2   -1    0    0  501    0  0.00000000000E+00  0.00000000000E+00 -0.17308279859E+04  0.17308279859E+04  0.25500000920E-02 0. -1.
    10030    2    1    2    0    0  0.00000000000E+00  0.00000000000E+00 -0.82914382915E+03  0.26325121426E+04  0.24985277048E+04 0.  0.
        4    1    3    3  502    0  0.32372583566E+03  0.38573512777E+03 -0.16191512176E+04  0.16956539398E+04  0.12699999809E+01 0. -1.
       -4    1    3    3    0  502 -0.32372583566E+03 -0.38573512777E+03  0.79000738840E+03  0.93685820277E+03  0.12699999809E+01 0.  1.
</event>
<event>
 5   0  0.1572732E-05  0.2500140E+04  0.7818609E-02  0.8402936E-01
        2   -1    0    0  501    0  0.00000000000E+00  0.00000000000E+00  0.10379400529E+04  0.10379400529E+04  0.25500000920E-02 0. -1.
       -2   -1    0    0    0  501  0.00000000000E+00  0.00000000000E+00 -0.15055546013E+04  0.15055546013E+04  0.25500000920E-02 0.  1.
    10030    2    1    2    0    0  0.00000000000E+00  0.00000000000E+00 -0.46761454847E+03  0.25434946542E+04  0.25001403341E+04 0.  0.
        1    1    3    3  502    0 -0.45468573143E+03  0.86127239744E+03 -0.10310715694E+04  0.14183221912E+04  0.50400001928E-02 0.  1.
       -1    1    3    3    0  502  0.45468573143E+03 -0.86127239744E+03  0.56345702091E+03  0.11251724630E+04  0.50400001928E-02 0. -1.
</event>
<event>
 5   0  0.6104486E-06  0.2497688E+04  0.7818609E-02  0.8403810E-01
        1   -1    0    0  501    0  0.00000000000E+00  0.00000000000E+00  0.17032395087E+04  0.17032395087E+04  0.50400001928E-02 0. -1.
       -1   -1    0    0    0  501  0.00000000000E+00  0.00000000000E+00 -0.91567380670E+03  0.91567380671E+03  0.50400001928E-02 0.  1.
    10030    2    1    2    0    0  0.00000000000E+00  0.00000000000E+00  0.78756570204E+03  0.26189133155E+04  0.24976883750E+04 0.  0.
        2    1    3    3  502    0 -0.76721750179E+03 -0.30461463898E+03  0.13763887072E+04  0.16049481757E+04  0.25500000920E-02 0. -1.
       -2    1    3    3    0  502  0.76721750179E+03  0.30461463898E+03 -0.58882300513E+03  0.10139651398E+04  0.25500000920E-02 0.  1.
</event>
<event>
 5   0  0.6346420E-06  0.2492840E+04  0.7818609E-02  0.8405541E-01
        1   -1    0    0  501    0  0.00000000000E+00  0.00000000000E+00  0.14653359153E+04  0.14653359153E+04  0.50400001928E-02 0.  1.
       -1   -1    0    0    0  501  0.00000000000E+00  0.00000000000E+00 -0.10602095393E+04  0.10602095393E+04  0.50400001928E-02 0. -1.
    10030    2    1    2    0    0  0.00000000000E+00  0.00000000000E+00  0.40512637605E+03  0.25255454546E+04  0.24928402401E+04 0.  0.
        4    1    3    3  502    0 -0.82256648491E+03  0.73329749824E+03 -0.38750457686E+03  0.11681191091E+04  0.12699999809E+01 0. -1.
       -4    1    3    3    0  502  0.82256648491E+03 -0.73329749824E+03  0.79263095291E+03  0.13574263455E+04  0.12699999809E+01 0.  1.
</event>
<event>
 5   0  0.6477703E-06  0.2510806E+04  0.7818609E-02  0.8399146E-01
       -1   -1    0    0    0  501  0.00000000000E+00  0.00000000000E+00  0.94710221846E+03  0.94710221847E+03  0.50400001928E-02 0.  1.
        1   -1    0    0  501    0  0.00000000000E+00  0.00000000000E+00 -0.16640625171E+04  0.16640625171E+04  0.50400001928E-02 0. -1.
    10030    2    1    2    0    0  0.00000000000E+00  0.00000000000E+00 -0.71696029865E+03  0.26111647356E+04  0.25108064853E+04 0.  0.
        5    1    3    3  502    0  0.29035830818E+03  0.22579134926E+03  0.88979882751E+03  0.96283629136E+03  0.46999998093E+01 0.  1.
       -5    1    3    3    0  502 -0.29035830818E+03 -0.22579134926E+03 -0.16067591262E+04  0.16483284442E+04  0.46999998093E+01 0. -1.
</event>
<event>
 5   0  0.1526824E-05  0.2500213E+04  0.7818609E-02  0.8402910E-01
        2   -1    0    0  501    0  0.00000000000E+00  0.00000000000E+00  0.15735745529E+04  0.15735745529E+04  0.25500000920E-02 0. -1.
       -2   -1    0    0    0  501  0.00000000000E+00  0.00000000000E+00 -0.99313140911E+03  0.99313140911E+03  0.25500000920E-02 0.  1.
    10030    2    1    2    0    0  0.00000000000E+00  0.00000000000E+00  0.58044314380E+03  0.25667059620E+04  0.25002130414E+04 0.  0.
        2    1    3    3  502    0 -0.42630835474E+03  0.64179717137E+03 -0.72040043989E+03  0.10548076679E+04  0.25500000920E-02 0.  1.
       -2    1    3    3    0  502  0.42630835474E+03 -0.64179717137E+03  0.13008435837E+04  0.15118982941E+04  0.25500000920E-02 0. -1.
</event>
<event>
 5   0  0.6346420E-06  0.2492257E+04  0.7818609E-02  0.8405749E-01
       -1   -1    0    0    0  501  0.00000000000E+00  0.00000000000E+00  0.14074444407E+04  0.14074444407E+04  0.50400001928E-02 0. -1.
        1   -1    0    0  501    0  0.00000000000E+00  0.00000000000E+00 -0.11033021611E+04  0.11033021611E+04  0.50400001928E-02 0.  1.
    10030    2    1    2    0    0  0.00000000000E+00  0.00000000000E+00  0.30414227966E+03  0.25107466018E+04  0.24922572043E+04 0.  0.
        4    1    3    3  502    0 -0.54163189207E+02  0.10804825771E+04 -0.47094924373E+03  0.11799029848E+04  0.12699999809E+01 0.  1.
       -4    1    3    3    0  502  0.54163189207E+02 -0.10804825771E+04  0.77509152340E+03  0.13308436170E+04  0.12699999809E+01 0. -1.
</event>
<event>
 5   0  0.1550483E-05  0.2487124E+04  0.7818609E-02  0.8407587E-01
        2   -1    0    0  501    0  0.00000000000E+00  0.00000000000E+00  0.23752408916E+04  0.23752408916E+04  0.25500000920E-02 0.  1.
       -2   -1    0    0    0  501  0.00000000000E+00  0.00000000000E+00 -0.65106921392E+03  0.65106921392E+03  0.25500000920E-02 0. -1.
    10030    2    1    2    0    0  0.00000000000E+00  0.00000000000E+00  0.17241716777E+04  0.30263101055E+04  0.24871238169E+04 0.  0.
        5    1    3    3  502    0 -0.80605750089E+03  0.65247638589E+03  0.27035523482E+02  0.10374040382E+04  0.46999998093E+01 0. -1.
       -5    1    3    3    0  502  0.80605750089E+03 -0.65247638589E+03  0.16971361542E+04  0.19889060674E+04  0.46999998093E+01 0.  1.
</event>
<event>
 5   0  0.6477703E-06  0.2499858E+04  0.7818609E-02  0.8403036E-01
        1   -1    0    0  501    0  0.00000000000E+00  0.00000000000E+00  0.12820908693E+04  0.12820908693E+04  0.50400001928E-02 0.  1.
       -1   -1    0    0    0  501  0.00000000000E+00  0.00000000000E+00 -0.12185741183E+04  0.12185741183E+04  0.50400001928E-02 0. -1.
    10030    2    1    2    0    0  0.00000000000E+00  0.00000000000E+00  0.63516750980E+02  0.25006649876E+04  0.24998581965E+04 0.  0.
        5    1    3    3  502    0  0.58258282112E+02  0.59874488009E+03 -0.10642280093E+04  0.12224945009E+04  0.46999998093E+01 0. -1.
       -5    1    3    3    0  502 -0.58258282112E+02 -0.59874488009E+03  0.11277447603E+04  0.12781704868E+04  0.46999998093E+01 0.  1.
</event>
<event>
 5   0  0.6290861E-06  0.2486958E+04  0.7818609E-02  0.8407647E-01
        1   -1    0    0  501    0  0.00000000000E+00  0.00000000000E+00  0.17572796897E+04  0.17572796897E+04  0.50400001928E-02 0.  1.
       -1   -1    0    0    0  501  0.00000000000E+00  0.00000000000E+00 -0.87990521181E+03  0.87990521182E+03  0.50400001928E-02 0. -1.
    10030    2    1    2    0    0  0.00000000000E+00  0.00000000000E+00  0.87737447787E+03  0.26371849015E+04  0.24869576254E+04 0.  0.
        1    1    3    3  502    0  0.40067517380E+03  0.60835702795E+03 -0.62995832822E+03  0.96306093456E+03  0.50400001928E-02 0. -1.
       -1    1    3    3    0  502 -0.40067517380E+03 -0.60835702795E+03  0.15073328061E+04  0.16741239669E+04  0.50400001928E-02 0.  1.
</event>
<event>
 5   0  0.1526824E-05  0.2500462E+04  0.7818609E-02  0.8402821E-01
        2   -1    0    0  501    0  0.00000000000E+00  0.00000000000E+00  0.10747368984E+04  0.10747368985E+04  0.25500000920E-02 0. -1.
       -2   -1    0    0    0  501  0.00000000000E+00  0.00000000000E+00 -0.14543816397E+04  0.14543816397E+04  0.25500000920E-02 0.  1.
    10030    2    1    2    0    0  0.00000000000E+00  0.00000000000E+00 -0.37964474126E+03  0.25291185382E+04  0.25004620474E+04 0.  0.
        2    1    3    3  502    0  0.89440504133E+03  0.86786959803E+03 -0.29056096787E+03  0.12796810904E+04  0.25500000920E-02 0.  1.
       -2    1    3    3    0  502 -0.89440504133E+03 -0.86786959803E+03 -0.89083773393E+02  0.12494374477E+04  0.25500000920E-02 0. -1.
</event>
<event>
 5   0  0.6477703E-06  0.2497188E+04  0.7818609E-02  0.8403988E-01
        1   -1    0    0  501    0  0.00000000000E+00  0.00000000000E+00  0.11069792301E+04  0.11069792301E+04  0.50400001928E-02 0.  1.
       -1   -1    0    0    0  501  0.00000000000E+00  0.00000000000E+00 -0.14083249629E+04  0.14083249629E+04  0.50400001928E-02 0. -1.
    10030    2    1    2    0    0  0.00000000000E+00  0.00000000000E+00 -0.30134573281E+03  0.25153041930E+04  0.24971876046E+04 0.  0.
        5    1    3    3  502    0  0.85722087176E+03 -0.67239707421E+03  0.46368563523E+03  0.11840489461E+04  0.46999998093E+01 0.  1.
       -5    1    3    3    0  502 -0.85722087176E+03  0.67239707421E+03 -0.76503136804E+03  0.13312552469E+04  0.46999998093E+01 0. -1.
</event>
<event>
 5   0  0.1572732E-05  0.2423497E+04  0.7818609E-02  0.8430759E-01
        2   -1    0    0  501    0  0.00000000000E+00  0.00000000000E+00  0.87730555406E+03  0.87730555406E+03  0.25500000920E-02 0.  1.
       -2   -1    0    0    0  501  0.00000000000E+00  0.00000000000E+00 -0.16736863204E+04  0.16736863204E+04  0.25500000920E-02 0. -1.
    10030    2    1    2    0    0  0.00000000000E+00  0.00000000000E+00 -0.79638076638E+03  0.25509918745E+04  0.24234968988E+04 0.  0.
        1    1    3    3  502    0 -0.66840881618E+03 -0.68210319604E+03 -0.11832828684E+04  0.15205898403E+04  0.50400001928E-02 0. -1.
       -1    1    3    3    0  502  0.66840881618E+03  0.68210319604E+03  0.38690210203E+03  0.10304020342E+04  0.50400001928E-02 0.  1.
</event>
<event>
 5   0  0.6290861E-06  0.2458231E+04  0.7818609E-02  0.8418019E-01
        1   -1    0    0  501    0  0.00000000000E+00  0.00000000000E+00  0.12561609294E+04  0.12561609294E+04  0.50400001928E-02 0. -1.
       -1   -1    0    0    0  501  0.00000000000E+00  0.00000000000E+00 -0.12026524105E+04  0.12026524105E+04  0.50400001928E-02 0.  1.
    10030    2    1    2    0    0  0.00000000000E+00  0.00000000000E+00  0.53508518870E+02  0.24588133399E+04  0.24582310467E+04 0.  0.
        1    1    3    3  502    0 -0.36072149234E+03  0.92532527728E+02  0.11983739878E+04  0.12549033741E+04  0.50400001928E-02 0. -1.
       -1    1    3    3    0  502  0.36072149234E+03 -0.92532527728E+02 -0.11448654689E+04  0.12039099658E+04  0.50400001928E-02 0.  1.
</event>
<event>
 5   0  0.6104486E-06  0.2477373E+04  0.7818609E-02  0.8411091E-01
        1   -1    0    0  501    0  0.00000000000E+00  0.00000000000E+00  0.19287552725E+04  0.19287552725E+04  0.50400001928E-02 0. -1.
       -1   -1    0    0    0  501  0.00000000000E+00  0.00000000000E+00 -0.79551033877E+03  0.79551033879E+03  0.50400001928E-02 0.  1.
    10030    2    1    2    0    0  0.00000000000E+00  0.00000000000E+00  0.11332449337E+04  0.27242656113E+04  0.24773734157E+04 0.  0.
        2    1    3    3  502    0 -0.10187341598E+03 -0.10388322223E+04 -0.16677182245E+03  0.10570541234E+04  0.25500000920E-02 0.  1.
       -2    1    3    3    0  502  0.10187341598E+03  0.10388322223E+04  0.13000167561E+04  0.16672114879E+04  0.25500000920E-02 0. -1.
</event>
<event>
 5   0  0.1468512E-05  0.2476200E+04  0.7818609E-02  0.8411514E-01
       -2   -1    0    0    0  501  0.00000000000E+00  0.00000000000E+00  0.91564183631E+03  0.91564183631E+03  0.25500000920E-02 0.  1.
        2   -1    0    0  501    0  0.00000000000E+00  0.00000000000E+00 -0.16741173058E+04  0.16741173058E+04  0.25500000920E-02 0. -1.
    10030    2    1    2    0    0  0.00000000000E+00  0.00000000000E+00 -0.75847546951E+03  0.25897591421E+04  0.24762001891E+04 0.  0.
        4    1    3    3  502    0 -0.77666216803E+03 -0.15451938054E+03  0.61614968244E+03  0.10033555732E+04  0.12699999809E+01 0.  1.
       -4    1    3    3    0  502  0.77666216803E+03  0.15451938054E+03 -0.13746251520E+04  0.15864035689E+04  0.12699999809E+01 0. -1.
</event>
<event>
 5   0  0.1526824E-05  0.2496959E+04  0.7818609E-02  0.8404070E-01
       -2   -1    0    0    0  501  0.00000000000E+00  0.00000000000E+00  0.10998582551E+04  0.10998582551E+04  0.25500000920E-02 0. -1.
        2   -1    0    0  501    0  0.00000000000E+00  0.00000000000E+00 -0.14171834846E+04  0.14171834846E+04  0.25500000920E-02 0.  1.
    10030    2    1    2    0    0  0.00000000000E+00  0.00000000000E+00 -0.31732522947E+03  0.25170417397E+04  0.24969589140E+04 0.  0.
        2    1    3    3  502    0  0.31751201173E+03  0.56784310789E+03 -0.12328037809E+04  0.13939386051E+04  0.25500000920E-02 0.  1.
       -2    1    3    3    0  502 -0.31751201173E+03 -0.56784310789E+03  0.91547855140E+03  0.11231031346E+04  0.25500000920E-02 0. -1.
</event>
<event>
 5   0  0.1468512E-05  0.2696207E+04  0.7818609E-02  0.8336237E-01
       -2   -1    0    0    0  501  0.00000000000E+00  0.00000000000E+00  0.74799307298E+03  0.74799307299E+03  0.25500000920E-02 0.  1.
        2   -1    0    0  501    0  0.00000000000E+00  0.00000000000E+00 -0.24296782670E+04  0.24296782671E+04  0.25500000920E-02 0. -1.
    10030    2    1    2    0    0  0.00000000000E+00  0.00000000000E+00 -0.16816851941E+04  0.31776713400E+04  0.26962066044E+04 0.  0.
        4    1    3    3  502    0 -0.12679288193E+03  0.11877103612E+04 -0.15774717873E+04  0.19786740989E+04  0.12699999809E+01 0. -1.
       -4    1    3    3    0  502  0.12679288193E+03 -0.11877103612E+04 -0.10421340673E+03  0.11989972411E+04  0.12699999809E+01 0.  1.
</event>
<event>
 5   0  0.6104486E-06  0.2498045E+04  0.7818609E-02  0.8403682E-01
        1   -1    0    0  501    0  0.00000000000E+00  0.00000000000E+00  0.13142466769E+04  0.13142466769E+04  0.50400001928E-02 0. -1.
       -1   -1    0    0    0  501  0.00000000000E+00  0.00000000000E+00 -0.11870357131E+04  0.11870357131E+04  0.50400001928E-02 0.  1.
    10030    2    1    2    0    0  0.00000000000E+00  0.00000000000E+00  0.12721096384E+03  0.25012823900E+04  0.24980454290E+04 0.  0.
        2    1    3    3  502    0 -0.72758525255E+03  0.43705231597E+03 -0.85391301395E+03  0.12039777664E+04  0.25500000920E-02 0.  1.
       -2    1    3    3    0  502  0.72758525255E+03 -0.43705231597E+03  0.98112397779E+03  0.12973046236E+04  0.25500000920E-02 0. -1.
</event>
<event>
 5   0  0.1572732E-05  0.2451075E+04  0.7818609E-02  0.8420625E-01
        2   -1    0    0  501    0  0.00000000000E+00  0.00000000000E+00  0.27597239068E+04  0.27597239068E+04  0.25500000920E-02 0. -1.
       -2   -1    0    0    0  501  0.00000000000E+00  0.00000000000E+00 -0.54423656063E+03  0.54423656064E+03  0.25500000920E-02 0.  1.
    10030    2    1    2    0    0  0.00000000000E+00  0.00000000000E+00  0.22154873461E+04  0.33039604674E+04  0.24510753945E+04 0.  0.
        1    1    3    3  502    0  0.50958948602E+03 -0.56929446202E+03 -0.18388757496E+03  0.78587038944E+03  0.50400001928E-02 0.  1.
       -1    1    3    3    0  502 -0.50958948602E+03  0.56929446202E+03  0.23993749211E+04  0.25180900780E+04  0.50400001928E-02 0. -1.
</event>
<event>
 5   0  0.6346420E-06  0.2494053E+04  0.7818609E-02  0.8405107E-01
        1   -1    0    0  501    0  0.00000000000E+00  0.00000000000E+00  0.12084061776E+04  0.12084061776E+04  0.50400001928E-02 0.  1.
       -1   -1    0    0    0  501  0.00000000000E+00  0.00000000000E+00 -0.12868809364E+04  0.12868809364E+04  0.50400001928E-02 0. -1.
    10030    2    1    2    0    0  0.00000000000E+00  0.00000000000E+00 -0.78474758809E+02  0.24952871141E+04  0.24940528250E+04 0.  0.
        4    1    3    3  502    0 -0.19125710527E+03  0.24150444799E+03 -0.12482101643E+04  0.12856647720E+04  0.12699999809E+01 0. -1.
       -4    1    3    3    0  502  0.19125710527E+03 -0.24150444799E+03  0.11697354055E+04  0.12096223421E+04  0.12699999809E+01 0.  1.
</event>
<event>
 5   0  0.6104486E-06  0.2466957E+04  0.7818609E-02  0.8414853E-01
        1   -1    0    0  501    0  0.00000000000E+00  0.00000000000E+00  0.11522412252E+04  0.11522412253E+04  0.50400001928E-02 0. -1.
       -1   -1    0    0    0  501  0.00000000000E+00  0.00000000000E+00 -0.13204427758E+04  0.13204427758E+04  0.50400001928E-02 0.  1.
    10030    2    1    2    0    0  0.00000000000E+00  0.00000000000E+00 -0.16820155052E+03  0.24726840010E+04  0.24669565070E+04 0.  0.
        2    1    3    3  502    0 -0.68145134631E+03  0.11362234563E+03  0.94012419031E+03  0.11666702482E+04  0.25500000920E-02 0. -1.
       -2    1    3    3    0  502  0.68145134631E+03 -0.11362234563E+03 -0.11083257408E+04  0.13060137528E+04  0.25500000920E-02 0.  1.
</event>
<event>
 5   0  0.6290861E-06  0.2534134E+04  0.7818609E-02  0.8390925E-01
       -1   -1    0    0    0  501  0.00000000000E+00  0.00000000000E+00  0.20232208762E+04  0.20232208762E+04  0.50400001928E-02 0. -1.
        1   -1    0    0  501    0  0.00000000000E+00  0.00000000000E+00 -0.79351610817E+03  0.79351610819E+03  0.50400001928E-02 0.  1.
    10030    2    1    2    0    0  0.00000000000E+00  0.00000000000E+00  0.12297047680E+04  0.28167369844E+04  0.25341336632E+04 0.  0.
        1    1    3    3  502    0  0.75889113261E+03  0.62062675775E+03 -0.27738981663E+03  0.10188417119E+04  0.50400001928E-02 0.  1.
       -1    1    3    3    0  502 -0.75889113261E+03 -0.62062675775E+03  0.15070945847E+04  0.17978952725E+04  0.50400001928E-02 0. -1.
</event>
<event>
 5   0  0.1572732E-05  0.2504534E+04  0.7818609E-02  0.8401372E-01
        2   -1    0    0  501    0  0.00000000000E+00  0.00000000000E+00  0.14958011306E+04  0.14958011306E+04  0.25500000920E-02 0.  1.
       -2   -1    0    0    0  501  0.00000000000E+00  0.00000000000E+00 -0.10483830044E+04  0.10483830044E+04  0.25500000920E-02 0. -1.
    10030    2    1    2    0    0  0.00000000000E+00  0.00000000000E+00  0.44741812614E+03  0.25441841350E+04  0.25045338754E+04 0.  0.
        1    1    3    3  502    0 -0.39374883999E+03 -0.99694076190E+03 -0.43403172425E+03  0.11564223145E+04  0.50400001928E-02 0. -1.
       -1    1    3    3    0  502  0.39374883999E+03  0.99694076190E+03  0.88144985039E+03  0.13877618205E+04  0.50400001928E-02 0.  1.
</event>
<event>
 5   0  0.6105353E-06  0.2492172E+04  0.7818609E-02  0.8405779E-01
       -1   -1    0    0    0  501  0.00000000000E+00  0.00000000000E+00  0.15677633023E+04  0.15677633023E+04  0.50400001928E-02 0. -1.
        1   -1    0    0  501    0  0.00000000000E+00  0.00000000000E+00 -0.99041156631E+03  0.99041156632E+03  0.50400001928E-02 0.  1.
    10030    2    1    2    0    0  0.00000000000E+00  0.00000000000E+00  0.57735173596E+03  0.25581748686E+04  0.24921724722E+04 0.  0.
        3    1    3    3  502    0  0.35437802864E+03 -0.81462805429E+03 -0.60826680563E+03  0.10766574065E+04  0.10100000352E+00 0.  1.
       -3    1    3    3    0  502 -0.35437802864E+03  0.81462805429E+03  0.11856185416E+04  0.14815174621E+04  0.10100000352E+00 0. -1.
</event>
<event>
 5   0  0.6477703E-06  0.2477980E+04  0.7818609E-02  0.8410872E-01
       -1   -1    0    0    0  501  0.00000000000E+00  0.00000000000E+00  0.10228539776E+04  0.10228539776E+04  0.50400001928E-02 0. -1.
        1   -1    0    0  501    0  0.00000000000E+00  0.00000000000E+00 -0.15007975385E+04  0.15007975385E+04  0.50400001928E-02 0.  1.
    10030    2    1    2    0    0  0.00000000000E+00  0.00000000000E+00 -0.47794356086E+03  0.25236515161E+04  0.24779804130E+04 0.  0.
        5    1    3    3  502    0  0.10322816996E+04  0.68139010918E+03 -0.16569673932E+03  0.12479485116E+04  0.46999998093E+01 0. -1.
       -5    1    3    3    0  502 -0.10322816996E+04 -0.68139010918E+03 -0.31224682154E+03  0.12757030045E+04  0.46999998093E+01 0.  1.
</event>
<event>
 5   0  0.6105353E-06  0.2486921E+04  0.7818609E-02  0.8407660E-01
       -1   -1    0    0    0  501  0.00000000000E+00  0.00000000000E+00  0.74912741421E+03  0.74912741422E+03  0.50400001928E-02 0.  1.
        1   -1    0    0  501    0  0.00000000000E+00  0.00000000000E+00 -0.20639933696E+04  0.20639933696E+04  0.50400001928E-02 0. -1.
    10030    2    1    2    0    0  0.00000000000E+00  0.00000000000E+00 -0.13148659554E+04  0.28131207839E+04  0.24869210007E+04 0.  0.
        3    1    3    3  502    0  0.46849726727E+03 -0.15310779183E+03 -0.19487780489E+04  0.20101411840E+04  0.10100000352E+00 0. -1.
       -3    1    3    3    0  502 -0.46849726727E+03  0.15310779183E+03  0.63391209349E+03  0.80297959989E+03  0.10100000352E+00 0.  1.
</event>
<event>
 5   0  0.1526824E-05  0.2476763E+04  0.7818609E-02  0.8411311E-01
       -2   -1    0    0    0  501  0.00000000000E+00  0.00000000000E+00  0.97991323860E+03  0.97991323860E+03  0.25500000920E-02 0. -1.
        2   -1    0    0  501    0  0.00000000000E+00  0.00000000000E+00 -0.15650254608E+04  0.15650254608E+04  0.25500000920E-02 0.  1.
    10030    2    1    2    0    0  0.00000000000E+00  0.00000000000E+00 -0.58511222223E+03  0.25449386994E+04  0.24767633458E+04 0.  0.
        2    1    3    3  502    0  0.10637285465E+04 -0.54072266633E+03  0.47754764100E+02  0.11942277589E+04  0.25500000920E-02 0. -1.
       -2    1    3    3    0  502 -0.10637285465E+04  0.54072266633E+03 -0.63286698633E+03  0.13507109406E+04  0.25500000920E-02 0.  1.
</event>
<event>
 5   0  0.1526824E-05  0.2478104E+04  0.7818609E-02  0.8410828E-01
        2   -1    0    0  501    0  0.00000000000E+00  0.00000000000E+00  0.18209960781E+04  0.18209960781E+04  0.25500000920E-02 0. -1.
       -2   -1    0    0    0  501  0.00000000000E+00  0.00000000000E+00 -0.84308266340E+03  0.84308266340E+03  0.25500000920E-02 0.  1.
    10030    2    1    2    0    0  0.00000000000E+00  0.00000000000E+00  0.97791341470E+03  0.26640787415E+04  0.24781042945E+04 0.  0.
        2    1    3    3  502    0  0.89939144675E+02 -0.36731169162E+03 -0.77952744042E+03  0.86641211840E+03  0.25500000920E-02 0.  1.
       -2    1    3    3    0  502 -0.89939144675E+02  0.36731169162E+03  0.17574408551E+04  0.17976666231E+04  0.25500000920E-02 0. -1.
</event>
<event>
 5   0  0.1468512E-05  0.2512710E+04  0.7818609E-02  0.8398471E-01
       -2   -1    0    0    0  501  0.00000000000E+00  0.00000000000E+00  0.16989499571E+04  0.16989499571E+04  0.25500000920E-02 0. -1.
        2   -1    0    0  501    0  0.00000000000E+00  0.00000000000E+00 -0.92906084433E+03  0.92906084433E+03  0.25500000920E-02 0.  1.
    10030    2    1    2    0    0  0.00000000000E+00  0.00000000000E+00  0.76988911281E+03  0.26280108015E+04  0.25127099965E+04 0.  0.
        4    1    3    3  502    0  0.52772912997E+03 -0.51021990154E+03  0.14513410920E+04  0.16264116824E+04  0.12699999809E+01 0. -1.
       -4    1    3    3    0  502 -0.52772912997E+03  0.51021990154E+03 -0.68145197915E+03  0.10015991191E+04  0.12699999809E+01 0.  1.
</event>
<event>
 5   0  0.5164625E-06  0.2483541E+04  0.7818609E-02  0.8408873E-01
        3   -1    0    0  501    0  0.00000000000E+00  0.00000000000E+00  0.14905122125E+04  0.14905122159E+04  0.10100000352E+00 0.  1.
       -3   -1    0    0    0  501  0.00000000000E+00  0.00000000000E+00 -0.10345393036E+04  0.10345393085E+04  0.10100000352E+00 0. -1.
    10030    2    1    2    0    0  0.00000000000E+00  0.00000000000E+00  0.45597290891E+03  0.25250515244E+04  0.24835405990E+04 0.  0.
        3    1    3    3  502    0  0.10626200823E+04 -0.48994854732E+02 -0.42337092773E+03  0.11449038771E+04  0.10100000352E+00 0. -1.
       -3    1    3    3    0  502 -0.10626200823E+04  0.48994854732E+02  0.87934383664E+03  0.13801476473E+04  0.10100000352E+00 0.  1.
</event>
<event>
 5   0  0.6105353E-06  0.2508750E+04  0.7818609E-02  0.8399875E-01
       -1   -1    0    0    0  501  0.00000000000E+00  0.00000000000E+00  0.12192858703E+04  0.12192858703E+04  0.50400001928E-02 0.  1.
        1   -1    0    0  501    0  0.00000000000E+00  0.00000000000E+00 -0.12904741251E+04  0.12904741251E+04  0.50400001928E-02 0. -1.
    10030    2    1    2    0    0  0.00000000000E+00  0.00000000000E+00 -0.71188254798E+02  0.25097599955E+04  0.25087501803E+04 0.  0.
        3    1    3    3  502    0  0.84444163537E+03 -0.50867965296E+03 -0.81154813001E+03  0.12768895968E+04  0.10100000352E+00 0. -1.
       -3    1    3    3    0  502 -0.84444163537E+03  0.50867965296E+03  0.74035987522E+03  0.12328703987E+04  0.10100000352E+00 0.  1.
</event>
<event>
 5   0  0.6346420E-06  0.2464759E+04  0.7818609E-02  0.8415649E-01
       -1   -1    0    0    0  501  0.00000000000E+00  0.00000000000E+00  0.88523676620E+03  0.88523676622E+03  0.50400001928E-02 0. -1.
        1   -1    0    0  501    0  0.00000000000E+00  0.00000000000E+00 -0.17156526380E+04  0.17156526380E+04  0.50400001928E-02 0.  1.
    10030    2    1    2    0    0  0.00000000000E+00  0.00000000000E+00 -0.83041587183E+03  0.26008894043E+04  0.24647586440E+04 0.  0.
        4    1    3    3  502    0  0.11461957442E+04 -0.24928100125E+03 -0.81403980825E+03  0.14277843408E+04  0.12699999809E+01 0.  1.
       -4    1    3    3    0  502 -0.11461957442E+04  0.24928100125E+03 -0.16376063583E+02  0.11731050635E+04  0.12699999809E+01 0. -1.
</event>
<event>
 5   0  0.1550483E-05  0.2494595E+04  0.7818609E-02  0.8404913E-01
        2   -1    0    0  501    0  0.00000000000E+00  0.00000000000E+00  0.16303028677E+04  0.16303028677E+04  0.25500000920E-02 0. -1.
       -2   -1    0    0    0  501  0.00000000000E+00  0.00000000000E+00 -0.95427145788E+03  0.95427145788E+03  0.25500000920E-02 0.  1.
    10030    2    1    2    0    0  0.00000000000E+00  0.00000000000E+00  0.67603140981E+03  0.25845743256E+04  0.24945953534E+04 0.  0.
        5    1    3    3  502    0 -0.55190431171E+03 -0.10326310334E+04 -0.10737876083E+03  0.11757880373E+04  0.46999998093E+01 0.  1.
       -5    1    3    3    0  502  0.55190431171E+03  0.10326310334E+04  0.78341017064E+03  0.14087862882E+04  0.46999998093E+01 0. -1.
</event>
<event>
 5   0  0.6477703E-06  0.2503066E+04  0.7818609E-02  0.8401894E-01
        1   -1    0    0  501    0  0.00000000000E+00  0.00000000000E+00  0.22778416123E+04  0.22778416123E+04  0.50400001928E-02 0.  1.
       -1   -1    0    0    0  501  0.00000000000E+00  0.00000000000E+00 -0.68764014401E+03  0.68764014403E+03  0.50400001928E-02 0. -1.
    10030    2    1    2    0    0  0.00000000000E+00  0.00000000000E+00  0.15902014683E+04  0.29654817564E+04  0.25030663870E+04 0.  0.
        5    1    3    3  502    0  0.92388137440E+03 -0.64921989699E+03  0.15570350752E+03  0.11398723353E+04  0.46999998093E+01 0. -1.
       -5    1    3    3    0  502 -0.92388137440E+03  0.64921989699E+03  0.14344979608E+04  0.18256094210E+04  0.46999998093E+01 0.  1.
</event>
<event>
 5   0  0.6104486E-06  0.2470686E+04  0.7818609E-02  0.8413504E-01
        1   -1    0    0  501    0  0.00000000000E+00  0.00000000000E+00  0.15845095385E+04  0.15845095385E+04  0.50400001928E-02 0.  1.
       -1   -1    0    0    0  501  0.00000000000E+00  0.00000000000E+00 -0.96311991120E+03  0.96311991121E+03  0.50400001928E-02 0. -1.
    10030    2    1    2    0    0  0.00000000000E+00  0.00000000000E+00  0.62138962731E+03  0.25476294497E+04  0.24706862901E+04 0.  0.
        2    1    3    3  502    0  0.95325247662E+03 -0.14050131624E+03 -0.48645349912E+03  0.10793831159E+04  0.25500000920E-02 0. -1.
       -2    1    3    3    0  502 -0.95325247662E+03  0.14050131624E+03  0.11078431264E+04  0.14682463338E+04  0.25500000920E-02 0.  1.
</event>
<event>
 5   0  0.1501947E-05  0.2496130E+04  0.7818609E-02  0.8404366E-01
       -2   -1    0    0    0  501  0.00000000000E+00  0.00000000000E+00  0.65688644135E+03  0.65688644136E+03  0.25500000920E-02 0.  1.
        2   -1    0    0  501    0  0.00000000000E+00  0.00000000000E+00 -0.23712863754E+04  0.23712863754E+04  0.25500000920E-02 0. -1.
    10030    2    1    2    0    0  0.00000000000E+00  0.00000000000E+00 -0.17143999340E+04  0.30281728167E+04  0.24961296990E+04 0.  0.
        3    1    3    3  502    0  0.24519270550E+03 -0.83318345035E+02  0.62393527477E+03  0.67554174316E+03  0.10100000352E+00 0.  1.
       -3    1    3    3    0  502 -0.24519270550E+03  0.83318345035E+02 -0.23383352088E+04  0.23526310736E+04  0.10100000352E+00 0. -1.
</event>
<event>
 5   0  0.6105353E-06  0.2443690E+04  0.7818609E-02  0.8423325E-01
       -1   -1    0    0    0  501  0.00000000000E+00  0.00000000000E+00  0.71429953154E+03  0.71429953155E+03  0.50400001928E-02 0. -1.
        1   -1    0    0  501    0  0.00000000000E+00  0.00000000000E+00 -0.20900268561E+04  0.20900268561E+04  0.50400001928E-02 0.  1.
    10030    2    1    2    0    0  0.00000000000E+00  0.00000000000E+00 -0.13757273246E+04  0.28043263877E+04  0.24436900002E+04 0.  0.
        3    1    3    3  502    0 -0.49011170542E+03  0.57240337517E+03  0.41587198944E+03  0.86070008104E+03  0.10100000352E+00 0. -1.
       -3    1    3    3    0  502  0.49011170542E+03 -0.57240337517E+03 -0.17915993140E+04  0.19436263067E+04  0.10100000352E+00 0.  1.
</event>
<event>
 5   0  0.6105353E-06  0.2505772E+04  0.7818609E-02  0.8400932E-01
        1   -1    0    0  501    0  0.00000000000E+00  0.00000000000E+00  0.18306537084E+04  0.18306537085E+04  0.50400001928E-02 0.  1.
       -1   -1    0    0    0  501  0.00000000000E+00  0.00000000000E+00 -0.85746613546E+03  0.85746613548E+03  0.50400001928E-02 0. -1.
    10030    2    1    2    0    0  0.00000000000E+00  0.00000000000E+00  0.97318757299E+03  0.26881198439E+04  0.25057721850E+04 0.  0.
        3    1    3    3  502    0 -0.47284716306E+03 -0.55002077061E+03 -0.60932270391E+03  0.94730219857E+03  0.10100000352E+00 0. -1.
       -3    1    3    3    0  502  0.47284716306E+03  0.55002077061E+03  0.15825102769E+04  0.17408176454E+04  0.10100000352E+00 0.  1.
</event>
<event>
 5   0  0.6105353E-06  0.2471663E+04  0.7818609E-02  0.8413151E-01
        1   -1    0    0  501    0  0.00000000000E+00  0.00000000000E+00  0.10100480075E+04  0.10100480075E+04  0.50400001928E-02 0.  1.
       -1   -1    0    0    0  501  0.00000000000E+00  0.00000000000E+00 -0.15120866486E+04  0.15120866486E+04  0.50400001928E-02 0. -1.
    10030    2    1    2    0    0  0.00000000000E+00  0.00000000000E+00 -0.50203864105E+03  0.25221346561E+04  0.24716634937E+04 0.  0.
        3    1    3    3  502    0  0.41194629690E+03  0.38837433035E+03  0.86993214977E+03  0.10379384989E+04  0.10100000352E+00 0.  1.
       -3    1    3    3    0  502 -0.41194629690E+03 -0.38837433035E+03 -0.13719707908E+04  0.14841961572E+04  0.10100000352E+00 0. -1.
</event>
<event>
 5   0  0.6104486E-06  0.2506969E+04  0.7818609E-02  0.8400507E-01
        1   -1    0    0  501    0  0.00000000000E+00  0.00000000000E+00  0.13662272318E+04  0.13662272318E+04  0.50400001928E-02 0.  1.
       -1   -1    0    0    0  501  0.00000000000E+00  0.00000000000E+00 -0.11500451756E+04  0.11500451756E+04  0.50400001928E-02 0. -1.
    10030    2    1    2    0    0  0.00000000000E+00  0.00000000000E+00  0.21618205628E+03  0.25162724074E+04  0.25069687168E+04 0.  0.
        2    1    3    3  502    0 -0.18424759490E+03 -0.82528009382E+03 -0.82064751219E+03  0.11783449193E+04  0.25500000920E-02 0. -1.
       -2    1    3    3    0  502  0.18424759490E+03  0.82528009382E+03  0.10368295685E+04  0.13379274881E+04  0.25500000920E-02 0.  1.
</event>
<event>
 5   0  0.6346420E-06  0.2531197E+04  0.7818609E-02  0.8391955E-01
       -1   -1    0    0    0  501  0.00000000000E+00  0.00000000000E+00  0.80861612153E+03  0.80861612154E+03  0.50400001928E-02 0.  1.
        1   -1    0    0  501    0  0.00000000000E+00  0.00000000000E+00 -0.19808409325E+04  0.19808409325E+04  0.50400001928E-02 0. -1.
    10030    2    1    2    0    0  0.00000000000E+00  0.00000000000E+00 -0.11722248110E+04  0.27894570541E+04  0.25311972758E+04 0.  0.
        4    1    3    3  502    0 -0.32911256086E+02  0.10025802266E+04  0.26430121219E+03  0.10373557757E+04  0.12699999809E+01 0.  1.
       -4    1    3    3    0  502  0.32911256086E+02 -0.10025802266E+04 -0.14365260232E+04  0.17521012784E+04  0.12699999809E+01 0. -1.
</event>
<event>
 5   0  0.6346420E-06  0.2504066E+04  0.7818609E-02  0.8401538E-01
        1   -1    0    0  501    0  0.00000000000E+00  0.00000000000E+00  0.17375094305E+04  0.17375094306E+04  0.50400001928E-02 0. -1.
       -1   -1    0    0    0  501  0.00000000000E+00  0.00000000000E+00 -0.90220334463E+03  0.90220334465E+03  0.50400001928E-02 0.  1.
    10030    2    1    2    0    0  0.00000000000E+00  0.00000000000E+00  0.83530608591E+03  0.26397127752E+04  0.25040661490E+04 0.  0.
        4    1    3    3  502    0 -0.20955145747E+03 -0.75596870067E+03 -0.61100607559E+03  0.99434929830E+03  0.12699999809E+01 0.  1.
       -4    1    3    3    0  502  0.20955145747E+03  0.75596870067E+03  0.14463121615E+04  0.16453634769E+04  0.12699999809E+01 0. -1.
</event>
<event>
 5   0  0.1501947E-05  0.2503972E+04  0.7818609E-02  0.8401572E-01
        2   -1    0    0  501    0  0.00000000000E+00  0.00000000000E+00  0.12982021772E+04  0.12982021772E+04  0.25500000920E-02 0.  1.
       -2   -1    0    0    0  501  0.00000000000E+00  0.00000000000E+00 -0.12074150224E+04  0.12074150224E+04  0.25500000920E-02 0. -1.
    10030    2    1    2    0    0  0.00000000000E+00  0.00000000000E+00  0.90787154772E+02  0.25056171996E+04  0.25039718935E+04 0.  0.
        3    1    3    3  502    0 -0.24825380377E+03 -0.12015210777E+04 -0.20414138655E+03  0.12437670872E+04  0.10100000352E+00 0. -1.
       -3    1    3    3    0  502  0.24825380377E+03  0.12015210777E+04  0.29492854132E+03  0.12618501123E+04  0.10100000352E+00 0.  1.
</event>
<event>
 5   0  0.1468512E-05  0.2496031E+04  0.7818609E-02  0.8404401E-01
        2   -1    0    0  501    0  0.00000000000E+00  0.00000000000E+00  0.22029483170E+04  0.22029483170E+04  0.25500000920E-02 0.  1.
       -2   -1    0    0    0  501  0.00000000000E+00  0.00000000000E+00 -0.70702664401E+03  0.70702664402E+03  0.25500000920E-02 0. -1.
    10030    2    1    2    0    0  0.00000000000E+00  0.00000000000E+00  0.14959216730E+04  0.29099749610E+04  0.24960313744E+04 0.  0.
        4    1    3    3  502    0 -0.93352754180E+03  0.72793336244E+03  0.28722376202E+03  0.12181378222E+04  0.12699999809E+01 0.  1.
       -4    1    3    3    0  502  0.93352754180E+03 -0.72793336244E+03  0.12086979109E+04  0.16918371388E+04  0.12699999809E+01 0. -1.
</event>
<event>
 5   0  0.1468512E-05  0.2518933E+04  0.7818609E-02  0.8396272E-01
       -2   -1    0    0    0  501  0.00000000000E+00  0.00000000000E+00  0.13003899573E+04  0.13003899573E+04  0.25500000920E-02 0.  1.
        2   -1    0    0  501    0  0.00000000000E+00  0.00000000000E+00 -0.12198304822E+04  0.12198304822E+04  0.25500000920E-02 0. -1.
    10030    2    1    2    0    0  0.00000000000E+00  0.00000000000E+00  0.80559475128E+02  0.25202204394E+04  0.25189325585E+04 0.  0.
        4    1    3    3  502    0  0.33718987759E+03  0.11099248015E+04  0.53106455021E+03  0.12757982787E+04  0.12699999809E+01 0.  1.
       -4    1    3    3    0  502 -0.33718987759E+03 -0.11099248015E+04 -0.45050507508E+03  0.12444221607E+04  0.12699999809E+01 0. -1.
</event>
<event>
 5   0  0.6477703E-06  0.2500277E+04  0.7818609E-02  0.8402887E-01
       -1   -1    0    0    0  501  0.00000000000E+00  0.00000000000E+00  0.71551142110E+03  0.71551142112E+03  0.50400001928E-02 0.  1.
        1   -1    0    0  501    0  0.00000000000E+00  0.00000000000E+00 -0.21842364628E+04  0.21842364628E+04  0.50400001928E-02 0. -1.
    10030    2    1    2    0    0  0.00000000000E+00  0.00000000000E+00 -0.14687250417E+04  0.28997478839E+04  0.25002768931E+04 0.  0.
        5    1    3    3  502    0 -0.12214261399E+04 -0.25371291143E+03 -0.64034245736E+03  0.14022526910E+04  0.46999998093E+01 0. -1.
       -5    1    3    3    0  502  0.12214261399E+04  0.25371291143E+03 -0.82838258435E+03  0.14974951929E+04  0.46999998093E+01 0.  1.
</event>
<event>
 5   0  0.6105353E-06  0.2503684E+04  0.7818609E-02  0.8401674E-01
       -1   -1    0    0    0  501  0.00000000000E+00  0.00000000000E+00  0.13416771411E+04  0.13416771411E+04  0.50400001928E-02 0. -1.
        1   -1    0    0  501    0  0.00000000000E+00  0.00000000000E+00 -0.11680221360E+04  0.11680221360E+04  0.50400001928E-02 0.  1.
    10030    2    1    2    0    0  0.00000000000E+00  0.00000000000E+00  0.17365500515E+03  0.25096992771E+04  0.25036841656E+04 0.  0.
        3    1    3    3  502    0  0.80907760767E+03 -0.72280975820E+03  0.71286624242E+03  0.12981674821E+04  0.10100000352E+00 0. -1.
       -3    1    3    3    0  502 -0.80907760767E+03  0.72280975820E+03 -0.53921123727E+03  0.12115317950E+04  0.10100000352E+00 0.  1.
</event>
<event>
 5   0  0.1468512E-05  0.2498462E+04  0.7818609E-02  0.8403534E-01
        2   -1    0    0  501    0  0.00000000000E+00  0.00000000000E+00  0.15678015450E+04  0.15678015450E+04  0.25500000920E-02 0. -1.
       -2   -1    0    0    0  501  0.00000000000E+00  0.00000000000E+00 -0.99539230930E+03  0.99539230931E+03  0.25500000920E-02 0.  1.
    10030    2    1    2    0    0  0.00000000000E+00  0.00000000000E+00  0.57240923570E+03  0.25631938543E+04  0.24984616070E+04 0.  0.
        4    1    3    3  502    0 -0.63551934137E+03 -0.74597071802E+03 -0.50860586290E+03  0.11041008478E+04  0.12699999809E+01 0.  1.
       -4    1    3    3    0  502  0.63551934137E+03  0.74597071802E+03  0.10810150986E+04  0.14590930065E+04  0.12699999809E+01 0. -1.
</event>
<event>
 5   0  0.1550483E-05  0.2503129E+04  0.7818609E-02  0.8401871E-01
        2   -1    0    0  501    0  0.00000000000E+00  0.00000000000E+00  0.10293715625E+04  0.10293715625E+04  0.25500000920E-02 0. -1.
       -2   -1    0    0    0  501  0.00000000000E+00  0.00000000000E+00 -0.15217190156E+04  0.15217190156E+04  0.25500000920E-02 0.  1.
    10030    2    1    2    0    0  0.00000000000E+00  0.00000000000E+00 -0.49234745311E+03  0.25510905781E+04  0.25031294659E+04 0.  0.
        5    1    3    3  502    0 -0.43479302126E+03 -0.52876640389E+03 -0.13139860870E+04  0.14816276213E+04  0.46999998093E+01 0.  1.
       -5    1    3    3    0  502  0.43479302126E+03  0.52876640389E+03  0.82163863392E+03  0.10694629568E+04  0.46999998093E+01 0. -1.
</event>
<event>
 5   0  0.6477703E-06  0.2500147E+04  0.7818609E-02  0.8402933E-01
       -1   -1    0    0    0  501  0.00000000000E+00  0.00000000000E+00  0.80891667157E+03  0.80891667159E+03  0.50400001928E-02 0.  1.
        1   -1    0    0  501    0  0.00000000000E+00  0.00000000000E+00 -0.19318222144E+04  0.19318222144E+04  0.50400001928E-02 0. -1.
    10030    2    1    2    0    0  0.00000000000E+00  0.00000000000E+00 -0.11229055428E+04  0.27407388860E+04  0.25001465523E+04 0.  0.
        5    1    3    3  502    0  0.62324263333E+03  0.20963153093E+03 -0.17269092264E+04  0.18478675075E+04  0.46999998093E+01 0. -1.
       -5    1    3    3    0  502 -0.62324263333E+03 -0.20963153093E+03  0.60400368362E+03  0.89287137853E+03  0.46999998093E+01 0.  1.
</event>
<event>
 5   0  0.6105353E-06  0.2503996E+04  0.7818609E-02  0.8401563E-01
        1   -1    0    0  501    0  0.00000000000E+00  0.00000000000E+00  0.12511452219E+04  0.12511452219E+04  0.50400001928E-02 0.  1.
       -1   -1    0    0    0  501  0.00000000000E+00  0.00000000000E+00 -0.12528517410E+04  0.12528517410E+04  0.50400001928E-02 0. -1.
    10030    2    1    2    0    0  0.00000000000E+00  0.00000000000E+00 -0.17065190650E+01  0.25039969629E+04  0.25039963814E+04 0.  0.
        3    1    3    3  502    0  0.26870997716E+03  0.50870622635E+03 -0.11128393013E+04  0.12527563200E+04  0.10100000352E+00 0. -1.
       -3    1    3    3    0  502 -0.26870997716E+03 -0.50870622635E+03  0.11111327823E+04  0.12512406429E+04  0.10100000352E+00 0.  1.
</event>
<event>
 5   0  0.1526824E-05  0.2550746E+04  0.7818609E-02  0.8385127E-01
        2   -1    0    0  501    0  0.00000000000E+00  0.00000000000E+00  0.11875542160E+04  0.11875542160E+04  0.25500000920E-02 0.  1.
       -2   -1    0    0    0  501  0.00000000000E+00  0.00000000000E+00 -0.13696861764E+04  0.13696861764E+04  0.25500000920E-02 0. -1.
    10030    2    1    2    0    0  0.00000000000E+00  0.00000000000E+00 -0.18213196041E+03  0.25572403924E+04  0.25507462385E+04 0.  0.
        2    1    3    3  502    0 -0.84934264551E+03 -0.79473316384E+03  0.43332677391E+03  0.12412718575E+04  0.25500000920E-02 0.  1.
       -2    1    3    3    0  502  0.84934264551E+03  0.79473316384E+03 -0.61545873432E+03  0.13159685349E+04  0.25500000920E-02 0. -1.
</event>
<event>
 5   0  0.1550483E-05  0.2473404E+04  0.7818609E-02  0.8412522E-01
       -2   -1    0    0    0  501  0.00000000000E+00  0.00000000000E+00  0.10938062759E+04  0.10938062759E+04  0.25500000920E-02 0. -1.
        2   -1    0    0  501    0  0.00000000000E+00  0.00000000000E+00 -0.13982662163E+04  0.13982662163E+04  0.25500000920E-02 0.  1.
    10030    2    1    2    0    0  0.00000000000E+00  0.00000000000E+00 -0.30445994041E+03  0.24920724923E+04  0.24734044254E+04 0.  0.
        5    1    3    3  502    0  0.11966475999E+04  0.18451535275E+03 -0.40592171080E+03  0.12770301167E+04  0.46999998093E+01 0.  1.
       -5    1    3    3    0  502 -0.11966475999E+04 -0.18451535275E+03  0.10146177039E+03  0.12150423756E+04  0.46999998093E+01 0. -1.
</event>
<event>
 5   0  0.1572732E-05  0.2453122E+04  0.7818609E-02  0.8419879E-01
        2   -1    0    0  501    0  0.00000000000E+00  0.00000000000E+00  0.85674118188E+03  0.85674118188E+03  0.25500000920E-02 0. -1.
       -2   -1    0    0    0  501  0.00000000000E+00  0.00000000000E+00 -0.17560163695E+04  0.17560163695E+04  0.25500000920E-02 0.  1.
    10030    2    1    2    0    0  0.00000000000E+00  0.00000000000E+00 -0.89927518759E+03  0.26127575513E+04  0.24531217171E+04 0.  0.
        1    1    3    3  502    0  0.69018472355E+03 -0.78506358865E+03 -0.11330900173E+04  0.15416136929E+04  0.50400001928E-02 0.  1.
       -1    1    3    3    0  502 -0.69018472355E+03  0.78506358865E+03  0.23381482971E+03  0.10711438584E+04  0.50400001928E-02 0. -1.
</event>
<event>
 5   0  0.1468512E-05  0.2481386E+04  0.7818609E-02  0.8409647E-01
        2   -1    0    0  501    0  0.00000000000E+00  0.00000000000E+00  0.15755659030E+04  0.15755659030E+04  0.25500000920E-02 0.  1.
       -2   -1    0    0    0  501  0.00000000000E+00  0.00000000000E+00 -0.97699446426E+03  0.97699446427E+03  0.25500000920E-02 0. -1.
    10030    2    1    2    0    0  0.00000000000E+00  0.00000000000E+00  0.59857143871E+03  0.25525603672E+04  0.24813860363E+04 0.  0.
        4    1    3    3  502    0  0.10271333036E+04 -0.70868493843E+02  0.10114528947E+04  0.14432822793E+04  0.12699999809E+01 0.  1.
       -4    1    3    3    0  502 -0.10271333036E+04  0.70868493843E+02 -0.41288145600E+03  0.11092780879E+04  0.12699999809E+01 0. -1.
</event>
<event>
 5   0  0.1550483E-05  0.2502641E+04  0.7818609E-02  0.8402045E-01
        2   -1    0    0  501    0  0.00000000000E+00  0.00000000000E+00  0.64194795198E+03  0.64194795198E+03  0.25500000920E-02 0.  1.
       -2   -1    0    0    0  501  0.00000000000E+00  0.00000000000E+00 -0.24391432387E+04  0.24391432387E+04  0.25500000920E-02 0. -1.
    10030    2    1    2    0    0  0.00000000000E+00  0.00000000000E+00 -0.17971952867E+04  0.30810911906E+04  0.25026410103E+04 0.  0.
        5    1    3    3  502    0  0.32762938354E+03 -0.40193870546E+03 -0.23006258760E+04  0.23583462950E+04  0.46999998093E+01 0. -1.
       -5    1    3    3    0  502 -0.32762938354E+03  0.40193870546E+03  0.50343058931E+03  0.72274489563E+03  0.46999998093E+01 0.  1.
</event>
<event>
 5   0  0.1501947E-05  0.2483244E+04  0.7818609E-02  0.8408979E-01
        2   -1    0    0  501    0  0.00000000000E+00  0.00000000000E+00  0.13224121198E+04  0.13224121198E+04  0.25500000920E-02 0.  1.
       -2   -1    0    0    0  501  0.00000000000E+00  0.00000000000E+00 -0.11657679699E+04  0.11657679699E+04  0.25500000920E-02 0. -1.
    10030    2    1    2    0    0  0.00000000000E+00  0.00000000000E+00  0.15664414988E+03  0.24881800897E+04  0.24832444038E+04 0.  0.
        3    1    3    3  502    0 -0.20248031597E+03  0.11697583107E+04  0.44276591195E+03  0.12670337197E+04  0.10100000352E+00 0.  1.
       -3    1    3    3    0  502  0.20248031597E+03 -0.11697583107E+04 -0.28612176207E+03  0.12211463699E+04  0.10100000352E+00 0. -1.
</event>
<event>
 5   0  0.6346420E-06  0.2492850E+04  0.7818609E-02  0.8405537E-01
       -1   -1    0    0    0  501  0.00000000000E+00  0.00000000000E+00  0.62458318956E+03  0.62458318958E+03  0.50400001928E-02 0. -1.
        1   -1    0    0  501    0  0.00000000000E+00  0.00000000000E+00 -0.24873801270E+04  0.24873801270E+04  0.50400001928E-02 0.  1.
    10030    2    1    2    0    0  0.00000000000E+00  0.00000000000E+00 -0.18627969375E+04  0.31119633166E+04  0.24928504275E+04 0.  0.
        4    1    3    3  502    0  0.15564822397E+03  0.10422093285E+04 -0.17624202793E+04  0.20534248240E+04  0.12699999809E+01 0.  1.
       -4    1    3    3    0  502 -0.15564822397E+03 -0.10422093285E+04 -0.10037665818E+03  0.10585384926E+04  0.12699999809E+01 0. -1.
</event>
<event>
 5   0  0.1550483E-05  0.2509471E+04  0.7818609E-02  0.8399619E-01
       -2   -1    0    0    0  501  0.00000000000E+00  0.00000000000E+00  0.71440851109E+03  0.71440851110E+03  0.25500000920E-02 0. -1.
        2   -1    0    0  501    0  0.00000000000E+00  0.00000000000E+00 -0.22037275292E+04  0.22037275292E+04  0.25500000920E-02 0.  1.
    10030    2    1    2    0    0  0.00000000000E+00  0.00000000000E+00 -0.14893190181E+04  0.29181360403E+04  0.25094714208E+04 0.  0.
        5    1    3    3  502    0 -0.12519647531E+04  0.44311101908E+02 -0.66275996915E+03  0.14172692347E+04  0.46999998093E+01 0.  1.
       -5    1    3    3    0  502  0.12519647531E+04 -0.44311101908E+02 -0.82655904892E+03  0.15008668056E+04  0.46999998093E+01 0. -1.
</event>
<event>
 5   0  0.6477703E-06  0.2511252E+04  0.7818609E-02  0.8398988E-01
        1   -1    0    0  501    0  0.00000000000E+00  0.00000000000E+00  0.16857256917E+04  0.16857256917E+04  0.50400001928E-02 0.  1.
       -1   -1    0    0    0  501  0.00000000000E+00  0.00000000000E+00 -0.93526321976E+03  0.93526321977E+03  0.50400001928E-02 0. -1.
    10030    2    1    2    0    0  0.00000000000E+00  0.00000000000E+00  0.75046247195E+03  0.26209889115E+04  0.25112524669E+04 0.  0.
        5    1    3    3  502    0 -0.56272320602E+03  0.54328053105E+03  0.14003763670E+04  0.16040221947E+04  0.46999998093E+01 0.  1.
       -5    1    3    3    0  502  0.56272320602E+03 -0.54328053105E+03 -0.64991389503E+03  0.10169667167E+04  0.46999998093E+01 0. -1.
</event>
<event>
 5   0  0.6477703E-06  0.2446682E+04  0.7818609E-02  0.8422230E-01
        1   -1    0    0  501    0  0.00000000000E+00  0.00000000000E+00  0.17713908259E+04  0.17713908259E+04  0.50400001928E-02 0.  1.
       -1   -1    0    0    0  501  0.00000000000E+00  0.00000000000E+00 -0.84485229508E+03  0.84485229510E+03  0.50400001928E-02 0. -1.
    10030    2    1    2    0    0  0.00000000000E+00  0.00000000000E+00  0.92653853081E+03  0.26162431210E+04  0.24466823290E+04 0.  0.
        5    1    3    3  502    0 -0.87836689682E+03 -0.82406833895E+03  0.23411779535E+03  0.12269679151E+04  0.46999998093E+01 0. -1.
       -5    1    3    3    0  502  0.87836689682E+03  0.82406833895E+03  0.69242073545E+03  0.13892752058E+04  0.46999998093E+01 0.  1.
</event>
<event>
 5   0  0.6477703E-06  0.2503703E+04  0.7818609E-02  0.8401667E-01
       -1   -1    0    0    0  501  0.00000000000E+00  0.00000000000E+00  0.10826306942E+04  0.10826306942E+04  0.50400001928E-02 0. -1.
        1   -1    0    0  501    0  0.00000000000E+00  0.00000000000E+00 -0.14475229253E+04  0.14475229253E+04  0.50400001928E-02 0.  1.
    10030    2    1    2    0    0  0.00000000000E+00  0.00000000000E+00 -0.36489223111E+03  0.25301536196E+04  0.25037034566E+04 0.  0.
        5    1    3    3  502    0  0.84183696667E+02  0.57059707331E+03  0.94034631788E+03  0.11031505801E+04  0.46999998093E+01 0. -1.
       -5    1    3    3    0  502 -0.84183696667E+02 -0.57059707331E+03 -0.13052385490E+04  0.14270030395E+04  0.46999998093E+01 0.  1.
</event>
<event>
 5   0  0.6290861E-06  0.2503600E+04  0.7818609E-02  0.8401704E-01
       -1   -1    0    0    0  501  0.00000000000E+00  0.00000000000E+00  0.68430235535E+03  0.68430235537E+03  0.50400001928E-02 0.  1.
        1   -1    0    0  501    0  0.00000000000E+00  0.00000000000E+00 -0.22899285335E+04  0.22899285335E+04  0.50400001928E-02 0. -1.
    10030    2    1    2    0    0  0.00000000000E+00  0.00000000000E+00 -0.16056261781E+04  0.29742308889E+04  0.25036001990E+04 0.  0.
        1    1    3    3  502    0  0.25498705634E+03  0.89356182095E+03  0.19362826244E+03  0.94919072415E+03  0.50400001928E-02 0.  1.
       -1    1    3    3    0  502 -0.25498705634E+03 -0.89356182095E+03 -0.17992544406E+04  0.20250401647E+04  0.50400001928E-02 0. -1.
</event>
<event>
 5   0  0.1501947E-05  0.2457933E+04  0.7818609E-02  0.8418127E-01
        2   -1    0    0  501    0  0.00000000000E+00  0.00000000000E+00  0.18159362572E+04  0.18159362572E+04  0.25500000920E-02 0. -1.
       -2   -1    0    0    0  501  0.00000000000E+00  0.00000000000E+00 -0.83172472001E+03  0.83172472002E+03  0.25500000920E-02 0.  1.
    10030    2    1    2    0    0  0.00000000000E+00  0.00000000000E+00  0.98421153721E+03  0.26476609772E+04  0.24579333393E+04 0.  0.
        3    1    3    3  502    0 -0.40785857051E+03  0.70983447536E+03  0.14794521049E+04  0.16908554453E+04  0.10100000352E+00 0. -1.
       -3    1    3    3    0  502  0.40785857051E+03 -0.70983447536E+03 -0.49524056767E+03  0.95680553198E+03  0.10100000352E+00 0.  1.
</event>
<event>
 5   0  0.5164625E-06  0.2523856E+04  0.7818609E-02  0.8394536E-01
       -4   -1    0    0    0  501  0.00000000000E+00  0.00000000000E+00  0.19379170759E+04  0.19379174920E+04  0.12699999809E+01 0. -1.
        4   -1    0    0  501    0  0.00000000000E+00  0.00000000000E+00 -0.82173798158E+03  0.82173896298E+03  0.12699999809E+01 0.  1.
    10030    2    1    2    0    0  0.00000000000E+00  0.00000000000E+00  0.11161790943E+04  0.27596564550E+04  0.25238557762E+04 0.  0.
        5    1    3    3  502    0  0.99738158794E+03 -0.76212107998E+03  0.41619075166E+03  0.13224354065E+04  0.46999998093E+01 0. -1.
       -5    1    3    3    0  502 -0.99738158794E+03  0.76212107998E+03  0.69998834261E+03  0.14372210485E+04  0.46999998093E+01 0.  1.
</event>
<event>
 5   0  0.6346420E-06  0.2518870E+04  0.7818609E-02  0.8396294E-01
       -1   -1    0    0    0  501  0.00000000000E+00  0.00000000000E+00  0.24340941784E+04  0.24340941784E+04  0.50400001928E-02 0.  1.
        1   -1    0    0  501    0  0.00000000000E+00  0.00000000000E+00 -0.65164986441E+03  0.65164986443E+03  0.50400001928E-02 0. -1.
    10030    2    1    2    0    0  0.00000000000E+00  0.00000000000E+00  0.17824443140E+04  0.30857440429E+04  0.25188704940E+04 0.  0.
        4    1    3    3  502    0  0.62872812987E+03  0.63207962919E+03 -0.19855790996E+03  0.91337318520E+03  0.12699999809E+01 0. -1.
       -4    1    3    3    0  502 -0.62872812987E+03 -0.63207962919E+03  0.19810022240E+04  0.21723708577E+04  0.12699999809E+01 0.  1.
</event>
<event>
 5   0  0.1526824E-05  0.2475533E+04  0.7818609E-02  0.8411754E-01
        2   -1    0    0  501    0  0.00000000000E+00  0.00000000000E+00  0.22915152845E+04  0.22915152845E+04  0.25500000920E-02 0.  1.
       -2   -1    0    0    0  501  0.00000000000E+00  0.00000000000E+00 -0.66858175885E+03  0.66858175886E+03  0.25500000920E-02 0. -1.
    10030    2    1    2    0    0  0.00000000000E+00  0.00000000000E+00  0.16229335257E+04  0.29600970434E+04  0.24755325240E+04 0.  0.
        2    1    3    3  502    0 -0.92084192819E+03  0.38145208361E+03  0.16890219270E+04  0.19611860235E+04  0.25500000920E-02 0.  1.
       -2    1    3    3    0  502  0.92084192819E+03 -0.38145208361E+03 -0.66088401360E+02  0.99891101987E+03  0.25500000920E-02 0. -1.
</event>
<event>
 5   0  0.1526824E-05  0.2481115E+04  0.7818609E-02  0.8409744E-01
        2   -1    0    0  501    0  0.00000000000E+00  0.00000000000E+00  0.95521149026E+03  0.95521149026E+03  0.25500000920E-02 0.  1.
       -2   -1    0    0    0  501  0.00000000000E+00  0.00000000000E+00 -0.16111435641E+04  0.16111435641E+04  0.25500000920E-02 0. -1.
    10030    2    1    2    0    0  0.00000000000E+00  0.00000000000E+00 -0.65593207386E+03  0.25663550544E+04  0.24811149469E+04 0.  0.
        2    1    3    3  502    0 -0.87656897107E+03 -0.28268613230E+03  0.53166884259E+03  0.10634643241E+04  0.25500000920E-02 0. -1.
       -2    1    3    3    0  502  0.87656897107E+03  0.28268613230E+03 -0.11876009164E+04  0.15028907303E+04  0.25500000920E-02 0.  1.
</event>
<event>
 5   0  0.6290861E-06  0.2537559E+04  0.7818609E-02  0.8389726E-01
        1   -1    0    0  501    0  0.00000000000E+00  0.00000000000E+00  0.66058632553E+03  0.66058632555E+03  0.50400001928E-02 0.  1.
       -1   -1    0    0    0  501  0.00000000000E+00  0.00000000000E+00 -0.24369283337E+04  0.24369283337E+04  0.50400001928E-02 0. -1.
    10030    2    1    2    0    0  0.00000000000E+00  0.00000000000E+00 -0.17763420081E+04  0.30975146592E+04  0.25375590898E+04 0.  0.
        1    1    3    3  502    0 -0.88371961017E+02 -0.43973680099E+03 -0.23369250684E+04  0.23795791294E+04  0.50400001928E-02 0. -1.
       -1    1    3    3    0  502  0.88371961017E+02  0.43973680099E+03  0.56058306022E+03  0.71793552989E+03  0.50400001928E-02 0.  1.
</event>
<event>
 5   0  0.1550483E-05  0.2499484E+04  0.7818609E-02  0.8403169E-01
        2   -1    0    0  501    0  0.00000000000E+00  0.00000000000E+00  0.13348000650E+04  0.13348000650E+04  0.25500000920E-02 0. -1.
       -2   -1    0    0    0  501  0.00000000000E+00  0.00000000000E+00 -0.11701039255E+04  0.11701039255E+04  0.25500000920E-02 0.  1.
    10030    2    1    2    0    0  0.00000000000E+00  0.00000000000E+00  0.16469613947E+03  0.25049039905E+04  0.24994837834E+04 0.  0.
        5    1    3    3  502    0 -0.29181780042E+03 -0.11959511981E+04 -0.13346935714E+03  0.12382621113E+04  0.46999998093E+01 0. -1.
       -5    1    3    3    0  502  0.29181780042E+03  0.11959511981E+04  0.29816549661E+03  0.12666418792E+04  0.46999998093E+01 0.  1.
</event>
<event>
 5   0  0.6105353E-06  0.2468775E+04  0.7818609E-02  0.8414195E-01
       -1   -1    0    0    0  501  0.00000000000E+00  0.00000000000E+00  0.91530903950E+03  0.91530903951E+03  0.50400001928E-02 0. -1.
        1   -1    0    0  501    0  0.00000000000E+00  0.00000000000E+00 -0.16646973038E+04  0.16646973038E+04  0.50400001928E-02 0.  1.
    10030    2    1    2    0    0  0.00000000000E+00  0.00000000000E+00 -0.74938826432E+03  0.25800063433E+04  0.24687749920E+04 0.  0.
        3    1    3    3  502    0 -0.86165631022E+03  0.72381052585E+03 -0.90485676960E+03  0.14439941336E+04  0.10100000352E+00 0.  1.
       -3    1    3    3    0  502  0.86165631022E+03 -0.72381052585E+03  0.15546850528E+03  0.11360122097E+04  0.10100000352E+00 0. -1.
</event>
<event>
 5   0  0.1468512E-05  0.2504837E+04  0.7818609E-02  0.8401264E-01
        2   -1    0    0  501    0  0.00000000000E+00  0.00000000000E+00  0.11881545207E+04  0.11881545207E+04  0.25500000920E-02 0. -1.
       -2   -1    0    0    0  501  0.00000000000E+00  0.00000000000E+00 -0.13201584075E+04  0.13201584075E+04  0.25500000920E-02 0.  1.
    10030    2    1    2    0    0  0.00000000000E+00  0.00000000000E+00 -0.13200388680E+03  0.25083129282E+04  0.25048370645E+04 0.  0.
        4    1    3    3  502    0  0.37065370798E+03  0.94414183844E+03 -0.80170680175E+03  0.12928740817E+04  0.12699999809E+01 0.  1.
       -4    1    3    3    0  502 -0.37065370798E+03 -0.94414183844E+03  0.66970291495E+03  0.12154388465E+04  0.12699999809E+01 0. -1.
</event>
<event>
 5   0  0.5164625E-06  0.2476385E+04  0.7818609E-02  0.8411447E-01
       -4   -1    0    0    0  501  0.00000000000E+00  0.00000000000E+00  0.97784168878E+03  0.97784251350E+03  0.12699999809E+01 0. -1.
        4   -1    0    0  501    0  0.00000000000E+00  0.00000000000E+00 -0.15678599677E+04  0.15678604820E+04  0.12699999809E+01 0.  1.
    10030    2    1    2    0    0  0.00000000000E+00  0.00000000000E+00 -0.59001827887E+03  0.25457029955E+04  0.24763848998E+04 0.  0.
        5    1    3    3  502    0 -0.12329045966E+04 -0.79536840244E+02 -0.37927059820E+03  0.12923807991E+04  0.46999998093E+01 0. -1.
       -5    1    3    3    0  502  0.12329045966E+04  0.79536840244E+02 -0.21074768067E+03  0.12533221964E+04  0.46999998093E+01 0.  1.
</event>
<event>
 5   0  0.6290861E-06  0.2507346E+04  0.7818609E-02  0.8400373E-01
        1   -1    0    0  501    0  0.00000000000E+00  0.00000000000E+00  0.21054776507E+04  0.21054776507E+04  0.50400001928E-02 0. -1.
       -1   -1    0    0    0  501  0.00000000000E+00  0.00000000000E+00 -0.74647940125E+03  0.74647940126E+03  0.50400001928E-02 0.  1.
    10030    2    1    2    0    0  0.00000000000E+00  0.00000000000E+00  0.13589982495E+04  0.28519570520E+04  0.25073457648E+04 0.  0.
        1    1    3    3  502    0 -0.31021542937E+03 -0.22769712350E+03 -0.67764258932E+03  0.77928112485E+03  0.50400001928E-02 0.  1.
       -1    1    3    3    0  502  0.31021542937E+03  0.22769712350E+03  0.20366408388E+04  0.20726759271E+04  0.50400001928E-02 0. -1.
</event>
<event>
 5   0  0.6290861E-06  0.2373604E+04  0.7818609E-02  0.8449452E-01
       -1   -1    0    0    0  501  0.00000000000E+00  0.00000000000E+00  0.13028523766E+04  0.13028523766E+04  0.50400001928E-02 0. -1.
        1   -1    0    0  501    0  0.00000000000E+00  0.00000000000E+00 -0.10810888019E+04  0.10810888019E+04  0.50400001928E-02 0.  1.
    10030    2    1    2    0    0  0.00000000000E+00  0.00000000000E+00  0.22176357479E+03  0.23839411785E+04  0.23736041076E+04 0.  0.
        1    1    3    3  502    0  0.80947238813E+03  0.23889365131E+03  0.94889155284E+03  0.12699255501E+04  0.50400001928E-02 0. -1.
       -1    1    3    3    0  502 -0.80947238813E+03 -0.23889365131E+03 -0.72712797806E+03  0.11140156284E+04  0.50400001928E-02 0.  1.
</event>
<event>
 5   0  0.6105353E-06  0.2533583E+04  0.7818609E-02  0.8391118E-01
       -1   -1    0    0    0  501  0.00000000000E+00  0.00000000000E+00  0.87211375006E+03  0.87211375007E+03  0.50400001928E-02 0. -1.
        1   -1    0    0  501    0  0.00000000000E+00  0.00000000000E+00 -0.18400812758E+04  0.18400812758E+04  0.50400001928E-02 0.  1.
    10030    2    1    2    0    0  0.00000000000E+00  0.00000000000E+00 -0.96796752575E+03  0.27121950259E+04  0.25335825875E+04 0.  0.
        3    1    3    3  502    0 -0.95621226243E+02 -0.83451912425E+03 -0.14990927921E+04  0.17183843566E+04  0.10100000352E+00 0.  1.
       -3    1    3    3    0  502  0.95621226243E+02  0.83451912425E+03  0.53112526631E+03  0.99381066928E+03  0.10100000352E+00 0. -1.
</event>
<event>
 5   0  0.1468512E-05  0.2496925E+04  0.7818609E-02  0.8404082E-01
        2   -1    0    0  501    0  0.00000000000E+00  0.00000000000E+00  0.10094602754E+04  0.10094602754E+04  0.25500000920E-02 0.  1.
       -2   -1    0    0    0  501  0.00000000000E+00  0.00000000000E+00 -0.15440512361E+04  0.15440512361E+04  0.25500000920E-02 0. -1.
    10030    2    1    2    0    0  0.00000000000E+00  0.00000000000E+00 -0.53459096073E+03  0.25535115115E+04  0.24969248175E+04 0.  0.
        4    1    3    3  502    0  0.30836698056E+03  0.31353324141E+03 -0.14622203265E+04  0.15269195081E+04  0.12699999809E+01 0. -1.
       -4    1    3    3    0  502 -0.30836698056E+03 -0.31353324141E+03  0.92762936579E+03  0.10265920034E+04  0.12699999809E+01 0.  1.
</event>
<event>
 5   0  0.1572732E-05  0.2502794E+04  0.7818609E-02  0.8401991E-01
        2   -1    0    0  501    0  0.00000000000E+00  0.00000000000E+00  0.13031055884E+04  0.13031055884E+04  0.25500000920E-02 0.  1.
       -2   -1    0    0    0  501  0.00000000000E+00  0.00000000000E+00 -0.12017401846E+04  0.12017401846E+04  0.25500000920E-02 0. -1.
    10030    2    1    2    0    0  0.00000000000E+00  0.00000000000E+00  0.10136540384E+03  0.25048457730E+04  0.25027939191E+04 0.  0.
        1    1    3    3  502    0 -0.57233263836E+03  0.10294652853E+04 -0.37231131708E+03  0.12353052819E+04  0.50400001928E-02 0. -1.
       -1    1    3    3    0  502  0.57233263836E+03 -0.10294652853E+04  0.47367672092E+03  0.12695404911E+04  0.50400001928E-02 0.  1.
</event>
<event>
 5   0  0.5164625E-06  0.2487676E+04  0.7818609E-02  0.8407389E-01
        4   -1    0    0  501    0  0.00000000000E+00  0.00000000000E+00  0.93006783417E+03  0.93006870125E+03  0.12699999809E+01 0. -1.
       -4   -1    0    0    0  501  0.00000000000E+00  0.00000000000E+00 -0.16634603374E+04  0.16634608222E+04  0.12699999809E+01 0.  1.
    10030    2    1    2    0    0  0.00000000000E+00  0.00000000000E+00 -0.73339250321E+03  0.25935295234E+04  0.24876757878E+04 0.  0.
        5    1    3    3  502    0 -0.72332903360E+03  0.84738036503E+03  0.20987535462E+03  0.11337231269E+04  0.46999998093E+01 0. -1.
       -5    1    3    3    0  502  0.72332903360E+03 -0.84738036503E+03 -0.94326785783E+03  0.14598063966E+04  0.46999998093E+01 0.  1.
</event>
<event>
 5   0  0.6104486E-06  0.2476273E+04  0.7818609E-02  0.8411488E-01
       -1   -1    0    0    0  501  0.00000000000E+00  0.00000000000E+00  0.74797786985E+03  0.74797786987E+03  0.50400001928E-02 0. -1.
        1   -1    0    0  501    0  0.00000000000E+00  0.00000000000E+00 -0.20495013158E+04  0.20495013158E+04  0.50400001928E-02 0.  1.
    10030    2    1    2    0    0  0.00000000000E+00  0.00000000000E+00 -0.13015234459E+04  0.27974791857E+04  0.24762727059E+04 0.  0.
        2    1    3    3  502    0 -0.12113008108E+03 -0.65866175380E+03  0.52570034892E+03  0.85139218890E+03  0.25500000920E-02 0. -1.
       -2    1    3    3    0  502  0.12113008108E+03  0.65866175380E+03 -0.18272237949E+04  0.19460869968E+04  0.25500000920E-02 0.  1.
</event>
<event>
 5   0  0.5164625E-06  0.2490269E+04  0.7818609E-02  0.8406460E-01
       -3   -1    0    0    0  501  0.00000000000E+00  0.00000000000E+00  0.10030852448E+04  0.10030852499E+04  0.10100000352E+00 0.  1.
        3   -1    0    0  501    0  0.00000000000E+00  0.00000000000E+00 -0.15455914638E+04  0.15455914671E+04  0.10100000352E+00 0. -1.
    10030    2    1    2    0    0  0.00000000000E+00  0.00000000000E+00 -0.54250621899E+03  0.25486767169E+04  0.24902690637E+04 0.  0.
        4    1    3    3  502    0  0.10276454778E+04  0.68776033553E+03 -0.42058236807E+03  0.13061242852E+04  0.12699999809E+01 0. -1.
       -4    1    3    3    0  502 -0.10276454778E+04 -0.68776033553E+03 -0.12192385092E+03  0.12425524317E+04  0.12699999809E+01 0.  1.
</event>
<event>
 5   0  0.1468512E-05  0.2499916E+04  0.7818609E-02  0.8403015E-01
        2   -1    0    0  501    0  0.00000000000E+00  0.00000000000E+00  0.99688043541E+03  0.99688043541E+03  0.25500000920E-02 0. -1.
       -2   -1    0    0    0  501  0.00000000000E+00  0.00000000000E+00 -0.15672844447E+04  0.15672844447E+04  0.25500000920E-02 0.  1.
    10030    2    1    2    0    0  0.00000000000E+00  0.00000000000E+00 -0.57040400931E+03  0.25641648801E+04  0.24999161583E+04 0.  0.
        4    1    3    3  502    0 -0.10135492414E+04 -0.73133588441E+03 -0.30172011759E+03  0.12857569299E+04  0.12699999809E+01 0.  1.
       -4    1    3    3    0  502  0.10135492414E+04  0.73133588441E+03 -0.26868389172E+03  0.12784079502E+04  0.12699999809E+01 0. -1.
</event>
<event>
 5   0  0.6105353E-06  0.2493596E+04  0.7818609E-02  0.8405270E-01
        1   -1    0    0  501    0  0.00000000000E+00  0.00000000000E+00  0.13173637312E+04  0.13173637312E+04  0.50400001928E-02 0.  1.
       -1   -1    0    0    0  501  0.00000000000E+00  0.00000000000E+00 -0.11800125535E+04  0.11800125535E+04  0.50400001928E-02 0. -1.
    10030    2    1    2    0    0  0.00000000000E+00  0.00000000000E+00  0.13735117770E+03  0.24973762847E+04  0.24935963911E+04 0.  0.
        3    1    3    3  502    0  0.25851994356E+03  0.49186708747E+03  0.11864946641E+04  0.13101661693E+04  0.10100000352E+00 0.  1.
       -3    1    3    3    0  502 -0.25851994356E+03 -0.49186708747E+03 -0.10491434864E+04  0.11872101155E+04  0.10100000352E+00 0. -1.
</event>
<event>
 5   0  0.1468512E-05  0.2516575E+04  0.7818609E-02  0.8397104E-01
        2   -1    0    0  501    0  0.00000000000E+00  0.00000000000E+00  0.16001405271E+04  0.16001405271E+04  0.25500000920E-02 0. -1.
       -2   -1    0    0    0  501  0.00000000000E+00  0.00000000000E+00 -0.98946761318E+03  0.98946761318E+03  0.25500000920E-02 0.  1.
    10030    2    1    2    0    0  0.00000000000E+00  0.00000000000E+00  0.61067291395E+03  0.25896081403E+04  0.25165748375E+04 0.  0.
        4    1    3    3  502    0  0.95161767438E+03  0.80616169104E+03  0.47694785459E+03  0.13352729081E+04  0.12699999809E+01 0.  1.
       -4    1    3    3    0  502 -0.95161767438E+03 -0.80616169104E+03  0.13372505936E+03  0.12543352322E+04  0.12699999809E+01 0. -1.
</event>
<event>
 5   0  0.6105353E-06  0.2500008E+04  0.7818609E-02  0.8402983E-01
        1   -1    0    0  501    0  0.00000000000E+00  0.00000000000E+00  0.15565285128E+04  0.15565285128E+04  0.50400001928E-02 0.  1.
       -1   -1    0    0    0  501  0.00000000000E+00  0.00000000000E+00 -0.10038424424E+04  0.10038424424E+04  0.50400001928E-02 0. -1.
    10030    2    1    2    0    0  0.00000000000E+00  0.00000000000E+00  0.55268607035E+03  0.25603709552E+04  0.25000075072E+04 0.  0.
        3    1    3    3  502    0  0.12157708228E+04  0.93498170111E+02  0.55806449062E+03  0.13409983547E+04  0.10100000352E+00 0. -1.
       -3    1    3    3    0  502 -0.12157708228E+04 -0.93498170111E+02 -0.53784202729E+01  0.12193726005E+04  0.10100000352E+00 0.  1.
</event>
<event>
 5   0  0.6105353E-06  0.2502984E+04  0.7818609E-02  0.8401923E-01
       -1   -1    0    0    0  501  0.00000000000E+00  0.00000000000E+00  0.11741989378E+04  0.11741989378E+04  0.50400001928E-02 0. -1.
        1   -1    0    0  501    0  0.00000000000E+00  0.00000000000E+00 -0.13338730750E+04  0.13338730750E+04  0.50400001928E-02 0.  1.
    10030    2    1    2    0    0  0.00000000000E+00  0.00000000000E+00 -0.15967413720E+03  0.25080720129E+04  0.25029840974E+04 0.  0.
        3    1    3    3  502    0 -0.65784811647E+01 -0.81446048214E+03 -0.10319491448E+04  0.13146513610E+04  0.10100000352E+00 0.  1.
       -3    1    3    3    0  502  0.65784811647E+01  0.81446048214E+03  0.87227500755E+03  0.11934206519E+04  0.10100000352E+00 0. -1.
</event>
<event>
 5   0  0.1468512E-05  0.2504485E+04  0.7818609E-02  0.8401389E-01
        2   -1    0    0  501    0  0.00000000000E+00  0.00000000000E+00  0.14071044472E+04  0.14071044472E+04  0.25500000920E-02 0. -1.
       -2   -1    0    0    0  501  0.00000000000E+00  0.00000000000E+00 -0.11144246119E+04  0.11144246119E+04  0.25500000920E-02 0.  1.
    10030    2    1    2    0    0  0.00000000000E+00  0.00000000000E+00  0.29267983528E+03  0.25215290591E+04  0.25044854381E+04 0.  0.
        4    1    3    3  502    0  0.48566692453E+03 -0.10529078993E+04 -0.32976592981E+03  0.12055017990E+04  0.12699999809E+01 0.  1.
       -4    1    3    3    0  502 -0.48566692453E+03  0.10529078993E+04  0.62244576509E+03  0.13160272601E+04  0.12699999809E+01 0. -1.
</event>
<event>
 5   0  0.1572732E-05  0.2508764E+04  0.7818609E-02  0.8399870E-01
       -2   -1    0    0    0  501  0.00000000000E+00  0.00000000000E+00  0.65310618679E+03  0.65310618679E+03  0.25500000920E-02 0. -1.
        2   -1    0    0  501    0  0.00000000000E+00  0.00000000000E+00 -0.24092160040E+04  0.24092160040E+04  0.25500000920E-02 0.  1.
    10030    2    1    2    0    0  0.00000000000E+00  0.00000000000E+00 -0.17561098172E+04  0.30623221908E+04  0.25087637414E+04 0.  0.
        1    1    3    3  502    0  0.60419268299E+03 -0.35969217433E+03 -0.21460314573E+04  0.22582910074E+04  0.50400001928E-02 0.  1.
       -1    1    3    3    0  502 -0.60419268299E+03  0.35969217433E+03  0.38992164006E+03  0.80403118339E+03  0.50400001928E-02 0. -1.
</event>
<event>
 5   0  0.1526824E-05  0.2493257E+04  0.7818609E-02  0.8405392E-01
       -2   -1    0    0    0  501  0.00000000000E+00  0.00000000000E+00  0.10745533234E+04  0.10745533234E+04  0.25500000920E-02 0. -1.
        2   -1    0    0  501    0  0.00000000000E+00  0.00000000000E+00 -0.14462596820E+04  0.14462596820E+04  0.25500000920E-02 0.  1.
    10030    2    1    2    0    0  0.00000000000E+00  0.00000000000E+00 -0.37170635863E+03  0.25208130054E+04  0.24932574257E+04 0.  0.
        2    1    3    3  502    0 -0.37223458031E+03  0.24051122968E+03 -0.13639257546E+04  0.14341191368E+04  0.25500000920E-02 0.  1.
       -2    1    3    3    0  502  0.37223458031E+03 -0.24051122968E+03  0.99221939596E+03  0.10866938686E+04  0.25500000920E-02 0. -1.
</event>
<event>
 5   0  0.1468512E-05  0.2500803E+04  0.7818609E-02  0.8402699E-01
       -2   -1    0    0    0  501  0.00000000000E+00  0.00000000000E+00  0.88630055233E+03  0.88630055233E+03  0.25500000920E-02 0.  1.
        2   -1    0    0  501    0  0.00000000000E+00  0.00000000000E+00 -0.17640793703E+04  0.17640793703E+04  0.25500000920E-02 0. -1.
    10030    2    1    2    0    0  0.00000000000E+00  0.00000000000E+00 -0.87777881793E+03  0.26503799226E+04  0.25008034871E+04 0.  0.
        4    1    3    3  502    0  0.98770476658E+03  0.76649388756E+03 -0.46084878550E+03  0.13324626830E+04  0.12699999809E+01 0.  1.
       -4    1    3    3    0  502 -0.98770476658E+03 -0.76649388756E+03 -0.41693003243E+03  0.13179172396E+04  0.12699999809E+01 0. -1.
</event>
<event>
 5   0  0.6290861E-06  0.2491504E+04  0.7818609E-02  0.8406019E-01
       -1   -1    0    0    0  501  0.00000000000E+00  0.00000000000E+00  0.32219058025E+04  0.32219058025E+04  0.50400001928E-02 0. -1.
        1   -1    0    0  501    0  0.00000000000E+00  0.00000000000E+00 -0.48167074467E+03  0.48167074469E+03  0.50400001928E-02 0.  1.
    10030    2    1    2    0    0  0.00000000000E+00  0.00000000000E+00  0.27402350578E+04  0.37035765472E+04  0.24915037766E+04 0.  0.
        1    1    3    3  502    0  0.42889888962E+03  0.25501133021E+03  0.30668658937E+04  0.31071934999E+04  0.50400001928E-02 0. -1.
       -1    1    3    3    0  502 -0.42889888962E+03 -0.25501133021E+03 -0.32663083590E+03  0.59638304724E+03  0.50400001928E-02 0.  1.
</event>
<event>
 5   0  0.6105353E-06  0.2476190E+04  0.7818609E-02  0.8411517E-01
        1   -1    0    0  501    0  0.00000000000E+00  0.00000000000E+00  0.21293119741E+04  0.21293119741E+04  0.50400001928E-02 0.  1.
       -1   -1    0    0    0  501  0.00000000000E+00  0.00000000000E+00 -0.71989421784E+03  0.71989421786E+03  0.50400001928E-02 0. -1.
    10030    2    1    2    0    0  0.00000000000E+00  0.00000000000E+00  0.14094177563E+04  0.28492061920E+04  0.24761901205E+04 0.  0.
        3    1    3    3  502    0 -0.76551951922E+03  0.12502479910E+03  0.18150793745E+04  0.19738704316E+04  0.10100000352E+00 0.  1.
       -3    1    3    3    0  502  0.76551951922E+03 -0.12502479910E+03 -0.40566161825E+03  0.87533576039E+03  0.10100000352E+00 0. -1.
</event>
<event>
 5   0  0.1526824E-05  0.2497520E+04  0.7818609E-02  0.8403870E-01
       -2   -1    0    0    0  501  0.00000000000E+00  0.00000000000E+00  0.15808268809E+04  0.15808268809E+04  0.25500000920E-02 0. -1.
        2   -1    0    0  501    0  0.00000000000E+00  0.00000000000E+00 -0.98644647380E+03  0.98644647381E+03  0.25500000920E-02 0.  1.
    10030    2    1    2    0    0  0.00000000000E+00  0.00000000000E+00  0.59438040706E+03  0.25672733547E+04  0.24975196514E+04 0.  0.
        2    1    3    3  502    0  0.11873798505E+04 -0.76271606611E+02 -0.92492363412E+02  0.11934165680E+04  0.25500000920E-02 0.  1.
       -2    1    3    3    0  502 -0.11873798505E+04  0.76271606611E+02  0.68687277047E+03  0.13738567867E+04  0.25500000920E-02 0. -1.
</event>
<event>
 5   0  0.6104486E-06  0.2509119E+04  0.7818609E-02  0.8399744E-01
        1   -1    0    0  501    0  0.00000000000E+00  0.00000000000E+00  0.12965570971E+04  0.12965570971E+04  0.50400001928E-02 0. -1.
       -1   -1    0    0    0  501  0.00000000000E+00  0.00000000000E+00 -0.12139219481E+04  0.12139219481E+04  0.50400001928E-02 0.  1.
    10030    2    1    2    0    0  0.00000000000E+00  0.00000000000E+00  0.82635148917E+02  0.25104790452E+04  0.25091186637E+04 0.  0.
        2    1    3    3  502    0  0.10493584355E+04  0.60721914968E+03 -0.28142652462E+03  0.12446160495E+04  0.25500000920E-02 0. -1.
       -2    1    3    3    0  502 -0.10493584355E+04 -0.60721914968E+03  0.36406167354E+03  0.12658629957E+04  0.25500000920E-02 0.  1.
</event>
<event>
 5   0  0.6346420E-06  0.2487329E+04  0.7818609E-02  0.8407513E-01
       -1   -1    0    0    0  501  0.00000000000E+00  0.00000000000E+00  0.12282982731E+04  0.12282982731E+04  0.50400001928E-02 0.  1.
        1   -1    0    0  501    0  0.00000000000E+00  0.00000000000E+00 -0.12592233891E+04  0.12592233892E+04  0.50400001928E-02 0. -1.
    10030    2    1    2    0    0  0.00000000000E+00  0.00000000000E+00 -0.30925116073E+02  0.24875216622E+04  0.24873294228E+04 0.  0.
        4    1    3    3  502    0 -0.11619415324E+04 -0.14960930017E+02 -0.45863148992E+03  0.12492703512E+04  0.12699999809E+01 0. -1.
       -4    1    3    3    0  502  0.11619415324E+04  0.14960930017E+02  0.42770637384E+03  0.12382513110E+04  0.12699999809E+01 0.  1.
</event>
<event>
 5   0  0.6346420E-06  0.2509700E+04  0.7818609E-02  0.8399538E-01
       -1   -1    0    0    0  501  0.00000000000E+00  0.00000000000E+00  0.12659214899E+04  0.12659214900E+04  0.50400001928E-02 0.  1.
        1   -1    0    0  501    0  0.00000000000E+00  0.00000000000E+00 -0.12438756329E+04  0.12438756329E+04  0.50400001928E-02 0. -1.
    10030    2    1    2    0    0  0.00000000000E+00  0.00000000000E+00  0.22045857076E+02  0.25097971228E+04  0.25097002964E+04 0.  0.
        4    1    3    3  502    0 -0.56502979698E+03  0.10917300396E+04  0.26305275170E+03  0.12571123712E+04  0.12699999809E+01 0.  1.
       -4    1    3    3    0  502  0.56502979698E+03 -0.10917300396E+04 -0.24100689462E+03  0.12526847516E+04  0.12699999809E+01 0. -1.
</event>
<event>
 5   0  0.1526824E-05  0.2542711E+04  0.7818609E-02  0.8387926E-01
        2   -1    0    0  501    0  0.00000000000E+00  0.00000000000E+00  0.13212500891E+04  0.13212500891E+04  0.25500000920E-02 0.  1.
       -2   -1    0    0    0  501  0.00000000000E+00  0.00000000000E+00 -0.12233448149E+04  0.12233448149E+04  0.25500000920E-02 0. -1.
    10030    2    1    2    0    0  0.00000000000E+00  0.00000000000E+00  0.97905274186E+02  0.25445949040E+04  0.25427107155E+04 0.  0.
        2    1    3    3  502    0  0.20802967807E+03  0.94142268916E+03  0.87829553518E+03  0.13042070670E+04  0.25500000920E-02 0.  1.
       -2    1    3    3    0  502 -0.20802967807E+03 -0.94142268916E+03 -0.78039026099E+03  0.12403878370E+04  0.25500000920E-02 0. -1.
</event>
<event>
 5   0  0.6290861E-06  0.2487399E+04  0.7818609E-02  0.8407488E-01
       -1   -1    0    0    0  501  0.00000000000E+00  0.00000000000E+00  0.85842291738E+03  0.85842291739E+03  0.50400001928E-02 0. -1.
        1   -1    0    0  501    0  0.00000000000E+00  0.00000000000E+00 -0.18018960649E+04  0.18018960649E+04  0.50400001928E-02 0.  1.
    10030    2    1    2    0    0  0.00000000000E+00  0.00000000000E+00 -0.94347314750E+03  0.26603189823E+04  0.24873993462E+04 0.  0.
        1    1    3    3  502    0 -0.85092534692E+03 -0.57047635919E+03  0.28246085865E+03  0.10626859174E+04  0.50400001928E-02 0. -1.
       -1    1    3    3    0  502  0.85092534692E+03  0.57047635919E+03 -0.12259340062E+04  0.15976330648E+04  0.50400001928E-02 0.  1.
</event>
<event>
 5   0  0.1526824E-05  0.2482492E+04  0.7818609E-02  0.8409250E-01
       -2   -1    0    0    0  501  0.00000000000E+00  0.00000000000E+00  0.12526338392E+04  0.12526338392E+04  0.25500000920E-02 0. -1.
        2   -1    0    0  501    0  0.00000000000E+00  0.00000000000E+00 -0.12299615781E+04  0.12299615781E+04  0.25500000920E-02 0.  1.
    10030    2    1    2    0    0  0.00000000000E+00  0.00000000000E+00  0.22672261125E+02  0.24825954173E+04  0.24824918881E+04 0.  0.
        2    1    3    3  502    0 -0.10286337229E+04  0.43602542441E+03  0.55217842103E+03  0.12462369418E+04  0.25500000920E-02 0. -1.
       -2    1    3    3    0  502  0.10286337229E+04 -0.43602542441E+03 -0.52950615990E+03  0.12363584755E+04  0.25500000920E-02 0.  1.
</event>
<event>
 5   0  0.1526824E-05  0.2492250E+04  0.7818609E-02  0.8405752E-01
        2   -1    0    0  501    0  0.00000000000E+00  0.00000000000E+00  0.14255609901E+04  0.14255609901E+04  0.25500000920E-02 0.  1.
       -2   -1    0    0    0  501  0.00000000000E+00  0.00000000000E+00 -0.10892748868E+04  0.10892748868E+04  0.25500000920E-02 0. -1.
    10030    2    1    2    0    0  0.00000000000E+00  0.00000000000E+00  0.33628610325E+03  0.25148358769E+04  0.24922502171E+04 0.  0.
        2    1    3    3  502    0  0.34325894301E+03 -0.11655464527E+04  0.44724056207E+03  0.12947391072E+04  0.25500000920E-02 0.  1.
       -2    1    3    3    0  502 -0.34325894301E+03  0.11655464527E+04 -0.11095445883E+03  0.12200967697E+04  0.25500000920E-02 0. -1.
</event>
<event>
 5   0  0.1526824E-05  0.2499094E+04  0.7818609E-02  0.8403308E-01
        2   -1    0    0  501    0  0.00000000000E+00  0.00000000000E+00  0.19282687824E+04  0.19282687824E+04  0.25500000920E-02 0.  1.
       -2   -1    0    0    0  501  0.00000000000E+00  0.00000000000E+00 -0.80972533096E+03  0.80972533096E+03  0.25500000920E-02 0. -1.
    10030    2    1    2    0    0  0.00000000000E+00  0.00000000000E+00  0.11185434514E+04  0.27379941133E+04  0.24990942983E+04 0.  0.
        2    1    3    3  502    0 -0.93604342217E+03 -0.81914606474E+03  0.68978327224E+03  0.14223144963E+04  0.25500000920E-02 0.  1.
       -2    1    3    3    0  502  0.93604342217E+03  0.81914606474E+03  0.42876017917E+03  0.13156796171E+04  0.25500000920E-02 0. -1.
</event>
<event>
 5   0  0.1572732E-05  0.2491896E+04  0.7818609E-02  0.8405878E-01
       -2   -1    0    0    0  501  0.00000000000E+00  0.00000000000E+00  0.75034297354E+03  0.75034297354E+03  0.25500000920E-02 0. -1.
        2   -1    0    0  501    0  0.00000000000E+00  0.00000000000E+00 -0.20689026391E+04  0.20689026391E+04  0.25500000920E-02 0.  1.
    10030    2    1    2    0    0  0.00000000000E+00  0.00000000000E+00 -0.13185596655E+04  0.28192456126E+04  0.24918961119E+04 0.  0.
        1    1    3    3  502    0  0.18354571697E+02 -0.88932978778E+03 -0.16463223952E+04  0.18712620850E+04  0.50400001928E-02 0.  1.
       -1    1    3    3    0  502 -0.18354571697E+02  0.88932978778E+03  0.32776272965E+03  0.94798352765E+03  0.50400001928E-02 0. -1.
</event>
<event>
 5   0  0.6104486E-06  0.2391870E+04  0.7818609E-02  0.8442554E-01
        1   -1    0    0  501    0  0.00000000000E+00  0.00000000000E+00  0.23048149820E+04  0.23048149820E+04  0.50400001928E-02 0. -1.
       -1   -1    0    0    0  501  0.00000000000E+00  0.00000000000E+00 -0.62055309246E+03  0.62055309248E+03  0.50400001928E-02 0.  1.
    10030    2    1    2    0    0  0.00000000000E+00  0.00000000000E+00  0.16842618896E+04  0.29253680745E+04  0.23918696157E+04 0.  0.
        2    1    3    3  502    0  0.11561835341E+04  0.22625451155E+03  0.10937000604E+04  0.16075233406E+04  0.25500000920E-02 0. -1.
       -2    1    3    3    0  502 -0.11561835341E+04 -0.22625451155E+03  0.59056182923E+03  0.13178447339E+04  0.25500000920E-02 0.  1.
</event>
<event>
 5   0  0.1468512E-05  0.2526245E+04  0.7818609E-02  0.8393695E-01
        2   -1    0    0  501    0  0.00000000000E+00  0.00000000000E+00  0.13713124633E+04  0.13713124633E+04  0.25500000920E-02 0. -1.
       -2   -1    0    0    0  501  0.00000000000E+00  0.00000000000E+00 -0.11634677830E+04  0.11634677830E+04  0.25500000920E-02 0.  1.
    10030    2    1    2    0    0  0.00000000000E+00  0.00000000000E+00  0.20784468026E+03  0.25347802463E+04  0.25262445420E+04 0.  0.
        4    1    3    3  502    0 -0.90836723684E+03 -0.84828153694E+03  0.32999152631E+03  0.12859271454E+04  0.12699999809E+01 0.  1.
       -4    1    3    3    0  502  0.90836723684E+03  0.84828153694E+03 -0.12214684605E+03  0.12488531010E+04  0.12699999809E+01 0. -1.
</event>
<event>
 5   0  0.1550483E-05  0.2427123E+04  0.7818609E-02  0.8429418E-01
        2   -1    0    0  501    0  0.00000000000E+00  0.00000000000E+00  0.10787683999E+04  0.10787683999E+04  0.25500000920E-02 0. -1.
       -2   -1    0    0    0  501  0.00000000000E+00  0.00000000000E+00 -0.13651975137E+04  0.13651975137E+04  0.25500000920E-02 0.  1.
    10030    2    1    2    0    0  0.00000000000E+00  0.00000000000E+00 -0.28642911386E+03  0.24439659136E+04  0.24271233486E+04 0.  0.
        5    1    3    3  502    0 -0.48526628752E+03  0.27026098039E+02 -0.12629093692E+04  0.13532094977E+04  0.46999998093E+01 0.  1.
       -5    1    3    3    0  502  0.48526628752E+03 -0.27026098039E+02  0.97648025533E+03  0.10907564159E+04  0.46999998093E+01 0. -1.
</event>
<event>
 5   0  0.6105353E-06  0.2533423E+04  0.7818609E-02  0.8391174E-01
        1   -1    0    0  501    0  0.00000000000E+00  0.00000000000E+00  0.20647391643E+04  0.20647391643E+04  0.50400001928E-02 0.  1.
       -1   -1    0    0    0  501  0.00000000000E+00  0.00000000000E+00 -0.77712361426E+03  0.77712361428E+03  0.50400001928E-02 0. -1.
    10030    2    1    2    0    0  0.00000000000E+00  0.00000000000E+00  0.12876155501E+04  0.28418627786E+04  0.25334226350E+04 0.  0.
        3    1    3    3  502    0 -0.10830168513E+04  0.44444292396E+03  0.11865561342E+04  0.16668444687E+04  0.10100000352E+00 0.  1.
       -3    1    3    3    0  502  0.10830168513E+04 -0.44444292396E+03  0.10105941583E+03  0.11750183099E+04  0.10100000352E+00 0. -1.
</event>
<event>
 5   0  0.1550483E-05  0.2613913E+04  0.7818609E-02  0.8363490E-01
        2   -1    0    0  501    0  0.00000000000E+00  0.00000000000E+00  0.19659601708E+04  0.19659601708E+04  0.25500000920E-02 0.  1.
       -2   -1    0    0    0  501  0.00000000000E+00  0.00000000000E+00 -0.86885572632E+03  0.86885572632E+03  0.25500000920E-02 0. -1.
    10030    2    1    2    0    0  0.00000000000E+00  0.00000000000E+00  0.10971044445E+04  0.28348158972E+04  0.26139133514E+04 0.  0.
        5    1    3    3  502    0  0.48307876080E+03  0.10864158392E+04 -0.39937469448E+02  0.11896560664E+04  0.46999998093E+01 0.  1.
       -5    1    3    3    0  502 -0.48307876080E+03 -0.10864158392E+04  0.11370419140E+04  0.16451598308E+04  0.46999998093E+01 0. -1.
</event>
<event>
 5   0  0.6477703E-06  0.2509407E+04  0.7818609E-02  0.8399642E-01
       -1   -1    0    0    0  501  0.00000000000E+00  0.00000000000E+00  0.79828496700E+03  0.79828496702E+03  0.50400001928E-02 0. -1.
        1   -1    0    0  501    0  0.00000000000E+00  0.00000000000E+00 -0.19720795304E+04  0.19720795304E+04  0.50400001928E-02 0.  1.
    10030    2    1    2    0    0  0.00000000000E+00  0.00000000000E+00 -0.11737945634E+04  0.27703644974E+04  0.25094074543E+04 0.  0.
        5    1    3    3  502    0 -0.19569961375E+03 -0.94416069720E+03 -0.14732048643E+04  0.17607079324E+04  0.46999998093E+01 0.  1.
       -5    1    3    3    0  502  0.19569961375E+03  0.94416069720E+03  0.29941030094E+03  0.10096565650E+04  0.46999998093E+01 0. -1.
</event>
<event>
 5   0  0.1550483E-05  0.2509308E+04  0.7818609E-02  0.8399677E-01
        2   -1    0    0  501    0  0.00000000000E+00  0.00000000000E+00  0.69361653058E+03  0.69361653059E+03  0.25500000920E-02 0. -1.
       -2   -1    0    0    0  501  0.00000000000E+00  0.00000000000E+00 -0.22694903780E+04  0.22694903780E+04  0.25500000920E-02 0.  1.
    10030    2    1    2    0    0  0.00000000000E+00  0.00000000000E+00 -0.15758738474E+04  0.29631069086E+04  0.25093075078E+04 0.  0.
        5    1    3    3  502    0  0.10552418279E+04  0.61549887606E+03 -0.45028963489E+03  0.13019819611E+04  0.46999998093E+01 0.  1.
       -5    1    3    3    0  502 -0.10552418279E+04 -0.61549887606E+03 -0.11255842125E+04  0.16611249475E+04  0.46999998093E+01 0. -1.
</event>
<event>
 5   0  0.1526824E-05  0.2518942E+04  0.7818609E-02  0.8396268E-01
        2   -1    0    0  501    0  0.00000000000E+00  0.00000000000E+00  0.11204238934E+04  0.11204238934E+04  0.25500000920E-02 0.  1.
       -2   -1    0    0    0  501  0.00000000000E+00  0.00000000000E+00 -0.14157740860E+04  0.14157740860E+04  0.25500000920E-02 0. -1.
    10030    2    1    2    0    0  0.00000000000E+00  0.00000000000E+00 -0.29535019260E+03  0.25361979795E+04  0.25189419316E+04 0.  0.
        2    1    3    3  502    0 -0.27372395572E+03 -0.10521893654E+04 -0.78782923526E+03  0.13426474476E+04  0.25500000920E-02 0. -1.
       -2    1    3    3    0  502  0.27372395572E+03  0.10521893654E+04  0.49247904266E+03  0.11935505318E+04  0.25500000920E-02 0.  1.
</event>
<event>
 5   0  0.6290861E-06  0.2356094E+04  0.7818609E-02  0.8456127E-01
       -1   -1    0    0    0  501  0.00000000000E+00  0.00000000000E+00  0.10536926795E+04  0.10536926795E+04  0.50400001928E-02 0.  1.
        1   -1    0    0  501    0  0.00000000000E+00  0.00000000000E+00 -0.13170772506E+04  0.13170772506E+04  0.50400001928E-02 0. -1.
    10030    2    1    2    0    0  0.00000000000E+00  0.00000000000E+00 -0.26338457110E+03  0.23707699300E+04  0.23560939347E+04 0.  0.
        1    1    3    3  502    0  0.23319199028E+03  0.13272579472E+03  0.10225361055E+04  0.10571540701E+04  0.50400001928E-02 0.  1.
       -1    1    3    3    0  502 -0.23319199028E+03 -0.13272579472E+03 -0.12859206766E+04  0.13136158599E+04  0.50400001928E-02 0. -1.
</event>
<event>
 5   0  0.6105353E-06  0.2498314E+04  0.7818609E-02  0.8403587E-01
       -1   -1    0    0    0  501  0.00000000000E+00  0.00000000000E+00  0.83562089088E+03  0.83562089090E+03  0.50400001928E-02 0. -1.
        1   -1    0    0  501    0  0.00000000000E+00  0.00000000000E+00 -0.18673454454E+04  0.18673454454E+04  0.50400001928E-02 0.  1.
    10030    2    1    2    0    0  0.00000000000E+00  0.00000000000E+00 -0.10317245546E+04  0.27029663363E+04  0.24983137231E+04 0.  0.
        3    1    3    3  502    0 -0.68131141083E+03 -0.69176378003E+03  0.33443754696E+03  0.10269230005E+04  0.10100000352E+00 0. -1.
       -3    1    3    3    0  502  0.68131141083E+03  0.69176378003E+03 -0.13661621015E+04  0.16760433359E+04  0.10100000352E+00 0.  1.
</event>
<event>
 5   0  0.1468512E-05  0.2570948E+04  0.7818609E-02  0.8378137E-01
        2   -1    0    0  501    0  0.00000000000E+00  0.00000000000E+00  0.10486844987E+04  0.10486844987E+04  0.25500000920E-02 0. -1.
       -2   -1    0    0    0  501  0.00000000000E+00  0.00000000000E+00 -0.15757292036E+04  0.15757292036E+04  0.25500000920E-02 0.  1.
    10030    2    1    2    0    0  0.00000000000E+00  0.00000000000E+00 -0.52704470495E+03  0.26244137023E+04  0.25709475218E+04 0.  0.
        4    1    3    3  502    0 -0.14928085849E+02  0.10048621610E+04 -0.10817339579E+04  0.14765232064E+04  0.12699999809E+01 0.  1.
       -4    1    3    3    0  502  0.14928085849E+02 -0.10048621610E+04  0.55468925299E+03  0.11478904959E+04  0.12699999809E+01 0. -1.
</event>
<event>
 5   0  0.1468512E-05  0.2487390E+04  0.7818609E-02  0.8407492E-01
       -2   -1    0    0    0  501  0.00000000000E+00  0.00000000000E+00  0.10851607442E+04  0.10851607442E+04  0.25500000920E-02 0. -1.
        2   -1    0    0  501    0  0.00000000000E+00  0.00000000000E+00 -0.14253894190E+04  0.14253894190E+04  0.25500000920E-02 0.  1.
    10030    2    1    2    0    0  0.00000000000E+00  0.00000000000E+00 -0.34022867483E+03  0.25105501631E+04  0.24873895092E+04 0.  0.
        4    1    3    3  502    0  0.77733182829E+03  0.56579607693E+03  0.62615806071E+03  0.11473645898E+04  0.12699999809E+01 0. -1.
       -4    1    3    3    0  502 -0.77733182829E+03 -0.56579607693E+03 -0.96638673554E+03  0.13631855734E+04  0.12699999809E+01 0.  1.
</event>
<event>
 5   0  0.1572732E-05  0.2474219E+04  0.7818609E-02  0.8412228E-01
        2   -1    0    0  501    0  0.00000000000E+00  0.00000000000E+00  0.20027327299E+04  0.20027327299E+04  0.25500000920E-02 0.  1.
       -2   -1    0    0    0  501  0.00000000000E+00  0.00000000000E+00 -0.76417554730E+03  0.76417554730E+03  0.25500000920E-02 0. -1.
    10030    2    1    2    0    0  0.00000000000E+00  0.00000000000E+00  0.12385571826E+04  0.27669082772E+04  0.24742185675E+04 0.  0.
        1    1    3    3  502    0 -0.22283318334E+03  0.17535162187E+03  0.19659020543E+04  0.19862461343E+04  0.50400001928E-02 0.  1.
       -1    1    3    3    0  502  0.22283318334E+03 -0.17535162187E+03 -0.72734487172E+03  0.78066214289E+03  0.50400001928E-02 0. -1.
</event>
<event>
 5   0  0.5164625E-06  0.2503785E+04  0.7818609E-02  0.8401638E-01
       -4   -1    0    0    0  501  0.00000000000E+00  0.00000000000E+00  0.10906789654E+04  0.10906797048E+04  0.12699999809E+01 0. -1.
        4   -1    0    0  501    0  0.00000000000E+00  0.00000000000E+00 -0.14369335226E+04  0.14369340838E+04  0.12699999809E+01 0.  1.
    10030    2    1    2    0    0  0.00000000000E+00  0.00000000000E+00 -0.34625455716E+03  0.25276137886E+04  0.25037849840E+04 0.  0.
        2    1    3    3  502    0  0.43710218107E+03  0.11649356070E+04 -0.31265089376E+03  0.12829200546E+04  0.25500000920E-02 0. -1.
       -2    1    3    3    0  502 -0.43710218107E+03 -0.11649356070E+04 -0.33603663401E+02  0.12446937340E+04  0.25500000920E-02 0.  1.
</event>
<event>
 5   0  0.6105353E-06  0.2512726E+04  0.7818609E-02  0.8398466E-01
       -1   -1    0    0    0  501  0.00000000000E+00  0.00000000000E+00  0.86716669194E+03  0.86716669196E+03  0.50400001928E-02 0. -1.
        1   -1    0    0  501    0  0.00000000000E+00  0.00000000000E+00 -0.18202361811E+04  0.18202361811E+04  0.50400001928E-02 0.  1.
    10030    2    1    2    0    0  0.00000000000E+00  0.00000000000E+00 -0.95306948911E+03  0.26874028730E+04  0.25127261591E+04 0.  0.
        3    1    3    3  502    0 -0.54825945025E+03 -0.77579866885E+03  0.40281114195E+03  0.10318472880E+04  0.10100000352E+00 0. -1.
       -3    1    3    3    0  502  0.54825945025E+03  0.77579866885E+03 -0.13558806311E+04  0.16555555851E+04  0.10100000352E+00 0.  1.
</event>
<event>
 5   0  0.6290861E-06  0.2515312E+04  0.7818609E-02  0.8397551E-01
       -1   -1    0    0    0  501  0.00000000000E+00  0.00000000000E+00  0.76976167310E+03  0.76976167312E+03  0.50400001928E-02 0. -1.
        1   -1    0    0  501    0  0.00000000000E+00  0.00000000000E+00 -0.20547900244E+04  0.20547900244E+04  0.50400001928E-02 0.  1.
    10030    2    1    2    0    0  0.00000000000E+00  0.00000000000E+00 -0.12850283513E+04  0.28245516975E+04  0.25153119942E+04 0.  0.
        1    1    3    3  502    0 -0.10266962448E+04  0.25104110238E+02  0.17265512335E+03  0.10414149928E+04  0.50400001928E-02 0. -1.
       -1    1    3    3    0  502  0.10266962448E+04 -0.25104110238E+02 -0.14576834746E+04  0.17831367047E+04  0.50400001928E-02 0.  1.
</event>
<event>
 5   0  0.1526824E-05  0.2499327E+04  0.7818609E-02  0.8403225E-01
       -2   -1    0    0    0  501  0.00000000000E+00  0.00000000000E+00  0.12907807641E+04  0.12907807641E+04  0.25500000920E-02 0. -1.
        2   -1    0    0  501    0  0.00000000000E+00  0.00000000000E+00 -0.12098564404E+04  0.12098564404E+04  0.25500000920E-02 0.  1.
    10030    2    1    2    0    0  0.00000000000E+00  0.00000000000E+00  0.80924323665E+02  0.25006372045E+04  0.24993274460E+04 0.  0.
        2    1    3    3  502    0 -0.10611250334E+03 -0.12165120353E+04  0.30611594558E+03  0.12589155522E+04  0.25500000920E-02 0. -1.
       -2    1    3    3    0  502  0.10611250334E+03  0.12165120353E+04 -0.22519162191E+03  0.12417216524E+04  0.25500000920E-02 0.  1.
</event>
<event>
 5   0  0.6477703E-06  0.2494829E+04  0.7818609E-02  0.8404830E-01
        1   -1    0    0  501    0  0.00000000000E+00  0.00000000000E+00  0.88251051448E+03  0.88251051450E+03  0.50400001928E-02 0. -1.
       -1   -1    0    0    0  501  0.00000000000E+00  0.00000000000E+00 -0.17632002583E+04  0.17632002583E+04  0.50400001928E-02 0.  1.
    10030    2    1    2    0    0  0.00000000000E+00  0.00000000000E+00 -0.88068974378E+03  0.26457107728E+04  0.24948288655E+04 0.  0.
        5    1    3    3  502    0 -0.74612496930E+03  0.95367101441E+03 -0.12250247262E+03  0.12170537455E+04  0.46999998093E+01 0. -1.
       -5    1    3    3    0  502  0.74612496930E+03 -0.95367101441E+03 -0.75818727117E+03  0.14286570273E+04  0.46999998093E+01 0.  1.
</event>
<event>
 5   0  0.6105353E-06  0.2486827E+04  0.7818609E-02  0.8407693E-01
        1   -1    0    0  501    0  0.00000000000E+00  0.00000000000E+00  0.26825146867E+04  0.26825146867E+04  0.50400001928E-02 0.  1.
       -1   -1    0    0    0  501  0.00000000000E+00  0.00000000000E+00 -0.57635379576E+03  0.57635379578E+03  0.50400001928E-02 0. -1.
    10030    2    1    2    0    0  0.00000000000E+00  0.00000000000E+00  0.21061608909E+04  0.32588684825E+04  0.24868273136E+04 0.  0.
        3    1    3    3  502    0 -0.30716965645E+03  0.10238144448E+04  0.18855305311E+04  0.21674350300E+04  0.10100000352E+00 0.  1.
       -3    1    3    3    0  502  0.30716965645E+03 -0.10238144448E+04  0.22063035978E+03  0.10914334525E+04  0.10100000352E+00 0. -1.
</event>
<event>
 5   0  0.6104486E-06  0.2499456E+04  0.7818609E-02  0.8403179E-01
       -1   -1    0    0    0  501  0.00000000000E+00  0.00000000000E+00  0.76844268922E+03  0.76844268923E+03  0.50400001928E-02 0.  1.
        1   -1    0    0  501    0  0.00000000000E+00  0.00000000000E+00 -0.20324485090E+04  0.20324485090E+04  0.50400001928E-02 0. -1.
    10030    2    1    2    0    0  0.00000000000E+00  0.00000000000E+00 -0.12640058198E+04  0.28008911983E+04  0.24994560992E+04 0.  0.
        2    1    3    3  502    0 -0.76644567672E+02  0.11439044517E+04 -0.11894138792E+04  0.16519979299E+04  0.25500000920E-02 0.  1.
       -2    1    3    3    0  502  0.76644567672E+02 -0.11439044517E+04 -0.74591940617E+02  0.11488932683E+04  0.25500000920E-02 0. -1.
</event>
<event>
 5   0  0.1526824E-05  0.2507676E+04  0.7818609E-02  0.8400256E-01
       -2   -1    0    0    0  501  0.00000000000E+00  0.00000000000E+00  0.69699861638E+03  0.69699861638E+03  0.25500000920E-02 0.  1.
        2   -1    0    0  501    0  0.00000000000E+00  0.00000000000E+00 -0.22555413843E+04  0.22555413844E+04  0.25500000920E-02 0. -1.
    10030    2    1    2    0    0  0.00000000000E+00  0.00000000000E+00 -0.15585427680E+04  0.29525400007E+04  0.25076755963E+04 0.  0.
        2    1    3    3  502    0  0.73151555391E+03 -0.95585027659E+03 -0.11927797240E+04  0.16945466139E+04  0.25500000920E-02 0.  1.
       -2    1    3    3    0  502 -0.73151555391E+03  0.95585027659E+03 -0.36576304399E+03  0.12579933868E+04  0.25500000920E-02 0. -1.
</event>
<event>
 5   0  0.1501947E-05  0.2497550E+04  0.7818609E-02  0.8403859E-01
       -2   -1    0    0    0  501  0.00000000000E+00  0.00000000000E+00  0.10892887873E+04  0.10892887873E+04  0.25500000920E-02 0.  1.
        2   -1    0    0  501    0  0.00000000000E+00  0.00000000000E+00 -0.14316115833E+04  0.14316115833E+04  0.25500000920E-02 0. -1.
    10030    2    1    2    0    0  0.00000000000E+00  0.00000000000E+00 -0.34232279606E+03  0.25209003706E+04  0.24975495554E+04 0.  0.
        3    1    3    3  502    0 -0.63809308773E+03 -0.10386688045E+04  0.10237559384E+03  0.12233055409E+04  0.10100000352E+00 0.  1.
       -3    1    3    3    0  502  0.63809308773E+03  0.10386688045E+04 -0.44469838990E+03  0.12975948297E+04  0.10100000352E+00 0. -1.
</event>
<event>
 5   0  0.6477703E-06  0.2482810E+04  0.7818609E-02  0.8409135E-01
       -1   -1    0    0    0  501  0.00000000000E+00  0.00000000000E+00  0.10346884265E+04  0.10346884265E+04  0.50400001928E-02 0.  1.
        1   -1    0    0  501    0  0.00000000000E+00  0.00000000000E+00 -0.14894202629E+04  0.14894202629E+04  0.50400001928E-02 0. -1.
    10030    2    1    2    0    0  0.00000000000E+00  0.00000000000E+00 -0.45473183644E+03  0.25241086894E+04  0.24828096248E+04 0.  0.
        5    1    3    3  502    0 -0.74685191568E+03  0.29418841851E+03  0.73534365318E+03  0.10886170069E+04  0.46999998093E+01 0.  1.
       -5    1    3    3    0  502  0.74685191568E+03 -0.29418841851E+03 -0.11900754896E+04  0.14354916825E+04  0.46999998093E+01 0. -1.
</event>
<event>
 5   0  0.6290861E-06  0.2483396E+04  0.7818609E-02  0.8408925E-01
       -1   -1    0    0    0  501  0.00000000000E+00  0.00000000000E+00  0.11778777755E+04  0.11778777755E+04  0.50400001928E-02 0. -1.
        1   -1    0    0  501    0  0.00000000000E+00  0.00000000000E+00 -0.13089762099E+04  0.13089762099E+04  0.50400001928E-02 0.  1.
    10030    2    1    2    0    0  0.00000000000E+00  0.00000000000E+00 -0.13109843440E+03  0.24868539854E+04  0.24833960509E+04 0.  0.
        1    1    3    3  502    0  0.80484414324E+03 -0.56818247637E+03  0.69128656344E+03  0.12035291996E+04  0.50400001928E-02 0. -1.
       -1    1    3    3    0  502 -0.80484414324E+03  0.56818247637E+03 -0.82238499784E+03  0.12833247859E+04  0.50400001928E-02 0.  1.
</event>
<event>
 5   0  0.6105353E-06  0.2497991E+04  0.7818609E-02  0.8403702E-01
        1   -1    0    0  501    0  0.00000000000E+00  0.00000000000E+00  0.11445970041E+04  0.11445970041E+04  0.50400001928E-02 0. -1.
       -1   -1    0    0    0  501  0.00000000000E+00  0.00000000000E+00 -0.13629159427E+04  0.13629159428E+04  0.50400001928E-02 0.  1.
    10030    2    1    2    0    0  0.00000000000E+00  0.00000000000E+00 -0.21831893868E+03  0.25075129468E+04  0.24979907965E+04 0.  0.
        3    1    3    3  502    0  0.93411964381E+03 -0.39381942503E+03 -0.84154070816E+03  0.13175219247E+04  0.10100000352E+00 0.  1.
       -3    1    3    3    0  502 -0.93411964381E+03  0.39381942503E+03  0.62322176948E+03  0.11899910221E+04  0.10100000352E+00 0. -1.
</event>
<event>
 5   0  0.1550483E-05  0.2497132E+04  0.7818609E-02  0.8404008E-01
       -2   -1    0    0    0  501  0.00000000000E+00  0.00000000000E+00  0.67706495235E+03  0.67706495235E+03  0.25500000920E-02 0.  1.
        2   -1    0    0  501    0  0.00000000000E+00  0.00000000000E+00 -0.23024634767E+04  0.23024634767E+04  0.25500000920E-02 0. -1.
    10030    2    1    2    0    0  0.00000000000E+00  0.00000000000E+00 -0.16253985243E+04  0.29795284290E+04  0.24971322145E+04 0.  0.
        5    1    3    3  502    0 -0.45679979275E+03 -0.60094932236E+03 -0.19993521574E+04  0.21371095615E+04  0.46999998093E+01 0. -1.
       -5    1    3    3    0  502  0.45679979275E+03  0.60094932236E+03  0.37395363304E+03  0.84241886753E+03  0.46999998093E+01 0.  1.
</event>
<event>
 5   0  0.5164625E-06  0.2502568E+04  0.7818609E-02  0.8402071E-01
        3   -1    0    0  501    0  0.00000000000E+00  0.00000000000E+00  0.15940051128E+04  0.15940051160E+04  0.10100000352E+00 0. -1.
       -3   -1    0    0    0  501  0.00000000000E+00  0.00000000000E+00 -0.98225029473E+03  0.98225029992E+03  0.10100000352E+00 0.  1.
    10030    2    1    2    0    0  0.00000000000E+00  0.00000000000E+00  0.61175481804E+03  0.25762554159E+04  0.25025682829E+04 0.  0.
        5    1    3    3  502    0  0.44385511922E+03 -0.95908731376E+03  0.99555464215E+03  0.14518977160E+04  0.46999998093E+01 0.  1.
       -5    1    3    3    0  502 -0.44385511922E+03  0.95908731376E+03 -0.38379982411E+03  0.11243576999E+04  0.46999998093E+01 0. -1.
</event>
<event>
 5   0  0.1526824E-05  0.2483328E+04  0.7818609E-02  0.8408949E-01
       -2   -1    0    0    0  501  0.00000000000E+00  0.00000000000E+00  0.68247875072E+03  0.68247875072E+03  0.25500000920E-02 0. -1.
        2   -1    0    0  501    0  0.00000000000E+00  0.00000000000E+00 -0.22590137771E+04  0.22590137771E+04  0.25500000920E-02 0.  1.
    10030    2    1    2    0    0  0.00000000000E+00  0.00000000000E+00 -0.15765350264E+04  0.29414925278E+04  0.24833275261E+04 0.  0.
        2    1    3    3  502    0 -0.21826746306E+02 -0.85917903724E+03  0.27320509690E+03  0.90183482405E+03  0.25500000920E-02 0.  1.
       -2    1    3    3    0  502  0.21826746306E+02  0.85917903724E+03 -0.18497401233E+04  0.20396577038E+04  0.25500000920E-02 0. -1.
</event>
<event>
 5   0  0.1526824E-05  0.2571168E+04  0.7818609E-02  0.8378061E-01
        2   -1    0    0  501    0  0.00000000000E+00  0.00000000000E+00  0.98736617479E+03  0.98736617479E+03  0.25500000920E-02 0.  1.
       -2   -1    0    0    0  501  0.00000000000E+00  0.00000000000E+00 -0.16738741216E+04  0.16738741216E+04  0.25500000920E-02 0. -1.
    10030    2    1    2    0    0  0.00000000000E+00  0.00000000000E+00 -0.68650794684E+03  0.26612402964E+04  0.25711683636E+04 0.  0.
        2    1    3    3  502    0 -0.59778325505E+03  0.10232800550E+04 -0.85898619564E+03  0.14636612229E+04  0.25500000920E-02 0.  1.
       -2    1    3    3    0  502  0.59778325505E+03 -0.10232800550E+04  0.17247824880E+03  0.11975790735E+04  0.25500000920E-02 0. -1.
</event>
<event>
 5   0  0.1550483E-05  0.2500145E+04  0.7818609E-02  0.8402934E-01
        2   -1    0    0  501    0  0.00000000000E+00  0.00000000000E+00  0.24784239945E+04  0.24784239945E+04  0.25500000920E-02 0. -1.
       -2   -1    0    0    0  501  0.00000000000E+00  0.00000000000E+00 -0.63051395958E+03  0.63051395958E+03  0.25500000920E-02 0.  1.
    10030    2    1    2    0    0  0.00000000000E+00  0.00000000000E+00  0.18479100350E+04  0.31089379541E+04  0.25001447369E+04 0.  0.
        5    1    3    3  502    0 -0.10584346298E+04 -0.58388545221E+03  0.52787875608E+03  0.13190466853E+04  0.46999998093E+01 0.  1.
       -5    1    3    3    0  502  0.10584346298E+04  0.58388545221E+03  0.13200312789E+04  0.17898912688E+04  0.46999998093E+01 0. -1.
</event>
<event>
 5   0  0.1572732E-05  0.2503159E+04  0.7818609E-02  0.8401861E-01
       -2   -1    0    0    0  501  0.00000000000E+00  0.00000000000E+00  0.14556832973E+04  0.14556832973E+04  0.25500000920E-02 0. -1.
        2   -1    0    0  501    0  0.00000000000E+00  0.00000000000E+00 -0.10760934163E+04  0.10760934163E+04  0.25500000920E-02 0.  1.
    10030    2    1    2    0    0  0.00000000000E+00  0.00000000000E+00  0.37958988100E+03  0.25317767136E+04  0.25031589741E+04 0.  0.
        1    1    3    3  502    0  0.89572303108E+03 -0.13134989419E+02  0.10738350636E+04  0.13984327014E+04  0.50400001928E-02 0. -1.
       -1    1    3    3    0  502 -0.89572303108E+03  0.13134989419E+02 -0.69424518263E+03  0.11333440122E+04  0.50400001928E-02 0.  1.
</event>
<event>
 5   0  0.1526824E-05  0.2441580E+04  0.7818609E-02  0.8424099E-01
        2   -1    0    0  501    0  0.00000000000E+00  0.00000000000E+00  0.13115184934E+04  0.13115184934E+04  0.25500000920E-02 0.  1.
       -2   -1    0    0    0  501  0.00000000000E+00  0.00000000000E+00 -0.11363377462E+04  0.11363377462E+04  0.25500000920E-02 0. -1.
    10030    2    1    2    0    0  0.00000000000E+00  0.00000000000E+00  0.17518074722E+03  0.24478562396E+04  0.24415797909E+04 0.  0.
        2    1    3    3  502    0 -0.69748755426E+03  0.95554367352E+01 -0.91685722425E+03  0.11520448621E+04  0.25500000920E-02 0. -1.
       -2    1    3    3    0  502  0.69748755426E+03 -0.95554367352E+01  0.10920379715E+04  0.12958113774E+04  0.25500000920E-02 0.  1.
</event>
<event>
 5   0  0.1572732E-05  0.2488348E+04  0.7818609E-02  0.8407148E-01
       -2   -1    0    0    0  501  0.00000000000E+00  0.00000000000E+00  0.77476047889E+03  0.77476047889E+03  0.25500000920E-02 0.  1.
        2   -1    0    0  501    0  0.00000000000E+00  0.00000000000E+00 -0.19979969374E+04  0.19979969374E+04  0.25500000920E-02 0. -1.
    10030    2    1    2    0    0  0.00000000000E+00  0.00000000000E+00 -0.12232364586E+04  0.27727574163E+04  0.24883480979E+04 0.  0.
        1    1    3    3  502    0  0.40409098524E+03  0.56960848713E+03 -0.17589787633E+04  0.18925510939E+04  0.50400001928E-02 0. -1.
       -1    1    3    3    0  502 -0.40409098524E+03 -0.56960848713E+03  0.53574230479E+03  0.88020632247E+03  0.50400001928E-02 0.  1.
</event>
<event>
 5   0  0.6346420E-06  0.2499968E+04  0.7818609E-02  0.8402997E-01
        1   -1    0    0  501    0  0.00000000000E+00  0.00000000000E+00  0.14388220611E+04  0.14388220611E+04  0.50400001928E-02 0.  1.
       -1   -1    0    0    0  501  0.00000000000E+00  0.00000000000E+00 -0.10859299106E+04  0.10859299106E+04  0.50400001928E-02 0. -1.
    10030    2    1    2    0    0  0.00000000000E+00  0.00000000000E+00  0.35289215050E+03  0.25247519717E+04  0.24999679295E+04 0.  0.
        4    1    3    3  502    0  0.76695842419E+03  0.88985610893E+03 -0.25485825486E+03  0.12020912869E+04  0.12699999809E+01 0. -1.
       -4    1    3    3    0  502 -0.76695842419E+03 -0.88985610893E+03  0.60775040536E+03  0.13226606848E+04  0.12699999809E+01 0.  1.
</event>
<event>
 5   0  0.6346420E-06  0.2502308E+04  0.7818609E-02  0.8402164E-01
       -1   -1    0    0    0  501  0.00000000000E+00  0.00000000000E+00  0.13905052367E+04  0.13905052367E+04  0.50400001928E-02 0. -1.
        1   -1    0    0  501    0  0.00000000000E+00  0.00000000000E+00 -0.11257678630E+04  0.11257678631E+04  0.50400001928E-02 0.  1.
    10030    2    1    2    0    0  0.00000000000E+00  0.00000000000E+00  0.26473737364E+03  0.25162730998E+04  0.25023078219E+04 0.  0.
        4    1    3    3  502    0  0.56043543015E+03 -0.11132082909E+04  0.24281758032E+03  0.12697568903E+04  0.12699999809E+01 0.  1.
       -4    1    3    3    0  502 -0.56043543015E+03  0.11132082909E+04  0.21919793318E+02  0.12465162095E+04  0.12699999809E+01 0. -1.
</event>
<event>
 5   0  0.6346420E-06  0.2508064E+04  0.7818609E-02  0.8400118E-01
       -1   -1    0    0    0  501  0.00000000000E+00  0.00000000000E+00  0.79305541585E+03  0.79305541587E+03  0.50400001928E-02 0.  1.
        1   -1    0    0  501    0  0.00000000000E+00  0.00000000000E+00 -0.19829590678E+04  0.19829590678E+04  0.50400001928E-02 0. -1.
    10030    2    1    2    0    0  0.00000000000E+00  0.00000000000E+00 -0.11899036520E+04  0.27760144837E+04  0.25080641365E+04 0.  0.
        4    1    3    3  502    0  0.53496610799E+03  0.52306177871E+03  0.51895177037E+03  0.91054649190E+03  0.12699999809E+01 0.  1.
       -4    1    3    3    0  502 -0.53496610799E+03 -0.52306177871E+03 -0.17088554223E+04  0.18654679918E+04  0.12699999809E+01 0. -1.
</event>
<event>
 5   0  0.1468512E-05  0.2462282E+04  0.7818609E-02  0.8416547E-01
        2   -1    0    0  501    0  0.00000000000E+00  0.00000000000E+00  0.19506931871E+04  0.19506931871E+04  0.25500000920E-02 0. -1.
       -2   -1    0    0    0  501  0.00000000000E+00  0.00000000000E+00 -0.77700978617E+03  0.77700978617E+03  0.25500000920E-02 0.  1.
    10030    2    1    2    0    0  0.00000000000E+00  0.00000000000E+00  0.11736834009E+04  0.27277029733E+04  0.24622816217E+04 0.  0.
        4    1    3    3  502    0 -0.11042042403E+04  0.35731045204E+03  0.10419395852E+04  0.15596722334E+04  0.12699999809E+01 0. -1.
       -4    1    3    3    0  502  0.11042042403E+04 -0.35731045204E+03  0.13174381575E+03  0.11680307399E+04  0.12699999809E+01 0.  1.
</event>
<event>
 5   0  0.6477703E-06  0.2507139E+04  0.7818609E-02  0.8400447E-01
        1   -1    0    0  501    0  0.00000000000E+00  0.00000000000E+00  0.20279124893E+04  0.20279124893E+04  0.50400001928E-02 0. -1.
       -1   -1    0    0    0  501  0.00000000000E+00  0.00000000000E+00 -0.77490321527E+03  0.77490321529E+03  0.50400001928E-02 0.  1.
    10030    2    1    2    0    0  0.00000000000E+00  0.00000000000E+00  0.12530092740E+04  0.28028157046E+04  0.25071385349E+04 0.  0.
        5    1    3    3  502    0  0.11740158355E+04  0.43717807015E+03  0.57681034296E+03  0.13791918317E+04  0.46999998093E+01 0.  1.
       -5    1    3    3    0  502 -0.11740158355E+04 -0.43717807015E+03  0.67619893105E+03  0.14236238728E+04  0.46999998093E+01 0. -1.
</event>
<event>
 5   0  0.6104486E-06  0.2492478E+04  0.7818609E-02  0.8405670E-01
        1   -1    0    0  501    0  0.00000000000E+00  0.00000000000E+00  0.24413476187E+04  0.24413476187E+04  0.50400001928E-02 0.  1.
       -1   -1    0    0    0  501  0.00000000000E+00  0.00000000000E+00 -0.63616984587E+03  0.63616984589E+03  0.50400001928E-02 0. -1.
    10030    2    1    2    0    0  0.00000000000E+00  0.00000000000E+00  0.18051777728E+04  0.30775174646E+04  0.24924780748E+04 0.  0.
        2    1    3    3  502    0 -0.68611387432E+03  0.44918719553E+03 -0.25607145235E+03  0.85912395723E+03  0.25500000920E-02 0. -1.
       -2    1    3    3    0  502  0.68611387432E+03 -0.44918719553E+03  0.20612492252E+04  0.22183935073E+04  0.25500000920E-02 0.  1.
</event>
<event>
 5   0  0.6346420E-06  0.2488985E+04  0.7818609E-02  0.8406920E-01
        1   -1    0    0  501    0  0.00000000000E+00  0.00000000000E+00  0.19467215540E+04  0.19467215540E+04  0.50400001928E-02 0. -1.
       -1   -1    0    0    0  501  0.00000000000E+00  0.00000000000E+00 -0.79557405813E+03  0.79557405815E+03  0.50400001928E-02 0.  1.
    10030    2    1    2    0    0  0.00000000000E+00  0.00000000000E+00  0.11511474959E+04  0.27422956122E+04  0.24889846659E+04 0.  0.
        4    1    3    3  502    0 -0.81850044356E+03  0.62205989144E+03 -0.19712809503E+03  0.10467867898E+04  0.12699999809E+01 0.  1.
       -4    1    3    3    0  502  0.81850044356E+03 -0.62205989144E+03  0.13482755909E+04  0.16955088223E+04  0.12699999809E+01 0. -1.
</event>
<event>
 5   0  0.6346420E-06  0.2476972E+04  0.7818609E-02  0.8411236E-01
        1   -1    0    0  501    0  0.00000000000E+00  0.00000000000E+00  0.23108600285E+04  0.23108600285E+04  0.50400001928E-02 0. -1.
       -1   -1    0    0    0  501  0.00000000000E+00  0.00000000000E+00 -0.66375616244E+03  0.66375616246E+03  0.50400001928E-02 0.  1.
    10030    2    1    2    0    0  0.00000000000E+00  0.00000000000E+00  0.16471038660E+04  0.29746161909E+04  0.24769720099E+04 0.  0.
        4    1    3    3  502    0  0.65010554201E+03  0.35414927225E+03  0.20158954440E+04  0.21475322994E+04  0.12699999809E+01 0. -1.
       -4    1    3    3    0  502 -0.65010554201E+03 -0.35414927225E+03 -0.36879157798E+03  0.82708389156E+03  0.12699999809E+01 0.  1.
</event>
<event>
 5   0  0.1501947E-05  0.2518360E+04  0.7818609E-02  0.8396474E-01
       -2   -1    0    0    0  501  0.00000000000E+00  0.00000000000E+00  0.69688979077E+03  0.69688979077E+03  0.25500000920E-02 0.  1.
        2   -1    0    0  501    0  0.00000000000E+00  0.00000000000E+00 -0.22751570723E+04  0.22751570723E+04  0.25500000920E-02 0. -1.
    10030    2    1    2    0    0  0.00000000000E+00  0.00000000000E+00 -0.15782672816E+04  0.29720468631E+04  0.25183595741E+04 0.  0.
        3    1    3    3  502    0 -0.70429884362E+03  0.28962792363E+03 -0.19725927369E+04  0.21144841714E+04  0.10100000352E+00 0. -1.
       -3    1    3    3    0  502  0.70429884362E+03 -0.28962792363E+03  0.39432545533E+03  0.85756269170E+03  0.10100000352E+00 0.  1.
</event>
<event>
 5   0  0.6104486E-06  0.2464397E+04  0.7818609E-02  0.8415780E-01
        1   -1    0    0  501    0  0.00000000000E+00  0.00000000000E+00  0.17038873681E+04  0.17038873681E+04  0.50400001928E-02 0.  1.
       -1   -1    0    0    0  501  0.00000000000E+00  0.00000000000E+00 -0.89108796524E+03  0.89108796525E+03  0.50400001928E-02 0. -1.
    10030    2    1    2    0    0  0.00000000000E+00  0.00000000000E+00  0.81279940282E+03  0.25949753333E+04  0.24643973120E+04 0.  0.
        2    1    3    3  502    0  0.34293283956E+03 -0.11328468464E+04  0.45656210952E+02  0.11844954197E+04  0.25500000920E-02 0. -1.
       -2    1    3    3    0  502 -0.34293283956E+03  0.11328468464E+04  0.76714319187E+03  0.14104799136E+04  0.25500000920E-02 0.  1.
</event>
<event>
 5   0  0.1501947E-05  0.2483601E+04  0.7818609E-02  0.8408851E-01
        2   -1    0    0  501    0  0.00000000000E+00  0.00000000000E+00  0.21687579211E+04  0.21687579211E+04  0.25500000920E-02 0. -1.
       -2   -1    0    0    0  501  0.00000000000E+00  0.00000000000E+00 -0.71103757053E+03  0.71103757053E+03  0.25500000920E-02 0.  1.
    10030    2    1    2    0    0  0.00000000000E+00  0.00000000000E+00  0.14577203506E+04  0.28797954916E+04  0.24836009046E+04 0.  0.
        3    1    3    3  502    0  0.44391745445E+02 -0.11309348599E+04  0.13213351679E+04  0.17398019773E+04  0.10100000352E+00 0. -1.
       -3    1    3    3    0  502 -0.44391745445E+02  0.11309348599E+04  0.13638518272E+03  0.11399935143E+04  0.10100000352E+00 0.  1.
</event>
<event>
 5   0  0.6477703E-06  0.2515055E+04  0.7818609E-02  0.8397642E-01
       -1   -1    0    0    0  501  0.00000000000E+00  0.00000000000E+00  0.96464607647E+03  0.96464607649E+03  0.50400001928E-02 0. -1.
        1   -1    0    0  501    0  0.00000000000E+00  0.00000000000E+00 -0.16393316488E+04  0.16393316489E+04  0.50400001928E-02 0.  1.
    10030    2    1    2    0    0  0.00000000000E+00  0.00000000000E+00 -0.67468557237E+03  0.26039777253E+04  0.25150545466E+04 0.  0.
        5    1    3    3  502    0  0.89381671787E+03 -0.56819452112E+03 -0.10392498121E+04  0.14838516102E+04  0.46999998093E+01 0.  1.
       -5    1    3    3    0  502 -0.89381671787E+03  0.56819452112E+03  0.36456423977E+03  0.11201261152E+04  0.46999998093E+01 0. -1.
</event>
<event>
 5   0  0.1501947E-05  0.2413110E+04  0.7818609E-02  0.8434612E-01
       -2   -1    0    0    0  501  0.00000000000E+00  0.00000000000E+00  0.60766313385E+03  0.60766313385E+03  0.25500000920E-02 0.  1.
        2   -1    0    0  501    0  0.00000000000E+00  0.00000000000E+00 -0.23956939004E+04  0.23956939004E+04  0.25500000920E-02 0. -1.
    10030    2    1    2    0    0  0.00000000000E+00  0.00000000000E+00 -0.17880307665E+04  0.30033570342E+04  0.24131099131E+04 0.  0.
        3    1    3    3  502    0  0.89281045979E+03 -0.55916752464E+03 -0.16192380929E+03  0.10658321481E+04  0.10100000352E+00 0.  1.
       -3    1    3    3    0  502 -0.89281045979E+03  0.55916752464E+03 -0.16261069572E+04  0.19375248861E+04  0.10100000352E+00 0. -1.
</event>
<event>
 5   0  0.6105353E-06  0.2506142E+04  0.7818609E-02  0.8400801E-01
        1   -1    0    0  501    0  0.00000000000E+00  0.00000000000E+00  0.58456055297E+03  0.58456055299E+03  0.50400001928E-02 0.  1.
       -1   -1    0    0    0  501  0.00000000000E+00  0.00000000000E+00 -0.26860982528E+04  0.26860982528E+04  0.50400001928E-02 0. -1.
    10030    2    1    2    0    0  0.00000000000E+00  0.00000000000E+00 -0.21015376998E+04  0.32706588057E+04  0.25061421189E+04 0.  0.
        3    1    3    3  502    0 -0.16767940403E+03 -0.75463576294E+03 -0.23378196391E+04  0.24623143975E+04  0.10100000352E+00 0. -1.
       -3    1    3    3    0  502  0.16767940403E+03  0.75463576294E+03  0.23628193930E+03  0.80834440821E+03  0.10100000352E+00 0.  1.
</event>
<event>
 5   0  0.6477703E-06  0.2527838E+04  0.7818609E-02  0.8393135E-01
       -1   -1    0    0    0  501  0.00000000000E+00  0.00000000000E+00  0.84348565897E+03  0.84348565899E+03  0.50400001928E-02 0. -1.
        1   -1    0    0  501    0  0.00000000000E+00  0.00000000000E+00 -0.18939156233E+04  0.18939156233E+04  0.50400001928E-02 0.  1.
    10030    2    1    2    0    0  0.00000000000E+00  0.00000000000E+00 -0.10504299643E+04  0.27374012822E+04  0.25278375482E+04 0.  0.
        5    1    3    3  502    0 -0.79960686361E+03  0.23304432584E+03 -0.15547059462E+04  0.17637498302E+04  0.46999998093E+01 0.  1.
       -5    1    3    3    0  502  0.79960686361E+03 -0.23304432584E+03  0.50427598197E+03  0.97365145208E+03  0.46999998093E+01 0. -1.
</event>
<event>
 5   0  0.1550483E-05  0.2506040E+04  0.7818609E-02  0.8400837E-01
       -2   -1    0    0    0  501  0.00000000000E+00  0.00000000000E+00  0.74536116117E+03  0.74536116117E+03  0.25500000920E-02 0. -1.
        2   -1    0    0  501    0  0.00000000000E+00  0.00000000000E+00 -0.21064400755E+04  0.21064400755E+04  0.25500000920E-02 0.  1.
    10030    2    1    2    0    0  0.00000000000E+00  0.00000000000E+00 -0.13610789143E+04  0.28518012366E+04  0.25060396011E+04 0.  0.
        5    1    3    3  502    0  0.10161085462E+04 -0.58711177665E+02  0.15112449485E+03  0.10289724403E+04  0.46999998093E+01 0. -1.
       -5    1    3    3    0  502 -0.10161085462E+04  0.58711177665E+02 -0.15122034092E+04  0.18228287963E+04  0.46999998093E+01 0.  1.
</event>
<event>
 5   0  0.6105353E-06  0.2505617E+04  0.7818609E-02  0.8400987E-01
       -1   -1    0    0    0  501  0.00000000000E+00  0.00000000000E+00  0.94380266786E+03  0.94380266787E+03  0.50400001928E-02 0. -1.
        1   -1    0    0  501    0  0.00000000000E+00  0.00000000000E+00 -0.16629849294E+04  0.16629849294E+04  0.50400001928E-02 0.  1.
    10030    2    1    2    0    0  0.00000000000E+00  0.00000000000E+00 -0.71918226152E+03  0.26067875973E+04  0.25056173794E+04 0.  0.
        3    1    3    3  502    0 -0.12312457822E+04  0.87074299740E+02 -0.13649993740E+03  0.12418455432E+04  0.10100000352E+00 0. -1.
       -3    1    3    3    0  502  0.12312457822E+04 -0.87074299740E+02 -0.58268232412E+03  0.13649420541E+04  0.10100000352E+00 0.  1.
</event>
<event>
 5   0  0.6104486E-06  0.2503794E+04  0.7818609E-02  0.8401635E-01
       -1   -1    0    0    0  501  0.00000000000E+00  0.00000000000E+00  0.10812829139E+04  0.10812829139E+04  0.50400001928E-02 0. -1.
        1   -1    0    0  501    0  0.00000000000E+00  0.00000000000E+00 -0.14494324712E+04  0.14494324712E+04  0.50400001928E-02 0.  1.
    10030    2    1    2    0    0  0.00000000000E+00  0.00000000000E+00 -0.36814955736E+03  0.25307153851E+04  0.25037943733E+04 0.  0.
        2    1    3    3  502    0 -0.68089516234E+03  0.55987970315E+03  0.71439403686E+03  0.11346551652E+04  0.25500000920E-02 0. -1.
       -2    1    3    3    0  502  0.68089516234E+03 -0.55987970315E+03 -0.10825435942E+04  0.13960602199E+04  0.25500000920E-02 0.  1.
</event>
<event>
 5   0  0.1526824E-05  0.2480313E+04  0.7818609E-02  0.8410033E-01
        2   -1    0    0  501    0  0.00000000000E+00  0.00000000000E+00  0.94314971191E+03  0.94314971192E+03  0.25500000920E-02 0.  1.
       -2   -1    0    0    0  501  0.00000000000E+00  0.00000000000E+00 -0.16306932056E+04  0.16306932056E+04  0.25500000920E-02 0. -1.
    10030    2    1    2    0    0  0.00000000000E+00  0.00000000000E+00 -0.68754349368E+03  0.25738429175E+04  0.24803127441E+04 0.  0.
        2    1    3    3  502    0 -0.39390389324E+02 -0.70695986598E+03  0.71277911079E+03  0.10046879693E+04  0.25500000920E-02 0.  1.
       -2    1    3    3    0  502  0.39390389324E+02  0.70695986598E+03 -0.14003226045E+04  0.15691549482E+04  0.25500000920E-02 0. -1.
</event>
<event>
 5   0  0.1526824E-05  0.2500007E+04  0.7818609E-02  0.8402983E-01
       -2   -1    0    0    0  501  0.00000000000E+00  0.00000000000E+00  0.10200836039E+04  0.10200836039E+04  0.25500000920E-02 0. -1.
        2   -1    0    0  501    0  0.00000000000E+00  0.00000000000E+00 -0.15317461959E+04  0.15317461959E+04  0.25500000920E-02 0.  1.
    10030    2    1    2    0    0  0.00000000000E+00  0.00000000000E+00 -0.51166259198E+03  0.25518297998E+04  0.25000073438E+04 0.  0.
        2    1    3    3  502    0 -0.49809152513E+03  0.31096451737E+03  0.87054437836E+03  0.10500674327E+04  0.25500000920E-02 0. -1.
       -2    1    3    3    0  502  0.49809152513E+03 -0.31096451737E+03 -0.13822069703E+04  0.15017623671E+04  0.25500000920E-02 0.  1.
</event>
<event>
 5   0  0.1468512E-05  0.2496376E+04  0.7818609E-02  0.8404278E-01
        2   -1    0    0  501    0  0.00000000000E+00  0.00000000000E+00  0.15003577154E+04  0.15003577154E+04  0.25500000920E-02 0.  1.
       -2   -1    0    0    0  501  0.00000000000E+00  0.00000000000E+00 -0.10384008875E+04  0.10384008875E+04  0.25500000920E-02 0. -1.
    10030    2    1    2    0    0  0.00000000000E+00  0.00000000000E+00  0.46195682788E+03  0.25387586029E+04  0.24963755994E+04 0.  0.
        4    1    3    3  502    0  0.78516848317E+03 -0.96821033866E+03  0.16625543764E+03  0.12576021988E+04  0.12699999809E+01 0.  1.
       -4    1    3    3    0  502 -0.78516848317E+03  0.96821033866E+03  0.29570139024E+03  0.12811564042E+04  0.12699999809E+01 0. -1.
</event>
<event>
 5   0  0.1572732E-05  0.2528123E+04  0.7818609E-02  0.8393034E-01
        2   -1    0    0  501    0  0.00000000000E+00  0.00000000000E+00  0.15156612170E+04  0.15156612171E+04  0.25500000920E-02 0.  1.
       -2   -1    0    0    0  501  0.00000000000E+00  0.00000000000E+00 -0.10542276147E+04  0.10542276147E+04  0.25500000920E-02 0. -1.
    10030    2    1    2    0    0  0.00000000000E+00  0.00000000000E+00  0.46143360237E+03  0.25698888317E+04  0.25281233431E+04 0.  0.
        1    1    3    3  502    0 -0.10396233436E+04 -0.62942091569E+03 -0.12268234903E+03  0.12214902147E+04  0.50400001928E-02 0.  1.
       -1    1    3    3    0  502  0.10396233436E+04  0.62942091569E+03  0.58411595140E+03  0.13483986171E+04  0.50400001928E-02 0. -1.
</event>
<event>
 5   0  0.6104486E-06  0.2500294E+04  0.7818609E-02  0.8402881E-01
        1   -1    0    0  501    0  0.00000000000E+00  0.00000000000E+00  0.12976202467E+04  0.12976202467E+04  0.50400001928E-02 0.  1.
       -1   -1    0    0    0  501  0.00000000000E+00  0.00000000000E+00 -0.12044101920E+04  0.12044101920E+04  0.50400001928E-02 0. -1.
    10030    2    1    2    0    0  0.00000000000E+00  0.00000000000E+00  0.93210054655E+02  0.25020304388E+04  0.25002936232E+04 0.  0.
        2    1    3    3  502    0 -0.68318134183E+03  0.38418499832E+03 -0.92799767895E+03  0.12147075989E+04  0.25500000920E-02 0. -1.
       -2    1    3    3    0  502  0.68318134183E+03 -0.38418499832E+03  0.10212077336E+04  0.12873228398E+04  0.25500000920E-02 0.  1.
</event>
<event>
 5   0  0.1468512E-05  0.2510460E+04  0.7818609E-02  0.8399269E-01
       -2   -1    0    0    0  501  0.00000000000E+00  0.00000000000E+00  0.13118609036E+04  0.13118609036E+04  0.25500000920E-02 0.  1.
        2   -1    0    0  501    0  0.00000000000E+00  0.00000000000E+00 -0.12010433583E+04  0.12010433583E+04  0.25500000920E-02 0. -1.
    10030    2    1    2    0    0  0.00000000000E+00  0.00000000000E+00  0.11081754526E+03  0.25129042619E+04  0.25104595797E+04 0.  0.
        4    1    3    3  502    0  0.35867277237E+03  0.21290914381E+03  0.12404635727E+04  0.13087123249E+04  0.12699999809E+01 0.  1.
       -4    1    3    3    0  502 -0.35867277237E+03 -0.21290914381E+03 -0.11296460274E+04  0.12041919371E+04  0.12699999809E+01 0. -1.
</event>
<event>
 5   0  0.1501947E-05  0.2508535E+04  0.7818609E-02  0.8399951E-01
       -2   -1    0    0    0  501  0.00000000000E+00  0.00000000000E+00  0.13367722802E+04  0.13367722802E+04  0.25500000920E-02 0. -1.
        2   -1    0    0  501    0  0.00000000000E+00  0.00000000000E+00 -0.11768545644E+04  0.11768545644E+04  0.25500000920E-02 0.  1.
    10030    2    1    2    0    0  0.00000000000E+00  0.00000000000E+00  0.15991771579E+03  0.25136268446E+04  0.25085346795E+04 0.  0.
        3    1    3    3  502    0  0.77183004241E+03  0.38046384431E+03 -0.83442417705E+03  0.11986400914E+04  0.10100000352E+00 0.  1.
       -3    1    3    3    0  502 -0.77183004241E+03 -0.38046384431E+03  0.99434189284E+03  0.13149867533E+04  0.10100000352E+00 0. -1.
</event>
<event>
 5   0  0.6105353E-06  0.2483587E+04  0.7818609E-02  0.8408856E-01
       -1   -1    0    0    0  501  0.00000000000E+00  0.00000000000E+00  0.87552417365E+03  0.87552417367E+03  0.50400001928E-02 0.  1.
        1   -1    0    0  501    0  0.00000000000E+00  0.00000000000E+00 -0.17612895462E+04  0.17612895462E+04  0.50400001928E-02 0. -1.
    10030    2    1    2    0    0  0.00000000000E+00  0.00000000000E+00 -0.88576537254E+03  0.26368137199E+04  0.24835873848E+04 0.  0.
        3    1    3    3  502    0  0.63527983802E+03 -0.75317860754E+03 -0.12452837061E+04  0.15879515126E+04  0.10100000352E+00 0. -1.
       -3    1    3    3    0  502 -0.63527983802E+03  0.75317860754E+03  0.35951833357E+03  0.10488622073E+04  0.10100000352E+00 0.  1.
</event>
<event>
 5   0  0.1550483E-05  0.2499544E+04  0.7818609E-02  0.8403148E-01
       -2   -1    0    0    0  501  0.00000000000E+00  0.00000000000E+00  0.10445454492E+04  0.10445454492E+04  0.25500000920E-02 0.  1.
        2   -1    0    0  501    0  0.00000000000E+00  0.00000000000E+00 -0.14953206973E+04  0.14953206973E+04  0.25500000920E-02 0. -1.
    10030    2    1    2    0    0  0.00000000000E+00  0.00000000000E+00 -0.45077524809E+03  0.25398661465E+04  0.24995443021E+04 0.  0.
        5    1    3    3  502    0  0.48559312435E+03  0.33392167469E+03  0.89448167676E+03  0.10711787560E+04  0.46999998093E+01 0.  1.
       -5    1    3    3    0  502 -0.48559312435E+03 -0.33392167469E+03 -0.13452569248E+04  0.14686873905E+04  0.46999998093E+01 0. -1.
</event>
<event>
 5   0  0.6346420E-06  0.2476244E+04  0.7818609E-02  0.8411498E-01
       -1   -1    0    0    0  501  0.00000000000E+00  0.00000000000E+00  0.16373877553E+04  0.16373877553E+04  0.50400001928E-02 0.  1.
        1   -1    0    0  501    0  0.00000000000E+00  0.00000000000E+00 -0.93621477850E+03  0.93621477852E+03  0.50400001928E-02 0. -1.
    10030    2    1    2    0    0  0.00000000000E+00  0.00000000000E+00  0.70117297678E+03  0.25736025338E+04  0.24762444263E+04 0.  0.
        4    1    3    3  502    0  0.24481867891E+03  0.90239776427E+03 -0.49291827733E+03  0.10569900432E+04  0.12699999809E+01 0. -1.
       -4    1    3    3    0  502 -0.24481867891E+03 -0.90239776427E+03  0.11940912541E+04  0.15166124906E+04  0.12699999809E+01 0.  1.
</event>
<event>
 5   0  0.1572732E-05  0.2506302E+04  0.7818609E-02  0.8400744E-01
       -2   -1    0    0    0  501  0.00000000000E+00  0.00000000000E+00  0.81682835872E+03  0.81682835873E+03  0.25500000920E-02 0.  1.
        2   -1    0    0  501    0  0.00000000000E+00  0.00000000000E+00 -0.19225420481E+04  0.19225420481E+04  0.25500000920E-02 0. -1.
    10030    2    1    2    0    0  0.00000000000E+00  0.00000000000E+00 -0.11057136894E+04  0.27393704068E+04  0.25063015507E+04 0.  0.
        1    1    3    3  502    0  0.89759197790E+03 -0.47433650044E+03 -0.13558315233E+04  0.16937962080E+04  0.50400001928E-02 0. -1.
       -1    1    3    3    0  502 -0.89759197790E+03  0.47433650044E+03  0.25011783395E+03  0.10455741989E+04  0.50400001928E-02 0.  1.
</event>
<event>
 5   0  0.1526824E-05  0.2501970E+04  0.7818609E-02  0.8402284E-01
       -2   -1    0    0    0  501  0.00000000000E+00  0.00000000000E+00  0.16279180995E+04  0.16279180995E+04  0.25500000920E-02 0.  1.
        2   -1    0    0  501    0  0.00000000000E+00  0.00000000000E+00 -0.96132817877E+03  0.96132817877E+03  0.25500000920E-02 0. -1.
    10030    2    1    2    0    0  0.00000000000E+00  0.00000000000E+00  0.66658992069E+03  0.25892462782E+04  0.25019700572E+04 0.  0.
        2    1    3    3  502    0 -0.90432120929E+03  0.14943789541E+03 -0.54777588974E+03  0.10677953734E+04  0.25500000920E-02 0. -1.
       -2    1    3    3    0  502  0.90432120929E+03 -0.14943789541E+03  0.12143658104E+04  0.15214509048E+04  0.25500000920E-02 0.  1.
</event>
<event>
 5   0  0.6477703E-06  0.2526263E+04  0.7818609E-02  0.8393689E-01
       -1   -1    0    0    0  501  0.00000000000E+00  0.00000000000E+00  0.83460812034E+03  0.83460812036E+03  0.50400001928E-02 0.  1.
        1   -1    0    0  501    0  0.00000000000E+00  0.00000000000E+00 -0.19116769081E+04  0.19116769081E+04  0.50400001928E-02 0. -1.
    10030    2    1    2    0    0  0.00000000000E+00  0.00000000000E+00 -0.10770687877E+04  0.27462850285E+04  0.25262629087E+04 0.  0.
        5    1    3    3  502    0 -0.43599904435E+03 -0.99075651913E+03  0.16915066270E+03  0.10955946712E+04  0.46999998093E+01 0.  1.
       -5    1    3    3    0  502  0.43599904435E+03  0.99075651913E+03 -0.12462194504E+04  0.16506903573E+04  0.46999998093E+01 0. -1.
</event>
<event>
 5   0  0.1468512E-05  0.2499212E+04  0.7818609E-02  0.8403266E-01
       -2   -1    0    0    0  501  0.00000000000E+00  0.00000000000E+00  0.77617722554E+03  0.77617722554E+03  0.25500000920E-02 0.  1.
        2   -1    0    0  501    0  0.00000000000E+00  0.00000000000E+00 -0.20118016453E+04  0.20118016453E+04  0.25500000920E-02 0. -1.
    10030    2    1    2    0    0  0.00000000000E+00  0.00000000000E+00 -0.12356244198E+04  0.27879788709E+04  0.24992115712E+04 0.  0.
        4    1    3    3  502    0  0.52435659271E+03  0.20621407922E+03 -0.18620501487E+04  0.19454322018E+04  0.12699999809E+01 0. -1.
       -4    1    3    3    0  502 -0.52435659271E+03 -0.20621407922E+03  0.62642572890E+03  0.84254666904E+03  0.12699999809E+01 0.  1.
</event>
<event>
 5   0  0.1550483E-05  0.2511927E+04  0.7818609E-02  0.8398749E-01
        2   -1    0    0  501    0  0.00000000000E+00  0.00000000000E+00  0.19439247704E+04  0.19439247704E+04  0.25500000920E-02 0.  1.
       -2   -1    0    0    0  501  0.00000000000E+00  0.00000000000E+00 -0.81147415819E+03  0.81147415819E+03  0.25500000920E-02 0. -1.
    10030    2    1    2    0    0  0.00000000000E+00  0.00000000000E+00  0.11324506122E+04  0.27553989286E+04  0.25119273211E+04 0.  0.
        5    1    3    3  502    0  0.11425599368E+04  0.49675403617E+03  0.39204238587E+03  0.13061114439E+04  0.46999998093E+01 0. -1.
       -5    1    3    3    0  502 -0.11425599368E+04 -0.49675403617E+03  0.74040822631E+03  0.14492874847E+04  0.46999998093E+01 0.  1.
</event>
<event>
 5   0  0.6346420E-06  0.2488517E+04  0.7818609E-02  0.8407088E-01
       -1   -1    0    0    0  501  0.00000000000E+00  0.00000000000E+00  0.91504360659E+03  0.91504360660E+03  0.50400001928E-02 0.  1.
        1   -1    0    0  501    0  0.00000000000E+00  0.00000000000E+00 -0.16919179737E+04  0.16919179737E+04  0.50400001928E-02 0. -1.
    10030    2    1    2    0    0  0.00000000000E+00  0.00000000000E+00 -0.77687436707E+03  0.26069615803E+04  0.24885166061E+04 0.  0.
        4    1    3    3  502    0 -0.84605710220E+02  0.11576691145E+04 -0.85789748595E+03  0.14433799271E+04  0.12699999809E+01 0. -1.
       -4    1    3    3    0  502  0.84605710220E+02 -0.11576691145E+04  0.81023118874E+02  0.11635816531E+04  0.12699999809E+01 0.  1.
</event>
<event>
 5   0  0.1501947E-05  0.2533719E+04  0.7818609E-02  0.8391070E-01
        2   -1    0    0  501    0  0.00000000000E+00  0.00000000000E+00  0.11351278064E+04  0.11351278064E+04  0.25500000920E-02 0.  1.
       -2   -1    0    0    0  501  0.00000000000E+00  0.00000000000E+00 -0.14138788227E+04  0.14138788228E+04  0.25500000920E-02 0. -1.
    10030    2    1    2    0    0  0.00000000000E+00  0.00000000000E+00 -0.27875101640E+03  0.25490066291E+04  0.25337191372E+04 0.  0.
        3    1    3    3  502    0 -0.31369982120E+03 -0.65879231608E+03  0.90249763046E+03  0.11605674805E+04  0.10100000352E+00 0.  1.
       -3    1    3    3    0  502  0.31369982120E+03  0.65879231608E+03 -0.11812486469E+04  0.13884391486E+04  0.10100000352E+00 0. -1.
</event>
<event>
 5   0  0.5164625E-06  0.2507030E+04  0.7818609E-02  0.8400485E-01
        3   -1    0    0  501    0  0.00000000000E+00  0.00000000000E+00  0.32661081478E+04  0.32661081494E+04  0.10100000352E+00 0.  1.
       -3   -1    0    0    0  501  0.00000000000E+00  0.00000000000E+00 -0.48109235877E+03  0.48109236937E+03  0.10100000352E+00 0. -1.
    10030    2    1    2    0    0  0.00000000000E+00  0.00000000000E+00  0.27850157891E+04  0.37472005188E+04  0.25070298727E+04 0.  0.
        2    1    3    3  502    0  0.29825792105E+03  0.10904507844E+04  0.22019263373E+04  0.24751808611E+04  0.25500000920E-02 0.  1.
       -2    1    3    3    0  502 -0.29825792105E+03 -0.10904507844E+04  0.58308945182E+03  0.12720196576E+04  0.25500000920E-02 0. -1.
</event>
<event>
 5   0  0.6105353E-06  0.2307044E+04  0.7818609E-02  0.8475149E-01
       -1   -1    0    0    0  501  0.00000000000E+00  0.00000000000E+00  0.49725616668E+03  0.49725616671E+03  0.50400001928E-02 0.  1.
        1   -1    0    0  501    0  0.00000000000E+00  0.00000000000E+00 -0.26759096009E+04  0.26759096009E+04  0.50400001928E-02 0. -1.
    10030    2    1    2    0    0  0.00000000000E+00  0.00000000000E+00 -0.21786534342E+04  0.31731657676E+04  0.23070436065E+04 0.  0.
        3    1    3    3  502    0  0.45076701263E+03 -0.80894915893E+03 -0.14335524447E+03  0.93709144577E+03  0.10100000352E+00 0.  1.
       -3    1    3    3    0  502 -0.45076701263E+03  0.80894915893E+03 -0.20352981897E+04  0.22360743218E+04  0.10100000352E+00 0. -1.
</event>
<event>
 5   0  0.6105353E-06  0.2514310E+04  0.7818609E-02  0.8397905E-01
       -1   -1    0    0    0  501  0.00000000000E+00  0.00000000000E+00  0.11605744863E+04  0.11605744863E+04  0.50400001928E-02 0.  1.
        1   -1    0    0  501    0  0.00000000000E+00  0.00000000000E+00 -0.13617729652E+04  0.13617729652E+04  0.50400001928E-02 0. -1.
    10030    2    1    2    0    0  0.00000000000E+00  0.00000000000E+00 -0.20119847895E+03  0.25223474515E+04  0.25143102112E+04 0.  0.
        3    1    3    3  502    0  0.91454121183E+03 -0.46922576430E+02  0.76346208754E+03  0.11922506975E+04  0.10100000352E+00 0.  1.
       -3    1    3    3    0  502 -0.91454121183E+03  0.46922576430E+02 -0.96466056649E+03  0.13300967540E+04  0.10100000352E+00 0. -1.
</event>
<event>
 5   0  0.6290861E-06  0.2486151E+04  0.7818609E-02  0.8407936E-01
       -1   -1    0    0    0  501  0.00000000000E+00  0.00000000000E+00  0.75826889509E+03  0.75826889511E+03  0.50400001928E-02 0. -1.
        1   -1    0    0  501    0  0.00000000000E+00  0.00000000000E+00 -0.20378486040E+04  0.20378486040E+04  0.50400001928E-02 0.  1.
    10030    2    1    2    0    0  0.00000000000E+00  0.00000000000E+00 -0.12795797089E+04  0.27961174991E+04  0.24861514108E+04 0.  0.
        1    1    3    3  502    0 -0.77939159321E+03 -0.61225620684E+03 -0.14836187264E+04  0.17842178801E+04  0.50400001928E-02 0. -1.
       -1    1    3    3    0  502  0.77939159321E+03  0.61225620684E+03  0.20403901744E+03  0.10118996191E+04  0.50400001928E-02 0.  1.
</event>
<event>
 5   0  0.1501947E-05  0.2510692E+04  0.7818609E-02  0.8399187E-01
       -2   -1    0    0    0  501  0.00000000000E+00  0.00000000000E+00  0.89142953766E+03  0.89142953767E+03  0.25500000920E-02 0. -1.
        2   -1    0    0  501    0  0.00000000000E+00  0.00000000000E+00 -0.17678267193E+04  0.17678267193E+04  0.25500000920E-02 0.  1.
    10030    2    1    2    0    0  0.00000000000E+00  0.00000000000E+00 -0.87639718159E+03  0.26592562569E+04  0.25106915024E+04 0.  0.
        3    1    3    3  502    0  0.59385052200E+03  0.47541644416E+03 -0.14958948217E+04  0.16782075455E+04  0.10100000352E+00 0.  1.
       -3    1    3    3    0  502 -0.59385052200E+03 -0.47541644416E+03  0.61949764014E+03  0.98104871143E+03  0.10100000352E+00 0. -1.
</event>
<event>
 5   0  0.5164625E-06  0.2555014E+04  0.7818609E-02  0.8383644E-01
        3   -1    0    0  501    0  0.00000000000E+00  0.00000000000E+00  0.13331707535E+04  0.13331707574E+04  0.10100000352E+00 0.  1.
       -3   -1    0    0    0  501  0.00000000000E+00  0.00000000000E+00 -0.12241675221E+04  0.12241675262E+04  0.10100000352E+00 0. -1.
    10030    2    1    2    0    0  0.00000000000E+00  0.00000000000E+00  0.10900323147E+03  0.25573382836E+04  0.25550141667E+04 0.  0.
        3    1    3    3  502    0  0.39644408384E+03 -0.10596556807E+04  0.64832558818E+03  0.13039801194E+04  0.10100000352E+00 0.  1.
       -3    1    3    3    0  502 -0.39644408384E+03  0.10596556807E+04 -0.53932235670E+03  0.12533581642E+04  0.10100000352E+00 0. -1.
</event>
<event>
 5   0  0.1501947E-05  0.2359527E+04  0.7818609E-02  0.8454813E-01
       -2   -1    0    0    0  501  0.00000000000E+00  0.00000000000E+00  0.84387574394E+03  0.84387574395E+03  0.25500000920E-02 0. -1.
        2   -1    0    0  501    0  0.00000000000E+00  0.00000000000E+00 -0.16493441823E+04  0.16493441823E+04  0.25500000920E-02 0.  1.
    10030    2    1    2    0    0  0.00000000000E+00  0.00000000000E+00 -0.80546843837E+03  0.24932199263E+04  0.23595266889E+04 0.  0.
        3    1    3    3  502    0  0.26329060627E+03  0.10676598372E+04  0.48822514213E+02  0.11007284494E+04  0.10100000352E+00 0. -1.
       -3    1    3    3    0  502 -0.26329060627E+03 -0.10676598372E+04 -0.85429095258E+03  0.13924914769E+04  0.10100000352E+00 0.  1.
</event>
<event>
 5   0  0.1550483E-05  0.2452997E+04  0.7818609E-02  0.8419924E-01
        2   -1    0    0  501    0  0.00000000000E+00  0.00000000000E+00  0.98161732666E+03  0.98161732667E+03  0.25500000920E-02 0.  1.
       -2   -1    0    0    0  501  0.00000000000E+00  0.00000000000E+00 -0.15324698700E+04  0.15324698700E+04  0.25500000920E-02 0. -1.
    10030    2    1    2    0    0  0.00000000000E+00  0.00000000000E+00 -0.55085254333E+03  0.25140871967E+04  0.24529973314E+04 0.  0.
        5    1    3    3  502    0  0.70024591929E+03 -0.46951516221E+03 -0.11883898590E+04  0.14570797445E+04  0.46999998093E+01 0.  1.
       -5    1    3    3    0  502 -0.70024591929E+03  0.46951516221E+03  0.63753731564E+03  0.10570074521E+04  0.46999998093E+01 0. -1.
</event>
<event>
 5   0  0.6104486E-06  0.2442699E+04  0.7818609E-02  0.8423689E-01
        1   -1    0    0  501    0  0.00000000000E+00  0.00000000000E+00  0.18404070198E+04  0.18404070198E+04  0.50400001928E-02 0.  1.
       -1   -1    0    0    0  501  0.00000000000E+00  0.00000000000E+00 -0.81052406213E+03  0.81052406214E+03  0.50400001928E-02 0. -1.
    10030    2    1    2    0    0  0.00000000000E+00  0.00000000000E+00  0.10298829576E+04  0.26509310819E+04  0.24426986500E+04 0.  0.
        2    1    3    3  502    0  0.73394892211E+03 -0.61314879178E+03 -0.30946173277E+03  0.10051860650E+04  0.25500000920E-02 0. -1.
       -2    1    3    3    0  502 -0.73394892211E+03  0.61314879178E+03  0.13393446904E+04  0.16457450170E+04  0.25500000920E-02 0.  1.
</event>
<event>
 5   0  0.6346420E-06  0.2512898E+04  0.7818609E-02  0.8398405E-01
        1   -1    0    0  501    0  0.00000000000E+00  0.00000000000E+00  0.21903182529E+04  0.21903182529E+04  0.50400001928E-02 0.  1.
       -1   -1    0    0    0  501  0.00000000000E+00  0.00000000000E+00 -0.72074667196E+03  0.72074667198E+03  0.50400001928E-02 0. -1.
    10030    2    1    2    0    0  0.00000000000E+00  0.00000000000E+00  0.14695715809E+04  0.29110649249E+04  0.25128983993E+04 0.  0.
        4    1    3    3  502    0  0.10468790537E+04 -0.69462955087E+03  0.71852566618E+03  0.14473239830E+04  0.12699999809E+01 0.  1.
       -4    1    3    3    0  502 -0.10468790537E+04  0.69462955087E+03  0.75104591475E+03  0.14637409419E+04  0.12699999809E+01 0. -1.
</event>
<event>
 5   0  0.1526824E-05  0.2517704E+04  0.7818609E-02  0.8396705E-01
       -2   -1    0    0    0  501  0.00000000000E+00  0.00000000000E+00  0.12762208774E+04  0.12762208774E+04  0.25500000920E-02 0. -1.
        2   -1    0    0  501    0  0.00000000000E+00  0.00000000000E+00 -0.12417193241E+04  0.12417193241E+04  0.25500000920E-02 0.  1.
    10030    2    1    2    0    0  0.00000000000E+00  0.00000000000E+00  0.34501553283E+02  0.25179402015E+04  0.25177038152E+04 0.  0.
        2    1    3    3  502    0 -0.78354457748E+03  0.98373801610E+03  0.72260814118E+02  0.12597238644E+04  0.25500000920E-02 0. -1.
       -2    1    3    3    0  502  0.78354457748E+03 -0.98373801610E+03 -0.37759260835E+02  0.12582163371E+04  0.25500000920E-02 0.  1.
</event>
<event>
 5   0  0.1501947E-05  0.2409606E+04  0.7818609E-02  0.8435916E-01
        2   -1    0    0  501    0  0.00000000000E+00  0.00000000000E+00  0.81935570401E+03  0.81935570401E+03  0.25500000920E-02 0.  1.
       -2   -1    0    0    0  501  0.00000000000E+00  0.00000000000E+00 -0.17715755353E+04  0.17715755353E+04  0.25500000920E-02 0. -1.
    10030    2    1    2    0    0  0.00000000000E+00  0.00000000000E+00 -0.95221983132E+03  0.25909312393E+04  0.24096062085E+04 0.  0.
        3    1    3    3  502    0 -0.48078576695E+03 -0.66992746828E+03  0.46839425758E+03  0.94834116076E+03  0.10100000352E+00 0.  1.
       -3    1    3    3    0  502  0.48078576695E+03  0.66992746828E+03 -0.14206140889E+04  0.16425900786E+04  0.10100000352E+00 0. -1.
</event>
<event>
 5   0  0.6290861E-06  0.2509195E+04  0.7818609E-02  0.8399717E-01
       -1   -1    0    0    0  501  0.00000000000E+00  0.00000000000E+00  0.77391312067E+03  0.77391312069E+03  0.50400001928E-02 0.  1.
        1   -1    0    0  501    0  0.00000000000E+00  0.00000000000E+00 -0.20338394127E+04  0.20338394127E+04  0.50400001928E-02 0. -1.
    10030    2    1    2    0    0  0.00000000000E+00  0.00000000000E+00 -0.12599262920E+04  0.28077525334E+04  0.25091950955E+04 0.  0.
        1    1    3    3  502    0  0.71652387422E+03  0.67967966769E+03 -0.14957455377E+04  0.17923798778E+04  0.50400001928E-02 0. -1.
       -1    1    3    3    0  502 -0.71652387422E+03 -0.67967966769E+03  0.23581924564E+03  0.10153726556E+04  0.50400001928E-02 0.  1.
</event>
<event>
 5   0  0.1550483E-05  0.2506259E+04  0.7818609E-02  0.8400759E-01
        2   -1    0    0  501    0  0.00000000000E+00  0.00000000000E+00  0.20662157687E+04  0.20662157687E+04  0.25500000920E-02 0. -1.
       -2   -1    0    0    0  501  0.00000000000E+00  0.00000000000E+00 -0.76000449959E+03  0.76000449960E+03  0.25500000920E-02 0.  1.
    10030    2    1    2    0    0  0.00000000000E+00  0.00000000000E+00  0.13062112691E+04  0.28262202683E+04  0.25062587906E+04 0.  0.
        5    1    3    3  502    0  0.18384476670E+03 -0.42389212258E+03 -0.66043179872E+03  0.80602461538E+03  0.46999998093E+01 0.  1.
       -5    1    3    3    0  502 -0.18384476670E+03  0.42389212258E+03  0.19666430678E+04  0.20201956529E+04  0.46999998093E+01 0. -1.
</event>
<event>
 5   0  0.6346420E-06  0.2497089E+04  0.7818609E-02  0.8404023E-01
       -1   -1    0    0    0  501  0.00000000000E+00  0.00000000000E+00  0.71674296470E+03  0.71674296472E+03  0.50400001928E-02 0. -1.
        1   -1    0    0  501    0  0.00000000000E+00  0.00000000000E+00 -0.21749265080E+04  0.21749265080E+04  0.50400001928E-02 0.  1.
    10030    2    1    2    0    0  0.00000000000E+00  0.00000000000E+00 -0.14581835433E+04  0.28916694727E+04  0.24970889238E+04 0.  0.
        4    1    3    3  502    0  0.32349986256E+03  0.11588440957E+03 -0.21190876842E+04  0.21467686377E+04  0.12699999809E+01 0.  1.
       -4    1    3    3    0  502 -0.32349986256E+03 -0.11588440957E+03  0.66090414099E+03  0.74490083496E+03  0.12699999809E+01 0. -1.
</event>
<event>
 5   0  0.6477703E-06  0.2478309E+04  0.7818609E-02  0.8410754E-01
       -1   -1    0    0    0  501  0.00000000000E+00  0.00000000000E+00  0.63203345191E+03  0.63203345193E+03  0.50400001928E-02 0. -1.
        1   -1    0    0  501    0  0.00000000000E+00  0.00000000000E+00 -0.24294658656E+04  0.24294658656E+04  0.50400001928E-02 0.  1.
    10030    2    1    2    0    0  0.00000000000E+00  0.00000000000E+00 -0.17974324137E+04  0.30614993175E+04  0.24783088568E+04 0.  0.
        5    1    3    3  502    0 -0.41856144118E+02  0.76157198396E+03 -0.21051214948E+04  0.22390405136E+04  0.46999998093E+01 0.  1.
       -5    1    3    3    0  502  0.41856144118E+02 -0.76157198396E+03  0.30768908113E+03  0.82245880395E+03  0.46999998093E+01 0. -1.
</event>
<event>
 5   0  0.1526824E-05  0.2490114E+04  0.7818609E-02  0.8406516E-01
        2   -1    0    0  501    0  0.00000000000E+00  0.00000000000E+00  0.19568692292E+04  0.19568692292E+04  0.25500000920E-02 0.  1.
       -2   -1    0    0    0  501  0.00000000000E+00  0.00000000000E+00 -0.79216714249E+03  0.79216714250E+03  0.25500000920E-02 0. -1.
    10030    2    1    2    0    0  0.00000000000E+00  0.00000000000E+00  0.11647020867E+04  0.27490363717E+04  0.24901144597E+04 0.  0.
        2    1    3    3  502    0  0.10671332341E+03  0.12380914023E+04  0.66721724543E+03  0.14104740007E+04  0.25500000920E-02 0. -1.
       -2    1    3    3    0  502 -0.10671332341E+03 -0.12380914023E+04  0.49748484131E+03  0.13385623711E+04  0.25500000920E-02 0.  1.
</event>
<event>
 5   0  0.6290861E-06  0.2499047E+04  0.7818609E-02  0.8403325E-01
        1   -1    0    0  501    0  0.00000000000E+00  0.00000000000E+00  0.21661711803E+04  0.21661711803E+04  0.50400001928E-02 0.  1.
       -1   -1    0    0    0  501  0.00000000000E+00  0.00000000000E+00 -0.72076889722E+03  0.72076889724E+03  0.50400001928E-02 0. -1.
    10030    2    1    2    0    0  0.00000000000E+00  0.00000000000E+00  0.14454022831E+04  0.28869400775E+04  0.24990468686E+04 0.  0.
        1    1    3    3  502    0  0.66600646236E+02 -0.28718138212E+03  0.21254212813E+04  0.21457689567E+04  0.50400001928E-02 0.  1.
       -1    1    3    3    0  502 -0.66600646236E+02  0.28718138212E+03 -0.68001899828E+03  0.74117112084E+03  0.50400001928E-02 0. -1.
</event>
<event>
 5   0  0.6104486E-06  0.2385550E+04  0.7818609E-02  0.8444933E-01
       -1   -1    0    0    0  501  0.00000000000E+00  0.00000000000E+00  0.10132290669E+04  0.10132290669E+04  0.50400001928E-02 0.  1.
        1   -1    0    0  501    0  0.00000000000E+00  0.00000000000E+00 -0.14041373475E+04  0.14041373475E+04  0.50400001928E-02 0. -1.
    10030    2    1    2    0    0  0.00000000000E+00  0.00000000000E+00 -0.39090828063E+03  0.24173664144E+04  0.23855504810E+04 0.  0.
        2    1    3    3  502    0 -0.37694628002E+03  0.83686159698E+03  0.57647115465E+03  0.10838564585E+04  0.25500000920E-02 0.  1.
       -2    1    3    3    0  502  0.37694628002E+03 -0.83686159698E+03 -0.96737943528E+03  0.13335099558E+04  0.25500000920E-02 0. -1.
</event>
<event>
 5   0  0.1550483E-05  0.2487776E+04  0.7818609E-02  0.8407353E-01
       -2   -1    0    0    0  501  0.00000000000E+00  0.00000000000E+00  0.12269957128E+04  0.12269957128E+04  0.25500000920E-02 0.  1.
        2   -1    0    0  501    0  0.00000000000E+00  0.00000000000E+00 -0.12610125447E+04  0.12610125447E+04  0.25500000920E-02 0. -1.
    10030    2    1    2    0    0  0.00000000000E+00  0.00000000000E+00 -0.34016831894E+02  0.24880082574E+04  0.24877757022E+04 0.  0.
        5    1    3    3  502    0  0.46879921075E+03 -0.95802439235E+03 -0.65710844803E+03  0.12527557778E+04  0.46999998093E+01 0. -1.
       -5    1    3    3    0  502 -0.46879921075E+03  0.95802439235E+03  0.62309161614E+03  0.12352524796E+04  0.46999998093E+01 0.  1.
</event>
<event>
 5   0  0.1468512E-05  0.2511445E+04  0.7818609E-02  0.8398919E-01
        2   -1    0    0  501    0  0.00000000000E+00  0.00000000000E+00  0.11672115747E+04  0.11672115747E+04  0.25500000920E-02 0.  1.
       -2   -1    0    0    0  501  0.00000000000E+00  0.00000000000E+00 -0.13509457423E+04  0.13509457423E+04  0.25500000920E-02 0. -1.
    10030    2    1    2    0    0  0.00000000000E+00  0.00000000000E+00 -0.18373416760E+03  0.25181573170E+04  0.25114454063E+04 0.  0.
        4    1    3    3  502    0  0.12389329054E+04 -0.32380810293E+02  0.11074878036E+03  0.12442950479E+04  0.12699999809E+01 0.  1.
       -4    1    3    3    0  502 -0.12389329054E+04  0.32380810293E+02 -0.29448294796E+03  0.12738622691E+04  0.12699999809E+01 0. -1.
</event>
<event>
 5   0  0.6104486E-06  0.2496989E+04  0.7818609E-02  0.8404059E-01
        1   -1    0    0  501    0  0.00000000000E+00  0.00000000000E+00  0.14568144725E+04  0.14568144725E+04  0.50400001928E-02 0.  1.
       -1   -1    0    0    0  501  0.00000000000E+00  0.00000000000E+00 -0.10699637919E+04  0.10699637919E+04  0.50400001928E-02 0. -1.
    10030    2    1    2    0    0  0.00000000000E+00  0.00000000000E+00  0.38685068068E+03  0.25267782644E+04  0.24969891767E+04 0.  0.
        2    1    3    3  502    0 -0.74232217142E+03  0.60253708342E+03  0.10059021650E+04  0.13877796326E+04  0.25500000920E-02 0.  1.
       -2    1    3    3    0  502  0.74232217142E+03 -0.60253708342E+03 -0.61905148432E+03  0.11389986318E+04  0.25500000920E-02 0. -1.
</event>
<event>
 5   0  0.6105353E-06  0.2493402E+04  0.7818609E-02  0.8405340E-01
       -1   -1    0    0    0  501  0.00000000000E+00  0.00000000000E+00  0.82208377131E+03  0.82208377132E+03  0.50400001928E-02 0. -1.
        1   -1    0    0  501    0  0.00000000000E+00  0.00000000000E+00 -0.18906386500E+04  0.18906386500E+04  0.50400001928E-02 0.  1.
    10030    2    1    2    0    0  0.00000000000E+00  0.00000000000E+00 -0.10685548787E+04  0.27127224214E+04  0.24934019745E+04 0.  0.
        3    1    3    3  502    0 -0.55519753584E+03  0.57629883310E+03  0.50579140212E+03  0.94667291157E+03  0.10100000352E+00 0. -1.
       -3    1    3    3    0  502  0.55519753584E+03 -0.57629883310E+03 -0.15743462808E+04  0.17660495098E+04  0.10100000352E+00 0.  1.
</event>
<event>
 5   0  0.6104486E-06  0.2496089E+04  0.7818609E-02  0.8404380E-01
        1   -1    0    0  501    0  0.00000000000E+00  0.00000000000E+00  0.12568068379E+04  0.12568068379E+04  0.50400001928E-02 0.  1.
       -1   -1    0    0    0  501  0.00000000000E+00  0.00000000000E+00 -0.12393430197E+04  0.12393430197E+04  0.50400001928E-02 0. -1.
    10030    2    1    2    0    0  0.00000000000E+00  0.00000000000E+00  0.17463818131E+02  0.24961498576E+04  0.24960887658E+04 0.  0.
        2    1    3    3  502    0 -0.12514183652E+03  0.64076862410E+03 -0.10549528441E+04  0.12406330691E+04  0.25500000920E-02 0. -1.
       -2    1    3    3    0  502  0.12514183652E+03 -0.64076862410E+03  0.10724166622E+04  0.12555167885E+04  0.25500000920E-02 0.  1.
</event>
<event>
 5   0  0.1501947E-05  0.2474608E+04  0.7818609E-02  0.8412088E-01
       -2   -1    0    0    0  501  0.00000000000E+00  0.00000000000E+00  0.22074177908E+04  0.22074177908E+04  0.25500000920E-02 0.  1.
        2   -1    0    0  501    0  0.00000000000E+00  0.00000000000E+00 -0.69353512285E+03  0.69353512286E+03  0.25500000920E-02 0. -1.
    10030    2    1    2    0    0  0.00000000000E+00  0.00000000000E+00  0.15138826680E+04  0.29009529137E+04  0.24746084690E+04 0.  0.
        3    1    3    3  502    0  0.41406436179E+03  0.36708921628E+03 -0.54039395005E+03  0.77345292027E+03  0.10100000352E+00 0. -1.
       -3    1    3    3    0  502 -0.41406436179E+03 -0.36708921628E+03  0.20542766180E+04  0.21274999934E+04  0.10100000352E+00 0.  1.
</event>
<event>
 5   0  0.5164625E-06  0.2435876E+04  0.7818609E-02  0.8426193E-01
       -3   -1    0    0    0  501  0.00000000000E+00  0.00000000000E+00  0.14007473518E+04  0.14007473554E+04  0.10100000352E+00 0. -1.
        3   -1    0    0  501    0  0.00000000000E+00  0.00000000000E+00 -0.10589868172E+04  0.10589868220E+04  0.10100000352E+00 0.  1.
    10030    2    1    2    0    0  0.00000000000E+00  0.00000000000E+00  0.34176053459E+03  0.24597341774E+04  0.24358760150E+04 0.  0.
        4    1    3    3  502    0 -0.89672823918E+03  0.13123470922E+03 -0.65073962165E+03  0.11157095285E+04  0.12699999809E+01 0.  1.
       -4    1    3    3    0  502  0.89672823918E+03 -0.13123470922E+03  0.99250015624E+03  0.13440246489E+04  0.12699999809E+01 0. -1.
</event>
<event>
 5   0  0.6346420E-06  0.2525310E+04  0.7818609E-02  0.8394024E-01
        1   -1    0    0  501    0  0.00000000000E+00  0.00000000000E+00  0.15565480395E+04  0.15565480395E+04  0.50400001928E-02 0.  1.
       -1   -1    0    0    0  501  0.00000000000E+00  0.00000000000E+00 -0.10242522363E+04  0.10242522363E+04  0.50400001928E-02 0. -1.
    10030    2    1    2    0    0  0.00000000000E+00  0.00000000000E+00  0.53229580325E+03  0.25808002758E+04  0.25253101278E+04 0.  0.
        4    1    3    3  502    0 -0.12015816569E+04 -0.62122540451E+02  0.65749642046E+03  0.13711166413E+04  0.12699999809E+01 0.  1.
       -4    1    3    3    0  502  0.12015816569E+04  0.62122540451E+02 -0.12520061721E+03  0.12096836345E+04  0.12699999809E+01 0. -1.
</event>
<event>
 5   0  0.6105353E-06  0.2474179E+04  0.7818609E-02  0.8412243E-01
        1   -1    0    0  501    0  0.00000000000E+00  0.00000000000E+00  0.19129167515E+04  0.19129167515E+04  0.50400001928E-02 0.  1.
       -1   -1    0    0    0  501  0.00000000000E+00  0.00000000000E+00 -0.80002979413E+03  0.80002979415E+03  0.50400001928E-02 0. -1.
    10030    2    1    2    0    0  0.00000000000E+00  0.00000000000E+00  0.11128869573E+04  0.27129465456E+04  0.24741789708E+04 0.  0.
        3    1    3    3  502    0 -0.24570916051E+03  0.11145882895E+02 -0.77294836623E+03  0.81113895808E+03  0.10100000352E+00 0. -1.
       -3    1    3    3    0  502  0.24570916051E+03 -0.11145882895E+02  0.18858353236E+04  0.19018075876E+04  0.10100000352E+00 0.  1.
</event>
<event>
 5   0  0.1572732E-05  0.2502870E+04  0.7818609E-02  0.8401964E-01
        2   -1    0    0  501    0  0.00000000000E+00  0.00000000000E+00  0.18504671239E+04  0.18504671239E+04  0.25500000920E-02 0. -1.
       -2   -1    0    0    0  501  0.00000000000E+00  0.00000000000E+00 -0.84632099398E+03  0.84632099399E+03  0.25500000920E-02 0.  1.
    10030    2    1    2    0    0  0.00000000000E+00  0.00000000000E+00  0.10041461299E+04  0.26967881179E+04  0.25028696935E+04 0.  0.
        1    1    3    3  502    0  0.58676247018E+03  0.10819790667E+04  0.74568871916E+03  0.14391040835E+04  0.50400001928E-02 0.  1.
       -1    1    3    3    0  502 -0.58676247018E+03 -0.10819790667E+04  0.25845741079E+03  0.12576840344E+04  0.50400001928E-02 0. -1.
</event>
<event>
 5   0  0.6290861E-06  0.2415497E+04  0.7818609E-02  0.8433724E-01
        1   -1    0    0  501    0  0.00000000000E+00  0.00000000000E+00  0.17460141819E+04  0.17460141819E+04  0.50400001928E-02 0. -1.
       -1   -1    0    0    0  501  0.00000000000E+00  0.00000000000E+00 -0.83542095161E+03  0.83542095162E+03  0.50400001928E-02 0.  1.
    10030    2    1    2    0    0  0.00000000000E+00  0.00000000000E+00  0.91059323026E+03  0.25814351335E+04  0.24154973230E+04 0.  0.
        1    1    3    3  502    0 -0.21883972873E+03 -0.83069012461E+02  0.17215406520E+04  0.17373812202E+04  0.50400001928E-02 0. -1.
       -1    1    3    3    0  502  0.21883972873E+03  0.83069012461E+02 -0.81094742175E+03  0.84405391331E+03  0.50400001928E-02 0.  1.
</event>
<event>
 5   0  0.1501947E-05  0.2501910E+04  0.7818609E-02  0.8402305E-01
       -2   -1    0    0    0  501  0.00000000000E+00  0.00000000000E+00  0.98222484787E+03  0.98222484788E+03  0.25500000920E-02 0.  1.
        2   -1    0    0  501    0  0.00000000000E+00  0.00000000000E+00 -0.15932075886E+04  0.15932075886E+04  0.25500000920E-02 0. -1.
    10030    2    1    2    0    0  0.00000000000E+00  0.00000000000E+00 -0.61098274075E+03  0.25754324365E+04  0.25019097357E+04 0.  0.
        3    1    3    3  502    0  0.92658882252E+03 -0.66122678863E+03 -0.83948449182E+03  0.14143980819E+04  0.10100000352E+00 0. -1.
       -3    1    3    3    0  502 -0.92658882252E+03  0.66122678863E+03  0.22850175107E+03  0.11610343546E+04  0.10100000352E+00 0.  1.
</event>
<event>
 5   0  0.1501947E-05  0.2507646E+04  0.7818609E-02  0.8400267E-01
       -2   -1    0    0    0  501  0.00000000000E+00  0.00000000000E+00  0.13137139152E+04  0.13137139152E+04  0.25500000920E-02 0.  1.
        2   -1    0    0  501    0  0.00000000000E+00  0.00000000000E+00 -0.11966623170E+04  0.11966623170E+04  0.25500000920E-02 0. -1.
    10030    2    1    2    0    0  0.00000000000E+00  0.00000000000E+00  0.11705159827E+03  0.25103762322E+04  0.25076458583E+04 0.  0.
        3    1    3    3  502    0 -0.96434803588E+03 -0.37439542602E+03  0.76776939750E+03  0.12882580981E+04  0.10100000352E+00 0.  1.
       -3    1    3    3    0  502  0.96434803588E+03  0.37439542602E+03 -0.65071779923E+03  0.12221181341E+04  0.10100000352E+00 0. -1.
</event>
<event>
 5   0  0.1468512E-05  0.2401888E+04  0.7818609E-02  0.8438797E-01
       -2   -1    0    0    0  501  0.00000000000E+00  0.00000000000E+00  0.17306820565E+04  0.17306820565E+04  0.25500000920E-02 0. -1.
        2   -1    0    0  501    0  0.00000000000E+00  0.00000000000E+00 -0.83335163701E+03  0.83335163701E+03  0.25500000920E-02 0.  1.
    10030    2    1    2    0    0  0.00000000000E+00  0.00000000000E+00  0.89733041945E+03  0.25640336935E+04  0.24018881947E+04 0.  0.
        4    1    3    3  502    0 -0.27823397502E+03 -0.88921170582E+03  0.12575468017E+04  0.15650997329E+04  0.12699999809E+01 0. -1.
       -4    1    3    3    0  502  0.27823397502E+03  0.88921170582E+03 -0.36021638225E+03  0.99893396056E+03  0.12699999809E+01 0.  1.
</event>
<event>
 5   0  0.6105353E-06  0.2496121E+04  0.7818609E-02  0.8404369E-01
       -1   -1    0    0    0  501  0.00000000000E+00  0.00000000000E+00  0.11068524469E+04  0.11068524469E+04  0.50400001928E-02 0.  1.
        1   -1    0    0  501    0  0.00000000000E+00  0.00000000000E+00 -0.14072833175E+04  0.14072833175E+04  0.50400001928E-02 0. -1.
    10030    2    1    2    0    0  0.00000000000E+00  0.00000000000E+00 -0.30043087058E+03  0.25141357645E+04  0.24961209775E+04 0.  0.
        3    1    3    3  502    0  0.67722750912E+02 -0.12343301432E+04 -0.32320391164E+03  0.12777394304E+04  0.10100000352E+00 0. -1.
       -3    1    3    3    0  502 -0.67722750912E+02  0.12343301432E+04  0.22773041061E+02  0.12363963341E+04  0.10100000352E+00 0.  1.
</event>
<event>
 5   0  0.1468512E-05  0.2513410E+04  0.7818609E-02  0.8398224E-01
       -2   -1    0    0    0  501  0.00000000000E+00  0.00000000000E+00  0.20379723770E+04  0.20379723770E+04  0.25500000920E-02 0.  1.
        2   -1    0    0  501    0  0.00000000000E+00  0.00000000000E+00 -0.77494070548E+03  0.77494070548E+03  0.25500000920E-02 0. -1.
    10030    2    1    2    0    0  0.00000000000E+00  0.00000000000E+00  0.12630316715E+04  0.28129130825E+04  0.25134102344E+04 0.  0.
        4    1    3    3  502    0 -0.64978952208E+03  0.40952819371E+03 -0.48167982982E+03  0.90661835179E+03  0.12699999809E+01 0. -1.
       -4    1    3    3    0  502  0.64978952208E+03 -0.40952819371E+03  0.17447115014E+04  0.19062947307E+04  0.12699999809E+01 0.  1.
</event>
<event>
 5   0  0.6477703E-06  0.2508558E+04  0.7818609E-02  0.8399943E-01
        1   -1    0    0  501    0  0.00000000000E+00  0.00000000000E+00  0.21962815984E+04  0.21962815984E+04  0.50400001928E-02 0. -1.
       -1   -1    0    0    0  501  0.00000000000E+00  0.00000000000E+00 -0.71630858278E+03  0.71630858280E+03  0.50400001928E-02 0.  1.
    10030    2    1    2    0    0  0.00000000000E+00  0.00000000000E+00  0.14799730157E+04  0.29125901812E+04  0.25085576407E+04 0.  0.
        5    1    3    3  502    0 -0.60742115910E+03  0.78177771262E+03 -0.15414891319E+03  0.10019584991E+04  0.46999998093E+01 0.  1.
       -5    1    3    3    0  502  0.60742115910E+03 -0.78177771262E+03  0.16341219288E+04  0.19106316821E+04  0.46999998093E+01 0. -1.
</event>
<event>
 5   0  0.1572732E-05  0.2502044E+04  0.7818609E-02  0.8402258E-01
        2   -1    0    0  501    0  0.00000000000E+00  0.00000000000E+00  0.21667312806E+04  0.21667312806E+04  0.25500000920E-02 0.  1.
       -2   -1    0    0    0  501  0.00000000000E+00  0.00000000000E+00 -0.72231217279E+03  0.72231217279E+03  0.25500000920E-02 0. -1.
    10030    2    1    2    0    0  0.00000000000E+00  0.00000000000E+00  0.14444191079E+04  0.28890434534E+04  0.25020442675E+04 0.  0.
        1    1    3    3  502    0 -0.10525569548E+04 -0.66755576649E+03  0.84630085237E+03  0.15065629682E+04  0.50400001928E-02 0.  1.
       -1    1    3    3    0  502  0.10525569548E+04  0.66755576649E+03  0.59811825549E+03  0.13824804852E+04  0.50400001928E-02 0. -1.
</event>
<event>
 5   0  0.6104486E-06  0.2338736E+04  0.7818609E-02  0.8462803E-01
       -1   -1    0    0    0  501  0.00000000000E+00  0.00000000000E+00  0.13537913372E+04  0.13537913372E+04  0.50400001928E-02 0.  1.
        1   -1    0    0  501    0  0.00000000000E+00  0.00000000000E+00 -0.10100679998E+04  0.10100679998E+04  0.50400001928E-02 0. -1.
    10030    2    1    2    0    0  0.00000000000E+00  0.00000000000E+00  0.34372333741E+03  0.23638593370E+04  0.23387358193E+04 0.  0.
        2    1    3    3  502    0 -0.25421167867E+03 -0.11406523134E+04  0.13006492900E+03  0.11758521009E+04  0.25500000920E-02 0. -1.
       -2    1    3    3    0  502  0.25421167867E+03  0.11406523134E+04  0.21365840841E+03  0.11880072361E+04  0.25500000920E-02 0.  1.
</event>
<event>
 5   0  0.1550483E-05  0.2499065E+04  0.7818609E-02  0.8403319E-01
       -2   -1    0    0    0  501  0.00000000000E+00  0.00000000000E+00  0.14163184289E+04  0.14163184289E+04  0.25500000920E-02 0. -1.
        2   -1    0    0  501    0  0.00000000000E+00  0.00000000000E+00 -0.11023876169E+04  0.11023876169E+04  0.25500000920E-02 0.  1.
    10030    2    1    2    0    0  0.00000000000E+00  0.00000000000E+00  0.31393081198E+03  0.25187060458E+04  0.24990653434E+04 0.  0.
        5    1    3    3  502    0 -0.10009767212E+04 -0.13955605099E+03 -0.58357421466E+03  0.11670523732E+04  0.46999998093E+01 0.  1.
       -5    1    3    3    0  502  0.10009767212E+04  0.13955605099E+03  0.89750502664E+03  0.13516536726E+04  0.46999998093E+01 0. -1.
</event>
<event>
 5   0  0.6105353E-06  0.2480583E+04  0.7818609E-02  0.8409936E-01
        1   -1    0    0  501    0  0.00000000000E+00  0.00000000000E+00  0.22488169900E+04  0.22488169900E+04  0.50400001928E-02 0.  1.
       -1   -1    0    0    0  501  0.00000000000E+00  0.00000000000E+00 -0.68405894005E+03  0.68405894007E+03  0.50400001928E-02 0. -1.
    10030    2    1    2    0    0  0.00000000000E+00  0.00000000000E+00  0.15647580499E+04  0.29328759301E+04  0.24805832915E+04 0.  0.
        3    1    3    3  502    0  0.95116629568E+03  0.48965504132E+02  0.17217264881E+04  0.19676018532E+04  0.10100000352E+00 0.  1.
       -3    1    3    3    0  502 -0.95116629568E+03 -0.48965504132E+02 -0.15696843819E+03  0.96527407685E+03  0.10100000352E+00 0. -1.
</event>
<event>
 5   0  0.6105353E-06  0.2492421E+04  0.7818609E-02  0.8405691E-01
        1   -1    0    0  501    0  0.00000000000E+00  0.00000000000E+00  0.10431192692E+04  0.10431192692E+04  0.50400001928E-02 0. -1.
       -1   -1    0    0    0  501  0.00000000000E+00  0.00000000000E+00 -0.14888424678E+04  0.14888424678E+04  0.50400001928E-02 0.  1.
    10030    2    1    2    0    0  0.00000000000E+00  0.00000000000E+00 -0.44572319859E+03  0.25319617370E+04  0.24924207245E+04 0.  0.
        3    1    3    3  502    0 -0.26776041695E+03  0.10595061343E+04 -0.83135626746E+03  0.13730994659E+04  0.10100000352E+00 0.  1.
       -3    1    3    3    0  502  0.26776041695E+03 -0.10595061343E+04  0.38563306886E+03  0.11588622712E+04  0.10100000352E+00 0. -1.
</event>
<event>
 5   0  0.5164625E-06  0.2494691E+04  0.7818609E-02  0.8404879E-01
       -3   -1    0    0    0  501  0.00000000000E+00  0.00000000000E+00  0.71462795728E+03  0.71462796442E+03  0.10100000352E+00 0.  1.
        3   -1    0    0  501    0  0.00000000000E+00  0.00000000000E+00 -0.21771756946E+04  0.21771756969E+04  0.10100000352E+00 0. -1.
    10030    2    1    2    0    0  0.00000000000E+00  0.00000000000E+00 -0.14625477373E+04  0.28918036614E+04  0.24946908690E+04 0.  0.
        5    1    3    3  502    0 -0.16205467095E+03 -0.57891981166E+03 -0.19981495364E+04  0.20866321009E+04  0.46999998093E+01 0. -1.
       -5    1    3    3    0  502  0.16205467095E+03  0.57891981166E+03  0.53560179904E+03  0.80517156050E+03  0.46999998093E+01 0.  1.
</event>
<event>
 5   0  0.6105353E-06  0.2511494E+04  0.7818609E-02  0.8398902E-01
       -1   -1    0    0    0  501  0.00000000000E+00  0.00000000000E+00  0.81585537904E+03  0.81585537906E+03  0.50400001928E-02 0. -1.
        1   -1    0    0  501    0  0.00000000000E+00  0.00000000000E+00 -0.19328183916E+04  0.19328183916E+04  0.50400001928E-02 0.  1.
    10030    2    1    2    0    0  0.00000000000E+00  0.00000000000E+00 -0.11169630125E+04  0.27486737707E+04  0.25114938037E+04 0.  0.
        3    1    3    3  502    0  0.51031625383E+03  0.51922338157E+03  0.56131860887E+03  0.91929004659E+03  0.10100000352E+00 0. -1.
       -3    1    3    3    0  502 -0.51031625383E+03 -0.51922338157E+03 -0.16782816214E+04  0.18293837241E+04  0.10100000352E+00 0.  1.
</event>
<event>
 5   0  0.6104486E-06  0.2497284E+04  0.7818609E-02  0.8403954E-01
        1   -1    0    0  501    0  0.00000000000E+00  0.00000000000E+00  0.12911096008E+04  0.12911096008E+04  0.50400001928E-02 0.  1.
       -1   -1    0    0    0  501  0.00000000000E+00  0.00000000000E+00 -0.12075711080E+04  0.12075711080E+04  0.50400001928E-02 0. -1.
    10030    2    1    2    0    0  0.00000000000E+00  0.00000000000E+00  0.83538492834E+02  0.24986807088E+04  0.24972838454E+04 0.  0.
        2    1    3    3  502    0  0.47379527625E+03  0.11277052569E+04 -0.20918081502E+03  0.12409503309E+04  0.25500000920E-02 0. -1.
       -2    1    3    3    0  502 -0.47379527625E+03 -0.11277052569E+04  0.29271930785E+03  0.12577303779E+04  0.25500000920E-02 0.  1.
</event>
<event>
 5   0  0.6477703E-06  0.2498420E+04  0.7818609E-02  0.8403549E-01
        1   -1    0    0  501    0  0.00000000000E+00  0.00000000000E+00  0.71919572490E+03  0.71919572492E+03  0.50400001928E-02 0.  1.
       -1   -1    0    0    0  501  0.00000000000E+00  0.00000000000E+00 -0.21698197031E+04  0.21698197031E+04  0.50400001928E-02 0. -1.
    10030    2    1    2    0    0  0.00000000000E+00  0.00000000000E+00 -0.14506239781E+04  0.28890154280E+04  0.24984195439E+04 0.  0.
        5    1    3    3  502    0  0.32490900005E+03 -0.86908538267E+03  0.24189180544E+03  0.95885817315E+03  0.46999998093E+01 0.  1.
       -5    1    3    3    0  502 -0.32490900005E+03  0.86908538267E+03 -0.16925157836E+04  0.19301572548E+04  0.46999998093E+01 0. -1.
</event>
<event>
 5   0  0.1550483E-05  0.2551809E+04  0.7818609E-02  0.8384757E-01
       -2   -1    0    0    0  501  0.00000000000E+00  0.00000000000E+00  0.74028643659E+03  0.74028643660E+03  0.25500000920E-02 0. -1.
        2   -1    0    0  501    0  0.00000000000E+00  0.00000000000E+00 -0.21990570891E+04  0.21990570891E+04  0.25500000920E-02 0.  1.
    10030    2    1    2    0    0  0.00000000000E+00  0.00000000000E+00 -0.14587706525E+04  0.29393435257E+04  0.25518088771E+04 0.  0.
        5    1    3    3  502    0  0.93512288289E+03 -0.40162235175E+03  0.15699437531E+03  0.10297692185E+04  0.46999998093E+01 0.  1.
       -5    1    3    3    0  502 -0.93512288289E+03  0.40162235175E+03 -0.16157650278E+04  0.19095743072E+04  0.46999998093E+01 0. -1.
</event>
<event>
 5   0  0.5164625E-06  0.2508289E+04  0.7818609E-02  0.8400039E-01
       -3   -1    0    0    0  501  0.00000000000E+00  0.00000000000E+00  0.18556860614E+04  0.18556860642E+04  0.10100000352E+00 0. -1.
        3   -1    0    0  501    0  0.00000000000E+00  0.00000000000E+00 -0.84759910936E+03  0.84759911538E+03  0.10100000352E+00 0.  1.
    10030    2    1    2    0    0  0.00000000000E+00  0.00000000000E+00  0.10080869520E+04  0.27032851795E+04  0.25082885518E+04 0.  0.
        2    1    3    3  502    0  0.64488471221E+03 -0.70556672855E+02 -0.65272116315E+03  0.92027140179E+03  0.25500000920E-02 0.  1.
       -2    1    3    3    0  502 -0.64488471221E+03  0.70556672855E+02  0.16608081152E+04  0.17830137777E+04  0.25500000920E-02 0. -1.
</event>
<event>
 5   0  0.1572732E-05  0.2501117E+04  0.7818609E-02  0.8402588E-01
       -2   -1    0    0    0  501  0.00000000000E+00  0.00000000000E+00  0.79749106514E+03  0.79749106514E+03  0.25500000920E-02 0.  1.
        2   -1    0    0  501    0  0.00000000000E+00  0.00000000000E+00 -0.19610211109E+04  0.19610211109E+04  0.25500000920E-02 0. -1.
    10030    2    1    2    0    0  0.00000000000E+00  0.00000000000E+00 -0.11635300457E+04  0.27585121760E+04  0.25011172019E+04 0.  0.
        1    1    3    3  502    0 -0.10604906763E+01 -0.20870876879E+03 -0.19416766915E+04  0.19528617076E+04  0.50400001928E-02 0. -1.
       -1    1    3    3    0  502  0.10604906763E+01  0.20870876879E+03  0.77814664578E+03  0.80565046837E+03  0.50400001928E-02 0.  1.
</event>
<event>
 5   0  0.6290861E-06  0.2460577E+04  0.7818609E-02  0.8417166E-01
        1   -1    0    0  501    0  0.00000000000E+00  0.00000000000E+00  0.16927013521E+04  0.16927013521E+04  0.50400001928E-02 0.  1.
       -1   -1    0    0    0  501  0.00000000000E+00  0.00000000000E+00 -0.89419794371E+03  0.89419794372E+03  0.50400001928E-02 0. -1.
    10030    2    1    2    0    0  0.00000000000E+00  0.00000000000E+00  0.79850340841E+03  0.25868992959E+04  0.24605772237E+04 0.  0.
        1    1    3    3  502    0 -0.65181292253E+03  0.20215906625E+03  0.14754657352E+04  0.16256467973E+04  0.50400001928E-02 0.  1.
       -1    1    3    3    0  502  0.65181292253E+03 -0.20215906625E+03 -0.67696232675E+03  0.96125249851E+03  0.50400001928E-02 0. -1.
</event>
<event>
 5   0  0.1468512E-05  0.2552203E+04  0.7818609E-02  0.8384620E-01
        2   -1    0    0  501    0  0.00000000000E+00  0.00000000000E+00  0.17334540202E+04  0.17334540202E+04  0.25500000920E-02 0.  1.
       -2   -1    0    0    0  501  0.00000000000E+00  0.00000000000E+00 -0.93941618925E+03  0.93941618925E+03  0.25500000920E-02 0. -1.
    10030    2    1    2    0    0  0.00000000000E+00  0.00000000000E+00  0.79403783100E+03  0.26728702095E+04  0.25522027897E+04 0.  0.
        4    1    3    3  502    0 -0.11672106850E+04  0.41944297448E+03  0.71141215515E+03  0.14298328781E+04  0.12699999809E+01 0.  1.
       -4    1    3    3    0  502  0.11672106850E+04 -0.41944297448E+03  0.82625675851E+02  0.12430373314E+04  0.12699999809E+01 0. -1.
</event>
<event>
 5   0  0.1501947E-05  0.2491811E+04  0.7818609E-02  0.8405909E-01
       -2   -1    0    0    0  501  0.00000000000E+00  0.00000000000E+00  0.10458322778E+04  0.10458322778E+04  0.25500000920E-02 0. -1.
        2   -1    0    0  501    0  0.00000000000E+00  0.00000000000E+00 -0.14842536195E+04  0.14842536195E+04  0.25500000920E-02 0.  1.
    10030    2    1    2    0    0  0.00000000000E+00  0.00000000000E+00 -0.43842134170E+03  0.25300858974E+04  0.24918108627E+04 0.  0.
        3    1    3    3  502    0 -0.83060043112E+03 -0.46959289989E+03  0.59426074607E+03  0.11240820310E+04  0.10100000352E+00 0. -1.
       -3    1    3    3    0  502  0.83060043112E+03  0.46959289989E+03 -0.10326820878E+04  0.14060038664E+04  0.10100000352E+00 0.  1.
</event>
<event>
 5   0  0.6105353E-06  0.2474544E+04  0.7818609E-02  0.8412111E-01
        1   -1    0    0  501    0  0.00000000000E+00  0.00000000000E+00  0.21708364616E+04  0.21708364616E+04  0.50400001928E-02 0. -1.
       -1   -1    0    0    0  501  0.00000000000E+00  0.00000000000E+00 -0.70518508636E+03  0.70518508638E+03  0.50400001928E-02 0.  1.
    10030    2    1    2    0    0  0.00000000000E+00  0.00000000000E+00  0.14656513753E+04  0.28760215480E+04  0.24745435924E+04 0.  0.
        3    1    3    3  502    0 -0.95436518893E+03 -0.77389781563E+03  0.56395712661E+03  0.13519535472E+04  0.10100000352E+00 0.  1.
       -3    1    3    3    0  502  0.95436518893E+03  0.77389781563E+03  0.90169424865E+03  0.15240680008E+04  0.10100000352E+00 0. -1.
</event>
<event>
 5   0  0.6477703E-06  0.2495601E+04  0.7818609E-02  0.8404554E-01
        1   -1    0    0  501    0  0.00000000000E+00  0.00000000000E+00  0.82578886175E+03  0.82578886177E+03  0.50400001928E-02 0. -1.
       -1   -1    0    0    0  501  0.00000000000E+00  0.00000000000E+00 -0.18854769761E+04  0.18854769761E+04  0.50400001928E-02 0.  1.
    10030    2    1    2    0    0  0.00000000000E+00  0.00000000000E+00 -0.10596881143E+04  0.27112658379E+04  0.24956008383E+04 0.  0.
        5    1    3    3  502    0 -0.55095314316E+03  0.10902975130E+04 -0.25353104801E+03  0.12476370125E+04  0.46999998093E+01 0. -1.
       -5    1    3    3    0  502  0.55095314316E+03 -0.10902975130E+04 -0.80615706634E+03  0.14636288253E+04  0.46999998093E+01 0.  1.
</event>
<event>
 5   0  0.6346420E-06  0.2509016E+04  0.7818609E-02  0.8399780E-01
       -1   -1    0    0    0  501  0.00000000000E+00  0.00000000000E+00  0.10592599534E+04  0.10592599534E+04  0.50400001928E-02 0. -1.
        1   -1    0    0  501    0  0.00000000000E+00  0.00000000000E+00 -0.14857457097E+04  0.14857457097E+04  0.50400001928E-02 0.  1.
    10030    2    1    2    0    0  0.00000000000E+00  0.00000000000E+00 -0.42648575625E+03  0.25450056631E+04  0.25090164856E+04 0.  0.
        4    1    3    3  502    0 -0.98503935033E+03  0.63219795806E+03 -0.67117455596E+03  0.13492418899E+04  0.12699999809E+01 0.  1.
       -4    1    3    3    0  502  0.98503935033E+03 -0.63219795806E+03  0.24468879971E+03  0.11957637733E+04  0.12699999809E+01 0. -1.
</event>
<event>
 5   0  0.1501947E-05  0.2502402E+04  0.7818609E-02  0.8402130E-01
       -2   -1    0    0    0  501  0.00000000000E+00  0.00000000000E+00  0.17651380750E+04  0.17651380750E+04  0.25500000920E-02 0. -1.
        2   -1    0    0  501    0  0.00000000000E+00  0.00000000000E+00 -0.88690178894E+03  0.88690178894E+03  0.25500000920E-02 0.  1.
    10030    2    1    2    0    0  0.00000000000E+00  0.00000000000E+00  0.87823628604E+03  0.26520398639E+04  0.25024021391E+04 0.  0.
        3    1    3    3  502    0 -0.94502647985E+03  0.44271130014E+03  0.11706363203E+04  0.15682658408E+04  0.10100000352E+00 0. -1.
       -3    1    3    3    0  502  0.94502647985E+03 -0.44271130014E+03 -0.29240003428E+03  0.10837740231E+04  0.10100000352E+00 0.  1.
</event>
<event>
 5   0  0.1526824E-05  0.2592039E+04  0.7818609E-02  0.8370911E-01
       -2   -1    0    0    0  501  0.00000000000E+00  0.00000000000E+00  0.11161252246E+04  0.11161252246E+04  0.25500000920E-02 0.  1.
        2   -1    0    0  501    0  0.00000000000E+00  0.00000000000E+00 -0.15049082092E+04  0.15049082092E+04  0.25500000920E-02 0. -1.
    10030    2    1    2    0    0  0.00000000000E+00  0.00000000000E+00 -0.38878298457E+03  0.26210334338E+04  0.25920385900E+04 0.  0.
        2    1    3    3  502    0  0.33243966697E+02 -0.92294901177E+03  0.72502415137E+03  0.11741380071E+04  0.25500000920E-02 0.  1.
       -2    1    3    3    0  502 -0.33243966697E+02  0.92294901177E+03 -0.11138071359E+04  0.14468954267E+04  0.25500000920E-02 0. -1.
</event>
<event>
 5   0  0.1501947E-05  0.2532929E+04  0.7818609E-02  0.8391347E-01
        2   -1    0    0  501    0  0.00000000000E+00  0.00000000000E+00  0.10098724037E+04  0.10098724037E+04  0.25500000920E-02 0.  1.
       -2   -1    0    0    0  501  0.00000000000E+00  0.00000000000E+00 -0.15882529681E+04  0.15882529681E+04  0.25500000920E-02 0. -1.
    10030    2    1    2    0    0  0.00000000000E+00  0.00000000000E+00 -0.57838056442E+03  0.25981253719E+04  0.25329294050E+04 0.  0.
        3    1    3    3  502    0 -0.73801496052E+03  0.79667179233E+03 -0.95756066463E+03  0.14478516717E+04  0.10100000352E+00 0. -1.
       -3    1    3    3    0  502  0.73801496052E+03 -0.79667179233E+03  0.37918010022E+03  0.11502737001E+04  0.10100000352E+00 0.  1.
</event>
<event>
 5   0  0.1526824E-05  0.2201516E+04  0.7818609E-02  0.8517797E-01
        2   -1    0    0  501    0  0.00000000000E+00  0.00000000000E+00  0.11673538614E+04  0.11673538614E+04  0.25500000920E-02 0. -1.
       -2   -1    0    0    0  501  0.00000000000E+00  0.00000000000E+00 -0.10379611673E+04  0.10379611673E+04  0.25500000920E-02 0.  1.
    10030    2    1    2    0    0  0.00000000000E+00  0.00000000000E+00  0.12939269410E+03  0.22053150286E+04  0.22015158201E+04 0.  0.
        2    1    3    3  502    0  0.82208276195E+02  0.16260089193E+03  0.11521436633E+04  0.11664614317E+04  0.25500000920E-02 0. -1.
       -2    1    3    3    0  502 -0.82208276195E+02 -0.16260089193E+03 -0.10227509692E+04  0.10388535969E+04  0.25500000920E-02 0.  1.
</event>
<event>
 5   0  0.1501947E-05  0.2491436E+04  0.7818609E-02  0.8406043E-01
        2   -1    0    0  501    0  0.00000000000E+00  0.00000000000E+00  0.20893717270E+04  0.20893717270E+04  0.25500000920E-02 0. -1.
       -2   -1    0    0    0  501  0.00000000000E+00  0.00000000000E+00 -0.74271742141E+03  0.74271742141E+03  0.25500000920E-02 0.  1.
    10030    2    1    2    0    0  0.00000000000E+00  0.00000000000E+00  0.13466543056E+04  0.28320891484E+04  0.24914355552E+04 0.  0.
        3    1    3    3  502    0  0.64912646021E+03 -0.71950662597E+03  0.15631461940E+04  0.18391522450E+04  0.10100000352E+00 0. -1.
       -3    1    3    3    0  502 -0.64912646021E+03  0.71950662597E+03 -0.21649188845E+03  0.99293690340E+03  0.10100000352E+00 0.  1.
</event>
<event>
 5   0  0.1550483E-05  0.2518243E+04  0.7818609E-02  0.8396515E-01
       -2   -1    0    0    0  501  0.00000000000E+00  0.00000000000E+00  0.11017074137E+04  0.11017074137E+04  0.25500000920E-02 0.  1.
        2   -1    0    0  501    0  0.00000000000E+00  0.00000000000E+00 -0.14390268465E+04  0.14390268465E+04  0.25500000920E-02 0. -1.
    10030    2    1    2    0    0  0.00000000000E+00  0.00000000000E+00 -0.33731943283E+03  0.25407342603E+04  0.25182426772E+04 0.  0.
        5    1    3    3  502    0 -0.70180399785E+03  0.54441435579E+03  0.73175077001E+03  0.11508245399E+04  0.46999998093E+01 0.  1.
       -5    1    3    3    0  502  0.70180399785E+03 -0.54441435579E+03 -0.10690702028E+04  0.13899097204E+04  0.46999998093E+01 0. -1.
</event>
<event>
 5   0  0.1468512E-05  0.2533595E+04  0.7818609E-02  0.8391114E-01
       -2   -1    0    0    0  501  0.00000000000E+00  0.00000000000E+00  0.12319658233E+04  0.12319658233E+04  0.25500000920E-02 0.  1.
        2   -1    0    0  501    0  0.00000000000E+00  0.00000000000E+00 -0.13026143646E+04  0.13026143646E+04  0.25500000920E-02 0. -1.
    10030    2    1    2    0    0  0.00000000000E+00  0.00000000000E+00 -0.70648541300E+02  0.25345801879E+04  0.25335953727E+04 0.  0.
        4    1    3    3  502    0 -0.58305708469E+03  0.27237322085E+03  0.10562607299E+04  0.12368634030E+04  0.12699999809E+01 0.  1.
       -4    1    3    3    0  502  0.58305708469E+03 -0.27237322085E+03 -0.11269092712E+04  0.12977167849E+04  0.12699999809E+01 0. -1.
</event>
<event>
 5   0  0.1468512E-05  0.2513318E+04  0.7818609E-02  0.8398256E-01
        2   -1    0    0  501    0  0.00000000000E+00  0.00000000000E+00  0.10058681543E+04  0.10058681543E+04  0.25500000920E-02 0. -1.
       -2   -1    0    0    0  501  0.00000000000E+00  0.00000000000E+00 -0.15699795493E+04  0.15699795493E+04  0.25500000920E-02 0.  1.
    10030    2    1    2    0    0  0.00000000000E+00  0.00000000000E+00 -0.56411139499E+03  0.25758477036E+04  0.25133184689E+04 0.  0.
        4    1    3    3  502    0  0.11055675709E+04 -0.35840834166E+03 -0.77191644061E+03  0.13952034968E+04  0.12699999809E+01 0.  1.
       -4    1    3    3    0  502 -0.11055675709E+04  0.35840834166E+03  0.20780504562E+03  0.11806442068E+04  0.12699999809E+01 0. -1.
</event>
<event>
 5   0  0.6290861E-06  0.2504392E+04  0.7818609E-02  0.8401423E-01
        1   -1    0    0  501    0  0.00000000000E+00  0.00000000000E+00  0.17678157444E+04  0.17678157444E+04  0.50400001928E-02 0.  1.
       -1   -1    0    0    0  501  0.00000000000E+00  0.00000000000E+00 -0.88696724834E+03  0.88696724835E+03  0.50400001928E-02 0. -1.
    10030    2    1    2    0    0  0.00000000000E+00  0.00000000000E+00  0.88084849608E+03  0.26547829928E+04  0.25043918754E+04 0.  0.
        1    1    3    3  502    0  0.36552061306E+03  0.11346678885E+04  0.84674072813E+03  0.14622060034E+04  0.50400001928E-02 0. -1.
       -1    1    3    3    0  502 -0.36552061306E+03 -0.11346678885E+04  0.34107767943E+02  0.11925769894E+04  0.50400001928E-02 0.  1.
</event>
<event>
 5   0  0.1526824E-05  0.2462579E+04  0.7818609E-02  0.8416440E-01
        2   -1    0    0  501    0  0.00000000000E+00  0.00000000000E+00  0.17450338137E+04  0.17450338137E+04  0.25500000920E-02 0.  1.
       -2   -1    0    0    0  501  0.00000000000E+00  0.00000000000E+00 -0.86879339864E+03  0.86879339864E+03  0.25500000920E-02 0. -1.
    10030    2    1    2    0    0  0.00000000000E+00  0.00000000000E+00  0.87624041506E+03  0.26138272123E+04  0.24625790203E+04 0.  0.
        2    1    3    3  502    0 -0.59660842846E+03  0.30716422747E+02 -0.70466280822E+03  0.92381534347E+03  0.25500000920E-02 0. -1.
       -2    1    3    3    0  502  0.59660842846E+03 -0.30716422747E+02  0.15809032233E+04  0.16900118689E+04  0.25500000920E-02 0.  1.
</event>
<event>
 5   0  0.6477703E-06  0.2502933E+04  0.7818609E-02  0.8401942E-01
        1   -1    0    0  501    0  0.00000000000E+00  0.00000000000E+00  0.19981233398E+04  0.19981233398E+04  0.50400001928E-02 0.  1.
       -1   -1    0    0    0  501  0.00000000000E+00  0.00000000000E+00 -0.78381937245E+03  0.78381937247E+03  0.50400001928E-02 0. -1.
    10030    2    1    2    0    0  0.00000000000E+00  0.00000000000E+00  0.12143039673E+04  0.27819427122E+04  0.25029325059E+04 0.  0.
        5    1    3    3  502    0  0.10304570068E+04  0.97926262809E+02 -0.17461326682E+03  0.10497347660E+04  0.46999998093E+01 0. -1.
       -5    1    3    3    0  502 -0.10304570068E+04 -0.97926262809E+02  0.13889172341E+04  0.17322079463E+04  0.46999998093E+01 0.  1.
</event>
<event>
 5   0  0.6290861E-06  0.2492675E+04  0.7818609E-02  0.8405600E-01
        1   -1    0    0  501    0  0.00000000000E+00  0.00000000000E+00  0.17245102491E+04  0.17245102492E+04  0.50400001928E-02 0. -1.
       -1   -1    0    0    0  501  0.00000000000E+00  0.00000000000E+00 -0.90075252810E+03  0.90075252812E+03  0.50400001928E-02 0.  1.
    10030    2    1    2    0    0  0.00000000000E+00  0.00000000000E+00  0.82375772105E+03  0.26252627773E+04  0.24926748418E+04 0.  0.
        1    1    3    3  502    0 -0.15139075804E+03 -0.12332229335E+04  0.30869300316E+03  0.12802536216E+04  0.50400001928E-02 0. -1.
       -1    1    3    3    0  502  0.15139075804E+03  0.12332229335E+04  0.51506471788E+03  0.13450091557E+04  0.50400001928E-02 0.  1.
</event>
<event>
 5   0  0.6477703E-06  0.2519691E+04  0.7818609E-02  0.8396004E-01
        1   -1    0    0  501    0  0.00000000000E+00  0.00000000000E+00  0.29577917681E+04  0.29577917681E+04  0.50400001928E-02 0. -1.
       -1   -1    0    0    0  501  0.00000000000E+00  0.00000000000E+00 -0.53661997474E+03  0.53661997477E+03  0.50400001928E-02 0.  1.
    10030    2    1    2    0    0  0.00000000000E+00  0.00000000000E+00  0.24211717934E+04  0.34944117429E+04  0.25196905714E+04 0.  0.
        5    1    3    3  502    0 -0.47994655706E+03  0.39764695169E+03  0.27289819390E+04  0.27992563850E+04  0.46999998093E+01 0. -1.
       -5    1    3    3    0  502  0.47994655706E+03 -0.39764695169E+03 -0.30781014561E+03  0.69515535786E+03  0.46999998093E+01 0.  1.
</event>
<event>
 5   0  0.1572732E-05  0.2498282E+04  0.7818609E-02  0.8403598E-01
        2   -1    0    0  501    0  0.00000000000E+00  0.00000000000E+00  0.25395155575E+04  0.25395155575E+04  0.25500000920E-02 0. -1.
       -2   -1    0    0    0  501  0.00000000000E+00  0.00000000000E+00 -0.61442935467E+03  0.61442935467E+03  0.25500000920E-02 0.  1.
    10030    2    1    2    0    0  0.00000000000E+00  0.00000000000E+00  0.19250862029E+04  0.31539449122E+04  0.24982817337E+04 0.  0.
        1    1    3    3  502    0  0.28536560169E+02 -0.43405854414E+03  0.24408080681E+04  0.24792670651E+04  0.50400001928E-02 0. -1.
       -1    1    3    3    0  502 -0.28536560169E+02  0.43405854414E+03 -0.51572186523E+03  0.67467784706E+03  0.50400001928E-02 0.  1.
</event>
<event>
 5   0  0.1501947E-05  0.2458621E+04  0.7818609E-02  0.8417877E-01
        2   -1    0    0  501    0  0.00000000000E+00  0.00000000000E+00  0.75596310257E+03  0.75596310258E+03  0.25500000920E-02 0.  1.
       -2   -1    0    0    0  501  0.00000000000E+00  0.00000000000E+00 -0.19990454743E+04  0.19990454743E+04  0.25500000920E-02 0. -1.
    10030    2    1    2    0    0  0.00000000000E+00  0.00000000000E+00 -0.12430823717E+04  0.27550085768E+04  0.24586212550E+04 0.  0.
        3    1    3    3  502    0  0.14123117414E+02  0.12060859410E+04 -0.35551527421E+03  0.12574712243E+04  0.10100000352E+00 0. -1.
       -3    1    3    3    0  502 -0.14123117414E+02 -0.12060859410E+04 -0.88756709749E+03  0.14975373525E+04  0.10100000352E+00 0.  1.
</event>
<event>
 5   0  0.1550483E-05  0.2498995E+04  0.7818609E-02  0.8403344E-01
        2   -1    0    0  501    0  0.00000000000E+00  0.00000000000E+00  0.12711027326E+04  0.12711027326E+04  0.25500000920E-02 0.  1.
       -2   -1    0    0    0  501  0.00000000000E+00  0.00000000000E+00 -0.12282593133E+04  0.12282593133E+04  0.25500000920E-02 0. -1.
    10030    2    1    2    0    0  0.00000000000E+00  0.00000000000E+00  0.42843419299E+02  0.24993620460E+04  0.24989948136E+04 0.  0.
        5    1    3    3  502    0  0.99705092643E+03  0.38338703184E+03 -0.62684443876E+03  0.12385686119E+04  0.46999998093E+01 0. -1.
       -5    1    3    3    0  502 -0.99705092643E+03 -0.38338703184E+03  0.66968785805E+03  0.12607934340E+04  0.46999998093E+01 0.  1.
</event>
<event>
 5   0  0.6477703E-06  0.2446497E+04  0.7818609E-02  0.8422298E-01
        1   -1    0    0  501    0  0.00000000000E+00  0.00000000000E+00  0.11588296056E+04  0.11588296056E+04  0.50400001928E-02 0.  1.
       -1   -1    0    0    0  501  0.00000000000E+00  0.00000000000E+00 -0.12912487545E+04  0.12912487546E+04  0.50400001928E-02 0. -1.
    10030    2    1    2    0    0  0.00000000000E+00  0.00000000000E+00 -0.13241914895E+03  0.24500783602E+04  0.24464973207E+04 0.  0.
        5    1    3    3  502    0 -0.85276985169E+03 -0.26686658642E+03 -0.90282509549E+03  0.12702556585E+04  0.46999998093E+01 0. -1.
       -5    1    3    3    0  502  0.85276985169E+03  0.26686658642E+03  0.77040594655E+03  0.11798227017E+04  0.46999998093E+01 0.  1.
</event>
<event>
 5   0  0.1501947E-05  0.2500839E+04  0.7818609E-02  0.8402687E-01
       -2   -1    0    0    0  501  0.00000000000E+00  0.00000000000E+00  0.12565002856E+04  0.12565002856E+04  0.25500000920E-02 0. -1.
        2   -1    0    0  501    0  0.00000000000E+00  0.00000000000E+00 -0.12443681916E+04  0.12443681917E+04  0.25500000920E-02 0.  1.
    10030    2    1    2    0    0  0.00000000000E+00  0.00000000000E+00  0.12132093923E+02  0.25008684772E+04  0.25008390497E+04 0.  0.
        3    1    3    3  502    0  0.11862949745E+04  0.61800161258E+02  0.39649854926E+03  0.12523282862E+04  0.10100000352E+00 0. -1.
       -3    1    3    3    0  502 -0.11862949745E+04 -0.61800161258E+02 -0.38436645534E+03  0.12485401911E+04  0.10100000352E+00 0.  1.
</event>
<event>
 5   0  0.1468512E-05  0.2499712E+04  0.7818609E-02  0.8403088E-01
       -2   -1    0    0    0  501  0.00000000000E+00  0.00000000000E+00  0.64184949132E+03  0.64184949132E+03  0.25500000920E-02 0. -1.
        2   -1    0    0  501    0  0.00000000000E+00  0.00000000000E+00 -0.24338095921E+04  0.24338095921E+04  0.25500000920E-02 0.  1.
    10030    2    1    2    0    0  0.00000000000E+00  0.00000000000E+00 -0.17919601008E+04  0.30756590834E+04  0.24997115423E+04 0.  0.
        4    1    3    3  502    0 -0.30238681830E+03  0.19608810010E+03 -0.23684879724E+04  0.23957514937E+04  0.12699999809E+01 0.  1.
       -4    1    3    3    0  502  0.30238681830E+03 -0.19608810010E+03  0.57652787167E+03  0.67990758975E+03  0.12699999809E+01 0. -1.
</event>
<event>
 5   0  0.1550483E-05  0.2495758E+04  0.7818609E-02  0.8404498E-01
       -2   -1    0    0    0  501  0.00000000000E+00  0.00000000000E+00  0.14682469612E+04  0.14682469612E+04  0.25500000920E-02 0.  1.
        2   -1    0    0  501    0  0.00000000000E+00  0.00000000000E+00 -0.10605856808E+04  0.10605856808E+04  0.25500000920E-02 0. -1.
    10030    2    1    2    0    0  0.00000000000E+00  0.00000000000E+00  0.40766128042E+03  0.25288326420E+04  0.24957577630E+04 0.  0.
        5    1    3    3  502    0  0.17757421128E+02 -0.61539684634E+03 -0.89598055899E+03  0.10871209025E+04  0.46999998093E+01 0. -1.
       -5    1    3    3    0  502 -0.17757421128E+02  0.61539684634E+03  0.13036418394E+04  0.14417117395E+04  0.46999998093E+01 0.  1.
</event>
<event>
 5   0  0.6477703E-06  0.2490617E+04  0.7818609E-02  0.8406336E-01
        1   -1    0    0  501    0  0.00000000000E+00  0.00000000000E+00  0.15739070001E+04  0.15739070001E+04  0.50400001928E-02 0. -1.
       -1   -1    0    0    0  501  0.00000000000E+00  0.00000000000E+00 -0.98531465668E+03  0.98531465669E+03  0.50400001928E-02 0.  1.
    10030    2    1    2    0    0  0.00000000000E+00  0.00000000000E+00  0.58859234343E+03  0.25592216568E+04  0.24906173014E+04 0.  0.
        5    1    3    3  502    0  0.40932762597E+03 -0.22938851661E+03  0.14795877743E+04  0.15522146336E+04  0.46999998093E+01 0. -1.
       -5    1    3    3    0  502 -0.40932762597E+03  0.22938851661E+03 -0.89099543087E+03  0.10070070232E+04  0.46999998093E+01 0.  1.
</event>
<event>
 5   0  0.1501947E-05  0.2484427E+04  0.7818609E-02  0.8408555E-01
        2   -1    0    0  501    0  0.00000000000E+00  0.00000000000E+00  0.14528446824E+04  0.14528446824E+04  0.25500000920E-02 0.  1.
       -2   -1    0    0    0  501  0.00000000000E+00  0.00000000000E+00 -0.10621190835E+04  0.10621190835E+04  0.25500000920E-02 0. -1.
    10030    2    1    2    0    0  0.00000000000E+00  0.00000000000E+00  0.39072559897E+03  0.25149637659E+04  0.24844267448E+04 0.  0.
        3    1    3    3  502    0 -0.32470660286E+02 -0.11108126483E+04 -0.36655919359E+03  0.11701814970E+04  0.10100000352E+00 0. -1.
       -3    1    3    3    0  502  0.32470660286E+02  0.11108126483E+04  0.75728479256E+03  0.13447822689E+04  0.10100000352E+00 0.  1.
</event>
<event>
 5   0  0.1572732E-05  0.2480682E+04  0.7818609E-02  0.8409900E-01
        2   -1    0    0  501    0  0.00000000000E+00  0.00000000000E+00  0.16009709656E+04  0.16009709656E+04  0.25500000920E-02 0.  1.
       -2   -1    0    0    0  501  0.00000000000E+00  0.00000000000E+00 -0.96094571630E+03  0.96094571630E+03  0.25500000920E-02 0. -1.
    10030    2    1    2    0    0  0.00000000000E+00  0.00000000000E+00  0.64002524931E+03  0.25619166819E+04  0.24806823185E+04 0.  0.
        1    1    3    3  502    0  0.10186077356E+04  0.42415326205E+03 -0.26508968198E+03  0.11347864329E+04  0.50400001928E-02 0. -1.
       -1    1    3    3    0  502 -0.10186077356E+04 -0.42415326205E+03  0.90511493128E+03  0.14271302490E+04  0.50400001928E-02 0.  1.
</event>
<event>
 5   0  0.1468512E-05  0.2465163E+04  0.7818609E-02  0.8415502E-01
       -2   -1    0    0    0  501  0.00000000000E+00  0.00000000000E+00  0.83179030742E+03  0.83179030743E+03  0.25500000920E-02 0. -1.
        2   -1    0    0  501    0  0.00000000000E+00  0.00000000000E+00 -0.18264908353E+04  0.18264908353E+04  0.25500000920E-02 0.  1.
    10030    2    1    2    0    0  0.00000000000E+00  0.00000000000E+00 -0.99470052783E+03  0.26582811427E+04  0.24651631779E+04 0.  0.
        4    1    3    3  502    0  0.90357810650E+03 -0.23047870616E+03 -0.13665220751E+04  0.16543754178E+04  0.12699999809E+01 0.  1.
       -4    1    3    3    0  502 -0.90357810650E+03  0.23047870616E+03  0.37182154723E+03  0.10039057249E+04  0.12699999809E+01 0. -1.
</event>
<event>
 5   0  0.1572732E-05  0.2507359E+04  0.7818609E-02  0.8400368E-01
       -2   -1    0    0    0  501  0.00000000000E+00  0.00000000000E+00  0.67361365151E+03  0.67361365151E+03  0.25500000920E-02 0.  1.
        2   -1    0    0  501    0  0.00000000000E+00  0.00000000000E+00 -0.23332553786E+04  0.23332553786E+04  0.25500000920E-02 0. -1.
    10030    2    1    2    0    0  0.00000000000E+00  0.00000000000E+00 -0.16596417271E+04  0.30068690301E+04  0.25073593085E+04 0.  0.
        1    1    3    3  502    0 -0.35118267517E+03 -0.57196389050E+03 -0.20996560816E+04  0.22043202182E+04  0.50400001928E-02 0. -1.
       -1    1    3    3    0  502  0.35118267517E+03  0.57196389050E+03  0.44001435447E+03  0.80254881194E+03  0.50400001928E-02 0.  1.
</event>
<event>
 5   0  0.1501947E-05  0.2379944E+04  0.7818609E-02  0.8447051E-01
       -2   -1    0    0    0  501  0.00000000000E+00  0.00000000000E+00  0.10987850320E+04  0.10987850320E+04  0.25500000920E-02 0.  1.
        2   -1    0    0  501    0  0.00000000000E+00  0.00000000000E+00 -0.12887262146E+04  0.12887262146E+04  0.25500000920E-02 0. -1.
    10030    2    1    2    0    0  0.00000000000E+00  0.00000000000E+00 -0.18994118258E+03  0.23875112466E+04  0.23799437598E+04 0.  0.
        3    1    3    3  502    0  0.44784484714E+03  0.10933208302E+04 -0.23725818391E+03  0.12050754752E+04  0.10100000352E+00 0. -1.
       -3    1    3    3    0  502 -0.44784484714E+03 -0.10933208302E+04  0.47317001339E+02  0.11824357715E+04  0.10100000352E+00 0.  1.
</event>
<event>
 5   0  0.1526824E-05  0.2513627E+04  0.7818609E-02  0.8398147E-01
       -2   -1    0    0    0  501  0.00000000000E+00  0.00000000000E+00  0.12354971342E+04  0.12354971342E+04  0.25500000920E-02 0. -1.
        2   -1    0    0  501    0  0.00000000000E+00  0.00000000000E+00 -0.12784980528E+04  0.12784980528E+04  0.25500000920E-02 0.  1.
    10030    2    1    2    0    0  0.00000000000E+00  0.00000000000E+00 -0.43000918566E+02  0.25139951870E+04  0.25136274030E+04 0.  0.
        2    1    3    3  502    0  0.12458965262E+03 -0.52904623950E+03 -0.11548777096E+04  0.12763835745E+04  0.25500000920E-02 0.  1.
       -2    1    3    3    0  502 -0.12458965262E+03  0.52904623950E+03  0.11118767910E+04  0.12376116125E+04  0.25500000920E-02 0. -1.
</event>
<event>
 5   0  0.1572732E-05  0.2474502E+04  0.7818609E-02  0.8412126E-01
        2   -1    0    0  501    0  0.00000000000E+00  0.00000000000E+00  0.16152930526E+04  0.16152930526E+04  0.25500000920E-02 0.  1.
       -2   -1    0    0    0  501  0.00000000000E+00  0.00000000000E+00 -0.94768539936E+03  0.94768539937E+03  0.25500000920E-02 0. -1.
    10030    2    1    2    0    0  0.00000000000E+00  0.00000000000E+00  0.66760765321E+03  0.25629784519E+04  0.24745016804E+04 0.  0.
        1    1    3    3  502    0 -0.95546189091E+03 -0.57271136433E+03 -0.22385586844E+03  0.11362293702E+04  0.50400001928E-02 0. -1.
       -1    1    3    3    0  502  0.95546189091E+03  0.57271136433E+03  0.89146352165E+03  0.14267490818E+04  0.50400001928E-02 0.  1.
</event>
<event>
 5   0  0.1526824E-05  0.2191117E+04  0.7818609E-02  0.8522134E-01
       -2   -1    0    0    0  501  0.00000000000E+00  0.00000000000E+00  0.15774143991E+04  0.15774143991E+04  0.25500000920E-02 0.  1.
        2   -1    0    0  501    0  0.00000000000E+00  0.00000000000E+00 -0.76089621891E+03  0.76089621892E+03  0.25500000920E-02 0. -1.
    10030    2    1    2    0    0  0.00000000000E+00  0.00000000000E+00  0.81651818017E+03  0.23383106180E+04  0.21911172054E+04 0.  0.
        2    1    3    3  502    0 -0.23022765312E+02  0.31845142775E+03 -0.71014443238E+03  0.77861831112E+03  0.25500000920E-02 0. -1.
       -2    1    3    3    0  502  0.23022765312E+02 -0.31845142775E+03  0.15266626126E+04  0.15596923069E+04  0.25500000920E-02 0.  1.
</event>
<event>
 5   0  0.6290861E-06  0.2322719E+04  0.7818609E-02  0.8469017E-01
        1   -1    0    0  501    0  0.00000000000E+00  0.00000000000E+00  0.26887366248E+04  0.26887366249E+04  0.50400001928E-02 0. -1.
       -1   -1    0    0    0  501  0.00000000000E+00  0.00000000000E+00 -0.50163187739E+03  0.50163187741E+03  0.50400001928E-02 0.  1.
    10030    2    1    2    0    0  0.00000000000E+00  0.00000000000E+00  0.21871047475E+04  0.31903685023E+04  0.23227190971E+04 0.  0.
        1    1    3    3  502    0  0.36718474372E+03 -0.10914056729E+04  0.13007945745E+04  0.17372557394E+04  0.50400001928E-02 0. -1.
       -1    1    3    3    0  502 -0.36718474372E+03  0.10914056729E+04  0.88631017293E+03  0.14531127629E+04  0.50400001928E-02 0.  1.
</event>
<event>
 5   0  0.6104486E-06  0.2499944E+04  0.7818609E-02  0.8403005E-01
       -1   -1    0    0    0  501  0.00000000000E+00  0.00000000000E+00  0.18257820417E+04  0.18257820417E+04  0.50400001928E-02 0.  1.
        1   -1    0    0  501    0  0.00000000000E+00  0.00000000000E+00 -0.85575942849E+03  0.85575942851E+03  0.50400001928E-02 0. -1.
    10030    2    1    2    0    0  0.00000000000E+00  0.00000000000E+00  0.97002261322E+03  0.26815414702E+04  0.24999441567E+04 0.  0.
        2    1    3    3  502    0  0.35767391641E+03  0.47311179091E+03  0.16652399971E+04  0.17677074546E+04  0.25500000920E-02 0.  1.
       -2    1    3    3    0  502 -0.35767391641E+03 -0.47311179091E+03 -0.69521738390E+03  0.91383401559E+03  0.25500000920E-02 0. -1.
</event>
<event>
 5   0  0.6346420E-06  0.2505395E+04  0.7818609E-02  0.8401066E-01
        1   -1    0    0  501    0  0.00000000000E+00  0.00000000000E+00  0.17284350495E+04  0.17284350495E+04  0.50400001928E-02 0. -1.
       -1   -1    0    0    0  501  0.00000000000E+00  0.00000000000E+00 -0.90790291079E+03  0.90790291081E+03  0.50400001928E-02 0.  1.
    10030    2    1    2    0    0  0.00000000000E+00  0.00000000000E+00  0.82053213867E+03  0.26363379603E+04  0.25053951485E+04 0.  0.
        4    1    3    3  502    0 -0.49745290481E+03 -0.72740933512E+03  0.13471157853E+04  0.16097534859E+04  0.12699999809E+01 0. -1.
       -4    1    3    3    0  502  0.49745290481E+03  0.72740933512E+03 -0.52658364664E+03  0.10265844744E+04  0.12699999809E+01 0.  1.
</event>
<event>
 5   0  0.6477703E-06  0.2534669E+04  0.7818609E-02  0.8390738E-01
        1   -1    0    0  501    0  0.00000000000E+00  0.00000000000E+00  0.80536417789E+03  0.80536417790E+03  0.50400001928E-02 0.  1.
       -1   -1    0    0    0  501  0.00000000000E+00  0.00000000000E+00 -0.19942985406E+04  0.19942985406E+04  0.50400001928E-02 0. -1.
    10030    2    1    2    0    0  0.00000000000E+00  0.00000000000E+00 -0.11889343627E+04  0.27996627185E+04  0.25346688972E+04 0.  0.
        5    1    3    3  502    0 -0.47896429564E+03  0.91927461279E+03  0.21090028332E+03  0.10578154989E+04  0.46999998093E+01 0.  1.
       -5    1    3    3    0  502  0.47896429564E+03 -0.91927461279E+03 -0.13998346460E+04  0.17418472196E+04  0.46999998093E+01 0. -1.
</event>
<event>
 5   0  0.1501947E-05  0.2505022E+04  0.7818609E-02  0.8401199E-01
        2   -1    0    0  501    0  0.00000000000E+00  0.00000000000E+00  0.17560194165E+04  0.17560194165E+04  0.25500000920E-02 0.  1.
       -2   -1    0    0    0  501  0.00000000000E+00  0.00000000000E+00 -0.89337507448E+03  0.89337507449E+03  0.25500000920E-02 0. -1.
    10030    2    1    2    0    0  0.00000000000E+00  0.00000000000E+00  0.86264434206E+03  0.26493944910E+04  0.25050221373E+04 0.  0.
        3    1    3    3  502    0 -0.81386570319E+03 -0.14988258324E+03 -0.56304526937E+03  0.10009306455E+04  0.10100000352E+00 0. -1.
       -3    1    3    3    0  502  0.81386570319E+03  0.14988258324E+03  0.14256896114E+04  0.16484638455E+04  0.10100000352E+00 0.  1.
</event>
<event>
 5   0  0.1501947E-05  0.2501223E+04  0.7818609E-02  0.8402550E-01
        2   -1    0    0  501    0  0.00000000000E+00  0.00000000000E+00  0.18220744922E+04  0.18220744922E+04  0.25500000920E-02 0. -1.
       -2   -1    0    0    0  501  0.00000000000E+00  0.00000000000E+00 -0.85837838053E+03  0.85837838053E+03  0.25500000920E-02 0.  1.
    10030    2    1    2    0    0  0.00000000000E+00  0.00000000000E+00  0.96369611170E+03  0.26804528728E+04  0.25012231822E+04 0.  0.
        3    1    3    3  502    0 -0.75028632833E+02 -0.20448936604E+02 -0.85578481595E+03  0.85931083792E+03  0.10100000352E+00 0.  1.
       -3    1    3    3    0  502  0.75028632833E+02  0.20448936604E+02  0.18194809277E+04  0.18211420348E+04  0.10100000352E+00 0. -1.
</event>
<event>
 5   0  0.6105353E-06  0.2518580E+04  0.7818609E-02  0.8396396E-01
        1   -1    0    0  501    0  0.00000000000E+00  0.00000000000E+00  0.15102658577E+04  0.15102658577E+04  0.50400001928E-02 0. -1.
       -1   -1    0    0    0  501  0.00000000000E+00  0.00000000000E+00 -0.10500211634E+04  0.10500211634E+04  0.50400001928E-02 0.  1.
    10030    2    1    2    0    0  0.00000000000E+00  0.00000000000E+00  0.46024469437E+03  0.25602870211E+04  0.25185798482E+04 0.  0.
        3    1    3    3  502    0  0.86697740555E+03  0.47668069881E+03 -0.56184023518E+03  0.11377779970E+04  0.10100000352E+00 0.  1.
       -3    1    3    3    0  502 -0.86697740555E+03 -0.47668069881E+03  0.10220849295E+04  0.14225090241E+04  0.10100000352E+00 0. -1.
</event>
<event>
 5   0  0.6346420E-06  0.2490659E+04  0.7818609E-02  0.8406321E-01
        1   -1    0    0  501    0  0.00000000000E+00  0.00000000000E+00  0.19445225116E+04  0.19445225116E+04  0.50400001928E-02 0.  1.
       -1   -1    0    0    0  501  0.00000000000E+00  0.00000000000E+00 -0.79754579235E+03  0.79754579237E+03  0.50400001928E-02 0. -1.
    10030    2    1    2    0    0  0.00000000000E+00  0.00000000000E+00  0.11469767193E+04  0.27420683040E+04  0.24906591475E+04 0.  0.
        4    1    3    3  502    0  0.95895995345E+03 -0.46314202921E+03 -0.13722790426E+03  0.10737494317E+04  0.12699999809E+01 0. -1.
       -4    1    3    3    0  502 -0.95895995345E+03  0.46314202921E+03  0.12842046235E+04  0.16683188723E+04  0.12699999809E+01 0.  1.
</event>
<event>
 5   0  0.6477703E-06  0.2508738E+04  0.7818609E-02  0.8399879E-01
        1   -1    0    0  501    0  0.00000000000E+00  0.00000000000E+00  0.15460922954E+04  0.15460922954E+04  0.50400001928E-02 0.  1.
       -1   -1    0    0    0  501  0.00000000000E+00  0.00000000000E+00 -0.10176894672E+04  0.10176894672E+04  0.50400001928E-02 0. -1.
    10030    2    1    2    0    0  0.00000000000E+00  0.00000000000E+00  0.52840282823E+03  0.25637817626E+04  0.25087382042E+04 0.  0.
        5    1    3    3  502    0  0.91135584646E+03  0.64970125022E+03  0.84296513293E+03  0.14011757558E+04  0.46999998093E+01 0.  1.
       -5    1    3    3    0  502 -0.91135584646E+03 -0.64970125022E+03 -0.31456230471E+03  0.11626060068E+04  0.46999998093E+01 0. -1.
</event>
<event>
 5   0  0.1468512E-05  0.2454943E+04  0.7818609E-02  0.8419215E-01
        2   -1    0    0  501    0  0.00000000000E+00  0.00000000000E+00  0.14002795353E+04  0.14002795353E+04  0.25500000920E-02 0. -1.
       -2   -1    0    0    0  501  0.00000000000E+00  0.00000000000E+00 -0.10759896143E+04  0.10759896143E+04  0.25500000920E-02 0.  1.
    10030    2    1    2    0    0  0.00000000000E+00  0.00000000000E+00  0.32428992107E+03  0.24762691496E+04  0.24549429624E+04 0.  0.
        4    1    3    3  502    0 -0.59190235167E+03  0.36935652210E+03 -0.85653506249E+03  0.11047291797E+04  0.12699999809E+01 0.  1.
       -4    1    3    3    0  502  0.59190235167E+03 -0.36935652210E+03  0.11808249836E+04  0.13715399699E+04  0.12699999809E+01 0. -1.
</event>
<event>
 5   0  0.1468512E-05  0.2515467E+04  0.7818609E-02  0.8397496E-01
       -2   -1    0    0    0  501  0.00000000000E+00  0.00000000000E+00  0.90321897985E+03  0.90321897986E+03  0.25500000920E-02 0. -1.
        2   -1    0    0  501    0  0.00000000000E+00  0.00000000000E+00 -0.17513947850E+04  0.17513947850E+04  0.25500000920E-02 0.  1.
    10030    2    1    2    0    0  0.00000000000E+00  0.00000000000E+00 -0.84817580514E+03  0.26546137649E+04  0.25154665659E+04 0.  0.
        4    1    3    3  502    0 -0.72624659423E+03 -0.45497972609E+03 -0.13955816775E+04  0.16377089174E+04  0.12699999809E+01 0.  1.
       -4    1    3    3    0  502  0.72624659423E+03  0.45497972609E+03  0.54740587233E+03  0.10169048474E+04  0.12699999809E+01 0. -1.
</event>
<event>
 5   0  0.1501947E-05  0.2493003E+04  0.7818609E-02  0.8405482E-01
        2   -1    0    0  501    0  0.00000000000E+00  0.00000000000E+00  0.11551020839E+04  0.11551020839E+04  0.25500000920E-02 0.  1.
       -2   -1    0    0    0  501  0.00000000000E+00  0.00000000000E+00 -0.13451335551E+04  0.13451335551E+04  0.25500000920E-02 0. -1.
    10030    2    1    2    0    0  0.00000000000E+00  0.00000000000E+00 -0.19003147120E+03  0.25002356391E+04  0.24930034679E+04 0.  0.
        3    1    3    3  502    0 -0.25633428827E+03  0.11563586364E+04  0.29456192301E+03  0.12205078042E+04  0.10100000352E+00 0.  1.
       -3    1    3    3    0  502  0.25633428827E+03 -0.11563586364E+04 -0.48459339421E+03  0.12797278349E+04  0.10100000352E+00 0. -1.
</event>
<event>
 5   0  0.6290861E-06  0.2511996E+04  0.7818609E-02  0.8398725E-01
        1   -1    0    0  501    0  0.00000000000E+00  0.00000000000E+00  0.26895576582E+04  0.26895576582E+04  0.50400001928E-02 0.  1.
       -1   -1    0    0    0  501  0.00000000000E+00  0.00000000000E+00 -0.58653897237E+03  0.58653897239E+03  0.50400001928E-02 0. -1.
    10030    2    1    2    0    0  0.00000000000E+00  0.00000000000E+00  0.21030186859E+04  0.32760966306E+04  0.25119955295E+04 0.  0.
        1    1    3    3  502    0  0.12493729980E+04 -0.10327129825E+02  0.88403074139E+03  0.15305390846E+04  0.50400001928E-02 0.  1.
       -1    1    3    3    0  502 -0.12493729980E+04  0.10327129825E+02  0.12189879445E+04  0.17455575460E+04  0.50400001928E-02 0. -1.
</event>
<event>
 5   0  0.1468512E-05  0.2476409E+04  0.7818609E-02  0.8411438E-01
       -2   -1    0    0    0  501  0.00000000000E+00  0.00000000000E+00  0.12569503718E+04  0.12569503718E+04  0.25500000920E-02 0. -1.
        2   -1    0    0  501    0  0.00000000000E+00  0.00000000000E+00 -0.12197382188E+04  0.12197382188E+04  0.25500000920E-02 0.  1.
    10030    2    1    2    0    0  0.00000000000E+00  0.00000000000E+00  0.37212152987E+02  0.24766885907E+04  0.24764090193E+04 0.  0.
        4    1    3    3  502    0  0.30581736796E+02 -0.21087768229E+03  0.12384749582E+04  0.12566727794E+04  0.12699999809E+01 0. -1.
       -4    1    3    3    0  502 -0.30581736796E+02  0.21087768229E+03 -0.12012628052E+04  0.12200158112E+04  0.12699999809E+01 0.  1.
</event>
<event>
 5   0  0.6346420E-06  0.2497261E+04  0.7818609E-02  0.8403962E-01
       -1   -1    0    0    0  501  0.00000000000E+00  0.00000000000E+00  0.16923525822E+04  0.16923525822E+04  0.50400001928E-02 0.  1.
        1   -1    0    0  501    0  0.00000000000E+00  0.00000000000E+00 -0.92124927502E+03  0.92124927504E+03  0.50400001928E-02 0. -1.
    10030    2    1    2    0    0  0.00000000000E+00  0.00000000000E+00  0.77110330713E+03  0.26136018572E+04  0.24972613715E+04 0.  0.
        4    1    3    3  502    0  0.58084778574E+02 -0.86468607442E+03  0.13263288652E+04  0.15843628752E+04  0.12699999809E+01 0.  1.
       -4    1    3    3    0  502 -0.58084778574E+02  0.86468607442E+03 -0.55522555807E+03  0.10292389820E+04  0.12699999809E+01 0. -1.
</event>
<event>
 5   0  0.1572732E-05  0.2500096E+04  0.7818609E-02  0.8402951E-01
       -2   -1    0    0    0  501  0.00000000000E+00  0.00000000000E+00  0.12033910394E+04  0.12033910394E+04  0.25500000920E-02 0. -1.
        2   -1    0    0  501    0  0.00000000000E+00  0.00000000000E+00 -0.12985138945E+04  0.12985138945E+04  0.25500000920E-02 0.  1.
    10030    2    1    2    0    0  0.00000000000E+00  0.00000000000E+00 -0.95122855115E+02  0.25019049338E+04  0.25000959862E+04 0.  0.
        1    1    3    3  502    0  0.42724936105E+03 -0.40523801084E+03 -0.11510197339E+04  0.12929061412E+04  0.50400001928E-02 0.  1.
       -1    1    3    3    0  502 -0.42724936105E+03  0.40523801084E+03  0.10558968788E+04  0.12089987927E+04  0.50400001928E-02 0. -1.
</event>
<event>
 5   0  0.1550483E-05  0.2434070E+04  0.7818609E-02  0.8426857E-01
       -2   -1    0    0    0  501  0.00000000000E+00  0.00000000000E+00  0.74970204631E+03  0.74970204632E+03  0.25500000920E-02 0. -1.
        2   -1    0    0  501    0  0.00000000000E+00  0.00000000000E+00 -0.19756845875E+04  0.19756845875E+04  0.25500000920E-02 0.  1.
    10030    2    1    2    0    0  0.00000000000E+00  0.00000000000E+00 -0.12259825412E+04  0.27253866338E+04  0.24340704823E+04 0.  0.
        5    1    3    3  502    0  0.66537521116E+03  0.92742233348E+03 -0.14017704710E+03  0.11500035003E+04  0.46999998093E+01 0. -1.
       -5    1    3    3    0  502 -0.66537521116E+03 -0.92742233348E+03 -0.10858054941E+04  0.15753831335E+04  0.46999998093E+01 0.  1.
</event>
<event>
 5   0  0.6290861E-06  0.2527245E+04  0.7818609E-02  0.8393343E-01
        1   -1    0    0  501    0  0.00000000000E+00  0.00000000000E+00  0.23995785530E+04  0.23995785530E+04  0.50400001928E-02 0. -1.
       -1   -1    0    0    0  501  0.00000000000E+00  0.00000000000E+00 -0.66542591112E+03  0.66542591114E+03  0.50400001928E-02 0.  1.
    10030    2    1    2    0    0  0.00000000000E+00  0.00000000000E+00  0.17341526419E+04  0.30650044641E+04  0.25272449386E+04 0.  0.
        1    1    3    3  502    0 -0.92548128159E+03 -0.23865422295E+03  0.18695663206E+04  0.20997022808E+04  0.50400001928E-02 0. -1.
       -1    1    3    3    0  502  0.92548128159E+03  0.23865422295E+03 -0.13541367878E+03  0.96530218333E+03  0.50400001928E-02 0.  1.
</event>
<event>
 5   0  0.6290861E-06  0.2494671E+04  0.7818609E-02  0.8404886E-01
        1   -1    0    0  501    0  0.00000000000E+00  0.00000000000E+00  0.17548026736E+04  0.17548026736E+04  0.50400001928E-02 0.  1.
       -1   -1    0    0    0  501  0.00000000000E+00  0.00000000000E+00 -0.88662149821E+03  0.88662149822E+03  0.50400001928E-02 0. -1.
    10030    2    1    2    0    0  0.00000000000E+00  0.00000000000E+00  0.86818117535E+03  0.26414241718E+04  0.24946709406E+04 0.  0.
        1    1    3    3  502    0 -0.18573715802E+03  0.12055046400E+04  0.71041402028E+03  0.14115338498E+04  0.50400001928E-02 0.  1.
       -1    1    3    3    0  502  0.18573715802E+03 -0.12055046400E+04  0.15776715507E+03  0.12298903220E+04  0.50400001928E-02 0. -1.
</event>
<event>
 5   0  0.6346420E-06  0.2476108E+04  0.7818609E-02  0.8411547E-01
       -1   -1    0    0    0  501  0.00000000000E+00  0.00000000000E+00  0.94902322138E+03  0.94902322139E+03  0.50400001928E-02 0.  1.
        1   -1    0    0  501    0  0.00000000000E+00  0.00000000000E+00 -0.16151110878E+04  0.16151110878E+04  0.50400001928E-02 0. -1.
    10030    2    1    2    0    0  0.00000000000E+00  0.00000000000E+00 -0.66608786639E+03  0.25641343092E+04  0.24761081781E+04 0.  0.
        4    1    3    3  502    0  0.43800009867E+03 -0.96923566977E+03  0.32313418248E+03  0.11116110753E+04  0.12699999809E+01 0.  1.
       -4    1    3    3    0  502 -0.43800009867E+03  0.96923566977E+03 -0.98922204887E+03  0.14525232338E+04  0.12699999809E+01 0. -1.
</event>
<event>
 5   0  0.1468512E-05  0.2497697E+04  0.7818609E-02  0.8403806E-01
        2   -1    0    0  501    0  0.00000000000E+00  0.00000000000E+00  0.29337264264E+04  0.29337264264E+04  0.25500000920E-02 0. -1.
       -2   -1    0    0    0  501  0.00000000000E+00  0.00000000000E+00 -0.53161829688E+03  0.53161829688E+03  0.25500000920E-02 0.  1.
    10030    2    1    2    0    0  0.00000000000E+00  0.00000000000E+00  0.24021081295E+04  0.34653447233E+04  0.24976970563E+04 0.  0.
        4    1    3    3  502    0  0.90711612427E+03  0.58884040153E+03  0.33458159097E+03  0.11320508537E+04  0.12699999809E+01 0.  1.
       -4    1    3    3    0  502 -0.90711612427E+03 -0.58884040153E+03  0.20675265385E+04  0.23332938696E+04  0.12699999809E+01 0. -1.
</event>
<event>
 5   0  0.6290861E-06  0.2494459E+04  0.7818609E-02  0.8404962E-01
       -1   -1    0    0    0  501  0.00000000000E+00  0.00000000000E+00  0.21309845212E+04  0.21309845212E+04  0.50400001928E-02 0.  1.
        1   -1    0    0  501    0  0.00000000000E+00  0.00000000000E+00 -0.72998222085E+03  0.72998222087E+03  0.50400001928E-02 0. -1.
    10030    2    1    2    0    0  0.00000000000E+00  0.00000000000E+00  0.14010023003E+04  0.28609667421E+04  0.24944585091E+04 0.  0.
        1    1    3    3  502    0  0.13828618998E+03 -0.12381592372E+04  0.76756900620E+03  0.14633261927E+04  0.50400001928E-02 0.  1.
       -1    1    3    3    0  502 -0.13828618998E+03  0.12381592372E+04  0.63343329413E+03  0.13976405493E+04  0.50400001928E-02 0. -1.
</event>
<event>
 5   0  0.1572732E-05  0.2516998E+04  0.7818609E-02  0.8396955E-01
       -2   -1    0    0    0  501  0.00000000000E+00  0.00000000000E+00  0.12660635817E+04  0.12660635817E+04  0.25500000920E-02 0. -1.
        2   -1    0    0  501    0  0.00000000000E+00  0.00000000000E+00 -0.12509800602E+04  0.12509800602E+04  0.25500000920E-02 0.  1.
    10030    2    1    2    0    0  0.00000000000E+00  0.00000000000E+00  0.15083521490E+02  0.25170436419E+04  0.25169984471E+04 0.  0.
        1    1    3    3  502    0 -0.53267780267E+03 -0.96037943632E+03 -0.60707971475E+03  0.12548386682E+04  0.50400001928E-02 0.  1.
       -1    1    3    3    0  502  0.53267780267E+03  0.96037943632E+03  0.62216323624E+03  0.12622049737E+04  0.50400001928E-02 0. -1.
</event>
<event>
 5   0  0.6477703E-06  0.2513125E+04  0.7818609E-02  0.8398324E-01
       -1   -1    0    0    0  501  0.00000000000E+00  0.00000000000E+00  0.25605517147E+04  0.25605517147E+04  0.50400001928E-02 0. -1.
        1   -1    0    0  501    0  0.00000000000E+00  0.00000000000E+00 -0.61664429228E+03  0.61664429230E+03  0.50400001928E-02 0.  1.
    10030    2    1    2    0    0  0.00000000000E+00  0.00000000000E+00  0.19439074224E+04  0.31771960070E+04  0.25131252257E+04 0.  0.
        5    1    3    3  502    0 -0.12270343779E+03  0.10873330692E+04  0.17529008548E+04  0.20664057767E+04  0.46999998093E+01 0. -1.
       -5    1    3    3    0  502  0.12270343779E+03 -0.10873330692E+04  0.19100656759E+03  0.11107902303E+04  0.46999998093E+01 0.  1.
</event>
<event>
 5   0  0.1501947E-05  0.2512225E+04  0.7818609E-02  0.8398643E-01
        2   -1    0    0  501    0  0.00000000000E+00  0.00000000000E+00  0.17521155470E+04  0.17521155470E+04  0.25500000920E-02 0.  1.
       -2   -1    0    0    0  501  0.00000000000E+00  0.00000000000E+00 -0.90052222781E+03  0.90052222781E+03  0.25500000920E-02 0. -1.
    10030    2    1    2    0    0  0.00000000000E+00  0.00000000000E+00  0.85159331918E+03  0.26526377748E+04  0.25122253050E+04 0.  0.
        3    1    3    3  502    0  0.16087470684E+03 -0.14894826759E+03  0.17317569813E+04  0.17455797061E+04  0.10100000352E+00 0.  1.
       -3    1    3    3    0  502 -0.16087470684E+03  0.14894826759E+03 -0.88016366213E+03  0.90705806873E+03  0.10100000352E+00 0. -1.
</event>
<event>
 5   0  0.6290861E-06  0.2520361E+04  0.7818609E-02  0.8395767E-01
       -1   -1    0    0    0  501  0.00000000000E+00  0.00000000000E+00  0.12244905599E+04  0.12244905599E+04  0.50400001928E-02 0. -1.
        1   -1    0    0  501    0  0.00000000000E+00  0.00000000000E+00 -0.12969110932E+04  0.12969110932E+04  0.50400001928E-02 0.  1.
    10030    2    1    2    0    0  0.00000000000E+00  0.00000000000E+00 -0.72420533241E+02  0.25214016531E+04  0.25203613952E+04 0.  0.
        1    1    3    3  502    0 -0.10871612836E+04  0.60409165707E+03 -0.23929406309E+03  0.12665338666E+04  0.50400001928E-02 0.  1.
       -1    1    3    3    0  502  0.10871612836E+04 -0.60409165707E+03  0.16687352985E+03  0.12548677865E+04  0.50400001928E-02 0. -1.
</event>
<event>
 5   0  0.6477703E-06  0.2506767E+04  0.7818609E-02  0.8400579E-01
        1   -1    0    0  501    0  0.00000000000E+00  0.00000000000E+00  0.14110631092E+04  0.14110631092E+04  0.50400001928E-02 0. -1.
       -1   -1    0    0    0  501  0.00000000000E+00  0.00000000000E+00 -0.11133237479E+04  0.11133237479E+04  0.50400001928E-02 0.  1.
    10030    2    1    2    0    0  0.00000000000E+00  0.00000000000E+00  0.29773936123E+03  0.25243868571E+04  0.25067668972E+04 0.  0.
        5    1    3    3  502    0 -0.40961877924E+03  0.11524725515E+04  0.42459607251E+03  0.12947140383E+04  0.46999998093E+01 0.  1.
       -5    1    3    3    0  502  0.40961877924E+03 -0.11524725515E+04 -0.12685671127E+03  0.12296728188E+04  0.46999998093E+01 0. -1.
</event>
<event>
 5   0  0.1550483E-05  0.2506189E+04  0.7818609E-02  0.8400784E-01
       -2   -1    0    0    0  501  0.00000000000E+00  0.00000000000E+00  0.10416238493E+04  0.10416238493E+04  0.25500000920E-02 0.  1.
        2   -1    0    0  501    0  0.00000000000E+00  0.00000000000E+00 -0.15074980405E+04  0.15074980405E+04  0.25500000920E-02 0. -1.
    10030    2    1    2    0    0  0.00000000000E+00  0.00000000000E+00 -0.46587419124E+03  0.25491218899E+04  0.25061890685E+04 0.  0.
        5    1    3    3  502    0 -0.91099170594E+03  0.77404661608E+03  0.14922501257E+03  0.12047174966E+04  0.46999998093E+01 0.  1.
       -5    1    3    3    0  502  0.91099170594E+03 -0.77404661608E+03 -0.61509920382E+03  0.13444043933E+04  0.46999998093E+01 0. -1.
</event>
<event>
 5   0  0.6290861E-06  0.2548426E+04  0.7818609E-02  0.8385934E-01
        1   -1    0    0  501    0  0.00000000000E+00  0.00000000000E+00  0.12744977613E+04  0.12744977613E+04  0.50400001928E-02 0.  1.
       -1   -1    0    0    0  501  0.00000000000E+00  0.00000000000E+00 -0.12739282348E+04  0.12739282348E+04  0.50400001928E-02 0. -1.
    10030    2    1    2    0    0  0.00000000000E+00  0.00000000000E+00  0.56952649438E+00  0.25484259961E+04  0.25484259324E+04 0.  0.
        1    1    3    3  502    0 -0.85299485919E+03  0.48932003493E+03 -0.81001418753E+03  0.12740319111E+04  0.50400001928E-02 0. -1.
       -1    1    3    3    0  502  0.85299485919E+03 -0.48932003493E+03  0.81058371403E+03  0.12743940850E+04  0.50400001928E-02 0.  1.
</event>
<event>
 5   0  0.6477703E-06  0.2490102E+04  0.7818609E-02  0.8406520E-01
        1   -1    0    0  501    0  0.00000000000E+00  0.00000000000E+00  0.88607801833E+03  0.88607801834E+03  0.50400001928E-02 0. -1.
       -1   -1    0    0    0  501  0.00000000000E+00  0.00000000000E+00 -0.17494537636E+04  0.17494537636E+04  0.50400001928E-02 0.  1.
    10030    2    1    2    0    0  0.00000000000E+00  0.00000000000E+00 -0.86337574527E+03  0.26355317820E+04  0.24901024268E+04 0.  0.
        5    1    3    3  502    0  0.17917546916E+03  0.11596719421E+04  0.87751027322E+01  0.11734743092E+04  0.46999998093E+01 0. -1.
       -5    1    3    3    0  502 -0.17917546916E+03 -0.11596719421E+04 -0.87215084800E+03  0.14620574727E+04  0.46999998093E+01 0.  1.
</event>
<event>
 5   0  0.6105353E-06  0.2507371E+04  0.7818609E-02  0.8400364E-01
        1   -1    0    0  501    0  0.00000000000E+00  0.00000000000E+00  0.11280292167E+04  0.11280292167E+04  0.50400001928E-02 0. -1.
       -1   -1    0    0    0  501  0.00000000000E+00  0.00000000000E+00 -0.13933393121E+04  0.13933393121E+04  0.50400001928E-02 0.  1.
    10030    2    1    2    0    0  0.00000000000E+00  0.00000000000E+00 -0.26531009538E+03  0.25213685288E+04  0.25073710957E+04 0.  0.
        3    1    3    3  502    0 -0.21044245748E+03 -0.12271164401E+04 -0.28053605872E+03  0.12762449905E+04  0.10100000352E+00 0. -1.
       -3    1    3    3    0  502  0.21044245748E+03  0.12271164401E+04  0.15225963347E+02  0.12451235383E+04  0.10100000352E+00 0.  1.
</event>
<event>
 5   0  0.1468512E-05  0.2478957E+04  0.7818609E-02  0.8410521E-01
        2   -1    0    0  501    0  0.00000000000E+00  0.00000000000E+00  0.12996483612E+04  0.12996483612E+04  0.25500000920E-02 0. -1.
       -2   -1    0    0    0  501  0.00000000000E+00  0.00000000000E+00 -0.11820938682E+04  0.11820938682E+04  0.25500000920E-02 0.  1.
    10030    2    1    2    0    0  0.00000000000E+00  0.00000000000E+00  0.11755449298E+03  0.24817422295E+04  0.24789565213E+04 0.  0.
        4    1    3    3  502    0 -0.83116173400E+03  0.56660072169E+03  0.78377232897E+03  0.12752124852E+04  0.12699999809E+01 0. -1.
       -4    1    3    3    0  502  0.83116173400E+03 -0.56660072169E+03 -0.66621783599E+03  0.12065297443E+04  0.12699999809E+01 0.  1.
</event>
<event>
 5   0  0.6104486E-06  0.2463452E+04  0.7818609E-02  0.8416123E-01
       -1   -1    0    0    0  501  0.00000000000E+00  0.00000000000E+00  0.60935936349E+03  0.60935936352E+03  0.50400001928E-02 0. -1.
        1   -1    0    0  501    0  0.00000000000E+00  0.00000000000E+00 -0.24897443916E+04  0.24897443916E+04  0.50400001928E-02 0.  1.
    10030    2    1    2    0    0  0.00000000000E+00  0.00000000000E+00 -0.18803850281E+04  0.30991037551E+04  0.24634520964E+04 0.  0.
        2    1    3    3  502    0  0.56200785847E+03 -0.16346546543E+03  0.42323615099E+03  0.72228985240E+03  0.25500000920E-02 0. -1.
       -2    1    3    3    0  502 -0.56200785847E+03  0.16346546543E+03 -0.23036211791E+04  0.23768139027E+04  0.25500000920E-02 0.  1.
</event>
<event>
 5   0  0.5164625E-06  0.2506787E+04  0.7818609E-02  0.8400571E-01
        3   -1    0    0  501    0  0.00000000000E+00  0.00000000000E+00  0.96995011221E+03  0.96995011747E+03  0.10100000352E+00 0.  1.
       -3   -1    0    0    0  501  0.00000000000E+00  0.00000000000E+00 -0.16196666587E+04  0.16196666619E+04  0.10100000352E+00 0. -1.
    10030    2    1    2    0    0  0.00000000000E+00  0.00000000000E+00 -0.64971654653E+03  0.25896167794E+04  0.25067874806E+04 0.  0.
        5    1    3    3  502    0  0.11713095251E+04  0.44597701386E+03 -0.33580451545E+03  0.12975547245E+04  0.46999998093E+01 0. -1.
       -5    1    3    3    0  502 -0.11713095251E+04 -0.44597701386E+03 -0.31391203108E+03  0.12920620549E+04  0.46999998093E+01 0.  1.
</event>
<event>
 5   0  0.1572732E-05  0.2619590E+04  0.7818609E-02  0.8361577E-01
       -2   -1    0    0    0  501  0.00000000000E+00  0.00000000000E+00  0.12849076708E+04  0.12849076708E+04  0.25500000920E-02 0.  1.
        2   -1    0    0  501    0  0.00000000000E+00  0.00000000000E+00 -0.13351641065E+04  0.13351641065E+04  0.25500000920E-02 0. -1.
    10030    2    1    2    0    0  0.00000000000E+00  0.00000000000E+00 -0.50256435667E+02  0.26200717773E+04  0.26195897406E+04 0.  0.
        1    1    3    3  502    0  0.84087415464E+02 -0.12934390225E+04  0.16334053962E+03  0.13064208091E+04  0.50400001928E-02 0. -1.
       -1    1    3    3    0  502 -0.84087415464E+02  0.12934390225E+04 -0.21359697529E+03  0.13136509682E+04  0.50400001928E-02 0.  1.
</event>
<event>
 5   0  0.1468512E-05  0.2495656E+04  0.7818609E-02  0.8404535E-01
        2   -1    0    0  501    0  0.00000000000E+00  0.00000000000E+00  0.90887027201E+03  0.90887027202E+03  0.25500000920E-02 0. -1.
       -2   -1    0    0    0  501  0.00000000000E+00  0.00000000000E+00 -0.17131973992E+04  0.17131973992E+04  0.25500000920E-02 0.  1.
    10030    2    1    2    0    0  0.00000000000E+00  0.00000000000E+00 -0.80432712720E+03  0.26220676712E+04  0.24956555742E+04 0.  0.
        4    1    3    3  502    0  0.14316055312E+03  0.34565333581E+03  0.84855533306E+03  0.92737206055E+03  0.12699999809E+01 0. -1.
       -4    1    3    3    0  502 -0.14316055312E+03 -0.34565333581E+03 -0.16528824603E+04  0.16946956107E+04  0.12699999809E+01 0.  1.
</event>
<event>
 5   0  0.1468512E-05  0.2495542E+04  0.7818609E-02  0.8404575E-01
       -2   -1    0    0    0  501  0.00000000000E+00  0.00000000000E+00  0.16939733755E+04  0.16939733755E+04  0.25500000920E-02 0.  1.
        2   -1    0    0  501    0  0.00000000000E+00  0.00000000000E+00 -0.91910095581E+03  0.91910095582E+03  0.25500000920E-02 0. -1.
    10030    2    1    2    0    0  0.00000000000E+00  0.00000000000E+00  0.77487241973E+03  0.26130743314E+04  0.24955420642E+04 0.  0.
        4    1    3    3  502    0  0.45496686796E+03 -0.25644421032E+03 -0.79914794255E+03  0.95467142564E+03  0.12699999809E+01 0. -1.
       -4    1    3    3    0  502 -0.45496686796E+03  0.25644421032E+03  0.15740203623E+04  0.16584029057E+04  0.12699999809E+01 0.  1.
</event>
<event>
 5   0  0.1526824E-05  0.2520989E+04  0.7818609E-02  0.8395546E-01
        2   -1    0    0  501    0  0.00000000000E+00  0.00000000000E+00  0.18368581334E+04  0.18368581334E+04  0.25500000920E-02 0.  1.
       -2   -1    0    0    0  501  0.00000000000E+00  0.00000000000E+00 -0.86498038363E+03  0.86498038364E+03  0.25500000920E-02 0. -1.
    10030    2    1    2    0    0  0.00000000000E+00  0.00000000000E+00  0.97187774975E+03  0.27018385170E+04  0.25209888956E+04 0.  0.
        2    1    3    3  502    0  0.88971452476E+03 -0.28674849415E+03 -0.42031624229E+03  0.10249304259E+04  0.25500000920E-02 0. -1.
       -2    1    3    3    0  502 -0.88971452476E+03  0.28674849415E+03  0.13921939920E+04  0.16769080911E+04  0.25500000920E-02 0.  1.
</event>
<event>
 5   0  0.1501947E-05  0.2508374E+04  0.7818609E-02  0.8400008E-01
       -2   -1    0    0    0  501  0.00000000000E+00  0.00000000000E+00  0.11885646050E+04  0.11885646050E+04  0.25500000920E-02 0.  1.
        2   -1    0    0  501    0  0.00000000000E+00  0.00000000000E+00 -0.13234320094E+04  0.13234320094E+04  0.25500000920E-02 0. -1.
    10030    2    1    2    0    0  0.00000000000E+00  0.00000000000E+00 -0.13486740433E+03  0.25119966144E+04  0.25083735316E+04 0.  0.
        3    1    3    3  502    0 -0.87810144229E+03 -0.26316342983E+03 -0.92462991682E+03  0.13020205939E+04  0.10100000352E+00 0. -1.
       -3    1    3    3    0  502  0.87810144229E+03  0.26316342983E+03  0.78976251249E+03  0.12099760205E+04  0.10100000352E+00 0.  1.
</event>
<event>
 5   0  0.6105353E-06  0.2497182E+04  0.7818609E-02  0.8403990E-01
       -1   -1    0    0    0  501  0.00000000000E+00  0.00000000000E+00  0.83072984470E+03  0.83072984472E+03  0.50400001928E-02 0.  1.
        1   -1    0    0  501    0  0.00000000000E+00  0.00000000000E+00 -0.18766390965E+04  0.18766390965E+04  0.50400001928E-02 0. -1.
    10030    2    1    2    0    0  0.00000000000E+00  0.00000000000E+00 -0.10459092518E+04  0.27073689412E+04  0.24971824965E+04 0.  0.
        3    1    3    3  502    0 -0.31552385803E+03  0.44811217570E+03 -0.17392653076E+04  0.18235689314E+04  0.10100000352E+00 0. -1.
       -3    1    3    3    0  502  0.31552385803E+03 -0.44811217570E+03  0.69335605585E+03  0.88380000983E+03  0.10100000352E+00 0.  1.
</event>
<event>
 5   0  0.6346420E-06  0.2494062E+04  0.7818609E-02  0.8405104E-01
        1   -1    0    0  501    0  0.00000000000E+00  0.00000000000E+00  0.23094266685E+04  0.23094266685E+04  0.50400001928E-02 0. -1.
       -1   -1    0    0    0  501  0.00000000000E+00  0.00000000000E+00 -0.67336447930E+03  0.67336447932E+03  0.50400001928E-02 0.  1.
    10030    2    1    2    0    0  0.00000000000E+00  0.00000000000E+00  0.16360621892E+04  0.29827911478E+04  0.24940616561E+04 0.  0.
        4    1    3    3  502    0  0.73984658763E+03  0.53404792704E+03 -0.19853547007E+03  0.93380838901E+03  0.12699999809E+01 0.  1.
       -4    1    3    3    0  502 -0.73984658763E+03 -0.53404792704E+03  0.18345976592E+04  0.20489827588E+04  0.12699999809E+01 0. -1.
</event>
<event>
 5   0  0.1501947E-05  0.2506129E+04  0.7818609E-02  0.8400805E-01
        2   -1    0    0  501    0  0.00000000000E+00  0.00000000000E+00  0.24684742955E+04  0.24684742955E+04  0.25500000920E-02 0.  1.
       -2   -1    0    0    0  501  0.00000000000E+00  0.00000000000E+00 -0.63608935904E+03  0.63608935905E+03  0.25500000920E-02 0. -1.
    10030    2    1    2    0    0  0.00000000000E+00  0.00000000000E+00  0.18323849364E+04  0.31045636545E+04  0.25061286738E+04 0.  0.
        3    1    3    3  502    0  0.45211192844E+02  0.68927751575E+03 -0.37893283815E+03  0.78786905746E+03  0.10100000352E+00 0. -1.
       -3    1    3    3    0  502 -0.45211192844E+02 -0.68927751575E+03  0.22113177746E+04  0.23166945971E+04  0.10100000352E+00 0.  1.
</event>
<event>
 5   0  0.1526824E-05  0.2382878E+04  0.7818609E-02  0.8445942E-01
        2   -1    0    0  501    0  0.00000000000E+00  0.00000000000E+00  0.12310908058E+04  0.12310908058E+04  0.25500000920E-02 0.  1.
       -2   -1    0    0    0  501  0.00000000000E+00  0.00000000000E+00 -0.11530641820E+04  0.11530641820E+04  0.25500000920E-02 0. -1.
    10030    2    1    2    0    0  0.00000000000E+00  0.00000000000E+00  0.78026623737E+02  0.23841549878E+04  0.23828778508E+04 0.  0.
        2    1    3    3  502    0 -0.93548043904E+03  0.18930050939E+03 -0.67450870823E+03  0.11687259440E+04  0.25500000920E-02 0. -1.
       -2    1    3    3    0  502  0.93548043904E+03 -0.18930050939E+03  0.75253533197E+03  0.12154290438E+04  0.25500000920E-02 0.  1.
</event>
<event>
 5   0  0.6290861E-06  0.2429374E+04  0.7818609E-02  0.8428588E-01
        1   -1    0    0  501    0  0.00000000000E+00  0.00000000000E+00  0.11583183207E+04  0.11583183207E+04  0.50400001928E-02 0. -1.
       -1   -1    0    0    0  501  0.00000000000E+00  0.00000000000E+00 -0.12737983164E+04  0.12737983164E+04  0.50400001928E-02 0.  1.
    10030    2    1    2    0    0  0.00000000000E+00  0.00000000000E+00 -0.11547999574E+03  0.24321166371E+04  0.24293735215E+04 0.  0.
        1    1    3    3  502    0 -0.46637154085E+03  0.10183915734E+04 -0.52820691327E+03  0.12383966869E+04  0.50400001928E-02 0.  1.
       -1    1    3    3    0  502  0.46637154085E+03 -0.10183915734E+04  0.41272691753E+03  0.11937199502E+04  0.50400001928E-02 0. -1.
</event>
<event>
 5   0  0.1572732E-05  0.2528044E+04  0.7818609E-02  0.8393062E-01
        2   -1    0    0  501    0  0.00000000000E+00  0.00000000000E+00  0.92702359370E+03  0.92702359370E+03  0.25500000920E-02 0. -1.
       -2   -1    0    0    0  501  0.00000000000E+00  0.00000000000E+00 -0.17235280684E+04  0.17235280684E+04  0.25500000920E-02 0.  1.
    10030    2    1    2    0    0  0.00000000000E+00  0.00000000000E+00 -0.79650447472E+03  0.26505516621E+04  0.25280436577E+04 0.  0.
        1    1    3    3  502    0  0.83504246528E+03 -0.62567039344E+03  0.34975725105E+03  0.11004951135E+04  0.50400001928E-02 0. -1.
       -1    1    3    3    0  502 -0.83504246528E+03  0.62567039344E+03 -0.11462617258E+04  0.15500565487E+04  0.50400001928E-02 0.  1.
</event>
<event>
 5   0  0.6104486E-06  0.2349708E+04  0.7818609E-02  0.8458576E-01
        1   -1    0    0  501    0  0.00000000000E+00  0.00000000000E+00  0.29594358426E+04  0.29594358426E+04  0.50400001928E-02 0. -1.
       -1   -1    0    0    0  501  0.00000000000E+00  0.00000000000E+00 -0.46640018977E+03  0.46640018979E+03  0.50400001928E-02 0.  1.
    10030    2    1    2    0    0  0.00000000000E+00  0.00000000000E+00  0.24930356528E+04  0.34258360324E+04  0.23497075892E+04 0.  0.
        2    1    3    3  502    0  0.55401847128E+03  0.86819590630E+03  0.42229787971E+03  0.11131199834E+04  0.25500000920E-02 0.  1.
       -2    1    3    3    0  502 -0.55401847128E+03 -0.86819590630E+03  0.20707377731E+04  0.23127160490E+04  0.25500000920E-02 0. -1.
</event>
<event>
 5   0  0.1550483E-05  0.2514402E+04  0.7818609E-02  0.8397873E-01
        2   -1    0    0  501    0  0.00000000000E+00  0.00000000000E+00  0.27310993864E+04  0.27310993864E+04  0.25500000920E-02 0.  1.
       -2   -1    0    0    0  501  0.00000000000E+00  0.00000000000E+00 -0.57872471230E+03  0.57872471231E+03  0.25500000920E-02 0. -1.
    10030    2    1    2    0    0  0.00000000000E+00  0.00000000000E+00  0.21523746741E+04  0.33098240987E+04  0.25144022802E+04 0.  0.
        5    1    3    3  502    0 -0.10933220406E+04 -0.80216478752E+02  0.26607822094E+03  0.11280990548E+04  0.46999998093E+01 0. -1.
       -5    1    3    3    0  502  0.10933220406E+04  0.80216478752E+02  0.18862964531E+04  0.21817250438E+04  0.46999998093E+01 0.  1.
</event>
<event>
 5   0  0.6104486E-06  0.2521786E+04  0.7818609E-02  0.8395265E-01
       -1   -1    0    0    0  501  0.00000000000E+00  0.00000000000E+00  0.12101754105E+04  0.12101754105E+04  0.50400001928E-02 0.  1.
        1   -1    0    0  501    0  0.00000000000E+00  0.00000000000E+00 -0.13137365343E+04  0.13137365343E+04  0.50400001928E-02 0. -1.
    10030    2    1    2    0    0  0.00000000000E+00  0.00000000000E+00 -0.10356112383E+03  0.25239119448E+04  0.25217863904E+04 0.  0.
        2    1    3    3  502    0 -0.11704080329E+04 -0.12249248917E+03 -0.50492291058E+03  0.12805493037E+04  0.25500000920E-02 0. -1.
       -2    1    3    3    0  502  0.11704080329E+04  0.12249248917E+03  0.40136178675E+03  0.12433626411E+04  0.25500000920E-02 0.  1.
</event>
<event>
 5   0  0.6105353E-06  0.2424212E+04  0.7818609E-02  0.8430494E-01
       -1   -1    0    0    0  501  0.00000000000E+00  0.00000000000E+00  0.14035806514E+04  0.14035806514E+04  0.50400001928E-02 0. -1.
        1   -1    0    0  501    0  0.00000000000E+00  0.00000000000E+00 -0.10467523449E+04  0.10467523449E+04  0.50400001928E-02 0.  1.
    10030    2    1    2    0    0  0.00000000000E+00  0.00000000000E+00  0.35682830648E+03  0.24503329963E+04  0.24242123159E+04 0.  0.
        3    1    3    3  502    0  0.75172651684E+03  0.83506772309E+03 -0.28120562841E+03  0.11582346368E+04  0.10100000352E+00 0.  1.
       -3    1    3    3    0  502 -0.75172651684E+03 -0.83506772309E+03  0.63803393489E+03  0.12920983595E+04  0.10100000352E+00 0. -1.
</event>
<event>
 5   0  0.6477703E-06  0.2495005E+04  0.7818609E-02  0.8404767E-01
        1   -1    0    0  501    0  0.00000000000E+00  0.00000000000E+00  0.14680977143E+04  0.14680977143E+04  0.50400001928E-02 0.  1.
       -1   -1    0    0    0  501  0.00000000000E+00  0.00000000000E+00 -0.10600539819E+04  0.10600539819E+04  0.50400001928E-02 0. -1.
    10030    2    1    2    0    0  0.00000000000E+00  0.00000000000E+00  0.40804373238E+03  0.25281516963E+04  0.24950052729E+04 0.  0.
        5    1    3    3  502    0  0.94384046768E+03 -0.12827978517E+03 -0.61225473763E+03  0.11323287886E+04  0.46999998093E+01 0. -1.
       -5    1    3    3    0  502 -0.94384046768E+03  0.12827978517E+03  0.10202984700E+04  0.13958229077E+04  0.46999998093E+01 0.  1.
</event>
<event>
 5   0  0.1572732E-05  0.2502103E+04  0.7818609E-02  0.8402237E-01
       -2   -1    0    0    0  501  0.00000000000E+00  0.00000000000E+00  0.81083438670E+03  0.81083438670E+03  0.25500000920E-02 0. -1.
        2   -1    0    0  501    0  0.00000000000E+00  0.00000000000E+00 -0.19302711802E+04  0.19302711802E+04  0.25500000920E-02 0.  1.
    10030    2    1    2    0    0  0.00000000000E+00  0.00000000000E+00 -0.11194367935E+04  0.27411055669E+04  0.25021033141E+04 0.  0.
        1    1    3    3  502    0  0.40349509977E+03  0.51168560508E+03  0.61023383230E+03  0.89275740495E+03  0.50400001928E-02 0. -1.
       -1    1    3    3    0  502 -0.40349509977E+03 -0.51168560508E+03 -0.17296706258E+04  0.18483481620E+04  0.50400001928E-02 0.  1.
</event>
<event>
 5   0  0.6105353E-06  0.2504761E+04  0.7818609E-02  0.8401291E-01
       -1   -1    0    0    0  501  0.00000000000E+00  0.00000000000E+00  0.10464184299E+04  0.10464184299E+04  0.50400001928E-02 0.  1.
        1   -1    0    0  501    0  0.00000000000E+00  0.00000000000E+00 -0.14988815876E+04  0.14988815876E+04  0.50400001928E-02 0. -1.
    10030    2    1    2    0    0  0.00000000000E+00  0.00000000000E+00 -0.45246315765E+03  0.25453000175E+04  0.25047613200E+04 0.  0.
        3    1    3    3  502    0  0.42512547286E+03 -0.61576798402E+03 -0.12467539239E+04  0.14540623215E+04  0.10100000352E+00 0. -1.
       -3    1    3    3    0  502 -0.42512547286E+03  0.61576798402E+03  0.79429076621E+03  0.10912376961E+04  0.10100000352E+00 0.  1.
</event>
<event>
 5   0  0.1526824E-05  0.2498348E+04  0.7818609E-02  0.8403574E-01
       -2   -1    0    0    0  501  0.00000000000E+00  0.00000000000E+00  0.14621279187E+04  0.14621279187E+04  0.25500000920E-02 0. -1.
        2   -1    0    0  501    0  0.00000000000E+00  0.00000000000E+00 -0.10672358917E+04  0.10672358917E+04  0.25500000920E-02 0.  1.
    10030    2    1    2    0    0  0.00000000000E+00  0.00000000000E+00  0.39489202708E+03  0.25293638104E+04  0.24983477685E+04 0.  0.
        2    1    3    3  502    0  0.78246116227E+03  0.22496969949E+02  0.11830220584E+04  0.14185530568E+04  0.25500000920E-02 0. -1.
       -2    1    3    3    0  502 -0.78246116227E+03 -0.22496969949E+02 -0.78813003134E+03  0.11108107536E+04  0.25500000920E-02 0.  1.
</event>
<event>
 5   0  0.6346420E-06  0.2508708E+04  0.7818609E-02  0.8399890E-01
       -1   -1    0    0    0  501  0.00000000000E+00  0.00000000000E+00  0.88856331129E+03  0.88856331130E+03  0.50400001928E-02 0.  1.
        1   -1    0    0  501    0  0.00000000000E+00  0.00000000000E+00 -0.17707282695E+04  0.17707282695E+04  0.50400001928E-02 0. -1.
    10030    2    1    2    0    0  0.00000000000E+00  0.00000000000E+00 -0.88216495821E+03  0.26592915808E+04  0.25087081732E+04 0.  0.
        4    1    3    3  502    0 -0.94179296710E+03 -0.73822229096E+03 -0.83976495079E+03  0.14619004512E+04  0.12699999809E+01 0. -1.
       -4    1    3    3    0  502  0.94179296710E+03  0.73822229096E+03 -0.42400007418E+02  0.11973911296E+04  0.12699999809E+01 0.  1.
</event>
<event>
 5   0  0.6477703E-06  0.2492906E+04  0.7818609E-02  0.8405517E-01
       -1   -1    0    0    0  501  0.00000000000E+00  0.00000000000E+00  0.10497420688E+04  0.10497420688E+04  0.50400001928E-02 0.  1.
        1   -1    0    0  501    0  0.00000000000E+00  0.00000000000E+00 -0.14800256709E+04  0.14800256709E+04  0.50400001928E-02 0. -1.
    10030    2    1    2    0    0  0.00000000000E+00  0.00000000000E+00 -0.43028360207E+03  0.25297677397E+04  0.24929061031E+04 0.  0.
        5    1    3    3  502    0 -0.11479729172E+04 -0.35148033672E+03  0.12483878507E+03  0.12070571892E+04  0.46999998093E+01 0. -1.
       -5    1    3    3    0  502  0.11479729172E+04  0.35148033672E+03 -0.55512238714E+03  0.13227105505E+04  0.46999998093E+01 0.  1.
</event>
<event>
 5   0  0.1550483E-05  0.2499820E+04  0.7818609E-02  0.8403050E-01
        2   -1    0    0  501    0  0.00000000000E+00  0.00000000000E+00  0.12356662139E+04  0.12356662139E+04  0.25500000920E-02 0.  1.
       -2   -1    0    0    0  501  0.00000000000E+00  0.00000000000E+00 -0.12643178341E+04  0.12643178341E+04  0.25500000920E-02 0. -1.
    10030    2    1    2    0    0  0.00000000000E+00  0.00000000000E+00 -0.28651620209E+02  0.24999840480E+04  0.24998198585E+04 0.  0.
        5    1    3    3  502    0 -0.18169833528E+03  0.11460267900E+03  0.12170570897E+04  0.12358794879E+04  0.46999998093E+01 0.  1.
       -5    1    3    3    0  502  0.18169833528E+03 -0.11460267900E+03 -0.12457087099E+04  0.12641045601E+04  0.46999998093E+01 0. -1.
</event>
<event>
 5   0  0.6477703E-06  0.2501530E+04  0.7818609E-02  0.8402441E-01
       -1   -1    0    0    0  501  0.00000000000E+00  0.00000000000E+00  0.11047720997E+04  0.11047720997E+04  0.50400001928E-02 0.  1.
        1   -1    0    0  501    0  0.00000000000E+00  0.00000000000E+00 -0.14160507533E+04  0.14160507533E+04  0.50400001928E-02 0. -1.
    10030    2    1    2    0    0  0.00000000000E+00  0.00000000000E+00 -0.31127865363E+03  0.25208228530E+04  0.25015302229E+04 0.  0.
        5    1    3    3  502    0 -0.66401294657E+02  0.12373403993E+04 -0.32716036844E+03  0.12815913515E+04  0.46999998093E+01 0. -1.
       -5    1    3    3    0  502  0.66401294657E+02 -0.12373403993E+04  0.15881714809E+02  0.12392315015E+04  0.46999998093E+01 0.  1.
</event>
<event>
 5   0  0.6104486E-06  0.2495183E+04  0.7818609E-02  0.8404704E-01
       -1   -1    0    0    0  501  0.00000000000E+00  0.00000000000E+00  0.11779871870E+04  0.11779871870E+04  0.50400001928E-02 0. -1.
        1   -1    0    0  501    0  0.00000000000E+00  0.00000000000E+00 -0.13213085283E+04  0.13213085283E+04  0.50400001928E-02 0.  1.
    10030    2    1    2    0    0  0.00000000000E+00  0.00000000000E+00 -0.14332134128E+03  0.24992957153E+04  0.24951829723E+04 0.  0.
        2    1    3    3  502    0  0.77973753629E+03 -0.98372214011E+02 -0.10421833143E+04  0.13053021790E+04  0.25500000920E-02 0.  1.
       -2    1    3    3    0  502 -0.77973753629E+03  0.98372214011E+02  0.89886197302E+03  0.11939935362E+04  0.25500000920E-02 0. -1.
</event>
<event>
 5   0  0.1572732E-05  0.2538067E+04  0.7818609E-02  0.8389548E-01
        2   -1    0    0  501    0  0.00000000000E+00  0.00000000000E+00  0.21629862400E+04  0.21629862400E+04  0.25500000920E-02 0. -1.
       -2   -1    0    0    0  501  0.00000000000E+00  0.00000000000E+00 -0.74454775476E+03  0.74454775476E+03  0.25500000920E-02 0.  1.
    10030    2    1    2    0    0  0.00000000000E+00  0.00000000000E+00  0.14184384852E+04  0.29075339948E+04  0.25380674133E+04 0.  0.
        1    1    3    3  502    0 -0.57487888835E+03 -0.11248684183E+04  0.84778991551E+03  0.15213686061E+04  0.50400001928E-02 0. -1.
       -1    1    3    3    0  502  0.57487888835E+03  0.11248684183E+04  0.57064856972E+03  0.13861653887E+04  0.50400001928E-02 0.  1.
</event>
<event>
 5   0  0.6346420E-06  0.2568386E+04  0.7818609E-02  0.8379020E-01
        1   -1    0    0  501    0  0.00000000000E+00  0.00000000000E+00  0.19893091013E+04  0.19893091013E+04  0.50400001928E-02 0. -1.
       -1   -1    0    0    0  501  0.00000000000E+00  0.00000000000E+00 -0.82900706973E+03  0.82900706974E+03  0.50400001928E-02 0.  1.
    10030    2    1    2    0    0  0.00000000000E+00  0.00000000000E+00  0.11603020316E+04  0.28183161710E+04  0.25683857256E+04 0.  0.
        4    1    3    3  502    0 -0.11336191238E+04 -0.59413085573E+03  0.69558213853E+03  0.14566811305E+04  0.12699999809E+01 0.  1.
       -4    1    3    3    0  502  0.11336191238E+04  0.59413085573E+03  0.46471989305E+03  0.13616350405E+04  0.12699999809E+01 0. -1.
</event>
<event>
 5   0  0.1572732E-05  0.2520138E+04  0.7818609E-02  0.8395846E-01
        2   -1    0    0  501    0  0.00000000000E+00  0.00000000000E+00  0.31057855425E+04  0.31057855425E+04  0.25500000920E-02 0. -1.
       -2   -1    0    0    0  501  0.00000000000E+00  0.00000000000E+00 -0.51123113806E+03  0.51123113807E+03  0.25500000920E-02 0.  1.
    10030    2    1    2    0    0  0.00000000000E+00  0.00000000000E+00  0.25945544044E+04  0.36170166805E+04  0.25201383117E+04 0.  0.
        1    1    3    3  502    0 -0.69308985933E+03 -0.10473537242E+04  0.11505525813E+04  0.17032599975E+04  0.50400001928E-02 0. -1.
       -1    1    3    3    0  502  0.69308985933E+03  0.10473537242E+04  0.14440018231E+04  0.19137566831E+04  0.50400001928E-02 0.  1.
</event>
<event>
 5   0  0.1572732E-05  0.2232395E+04  0.7818609E-02  0.8505064E-01
        2   -1    0    0  501    0  0.00000000000E+00  0.00000000000E+00  0.21150441486E+04  0.21150441486E+04  0.25500000920E-02 0.  1.
       -2   -1    0    0    0  501  0.00000000000E+00  0.00000000000E+00 -0.58906447886E+03  0.58906447886E+03  0.25500000920E-02 0. -1.
    10030    2    1    2    0    0  0.00000000000E+00  0.00000000000E+00  0.15259796697E+04  0.27041086274E+04  0.22323954660E+04 0.  0.
        1    1    3    3  502    0  0.34376348528E+03 -0.14176527290E+03 -0.51183260884E+03  0.63264788461E+03  0.50400001928E-02 0. -1.
       -1    1    3    3    0  502 -0.34376348528E+03  0.14176527290E+03  0.20378122786E+04  0.20714607428E+04  0.50400001928E-02 0.  1.
</event>
<event>
 5   0  0.6346420E-06  0.2522556E+04  0.7818609E-02  0.8394994E-01
       -1   -1    0    0    0  501  0.00000000000E+00  0.00000000000E+00  0.11970622119E+04  0.11970622120E+04  0.50400001928E-02 0.  1.
        1   -1    0    0  501    0  0.00000000000E+00  0.00000000000E+00 -0.13289388961E+04  0.13289388961E+04  0.50400001928E-02 0. -1.
    10030    2    1    2    0    0  0.00000000000E+00  0.00000000000E+00 -0.13187668412E+03  0.25260011080E+04  0.25225562705E+04 0.  0.
        4    1    3    3  502    0  0.83341555945E+03 -0.71245471859E+03  0.55832915741E+03  0.12304089896E+04  0.12699999809E+01 0.  1.
       -4    1    3    3    0  502 -0.83341555945E+03  0.71245471859E+03 -0.69020584153E+03  0.12955921184E+04  0.12699999809E+01 0. -1.
</event>
<event>
 5   0  0.6105353E-06  0.2496888E+04  0.7818609E-02  0.8404095E-01
        1   -1    0    0  501    0  0.00000000000E+00  0.00000000000E+00  0.22699514416E+04  0.22699514416E+04  0.50400001928E-02 0.  1.
       -1   -1    0    0    0  501  0.00000000000E+00  0.00000000000E+00 -0.68662793654E+03  0.68662793656E+03  0.50400001928E-02 0. -1.
    10030    2    1    2    0    0  0.00000000000E+00  0.00000000000E+00  0.15833235051E+04  0.29565793782E+04  0.24968877223E+04 0.  0.
        3    1    3    3  502    0 -0.83851322928E+03  0.56826724967E+03  0.16557994284E+04  0.19410574077E+04  0.10100000352E+00 0.  1.
       -3    1    3    3    0  502  0.83851322928E+03 -0.56826724967E+03 -0.72475923388E+02  0.10155219704E+04  0.10100000352E+00 0. -1.
</event>
<event>
 5   0  0.1468512E-05  0.2532649E+04  0.7818609E-02  0.8391446E-01
        2   -1    0    0  501    0  0.00000000000E+00  0.00000000000E+00  0.15157539474E+04  0.15157539474E+04  0.25500000920E-02 0. -1.
       -2   -1    0    0    0  501  0.00000000000E+00  0.00000000000E+00 -0.10579402992E+04  0.10579402992E+04  0.25500000920E-02 0.  1.
    10030    2    1    2    0    0  0.00000000000E+00  0.00000000000E+00  0.45781364812E+03  0.25736942466E+04  0.25326485620E+04 0.  0.
        4    1    3    3  502    0  0.77449017382E+03 -0.99060561499E+03  0.38113802912E+03  0.13139263008E+04  0.12699999809E+01 0. -1.
       -4    1    3    3    0  502 -0.77449017382E+03  0.99060561499E+03  0.76675619001E+02  0.12597679458E+04  0.12699999809E+01 0.  1.
</event>
<event>
 5   0  0.6346420E-06  0.2448699E+04  0.7818609E-02  0.8421493E-01
       -1   -1    0    0    0  501  0.00000000000E+00  0.00000000000E+00  0.72990175743E+03  0.72990175745E+03  0.50400001928E-02 0.  1.
        1   -1    0    0  501    0  0.00000000000E+00  0.00000000000E+00 -0.20537447035E+04  0.20537447035E+04  0.50400001928E-02 0. -1.
    10030    2    1    2    0    0  0.00000000000E+00  0.00000000000E+00 -0.13238429461E+04  0.27836464610E+04  0.24486991391E+04 0.  0.
        4    1    3    3  502    0  0.61546765047E+03  0.75977649844E+02  0.53815894617E+03  0.82109055305E+03  0.12699999809E+01 0.  1.
       -4    1    3    3    0  502 -0.61546765047E+03 -0.75977649844E+02 -0.18620018923E+04  0.19625559079E+04  0.12699999809E+01 0. -1.
</event>
<event>
 5   0  0.6290861E-06  0.2500490E+04  0.7818609E-02  0.8402811E-01
        1   -1    0    0  501    0  0.00000000000E+00  0.00000000000E+00  0.23930191766E+04  0.23930191766E+04  0.50400001928E-02 0.  1.
       -1   -1    0    0    0  501  0.00000000000E+00  0.00000000000E+00 -0.65319668680E+03  0.65319668682E+03  0.50400001928E-02 0. -1.
    10030    2    1    2    0    0  0.00000000000E+00  0.00000000000E+00  0.17398224898E+04  0.30462158634E+04  0.25004897102E+04 0.  0.
        1    1    3    3  502    0  0.89087741423E+02  0.12426105987E+04  0.74159284917E+03  0.14498198784E+04  0.50400001928E-02 0.  1.
       -1    1    3    3    0  502 -0.89087741423E+02 -0.12426105987E+04  0.99822964066E+03  0.15963959851E+04  0.50400001928E-02 0. -1.
</event>
<event>
 5   0  0.6477703E-06  0.2501951E+04  0.7818609E-02  0.8402291E-01
        1   -1    0    0  501    0  0.00000000000E+00  0.00000000000E+00  0.18282600943E+04  0.18282600943E+04  0.50400001928E-02 0.  1.
       -1   -1    0    0    0  501  0.00000000000E+00  0.00000000000E+00 -0.85597206157E+03  0.85597206159E+03  0.50400001928E-02 0. -1.
    10030    2    1    2    0    0  0.00000000000E+00  0.00000000000E+00  0.97228803270E+03  0.26842321559E+04  0.25019508884E+04 0.  0.
        5    1    3    3  502    0  0.10352105144E+03 -0.79566200773E+01 -0.85133205816E+03  0.85765277306E+03  0.46999998093E+01 0. -1.
       -5    1    3    3    0  502 -0.10352105144E+03  0.79566200773E+01  0.18236200909E+04  0.18265793828E+04  0.46999998093E+01 0.  1.
</event>
<event>
 5   0  0.1468512E-05  0.2499631E+04  0.7818609E-02  0.8403117E-01
       -2   -1    0    0    0  501  0.00000000000E+00  0.00000000000E+00  0.10927275546E+04  0.10927275546E+04  0.25500000920E-02 0.  1.
        2   -1    0    0  501    0  0.00000000000E+00  0.00000000000E+00 -0.14294857400E+04  0.14294857400E+04  0.25500000920E-02 0. -1.
    10030    2    1    2    0    0  0.00000000000E+00  0.00000000000E+00 -0.33675818535E+03  0.25222132946E+04  0.24996307383E+04 0.  0.
        4    1    3    3  502    0 -0.21581111827E+03 -0.42793506477E+03 -0.13330748863E+04  0.14166132584E+04  0.12699999809E+01 0. -1.
       -4    1    3    3    0  502  0.21581111827E+03  0.42793506477E+03  0.99631670098E+03  0.11056000362E+04  0.12699999809E+01 0.  1.
</event>
<event>
 5   0  0.1526824E-05  0.2494906E+04  0.7818609E-02  0.8404802E-01
       -2   -1    0    0    0  501  0.00000000000E+00  0.00000000000E+00  0.73210922649E+03  0.73210922650E+03  0.25500000920E-02 0.  1.
        2   -1    0    0  501    0  0.00000000000E+00  0.00000000000E+00 -0.21255564434E+04  0.21255564434E+04  0.25500000920E-02 0. -1.
    10030    2    1    2    0    0  0.00000000000E+00  0.00000000000E+00 -0.13934472169E+04  0.28576656699E+04  0.24949063980E+04 0.  0.
        2    1    3    3  502    0  0.11664610993E+04 -0.38034308314E+03 -0.43844385170E+03  0.13028911574E+04  0.25500000920E-02 0.  1.
       -2    1    3    3    0  502 -0.11664610993E+04  0.38034308314E+03 -0.95500336523E+03  0.15547745125E+04  0.25500000920E-02 0. -1.
</event>
<event>
 5   0  0.6477703E-06  0.2516235E+04  0.7818609E-02  0.8397224E-01
       -1   -1    0    0    0  501  0.00000000000E+00  0.00000000000E+00  0.75541439830E+03  0.75541439832E+03  0.50400001928E-02 0. -1.
        1   -1    0    0  501    0  0.00000000000E+00  0.00000000000E+00 -0.20953527384E+04  0.20953527384E+04  0.50400001928E-02 0.  1.
    10030    2    1    2    0    0  0.00000000000E+00  0.00000000000E+00 -0.13399383401E+04  0.28507671368E+04  0.25162349876E+04 0.  0.
        5    1    3    3  502    0 -0.74944009114E+03  0.41366501027E+03 -0.17145328354E+04  0.19163569930E+04  0.46999998093E+01 0.  1.
       -5    1    3    3    0  502  0.74944009114E+03 -0.41366501027E+03  0.37459449525E+03  0.93441014378E+03  0.46999998093E+01 0. -1.
</event>
<event>
 5   0  0.6290861E-06  0.2487192E+04  0.7818609E-02  0.8407563E-01
        1   -1    0    0  501    0  0.00000000000E+00  0.00000000000E+00  0.22556365438E+04  0.22556365438E+04  0.50400001928E-02 0.  1.
       -1   -1    0    0    0  501  0.00000000000E+00  0.00000000000E+00 -0.68562971036E+03  0.68562971037E+03  0.50400001928E-02 0. -1.
    10030    2    1    2    0    0  0.00000000000E+00  0.00000000000E+00  0.15700068334E+04  0.29412662541E+04  0.24871923369E+04 0.  0.
        1    1    3    3  502    0  0.73583136090E+03  0.99621050585E+03  0.91799999687E+03  0.15416248434E+04  0.50400001928E-02 0.  1.
       -1    1    3    3    0  502 -0.73583136090E+03 -0.99621050585E+03  0.65200683654E+03  0.13996414107E+04  0.50400001928E-02 0. -1.
</event>
<event>
 5   0  0.1501947E-05  0.2503383E+04  0.7818609E-02  0.8401781E-01
       -2   -1    0    0    0  501  0.00000000000E+00  0.00000000000E+00  0.88156609242E+03  0.88156609242E+03  0.25500000920E-02 0.  1.
        2   -1    0    0  501    0  0.00000000000E+00  0.00000000000E+00 -0.17772142926E+04  0.17772142926E+04  0.25500000920E-02 0. -1.
    10030    2    1    2    0    0  0.00000000000E+00  0.00000000000E+00 -0.89564820014E+03  0.26587803850E+04  0.25033831982E+04 0.  0.
        3    1    3    3  502    0 -0.76970116999E+03 -0.80326358792E+03 -0.10570696891E+04  0.15346232829E+04  0.10100000352E+00 0. -1.
       -3    1    3    3    0  502  0.76970116999E+03  0.80326358792E+03  0.16142148895E+03  0.11241571020E+04  0.10100000352E+00 0.  1.
</event>
<event>
 5   0  0.1468512E-05  0.2488218E+04  0.7818609E-02  0.8407195E-01
       -2   -1    0    0    0  501  0.00000000000E+00  0.00000000000E+00  0.13020179768E+04  0.13020179768E+04  0.25500000920E-02 0. -1.
        2   -1    0    0  501    0  0.00000000000E+00  0.00000000000E+00 -0.11887752147E+04  0.11887752147E+04  0.25500000920E-02 0.  1.
    10030    2    1    2    0    0  0.00000000000E+00  0.00000000000E+00  0.11324276208E+03  0.24907931915E+04  0.24882175949E+04 0.  0.
        4    1    3    3  502    0  0.51478860817E+03 -0.81778169090E+03 -0.72779096435E+03  0.12097336508E+04  0.12699999809E+01 0.  1.
       -4    1    3    3    0  502 -0.51478860817E+03  0.81778169090E+03  0.84103372643E+03  0.12810595408E+04  0.12699999809E+01 0. -1.
</event>
<event>
 5   0  0.1468512E-05  0.2494844E+04  0.7818609E-02  0.8404825E-01
       -2   -1    0    0    0  501  0.00000000000E+00  0.00000000000E+00  0.49815935241E+03  0.49815935242E+03  0.25500000920E-02 0.  1.
        2   -1    0    0  501    0  0.00000000000E+00  0.00000000000E+00 -0.31236234872E+04  0.31236234872E+04  0.25500000920E-02 0. -1.
    10030    2    1    2    0    0  0.00000000000E+00  0.00000000000E+00 -0.26254641347E+04  0.36217828396E+04  0.24948444870E+04 0.  0.
        4    1    3    3  502    0 -0.98544543590E+03 -0.34382022488E+03 -0.32094363861E+03  0.10919347445E+04  0.12699999809E+01 0.  1.
       -4    1    3    3    0  502  0.98544543590E+03  0.34382022488E+03 -0.23045204961E+04  0.25298480951E+04  0.12699999809E+01 0. -1.
</event>
<event>
 5   0  0.6105353E-06  0.2495316E+04  0.7818609E-02  0.8404656E-01
        1   -1    0    0  501    0  0.00000000000E+00  0.00000000000E+00  0.10731682251E+04  0.10731682251E+04  0.50400001928E-02 0. -1.
       -1   -1    0    0    0  501  0.00000000000E+00  0.00000000000E+00 -0.14505184854E+04  0.14505184854E+04  0.50400001928E-02 0.  1.
    10030    2    1    2    0    0  0.00000000000E+00  0.00000000000E+00 -0.37735026031E+03  0.25236867105E+04  0.24953158906E+04 0.  0.
        3    1    3    3  502    0  0.12275073034E+04  0.92806585040E+02 -0.39411787736E+03  0.12925618568E+04  0.10100000352E+00 0. -1.
       -3    1    3    3    0  502 -0.12275073034E+04 -0.92806585040E+02  0.16767617043E+02  0.12311248537E+04  0.10100000352E+00 0.  1.
</event>
<event>
 5   0  0.6105353E-06  0.2522590E+04  0.7818609E-02  0.8394982E-01
        1   -1    0    0  501    0  0.00000000000E+00  0.00000000000E+00  0.10621543216E+04  0.10621543216E+04  0.50400001928E-02 0.  1.
       -1   -1    0    0    0  501  0.00000000000E+00  0.00000000000E+00 -0.14977724425E+04  0.14977724425E+04  0.50400001928E-02 0. -1.
    10030    2    1    2    0    0  0.00000000000E+00  0.00000000000E+00 -0.43561812094E+03  0.25599267641E+04  0.25225903136E+04 0.  0.
        3    1    3    3  502    0 -0.10756602934E+04  0.65385892429E+03 -0.29828540721E+03  0.12936578968E+04  0.10100000352E+00 0.  1.
       -3    1    3    3    0  502  0.10756602934E+04 -0.65385892429E+03 -0.13733271372E+03  0.12662688672E+04  0.10100000352E+00 0. -1.
</event>
<event>
 5   0  0.6105353E-06  0.2490575E+04  0.7818609E-02  0.8406351E-01
       -1   -1    0    0    0  501  0.00000000000E+00  0.00000000000E+00  0.82926590300E+03  0.82926590301E+03  0.50400001928E-02 0. -1.
        1   -1    0    0  501    0  0.00000000000E+00  0.00000000000E+00 -0.18700172597E+04  0.18700172597E+04  0.50400001928E-02 0.  1.
    10030    2    1    2    0    0  0.00000000000E+00  0.00000000000E+00 -0.10407513567E+04  0.26992831627E+04  0.24905754769E+04 0.  0.
        3    1    3    3  502    0 -0.10486516900E+03  0.60205472351E+03  0.65557116136E+03  0.89623666047E+03  0.10100000352E+00 0. -1.
       -3    1    3    3    0  502  0.10486516900E+03 -0.60205472351E+03 -0.16963225180E+04  0.18030465022E+04  0.10100000352E+00 0.  1.
</event>
<event>
 5   0  0.6104486E-06  0.2492089E+04  0.7818609E-02  0.8405809E-01
        1   -1    0    0  501    0  0.00000000000E+00  0.00000000000E+00  0.26148629615E+04  0.26148629615E+04  0.50400001928E-02 0.  1.
       -1   -1    0    0    0  501  0.00000000000E+00  0.00000000000E+00 -0.59376973635E+03  0.59376973637E+03  0.50400001928E-02 0. -1.
    10030    2    1    2    0    0  0.00000000000E+00  0.00000000000E+00  0.20210932251E+04  0.32086326978E+04  0.24920886752E+04 0.  0.
        2    1    3    3  502    0 -0.88205077698E+03 -0.54691150329E+03  0.12271193224E+03  0.10450760661E+04  0.25500000920E-02 0. -1.
       -2    1    3    3    0  502  0.88205077698E+03  0.54691150329E+03  0.18983812929E+04  0.21635566317E+04  0.25500000920E-02 0.  1.
</event>
<event>
 5   0  0.1501947E-05  0.2512859E+04  0.7818609E-02  0.8398419E-01
       -2   -1    0    0    0  501  0.00000000000E+00  0.00000000000E+00  0.60619177239E+03  0.60619177240E+03  0.25500000920E-02 0.  1.
        2   -1    0    0  501    0  0.00000000000E+00  0.00000000000E+00 -0.26041508248E+04  0.26041508248E+04  0.25500000920E-02 0. -1.
    10030    2    1    2    0    0  0.00000000000E+00  0.00000000000E+00 -0.19979590524E+04  0.32103425972E+04  0.25128587737E+04 0.  0.
        3    1    3    3  502    0 -0.37640890721E+03 -0.90054026703E+03 -0.20097580846E+04  0.22342300703E+04  0.10100000352E+00 0. -1.
       -3    1    3    3    0  502  0.37640890721E+03  0.90054026703E+03  0.11799032168E+02  0.97611252698E+03  0.10100000352E+00 0.  1.
</event>
<event>
 5   0  0.1501947E-05  0.2499216E+04  0.7818609E-02  0.8403265E-01
        2   -1    0    0  501    0  0.00000000000E+00  0.00000000000E+00  0.13033762325E+04  0.13033762325E+04  0.25500000920E-02 0. -1.
       -2   -1    0    0    0  501  0.00000000000E+00  0.00000000000E+00 -0.11980581591E+04  0.11980581591E+04  0.25500000920E-02 0.  1.
    10030    2    1    2    0    0  0.00000000000E+00  0.00000000000E+00  0.10531807340E+03  0.25014343917E+04  0.24992163010E+04 0.  0.
        3    1    3    3  502    0  0.66423413516E+03 -0.51510796138E+03 -0.87281144062E+03  0.12117520453E+04  0.10100000352E+00 0.  1.
       -3    1    3    3    0  502 -0.66423413516E+03  0.51510796138E+03  0.97812951402E+03  0.12896823464E+04  0.10100000352E+00 0. -1.
</event>
<event>
 5   0  0.6105353E-06  0.2491407E+04  0.7818609E-02  0.8406053E-01
       -1   -1    0    0    0  501  0.00000000000E+00  0.00000000000E+00  0.11229326614E+04  0.11229326614E+04  0.50400001928E-02 0. -1.
        1   -1    0    0  501    0  0.00000000000E+00  0.00000000000E+00 -0.13818974251E+04  0.13818974251E+04  0.50400001928E-02 0.  1.
    10030    2    1    2    0    0  0.00000000000E+00  0.00000000000E+00 -0.25896476373E+03  0.25048300865E+04  0.24914074363E+04 0.  0.
        3    1    3    3  502    0 -0.11109160497E+04  0.15525065941E+03  0.41523036004E+03  0.11960992846E+04  0.10100000352E+00 0. -1.
       -3    1    3    3    0  502  0.11109160497E+04 -0.15525065941E+03 -0.67419512376E+03  0.13087308019E+04  0.10100000352E+00 0.  1.
</event>
<event>
 5   0  0.1526824E-05  0.2515403E+04  0.7818609E-02  0.8397519E-01
        2   -1    0    0  501    0  0.00000000000E+00  0.00000000000E+00  0.15939993705E+04  0.15939993705E+04  0.25500000920E-02 0.  1.
       -2   -1    0    0    0  501  0.00000000000E+00  0.00000000000E+00 -0.99235494688E+03  0.99235494688E+03  0.25500000920E-02 0. -1.
    10030    2    1    2    0    0  0.00000000000E+00  0.00000000000E+00  0.60164442360E+03  0.25863543174E+04  0.25154030775E+04 0.  0.
        2    1    3    3  502    0 -0.10104380040E+04 -0.74873575808E+03  0.28546900396E+03  0.12896056558E+04  0.25500000920E-02 0. -1.
       -2    1    3    3    0  502  0.10104380040E+04  0.74873575808E+03  0.31617541964E+03  0.12967486616E+04  0.25500000920E-02 0.  1.
</event>
<event>
 5   0  0.1572732E-05  0.2507367E+04  0.7818609E-02  0.8400366E-01
       -2   -1    0    0    0  501  0.00000000000E+00  0.00000000000E+00  0.12012082410E+04  0.12012082410E+04  0.25500000920E-02 0. -1.
        2   -1    0    0  501    0  0.00000000000E+00  0.00000000000E+00 -0.13084515234E+04  0.13084515235E+04  0.25500000920E-02 0.  1.
    10030    2    1    2    0    0  0.00000000000E+00  0.00000000000E+00 -0.10724328240E+03  0.25096597645E+04  0.25073673468E+04 0.  0.
        1    1    3    3  502    0 -0.13228280499E+03 -0.11243532594E+04  0.48543714929E+03  0.12317947143E+04  0.50400001928E-02 0. -1.
       -1    1    3    3    0  502  0.13228280499E+03  0.11243532594E+04 -0.59268043169E+03  0.12778650502E+04  0.50400001928E-02 0.  1.
</event>
<event>
 5   0  0.1468512E-05  0.2515191E+04  0.7818609E-02  0.8397594E-01
        2   -1    0    0  501    0  0.00000000000E+00  0.00000000000E+00  0.22843412651E+04  0.22843412651E+04  0.25500000920E-02 0. -1.
       -2   -1    0    0    0  501  0.00000000000E+00  0.00000000000E+00 -0.69234235294E+03  0.69234235295E+03  0.25500000920E-02 0.  1.
    10030    2    1    2    0    0  0.00000000000E+00  0.00000000000E+00  0.15919989121E+04  0.29766836180E+04  0.25151908130E+04 0.  0.
        4    1    3    3  502    0  0.11953823324E+04 -0.33279663447E+03  0.55388527563E+03  0.13588535727E+04  0.12699999809E+01 0.  1.
       -4    1    3    3    0  502 -0.11953823324E+04  0.33279663447E+03  0.10381136365E+04  0.16178300454E+04  0.12699999809E+01 0. -1.
</event>
<event>
 5   0  0.6477703E-06  0.2520036E+04  0.7818609E-02  0.8395882E-01
       -1   -1    0    0    0  501  0.00000000000E+00  0.00000000000E+00  0.89978217691E+03  0.89978217693E+03  0.50400001928E-02 0.  1.
        1   -1    0    0  501    0  0.00000000000E+00  0.00000000000E+00 -0.17644778965E+04  0.17644778965E+04  0.50400001928E-02 0. -1.
    10030    2    1    2    0    0  0.00000000000E+00  0.00000000000E+00 -0.86469571962E+03  0.26642600735E+04  0.25200363195E+04 0.  0.
        5    1    3    3  502    0 -0.82506615731E+02 -0.69990525040E+03  0.67191390553E+03  0.97373768933E+03  0.46999998093E+01 0.  1.
       -5    1    3    3    0  502  0.82506615731E+02  0.69990525040E+03 -0.15366096251E+04  0.16905223841E+04  0.46999998093E+01 0. -1.
</event>
<event>
 5   0  0.1572732E-05  0.2503560E+04  0.7818609E-02  0.8401718E-01
       -2   -1    0    0    0  501  0.00000000000E+00  0.00000000000E+00  0.13815192266E+04  0.13815192266E+04  0.25500000920E-02 0.  1.
        2   -1    0    0  501    0  0.00000000000E+00  0.00000000000E+00 -0.11342245557E+04  0.11342245557E+04  0.25500000920E-02 0. -1.
    10030    2    1    2    0    0  0.00000000000E+00  0.00000000000E+00  0.24729467096E+03  0.25157437823E+04  0.25035598902E+04 0.  0.
        1    1    3    3  502    0 -0.12348308564E+04  0.72718689292E+02 -0.69270777683E+02  0.12389082663E+04  0.50400001928E-02 0. -1.
       -1    1    3    3    0  502  0.12348308564E+04 -0.72718689292E+02  0.31656544865E+03  0.12768355160E+04  0.50400001928E-02 0.  1.
</event>
<event>
 5   0  0.1501947E-05  0.2548657E+04  0.7818609E-02  0.8385853E-01
        2   -1    0    0  501    0  0.00000000000E+00  0.00000000000E+00  0.93188210695E+03  0.93188210695E+03  0.25500000920E-02 0. -1.
       -2   -1    0    0    0  501  0.00000000000E+00  0.00000000000E+00 -0.17426165743E+04  0.17426165743E+04  0.25500000920E-02 0.  1.
    10030    2    1    2    0    0  0.00000000000E+00  0.00000000000E+00 -0.81073446739E+03  0.26744986813E+04  0.25486570620E+04 0.  0.
        3    1    3    3  502    0  0.51321007904E+03 -0.76411885242E+03 -0.13301589598E+04  0.16175861876E+04  0.10100000352E+00 0.  1.
       -3    1    3    3    0  502 -0.51321007904E+03  0.76411885242E+03  0.51942449237E+03  0.10569124937E+04  0.10100000352E+00 0. -1.
</event>
<event>
 5   0  0.6346420E-06  0.2487754E+04  0.7818609E-02  0.8407361E-01
        1   -1    0    0  501    0  0.00000000000E+00  0.00000000000E+00  0.19493113903E+04  0.19493113903E+04  0.50400001928E-02 0.  1.
       -1   -1    0    0    0  501  0.00000000000E+00  0.00000000000E+00 -0.79373172777E+03  0.79373172778E+03  0.50400001928E-02 0. -1.
    10030    2    1    2    0    0  0.00000000000E+00  0.00000000000E+00  0.11555796625E+04  0.27430431181E+04  0.24877542465E+04 0.  0.
        4    1    3    3  502    0  0.36050774802E+03 -0.37181024131E+03  0.18247822833E+04  0.18968502013E+04  0.12699999809E+01 0.  1.
       -4    1    3    3    0  502 -0.36050774802E+03  0.37181024131E+03 -0.66920262074E+03  0.84619291679E+03  0.12699999809E+01 0. -1.
</event>
<event>
 5   0  0.1550483E-05  0.2505561E+04  0.7818609E-02  0.8401007E-01
        2   -1    0    0  501    0  0.00000000000E+00  0.00000000000E+00  0.12530598836E+04  0.12530598836E+04  0.25500000920E-02 0.  1.
       -2   -1    0    0    0  501  0.00000000000E+00  0.00000000000E+00 -0.12525015871E+04  0.12525015871E+04  0.25500000920E-02 0. -1.
    10030    2    1    2    0    0  0.00000000000E+00  0.00000000000E+00  0.55829651201E+00  0.25055614708E+04  0.25055614086E+04 0.  0.
        5    1    3    3  502    0  0.10115054319E+04  0.31368145022E+03 -0.66897277320E+03  0.12526316107E+04  0.46999998093E+01 0. -1.
       -5    1    3    3    0  502 -0.10115054319E+04 -0.31368145022E+03  0.66953106971E+03  0.12529298600E+04  0.46999998093E+01 0.  1.
</event>
<event>
 5   0  0.1526824E-05  0.2541608E+04  0.7818609E-02  0.8388311E-01
        2   -1    0    0  501    0  0.00000000000E+00  0.00000000000E+00  0.11326944818E+04  0.11326944818E+04  0.25500000920E-02 0.  1.
       -2   -1    0    0    0  501  0.00000000000E+00  0.00000000000E+00 -0.14257531014E+04  0.14257531014E+04  0.25500000920E-02 0. -1.
    10030    2    1    2    0    0  0.00000000000E+00  0.00000000000E+00 -0.29305861957E+03  0.25584475832E+04  0.25416078929E+04 0.  0.
        2    1    3    3  502    0 -0.19053086742E+03  0.63291977206E+03 -0.12391022212E+04  0.14043730858E+04  0.25500000920E-02 0. -1.
       -2    1    3    3    0  502  0.19053086742E+03 -0.63291977206E+03  0.94604360167E+03  0.11540744974E+04  0.25500000920E-02 0.  1.
</event>
<event>
 5   0  0.1526824E-05  0.2420338E+04  0.7818609E-02  0.8431928E-01
       -2   -1    0    0    0  501  0.00000000000E+00  0.00000000000E+00  0.85585639905E+03  0.85585639905E+03  0.25500000920E-02 0.  1.
        2   -1    0    0  501    0  0.00000000000E+00  0.00000000000E+00 -0.17111621606E+04  0.17111621606E+04  0.25500000920E-02 0. -1.
    10030    2    1    2    0    0  0.00000000000E+00  0.00000000000E+00 -0.85530576153E+03  0.25670185596E+04  0.24203380631E+04 0.  0.
        2    1    3    3  502    0 -0.58267333355E+03  0.10530197210E+04 -0.29286718898E+03  0.12385999907E+04  0.25500000920E-02 0.  1.
       -2    1    3    3    0  502  0.58267333355E+03 -0.10530197210E+04 -0.56243857255E+03  0.13284185690E+04  0.25500000920E-02 0. -1.
</event>
<event>
 5   0  0.6105353E-06  0.2500766E+04  0.7818609E-02  0.8402713E-01
       -1   -1    0    0    0  501  0.00000000000E+00  0.00000000000E+00  0.88107999732E+03  0.88107999733E+03  0.50400001928E-02 0. -1.
        1   -1    0    0  501    0  0.00000000000E+00  0.00000000000E+00 -0.17744787060E+04  0.17744787060E+04  0.50400001928E-02 0.  1.
    10030    2    1    2    0    0  0.00000000000E+00  0.00000000000E+00 -0.89339870868E+03  0.26555587033E+04  0.25007660375E+04 0.  0.
        3    1    3    3  502    0 -0.62725046814E+03 -0.88166687814E+03  0.21872877593E+03  0.11039120986E+04  0.10100000352E+00 0. -1.
       -3    1    3    3    0  502  0.62725046814E+03  0.88166687814E+03 -0.11121274846E+04  0.15516466047E+04  0.10100000352E+00 0.  1.
</event>
<event>
 5   0  0.6104486E-06  0.2508747E+04  0.7818609E-02  0.8399876E-01
       -1   -1    0    0    0  501  0.00000000000E+00  0.00000000000E+00  0.14091479299E+04  0.14091479299E+04  0.50400001928E-02 0.  1.
        1   -1    0    0  501    0  0.00000000000E+00  0.00000000000E+00 -0.11165987446E+04  0.11165987446E+04  0.50400001928E-02 0. -1.
    10030    2    1    2    0    0  0.00000000000E+00  0.00000000000E+00  0.29254918530E+03  0.25257466745E+04  0.25087469457E+04 0.  0.
        2    1    3    3  502    0 -0.29886210987E+03 -0.66807956609E+03  0.11719042986E+04  0.13816687564E+04  0.25500000920E-02 0.  1.
       -2    1    3    3    0  502  0.29886210987E+03  0.66807956609E+03 -0.87935511329E+03  0.11440779181E+04  0.25500000920E-02 0. -1.
</event>
<event>
 5   0  0.1572732E-05  0.2434917E+04  0.7818609E-02  0.8426546E-01
        2   -1    0    0  501    0  0.00000000000E+00  0.00000000000E+00  0.12665460533E+04  0.12665460533E+04  0.25500000920E-02 0.  1.
       -2   -1    0    0    0  501  0.00000000000E+00  0.00000000000E+00 -0.11702735396E+04  0.11702735396E+04  0.25500000920E-02 0. -1.
    10030    2    1    2    0    0  0.00000000000E+00  0.00000000000E+00  0.96272513687E+02  0.24368195930E+04  0.24349171098E+04 0.  0.
        1    1    3    3  502    0 -0.74638199489E+03 -0.23195756054E+03 -0.88603559478E+03  0.11815030543E+04  0.50400001928E-02 0. -1.
       -1    1    3    3    0  502  0.74638199489E+03  0.23195756054E+03  0.98230810846E+03  0.12553165386E+04  0.50400001928E-02 0.  1.
</event>
<event>
 5   0  0.6104486E-06  0.2513702E+04  0.7818609E-02  0.8398120E-01
       -1   -1    0    0    0  501  0.00000000000E+00  0.00000000000E+00  0.10950384258E+04  0.10950384258E+04  0.50400001928E-02 0. -1.
        1   -1    0    0  501    0  0.00000000000E+00  0.00000000000E+00 -0.14425740623E+04  0.14425740623E+04  0.50400001928E-02 0.  1.
    10030    2    1    2    0    0  0.00000000000E+00  0.00000000000E+00 -0.34753563646E+03  0.25376124881E+04  0.25137016770E+04 0.  0.
        2    1    3    3  502    0  0.12549287941E+04  0.54506176710E+01 -0.10384102281E+03  0.12592295047E+04  0.25500000920E-02 0.  1.
       -2    1    3    3    0  502 -0.12549287941E+04 -0.54506176710E+01 -0.24369461365E+03  0.12783829834E+04  0.25500000920E-02 0. -1.
</event>
<event>
 5   0  0.6477703E-06  0.2497505E+04  0.7818609E-02  0.8403875E-01
       -1   -1    0    0    0  501  0.00000000000E+00  0.00000000000E+00  0.70616898677E+03  0.70616898679E+03  0.50400001928E-02 0.  1.
        1   -1    0    0  501    0  0.00000000000E+00  0.00000000000E+00 -0.22082296181E+04  0.22082296181E+04  0.50400001928E-02 0. -1.
    10030    2    1    2    0    0  0.00000000000E+00  0.00000000000E+00 -0.15020606313E+04  0.29143986049E+04  0.24975053730E+04 0.  0.
        5    1    3    3  502    0 -0.85147534483E+03 -0.58644556713E+03  0.66176814737E+02  0.10360164704E+04  0.46999998093E+01 0.  1.
       -5    1    3    3    0  502  0.85147534483E+03  0.58644556713E+03 -0.15682374460E+04  0.18783821345E+04  0.46999998093E+01 0. -1.
</event>
<event>
 5   0  0.1550483E-05  0.2510519E+04  0.7818609E-02  0.8399248E-01
        2   -1    0    0  501    0  0.00000000000E+00  0.00000000000E+00  0.25577134071E+04  0.25577134071E+04  0.25500000920E-02 0. -1.
       -2   -1    0    0    0  501  0.00000000000E+00  0.00000000000E+00 -0.61604900638E+03  0.61604900639E+03  0.25500000920E-02 0.  1.
    10030    2    1    2    0    0  0.00000000000E+00  0.00000000000E+00  0.19416644007E+04  0.31737624135E+04  0.25105193113E+04 0.  0.
        5    1    3    3  502    0  0.10802798006E+04 -0.35821380887E+03  0.30149022475E+03  0.11773869483E+04  0.46999998093E+01 0.  1.
       -5    1    3    3    0  502 -0.10802798006E+04  0.35821380887E+03  0.16401741759E+04  0.19963754651E+04  0.46999998093E+01 0. -1.
</event>
<event>
 5   0  0.6104486E-06  0.2488231E+04  0.7818609E-02  0.8407190E-01
        1   -1    0    0  501    0  0.00000000000E+00  0.00000000000E+00  0.14900386228E+04  0.14900386228E+04  0.50400001928E-02 0.  1.
       -1   -1    0    0    0  501  0.00000000000E+00  0.00000000000E+00 -0.10387809407E+04  0.10387809407E+04  0.50400001928E-02 0. -1.
    10030    2    1    2    0    0  0.00000000000E+00  0.00000000000E+00  0.45125768211E+03  0.25288195635E+04  0.24882312772E+04 0.  0.
        2    1    3    3  502    0  0.10496664850E+03  0.12048242699E+04 -0.71030213761E+02  0.12114721663E+04  0.25500000920E-02 0. -1.
       -2    1    3    3    0  502 -0.10496664850E+03 -0.12048242699E+04  0.52228789588E+03  0.13173473971E+04  0.25500000920E-02 0.  1.
</event>
<event>
 5   0  0.6105353E-06  0.2494067E+04  0.7818609E-02  0.8405102E-01
        1   -1    0    0  501    0  0.00000000000E+00  0.00000000000E+00  0.12795568184E+04  0.12795568184E+04  0.50400001928E-02 0.  1.
       -1   -1    0    0    0  501  0.00000000000E+00  0.00000000000E+00 -0.12153371045E+04  0.12153371045E+04  0.50400001928E-02 0. -1.
    10030    2    1    2    0    0  0.00000000000E+00  0.00000000000E+00  0.64219713955E+02  0.24948939229E+04  0.24940672635E+04 0.  0.
        3    1    3    3  502    0 -0.17552906122E+03 -0.89099462534E+03 -0.82281427120E+03  0.12254408222E+04  0.10100000352E+00 0. -1.
       -3    1    3    3    0  502  0.17552906122E+03  0.89099462534E+03  0.88703398515E+03  0.12694531006E+04  0.10100000352E+00 0.  1.
</event>
<event>
 5   0  0.6477703E-06  0.2499864E+04  0.7818609E-02  0.8403034E-01
       -1   -1    0    0    0  501  0.00000000000E+00  0.00000000000E+00  0.90790036783E+03  0.90790036785E+03  0.50400001928E-02 0.  1.
        1   -1    0    0  501    0  0.00000000000E+00  0.00000000000E+00 -0.17208169639E+04  0.17208169639E+04  0.50400001928E-02 0. -1.
    10030    2    1    2    0    0  0.00000000000E+00  0.00000000000E+00 -0.81291659606E+03  0.26287173317E+04  0.24998642799E+04 0.  0.
        5    1    3    3  502    0  0.11259367649E+03  0.10411023790E+04 -0.11240835603E+04  0.15362803911E+04  0.46999998093E+01 0. -1.
       -5    1    3    3    0  502 -0.11259367649E+03 -0.10411023790E+04  0.31116696425E+03  0.10924369406E+04  0.46999998093E+01 0.  1.
</event>
<event>
 5   0  0.1526824E-05  0.2499076E+04  0.7818609E-02  0.8403315E-01
       -2   -1    0    0    0  501  0.00000000000E+00  0.00000000000E+00  0.11427942422E+04  0.11427942422E+04  0.25500000920E-02 0. -1.
        2   -1    0    0  501    0  0.00000000000E+00  0.00000000000E+00 -0.13662520280E+04  0.13662520280E+04  0.25500000920E-02 0.  1.
    10030    2    1    2    0    0  0.00000000000E+00  0.00000000000E+00 -0.22345778583E+03  0.25090462702E+04  0.24990757900E+04 0.  0.
        2    1    3    3  502    0  0.50066099464E+03  0.10715587114E+04 -0.51638212680E+03  0.12905618948E+04  0.25500000920E-02 0.  1.
       -2    1    3    3    0  502 -0.50066099464E+03 -0.10715587114E+04  0.29292434096E+03  0.12184843754E+04  0.25500000920E-02 0. -1.
</event>
<event>
 5   0  0.1572732E-05  0.2482434E+04  0.7818609E-02  0.8409270E-01
        2   -1    0    0  501    0  0.00000000000E+00  0.00000000000E+00  0.22858165546E+04  0.22858165546E+04  0.25500000920E-02 0. -1.
       -2   -1    0    0    0  501  0.00000000000E+00  0.00000000000E+00 -0.67399112489E+03  0.67399112489E+03  0.25500000920E-02 0.  1.
    10030    2    1    2    0    0  0.00000000000E+00  0.00000000000E+00  0.16118254297E+04  0.29598076795E+04  0.24824343463E+04 0.  0.
        1    1    3    3  502    0 -0.70496077243E+03 -0.88085376125E+03  0.18896543529E+03  0.11439322424E+04  0.50400001928E-02 0.  1.
       -1    1    3    3    0  502  0.70496077243E+03  0.88085376125E+03  0.14228599944E+04  0.18158754371E+04  0.50400001928E-02 0. -1.
</event>
<event>
 5   0  0.6105353E-06  0.2512675E+04  0.7818609E-02  0.8398484E-01
       -1   -1    0    0    0  501  0.00000000000E+00  0.00000000000E+00  0.11229891761E+04  0.11229891761E+04  0.50400001928E-02 0. -1.
        1   -1    0    0  501    0  0.00000000000E+00  0.00000000000E+00 -0.14055202614E+04  0.14055202614E+04  0.50400001928E-02 0.  1.
    10030    2    1    2    0    0  0.00000000000E+00  0.00000000000E+00 -0.28253108529E+03  0.25285094375E+04  0.25126751006E+04 0.  0.
        3    1    3    3  502    0  0.17852714832E+02  0.81947497125E+03 -0.10993822091E+04  0.13713129474E+04  0.10100000352E+00 0.  1.
       -3    1    3    3    0  502 -0.17852714832E+02 -0.81947497125E+03  0.81685112382E+03  0.11571964901E+04  0.10100000352E+00 0. -1.
</event>
<event>
 5   0  0.1572732E-05  0.2514508E+04  0.7818609E-02  0.8397835E-01
        2   -1    0    0  501    0  0.00000000000E+00  0.00000000000E+00  0.64107226238E+03  0.64107226238E+03  0.25500000920E-02 0.  1.
       -2   -1    0    0    0  501  0.00000000000E+00  0.00000000000E+00 -0.24656939002E+04  0.24656939002E+04  0.25500000920E-02 0. -1.
    10030    2    1    2    0    0  0.00000000000E+00  0.00000000000E+00 -0.18246216378E+04  0.31067661626E+04  0.25145082755E+04 0.  0.
        1    1    3    3  502    0 -0.98496809173E+03 -0.75098285036E+03 -0.11788849868E+04  0.17099436235E+04  0.50400001928E-02 0.  1.
       -1    1    3    3    0  502  0.98496809173E+03  0.75098285036E+03 -0.64573665096E+03  0.13968225391E+04  0.50400001928E-02 0. -1.
</event>
<event>
 5   0  0.1572732E-05  0.2504177E+04  0.7818609E-02  0.8401499E-01
        2   -1    0    0  501    0  0.00000000000E+00  0.00000000000E+00  0.14070151158E+04  0.14070151158E+04  0.25500000920E-02 0. -1.
       -2   -1    0    0    0  501  0.00000000000E+00  0.00000000000E+00 -0.11142210101E+04  0.11142210101E+04  0.25500000920E-02 0.  1.
    10030    2    1    2    0    0  0.00000000000E+00  0.00000000000E+00  0.29279410562E+03  0.25212361259E+04  0.25041771531E+04 0.  0.
        1    1    3    3  502    0  0.67005497635E+03 -0.77101538235E+03  0.87540655286E+03  0.13452787904E+04  0.50400001928E-02 0. -1.
       -1    1    3    3    0  502 -0.67005497635E+03  0.77101538235E+03 -0.58261244724E+03  0.11759573355E+04  0.50400001928E-02 0.  1.
</event>
<event>
 5   0  0.1550483E-05  0.2492068E+04  0.7818609E-02  0.8405817E-01
        2   -1    0    0  501    0  0.00000000000E+00  0.00000000000E+00  0.13719309861E+04  0.13719309861E+04  0.25500000920E-02 0. -1.
       -2   -1    0    0    0  501  0.00000000000E+00  0.00000000000E+00 -0.11316898455E+04  0.11316898455E+04  0.25500000920E-02 0.  1.
    10030    2    1    2    0    0  0.00000000000E+00  0.00000000000E+00  0.24024114061E+03  0.25036208316E+04  0.24920677084E+04 0.  0.
        5    1    3    3  502    0  0.51447378154E+02  0.84872776794E+03  0.10351628443E+04  0.13396155646E+04  0.46999998093E+01 0. -1.
       -5    1    3    3    0  502 -0.51447378154E+02 -0.84872776794E+03 -0.79492170364E+03  0.11640052670E+04  0.46999998093E+01 0.  1.
</event>
<event>
 5   0  0.1501947E-05  0.2489838E+04  0.7818609E-02  0.8406615E-01
       -2   -1    0    0    0  501  0.00000000000E+00  0.00000000000E+00  0.20054189867E+04  0.20054189867E+04  0.25500000920E-02 0. -1.
        2   -1    0    0  501    0  0.00000000000E+00  0.00000000000E+00 -0.77281801216E+03  0.77281801217E+03  0.25500000920E-02 0.  1.
    10030    2    1    2    0    0  0.00000000000E+00  0.00000000000E+00  0.12326009746E+04  0.27782369989E+04  0.24898384806E+04 0.  0.
        3    1    3    3  502    0  0.66777207323E+03  0.72969507831E+03 -0.22720328204E+03  0.10148870827E+04  0.10100000352E+00 0.  1.
       -3    1    3    3    0  502 -0.66777207323E+03 -0.72969507831E+03  0.14598042566E+04  0.17633499162E+04  0.10100000352E+00 0. -1.
</event>
<event>
 5   0  0.6290861E-06  0.2495686E+04  0.7818609E-02  0.8404524E-01
        1   -1    0    0  501    0  0.00000000000E+00  0.00000000000E+00  0.12590116425E+04  0.12590116425E+04  0.50400001928E-02 0. -1.
       -1   -1    0    0    0  501  0.00000000000E+00  0.00000000000E+00 -0.12367733941E+04  0.12367733941E+04  0.50400001928E-02 0.  1.
    10030    2    1    2    0    0  0.00000000000E+00  0.00000000000E+00  0.22238248340E+02  0.24957850366E+04  0.24956859597E+04 0.  0.
        1    1    3    3  502    0  0.59963112481E+03  0.29293601326E+03 -0.10433150280E+04  0.12384971705E+04  0.50400001928E-02 0.  1.
       -1    1    3    3    0  502 -0.59963112481E+03 -0.29293601326E+03  0.10655532763E+04  0.12572878661E+04  0.50400001928E-02 0. -1.
</event>
<event>
 5   0  0.6290861E-06  0.2469851E+04  0.7818609E-02  0.8413806E-01
        1   -1    0    0  501    0  0.00000000000E+00  0.00000000000E+00  0.17356503848E+04  0.17356503849E+04  0.50400001928E-02 0. -1.
       -1   -1    0    0    0  501  0.00000000000E+00  0.00000000000E+00 -0.87865663683E+03  0.87865663684E+03  0.50400001928E-02 0.  1.
    10030    2    1    2    0    0  0.00000000000E+00  0.00000000000E+00  0.85699374802E+03  0.26143070217E+04  0.24698507889E+04 0.  0.
        1    1    3    3  502    0 -0.77855109107E+03 -0.45539201211E+03 -0.46435317373E+03  0.10144691006E+04  0.50400001928E-02 0.  1.
       -1    1    3    3    0  502  0.77855109107E+03  0.45539201211E+03  0.13213469218E+04  0.15998379211E+04  0.50400001928E-02 0. -1.
</event>
<event>
 5   0  0.6290861E-06  0.2474918E+04  0.7818609E-02  0.8411976E-01
       -1   -1    0    0    0  501  0.00000000000E+00  0.00000000000E+00  0.12113162525E+04  0.12113162525E+04  0.50400001928E-02 0. -1.
        1   -1    0    0  501    0  0.00000000000E+00  0.00000000000E+00 -0.12641655772E+04  0.12641655772E+04  0.50400001928E-02 0.  1.
    10030    2    1    2    0    0  0.00000000000E+00  0.00000000000E+00 -0.52849324676E+02  0.24754818297E+04  0.24749176225E+04 0.  0.
        1    1    3    3  502    0  0.55619384684E+03 -0.47144075413E+02 -0.11310903755E+04  0.12613245406E+04  0.50400001928E-02 0.  1.
       -1    1    3    3    0  502 -0.55619384684E+03  0.47144075413E+02  0.10782410508E+04  0.12141572891E+04  0.50400001928E-02 0. -1.
</event>
<event>
 5   0  0.1550483E-05  0.2487847E+04  0.7818609E-02  0.8407328E-01
        2   -1    0    0  501    0  0.00000000000E+00  0.00000000000E+00  0.15764360839E+04  0.15764360839E+04  0.25500000920E-02 0. -1.
       -2   -1    0    0    0  501  0.00000000000E+00  0.00000000000E+00 -0.98154681042E+03  0.98154681043E+03  0.25500000920E-02 0.  1.
    10030    2    1    2    0    0  0.00000000000E+00  0.00000000000E+00  0.59488927347E+03  0.25579828943E+04  0.24878471094E+04 0.  0.
        5    1    3    3  502    0  0.26223691113E+03 -0.11193162542E+04  0.78590224598E+03  0.13925880599E+04  0.46999998093E+01 0. -1.
       -5    1    3    3    0  502 -0.26223691113E+03  0.11193162542E+04 -0.19101297251E+03  0.11653948344E+04  0.46999998093E+01 0.  1.
</event>
<event>
 5   0  0.1572732E-05  0.2494020E+04  0.7818609E-02  0.8405119E-01
        2   -1    0    0  501    0  0.00000000000E+00  0.00000000000E+00  0.18246858704E+04  0.18246858704E+04  0.25500000920E-02 0. -1.
       -2   -1    0    0    0  501  0.00000000000E+00  0.00000000000E+00 -0.85221980313E+03  0.85221980313E+03  0.25500000920E-02 0.  1.
    10030    2    1    2    0    0  0.00000000000E+00  0.00000000000E+00  0.97246606730E+03  0.26769056736E+04  0.24940195936E+04 0.  0.
        1    1    3    3  502    0  0.10708145976E+03 -0.12324348989E+04  0.65482173669E+03  0.13996977266E+04  0.50400001928E-02 0. -1.
       -1    1    3    3    0  502 -0.10708145976E+03  0.12324348989E+04  0.31764433061E+03  0.12772079470E+04  0.50400001928E-02 0.  1.
</event>
<event>
 5   0  0.6477703E-06  0.2482254E+04  0.7818609E-02  0.8409335E-01
       -1   -1    0    0    0  501  0.00000000000E+00  0.00000000000E+00  0.97721887071E+03  0.97721887073E+03  0.50400001928E-02 0. -1.
        1   -1    0    0  501    0  0.00000000000E+00  0.00000000000E+00 -0.15763062394E+04  0.15763062394E+04  0.50400001928E-02 0.  1.
    10030    2    1    2    0    0  0.00000000000E+00  0.00000000000E+00 -0.59908736865E+03  0.25535251101E+04  0.24822539783E+04 0.  0.
        5    1    3    3  502    0 -0.22518057550E+03 -0.11967768919E+04 -0.53097002885E+02  0.12189432317E+04  0.46999998093E+01 0. -1.
       -5    1    3    3    0  502  0.22518057550E+03  0.11967768919E+04 -0.54599036576E+03  0.13345818784E+04  0.46999998093E+01 0.  1.
</event>
<event>
 5   0  0.6477703E-06  0.2502585E+04  0.7818609E-02  0.8402065E-01
       -1   -1    0    0    0  501  0.00000000000E+00  0.00000000000E+00  0.29646374920E+04  0.29646374920E+04  0.50400001928E-02 0. -1.
        1   -1    0    0  501    0  0.00000000000E+00  0.00000000000E+00 -0.52813656491E+03  0.52813656494E+03  0.50400001928E-02 0.  1.
    10030    2    1    2    0    0  0.00000000000E+00  0.00000000000E+00  0.24365009271E+04  0.34927740570E+04  0.25025854322E+04 0.  0.
        5    1    3    3  502    0  0.60417660424E+03 -0.20548028976E+03 -0.28392987799E+03  0.69849107668E+03  0.46999998093E+01 0.  1.
       -5    1    3    3    0  502 -0.60417660424E+03  0.20548028976E+03  0.27204308051E+04  0.27942829803E+04  0.46999998093E+01 0. -1.
</event>
<event>
 5   0  0.1572732E-05  0.2469129E+04  0.7818609E-02  0.8414067E-01
        2   -1    0    0  501    0  0.00000000000E+00  0.00000000000E+00  0.15132855886E+04  0.15132855886E+04  0.25500000920E-02 0.  1.
       -2   -1    0    0    0  501  0.00000000000E+00  0.00000000000E+00 -0.10071786819E+04  0.10071786819E+04  0.25500000920E-02 0. -1.
    10030    2    1    2    0    0  0.00000000000E+00  0.00000000000E+00  0.50610690668E+03  0.25204642705E+04  0.24691285786E+04 0.  0.
        1    1    3    3  502    0 -0.30639871859E+03  0.83814710662E+03  0.11238894479E+04  0.14350952018E+04  0.50400001928E-02 0.  1.
       -1    1    3    3    0  502  0.30639871859E+03 -0.83814710662E+03 -0.61778254119E+03  0.10853690687E+04  0.50400001928E-02 0. -1.
</event>
<event>
 5   0  0.6105353E-06  0.2521406E+04  0.7818609E-02  0.8395399E-01
       -1   -1    0    0    0  501  0.00000000000E+00  0.00000000000E+00  0.13436764117E+04  0.13436764117E+04  0.50400001928E-02 0.  1.
        1   -1    0    0  501    0  0.00000000000E+00  0.00000000000E+00 -0.11828530155E+04  0.11828530155E+04  0.50400001928E-02 0. -1.
    10030    2    1    2    0    0  0.00000000000E+00  0.00000000000E+00  0.16082339625E+03  0.25265294272E+04  0.25214057154E+04 0.  0.
        3    1    3    3  502    0 -0.10348422489E+04 -0.51950520548E+03  0.58001041247E+03  0.12950661093E+04  0.10100000352E+00 0.  1.
       -3    1    3    3    0  502  0.10348422489E+04  0.51950520548E+03 -0.41918701622E+03  0.12314633179E+04  0.10100000352E+00 0. -1.
</event>
<event>
 5   0  0.6104486E-06  0.2512449E+04  0.7818609E-02  0.8398564E-01
        1   -1    0    0  501    0  0.00000000000E+00  0.00000000000E+00  0.14466719385E+04  0.14466719386E+04  0.50400001928E-02 0.  1.
       -1   -1    0    0    0  501  0.00000000000E+00  0.00000000000E+00 -0.10908481866E+04  0.10908481866E+04  0.50400001928E-02 0. -1.
    10030    2    1    2    0    0  0.00000000000E+00  0.00000000000E+00  0.35582375193E+03  0.25375201252E+04  0.25124485753E+04 0.  0.
        2    1    3    3  502    0 -0.55663560765E+03  0.11144039125E+04  0.13933527708E+02  0.12457661992E+04  0.25500000920E-02 0. -1.
       -2    1    3    3    0  502  0.55663560765E+03 -0.11144039125E+04  0.34189022422E+03  0.12917539260E+04  0.25500000920E-02 0.  1.
</event>
<event>
 5   0  0.6346420E-06  0.2505135E+04  0.7818609E-02  0.8401159E-01
       -1   -1    0    0    0  501  0.00000000000E+00  0.00000000000E+00  0.11372451875E+04  0.11372451875E+04  0.50400001928E-02 0. -1.
        1   -1    0    0  501    0  0.00000000000E+00  0.00000000000E+00 -0.13795838719E+04  0.13795838719E+04  0.50400001928E-02 0.  1.
    10030    2    1    2    0    0  0.00000000000E+00  0.00000000000E+00 -0.24233868445E+03  0.25168290594E+04  0.25051348220E+04 0.  0.
        4    1    3    3  502    0 -0.54637954152E+03  0.52314822969E+02  0.10099888227E+04  0.11494983598E+04  0.12699999809E+01 0. -1.
       -4    1    3    3    0  502  0.54637954152E+03 -0.52314822969E+02 -0.12523275072E+04  0.13673306997E+04  0.12699999809E+01 0.  1.
</event>
<event>
 5   0  0.6346420E-06  0.2472524E+04  0.7818609E-02  0.8412840E-01
       -1   -1    0    0    0  501  0.00000000000E+00  0.00000000000E+00  0.77105230478E+03  0.77105230479E+03  0.50400001928E-02 0.  1.
        1   -1    0    0  501    0  0.00000000000E+00  0.00000000000E+00 -0.19821523973E+04  0.19821523973E+04  0.50400001928E-02 0. -1.
    10030    2    1    2    0    0  0.00000000000E+00  0.00000000000E+00 -0.12111000925E+04  0.27532047021E+04  0.24725235484E+04 0.  0.
        4    1    3    3  502    0  0.40843167265E+03 -0.57566431922E+03  0.52462389587E+03  0.87945305996E+03  0.12699999809E+01 0.  1.
       -4    1    3    3    0  502 -0.40843167265E+03  0.57566431922E+03 -0.17357239884E+04  0.18737516422E+04  0.12699999809E+01 0. -1.
</event>
<event>
 5   0  0.6290861E-06  0.2506602E+04  0.7818609E-02  0.8400637E-01
        1   -1    0    0  501    0  0.00000000000E+00  0.00000000000E+00  0.21769836596E+04  0.21769836596E+04  0.50400001928E-02 0.  1.
       -1   -1    0    0    0  501  0.00000000000E+00  0.00000000000E+00 -0.72153187471E+03  0.72153187473E+03  0.50400001928E-02 0. -1.
    10030    2    1    2    0    0  0.00000000000E+00  0.00000000000E+00  0.14554517849E+04  0.28985155343E+04  0.25066017643E+04 0.  0.
        1    1    3    3  502    0 -0.27454515174E+03  0.50553900808E+03  0.20152913738E+04  0.20957919864E+04  0.50400001928E-02 0.  1.
       -1    1    3    3    0  502  0.27454515174E+03 -0.50553900808E+03 -0.55983958891E+03  0.80272354791E+03  0.50400001928E-02 0. -1.
</event>
<event>
 5   0  0.6105353E-06  0.2441668E+04  0.7818609E-02  0.8424066E-01
       -1   -1    0    0    0  501  0.00000000000E+00  0.00000000000E+00  0.14149200610E+04  0.14149200610E+04  0.50400001928E-02 0. -1.
        1   -1    0    0  501    0  0.00000000000E+00  0.00000000000E+00 -0.10533707463E+04  0.10533707463E+04  0.50400001928E-02 0.  1.
    10030    2    1    2    0    0  0.00000000000E+00  0.00000000000E+00  0.36154931470E+03  0.24682908072E+04  0.24416677911E+04 0.  0.
        3    1    3    3  502    0 -0.10564054119E+04  0.52182150193E+03 -0.14231196775E+03  0.11868204500E+04  0.10100000352E+00 0.  1.
       -3    1    3    3    0  502  0.10564054119E+04 -0.52182150193E+03  0.50386128244E+03  0.12814703572E+04  0.10100000352E+00 0. -1.
</event>
<event>
 5   0  0.6346420E-06  0.2564675E+04  0.7818609E-02  0.8380300E-01
        1   -1    0    0  501    0  0.00000000000E+00  0.00000000000E+00  0.14154528753E+04  0.14154528753E+04  0.50400001928E-02 0.  1.
       -1   -1    0    0    0  501  0.00000000000E+00  0.00000000000E+00 -0.11617409496E+04  0.11617409496E+04  0.50400001928E-02 0. -1.
    10030    2    1    2    0    0  0.00000000000E+00  0.00000000000E+00  0.25371192570E+03  0.25771938249E+04  0.25646750807E+04 0.  0.
        4    1    3    3  502    0 -0.49883594754E+03  0.10722002880E+04  0.62519721291E+03  0.13376561322E+04  0.12699999809E+01 0.  1.
       -4    1    3    3    0  502  0.49883594754E+03 -0.10722002880E+04 -0.37148528721E+03  0.12395376927E+04  0.12699999809E+01 0. -1.
</event>
<event>
 5   0  0.1501947E-05  0.2516976E+04  0.7818609E-02  0.8396962E-01
        2   -1    0    0  501    0  0.00000000000E+00  0.00000000000E+00  0.12433146469E+04  0.12433146469E+04  0.25500000920E-02 0. -1.
       -2   -1    0    0    0  501  0.00000000000E+00  0.00000000000E+00 -0.12738470270E+04  0.12738470270E+04  0.25500000920E-02 0.  1.
    10030    2    1    2    0    0  0.00000000000E+00  0.00000000000E+00 -0.30532380160E+02  0.25171616739E+04  0.25169764930E+04 0.  0.
        3    1    3    3  502    0  0.97222715393E+03 -0.18584605749E+03  0.76198354057E+03  0.12491530420E+04  0.10100000352E+00 0. -1.
       -3    1    3    3    0  502 -0.97222715393E+03  0.18584605749E+03 -0.79251592073E+03  0.12680086320E+04  0.10100000352E+00 0.  1.
</event>
<event>
 5   0  0.6104486E-06  0.2501428E+04  0.7818609E-02  0.8402477E-01
       -1   -1    0    0    0  501  0.00000000000E+00  0.00000000000E+00  0.12777490713E+04  0.12777490713E+04  0.50400001928E-02 0.  1.
        1   -1    0    0  501    0  0.00000000000E+00  0.00000000000E+00 -0.12242510531E+04  0.12242510531E+04  0.50400001928E-02 0. -1.
    10030    2    1    2    0    0  0.00000000000E+00  0.00000000000E+00  0.53498018246E+02  0.25020001244E+04  0.25014281090E+04 0.  0.
        2    1    3    3  502    0 -0.20147869201E+03  0.11724906756E+04  0.41278752042E+03  0.12592543765E+04  0.25500000920E-02 0. -1.
       -2    1    3    3    0  502  0.20147869201E+03 -0.11724906756E+04 -0.35928950217E+03  0.12427457479E+04  0.25500000920E-02 0.  1.
</event>
<event>
 5   0  0.6105353E-06  0.2499867E+04  0.7818609E-02  0.8403033E-01
       -1   -1    0    0    0  501  0.00000000000E+00  0.00000000000E+00  0.11664269579E+04  0.11664269579E+04  0.50400001928E-02 0.  1.
        1   -1    0    0  501    0  0.00000000000E+00  0.00000000000E+00 -0.13394183026E+04  0.13394183026E+04  0.50400001928E-02 0. -1.
    10030    2    1    2    0    0  0.00000000000E+00  0.00000000000E+00 -0.17299134468E+03  0.25058452604E+04  0.24998668892E+04 0.  0.
        3    1    3    3  502    0 -0.31598565844E+03  0.12079716763E+04 -0.14400096425E+03  0.12568925153E+04  0.10100000352E+00 0.  1.
       -3    1    3    3    0  502  0.31598565844E+03 -0.12079716763E+04 -0.28990380431E+02  0.12489527451E+04  0.10100000352E+00 0. -1.
</event>
<event>
 5   0  0.6104486E-06  0.2499192E+04  0.7818609E-02  0.8403273E-01
        1   -1    0    0  501    0  0.00000000000E+00  0.00000000000E+00  0.17181681510E+04  0.17181681510E+04  0.50400001928E-02 0.  1.
       -1   -1    0    0    0  501  0.00000000000E+00  0.00000000000E+00 -0.90881135656E+03  0.90881135658E+03  0.50400001928E-02 0. -1.
    10030    2    1    2    0    0  0.00000000000E+00  0.00000000000E+00  0.80935679442E+03  0.26269795076E+04  0.24991924521E+04 0.  0.
        2    1    3    3  502    0  0.67544545977E+03  0.98699451473E+03  0.78527792613E+03  0.14307502097E+04  0.25500000920E-02 0.  1.
       -2    1    3    3    0  502 -0.67544545977E+03 -0.98699451473E+03  0.24078868287E+02  0.11962292979E+04  0.25500000920E-02 0. -1.
</event>
<event>
 5   0  0.1572732E-05  0.2496542E+04  0.7818609E-02  0.8404219E-01
       -2   -1    0    0    0  501  0.00000000000E+00  0.00000000000E+00  0.49930554156E+03  0.49930554157E+03  0.25500000920E-02 0. -1.
        2   -1    0    0  501    0  0.00000000000E+00  0.00000000000E+00 -0.31206947804E+04  0.31206947804E+04  0.25500000920E-02 0.  1.
    10030    2    1    2    0    0  0.00000000000E+00  0.00000000000E+00 -0.26213892388E+04  0.36200003220E+04  0.24965417660E+04 0.  0.
        1    1    3    3  502    0  0.77824887609E+03 -0.38481879747E+03 -0.10189354485E+02  0.86825148603E+03  0.50400001928E-02 0. -1.
       -1    1    3    3    0  502 -0.77824887609E+03  0.38481879747E+03 -0.26111998843E+04  0.27517488359E+04  0.50400001928E-02 0.  1.
</event>
<event>
 5   0  0.6290861E-06  0.2472426E+04  0.7818609E-02  0.8412875E-01
       -1   -1    0    0    0  501  0.00000000000E+00  0.00000000000E+00  0.13041438364E+04  0.13041438364E+04  0.50400001928E-02 0. -1.
        1   -1    0    0  501    0  0.00000000000E+00  0.00000000000E+00 -0.11718202253E+04  0.11718202253E+04  0.50400001928E-02 0.  1.
    10030    2    1    2    0    0  0.00000000000E+00  0.00000000000E+00  0.13232361108E+03  0.24759640617E+04  0.24724256302E+04 0.  0.
        1    1    3    3  502    0  0.44368430673E+02  0.48128185090E+03  0.12056044822E+04  0.12988775713E+04  0.50400001928E-02 0. -1.
       -1    1    3    3    0  502 -0.44368430673E+02 -0.48128185090E+03 -0.10732808711E+04  0.11770864905E+04  0.50400001928E-02 0.  1.
</event>
<event>
 5   0  0.1526824E-05  0.2507902E+04  0.7818609E-02  0.8400176E-01
        2   -1    0    0  501    0  0.00000000000E+00  0.00000000000E+00  0.12703769871E+04  0.12703769872E+04  0.25500000920E-02 0.  1.
       -2   -1    0    0    0  501  0.00000000000E+00  0.00000000000E+00 -0.12377376381E+04  0.12377376381E+04  0.25500000920E-02 0. -1.
    10030    2    1    2    0    0  0.00000000000E+00  0.00000000000E+00  0.32639349048E+02  0.25081146253E+04  0.25079022402E+04 0.  0.
        2    1    3    3  502    0 -0.41142241313E+03 -0.71762430277E+03 -0.92617213059E+03  0.12417921958E+04  0.25500000920E-02 0. -1.
       -2    1    3    3    0  502  0.41142241313E+03  0.71762430277E+03  0.95881147964E+03  0.12663224295E+04  0.25500000920E-02 0.  1.
</event>
<event>
 5   0  0.5164625E-06  0.2493415E+04  0.7818609E-02  0.8405335E-01
        3   -1    0    0  501    0  0.00000000000E+00  0.00000000000E+00  0.23093683101E+04  0.23093683123E+04  0.10100000352E+00 0.  1.
       -3   -1    0    0    0  501  0.00000000000E+00  0.00000000000E+00 -0.67303234221E+03  0.67303234978E+03  0.10100000352E+00 0. -1.
    10030    2    1    2    0    0  0.00000000000E+00  0.00000000000E+00  0.16363359679E+04  0.29824006621E+04  0.24934149894E+04 0.  0.
        4    1    3    3  502    0  0.61560865525E+03  0.81199910889E+03  0.16773398063E+04  0.19625970060E+04  0.12699999809E+01 0.  1.
       -4    1    3    3    0  502 -0.61560865525E+03 -0.81199910889E+03 -0.41003838433E+02  0.10198036561E+04  0.12699999809E+01 0. -1.
</event>
<event>
 5   0  0.6290861E-06  0.2494565E+04  0.7818609E-02  0.8404924E-01
        1   -1    0    0  501    0  0.00000000000E+00  0.00000000000E+00  0.13876442129E+04  0.13876442129E+04  0.50400001928E-02 0. -1.
       -1   -1    0    0    0  501  0.00000000000E+00  0.00000000000E+00 -0.11211181367E+04  0.11211181368E+04  0.50400001928E-02 0.  1.
    10030    2    1    2    0    0  0.00000000000E+00  0.00000000000E+00  0.26652607613E+03  0.25087623496E+04  0.24945645667E+04 0.  0.
        1    1    3    3  502    0 -0.84438893231E+03  0.83498249292E+03  0.51691115739E+03  0.12951392115E+04  0.50400001928E-02 0. -1.
       -1    1    3    3    0  502  0.84438893231E+03 -0.83498249292E+03 -0.25038508126E+03  0.12136231381E+04  0.50400001928E-02 0.  1.
</event>
<event>
 5   0  0.6105353E-06  0.2462043E+04  0.7818609E-02  0.8416634E-01
        1   -1    0    0  501    0  0.00000000000E+00  0.00000000000E+00  0.18868259140E+04  0.18868259140E+04  0.50400001928E-02 0. -1.
       -1   -1    0    0    0  501  0.00000000000E+00  0.00000000000E+00 -0.80315534689E+03  0.80315534691E+03  0.50400001928E-02 0.  1.
    10030    2    1    2    0    0  0.00000000000E+00  0.00000000000E+00  0.10836705671E+04  0.26899812609E+04  0.24620433152E+04 0.  0.
        3    1    3    3  502    0  0.19910768447E+03 -0.29810445019E+03 -0.74486321314E+03  0.82663858471E+03  0.10100000352E+00 0.  1.
       -3    1    3    3    0  502 -0.19910768447E+03  0.29810445019E+03  0.18285337803E+04  0.18633426762E+04  0.10100000352E+00 0. -1.
</event>
<event>
 5   0  0.1501947E-05  0.2458295E+04  0.7818609E-02  0.8417996E-01
       -2   -1    0    0    0  501  0.00000000000E+00  0.00000000000E+00  0.10410046997E+04  0.10410046997E+04  0.25500000920E-02 0.  1.
        2   -1    0    0  501    0  0.00000000000E+00  0.00000000000E+00 -0.14512937008E+04  0.14512937008E+04  0.25500000920E-02 0. -1.
    10030    2    1    2    0    0  0.00000000000E+00  0.00000000000E+00 -0.41028900115E+03  0.24922984005E+04  0.24582949890E+04 0.  0.
        3    1    3    3  502    0  0.39508394888E+01  0.32502327112E+02  0.10405625063E+04  0.10410774948E+04  0.10100000352E+00 0.  1.
       -3    1    3    3    0  502 -0.39508394888E+01 -0.32502327112E+02 -0.14508515075E+04  0.14512209058E+04  0.10100000352E+00 0. -1.
</event>
<event>
 5   0  0.1468512E-05  0.2503184E+04  0.7818609E-02  0.8401852E-01
       -2   -1    0    0    0  501  0.00000000000E+00  0.00000000000E+00  0.16418386297E+04  0.16418386297E+04  0.25500000920E-02 0.  1.
        2   -1    0    0  501    0  0.00000000000E+00  0.00000000000E+00 -0.95410254180E+03  0.95410254180E+03  0.25500000920E-02 0. -1.
    10030    2    1    2    0    0  0.00000000000E+00  0.00000000000E+00  0.68773608790E+03  0.25959411715E+04  0.25031839004E+04 0.  0.
        4    1    3    3  502    0 -0.36483202471E+03  0.45726017757E+03 -0.80361033252E+03  0.99397205981E+03  0.12699999809E+01 0. -1.
       -4    1    3    3    0  502  0.36483202471E+03 -0.45726017757E+03  0.14913464204E+04  0.16019691117E+04  0.12699999809E+01 0.  1.
</event>
<event>
 5   0  0.6290861E-06  0.2496620E+04  0.7818609E-02  0.8404191E-01
       -1   -1    0    0    0  501  0.00000000000E+00  0.00000000000E+00  0.12299842284E+04  0.12299842284E+04  0.50400001928E-02 0. -1.
        1   -1    0    0  501    0  0.00000000000E+00  0.00000000000E+00 -0.12669091047E+04  0.12669091048E+04  0.50400001928E-02 0.  1.
    10030    2    1    2    0    0  0.00000000000E+00  0.00000000000E+00 -0.36924876387E+02  0.24968933331E+04  0.24966202896E+04 0.  0.
        1    1    3    3  502    0  0.15058719523E+03 -0.26185089524E+01 -0.12577891737E+04  0.12667742362E+04  0.50400001928E-02 0.  1.
       -1    1    3    3    0  502 -0.15058719523E+03  0.26185089524E+01  0.12208642974E+04  0.12301190969E+04  0.50400001928E-02 0. -1.
</event>
<event>
 5   0  0.6477703E-06  0.2489315E+04  0.7818609E-02  0.8406802E-01
       -1   -1    0    0    0  501  0.00000000000E+00  0.00000000000E+00  0.15064020238E+04  0.15064020238E+04  0.50400001928E-02 0.  1.
        1   -1    0    0  501    0  0.00000000000E+00  0.00000000000E+00 -0.10283924905E+04  0.10283924905E+04  0.50400001928E-02 0. -1.
    10030    2    1    2    0    0  0.00000000000E+00  0.00000000000E+00  0.47800953332E+03  0.25347945144E+04  0.24893151902E+04 0.  0.
        5    1    3    3  502    0  0.69999184924E+03 -0.59083931755E+03 -0.61904737799E+03  0.11055864662E+04  0.46999998093E+01 0. -1.
       -5    1    3    3    0  502 -0.69999184924E+03  0.59083931755E+03  0.10970569113E+04  0.14292080481E+04  0.46999998093E+01 0.  1.
</event>
<event>
 5   0  0.1501947E-05  0.2487105E+04  0.7818609E-02  0.8407594E-01
       -2   -1    0    0    0  501  0.00000000000E+00  0.00000000000E+00  0.10437257288E+04  0.10437257288E+04  0.25500000920E-02 0. -1.
        2   -1    0    0  501    0  0.00000000000E+00  0.00000000000E+00 -0.14816374936E+04  0.14816374936E+04  0.25500000920E-02 0.  1.
    10030    2    1    2    0    0  0.00000000000E+00  0.00000000000E+00 -0.43791176477E+03  0.25253632224E+04  0.24871052835E+04 0.  0.
        3    1    3    3  502    0  0.62660537613E+03  0.13812841427E+03 -0.13005691573E+04  0.14502392559E+04  0.10100000352E+00 0.  1.
       -3    1    3    3    0  502 -0.62660537613E+03 -0.13812841427E+03  0.86265739254E+03  0.10751239665E+04  0.10100000352E+00 0. -1.
</event>
<event>
 5   0  0.6346420E-06  0.2544537E+04  0.7818609E-02  0.8387288E-01
       -1   -1    0    0    0  501  0.00000000000E+00  0.00000000000E+00  0.16554091944E+04  0.16554091944E+04  0.50400001928E-02 0. -1.
        1   -1    0    0  501    0  0.00000000000E+00  0.00000000000E+00 -0.97780516137E+03  0.97780516138E+03  0.50400001928E-02 0.  1.
    10030    2    1    2    0    0  0.00000000000E+00  0.00000000000E+00  0.67760403300E+03  0.26332143558E+04  0.25445374074E+04 0.  0.
        4    1    3    3  502    0 -0.98712967712E+03  0.75466601445E+03  0.55925738699E+02  0.12438147346E+04  0.12699999809E+01 0. -1.
       -4    1    3    3    0  502  0.98712967712E+03 -0.75466601445E+03  0.62167829430E+03  0.13893996212E+04  0.12699999809E+01 0.  1.
</event>
<event>
 5   0  0.1501947E-05  0.2530292E+04  0.7818609E-02  0.8392273E-01
        2   -1    0    0  501    0  0.00000000000E+00  0.00000000000E+00  0.26506367211E+04  0.26506367211E+04  0.25500000920E-02 0.  1.
       -2   -1    0    0    0  501  0.00000000000E+00  0.00000000000E+00 -0.60385298316E+03  0.60385298316E+03  0.25500000920E-02 0. -1.
    10030    2    1    2    0    0  0.00000000000E+00  0.00000000000E+00  0.20467837380E+04  0.32544897043E+04  0.25302923873E+04 0.  0.
        3    1    3    3  502    0 -0.69229376240E+03 -0.42963381773E+03  0.22682546899E+04  0.24101525302E+04  0.10100000352E+00 0.  1.
       -3    1    3    3    0  502  0.69229376240E+03  0.42963381773E+03 -0.22147095186E+03  0.84433717407E+03  0.10100000352E+00 0. -1.
</event>
<event>
 5   0  0.5164625E-06  0.2372491E+04  0.7818609E-02  0.8449875E-01
       -3   -1    0    0    0  501  0.00000000000E+00  0.00000000000E+00  0.14775612713E+04  0.14775612748E+04  0.10100000352E+00 0. -1.
        3   -1    0    0  501    0  0.00000000000E+00  0.00000000000E+00 -0.95236588740E+03  0.95236589275E+03  0.10100000352E+00 0.  1.
    10030    2    1    2    0    0  0.00000000000E+00  0.00000000000E+00  0.52519538392E+03  0.24299271675E+04  0.23724914854E+04 0.  0.
        2    1    3    3  502    0  0.11433256311E+04 -0.10894105728E+03 -0.41434245992E+02  0.11492512560E+04  0.25500000920E-02 0. -1.
       -2    1    3    3    0  502 -0.11433256311E+04  0.10894105728E+03  0.56662962991E+03  0.12806759115E+04  0.25500000920E-02 0.  1.
</event>
<event>
 5   0  0.6104486E-06  0.2514070E+04  0.7818609E-02  0.8397990E-01
        1   -1    0    0  501    0  0.00000000000E+00  0.00000000000E+00  0.79290965422E+03  0.79290965424E+03  0.50400001928E-02 0. -1.
       -1   -1    0    0    0  501  0.00000000000E+00  0.00000000000E+00 -0.19928335086E+04  0.19928335086E+04  0.50400001928E-02 0.  1.
    10030    2    1    2    0    0  0.00000000000E+00  0.00000000000E+00 -0.11999238544E+04  0.27857431629E+04  0.25140699499E+04 0.  0.
        2    1    3    3  502    0  0.47642528155E+03 -0.58775867630E+03 -0.17122784826E+04  0.18719879574E+04  0.25500000920E-02 0.  1.
       -2    1    3    3    0  502 -0.47642528155E+03  0.58775867630E+03  0.51235462823E+03  0.91375520548E+03  0.25500000920E-02 0. -1.
</event>
<event>
 5   0  0.1550483E-05  0.2502456E+04  0.7818609E-02  0.8402111E-01
        2   -1    0    0  501    0  0.00000000000E+00  0.00000000000E+00  0.25513327794E+04  0.25513327794E+04  0.25500000920E-02 0.  1.
       -2   -1    0    0    0  501  0.00000000000E+00  0.00000000000E+00 -0.61362903517E+03  0.61362903517E+03  0.25500000920E-02 0. -1.
    10030    2    1    2    0    0  0.00000000000E+00  0.00000000000E+00  0.19377037442E+04  0.31649618146E+04  0.25024562908E+04 0.  0.
        5    1    3    3  502    0  0.10118992958E+04 -0.24610762985E+03  0.18460402208E+04  0.21195272437E+04  0.46999998093E+01 0.  1.
       -5    1    3    3    0  502 -0.10118992958E+04  0.24610762985E+03  0.91663523465E+02  0.10454345708E+04  0.46999998093E+01 0. -1.
</event>
<event>
 5   0  0.6290861E-06  0.2479200E+04  0.7818609E-02  0.8410433E-01
       -1   -1    0    0    0  501  0.00000000000E+00  0.00000000000E+00  0.15825644719E+04  0.15825644719E+04  0.50400001928E-02 0.  1.
        1   -1    0    0  501    0  0.00000000000E+00  0.00000000000E+00 -0.97096108013E+03  0.97096108015E+03  0.50400001928E-02 0. -1.
    10030    2    1    2    0    0  0.00000000000E+00  0.00000000000E+00  0.61160339181E+03  0.25535255521E+04  0.24792002816E+04 0.  0.
        1    1    3    3  502    0  0.60397199825E+03  0.81694407308E+03  0.10373255566E+04  0.14519724872E+04  0.50400001928E-02 0.  1.
       -1    1    3    3    0  502 -0.60397199825E+03 -0.81694407308E+03 -0.42572216477E+03  0.11015530649E+04  0.50400001928E-02 0. -1.
</event>
<event>
 5   0  0.6290861E-06  0.2530180E+04  0.7818609E-02  0.8392312E-01
       -1   -1    0    0    0  501  0.00000000000E+00  0.00000000000E+00  0.15258376467E+04  0.15258376467E+04  0.50400001928E-02 0.  1.
        1   -1    0    0  501    0  0.00000000000E+00  0.00000000000E+00 -0.10489012181E+04  0.10489012181E+04  0.50400001928E-02 0. -1.
    10030    2    1    2    0    0  0.00000000000E+00  0.00000000000E+00  0.47693642861E+03  0.25747388648E+04  0.25301802040E+04 0.  0.
        1    1    3    3  502    0  0.46031442523E+03 -0.44927103530E+03  0.13470192888E+04  0.14927139035E+04  0.50400001928E-02 0.  1.
       -1    1    3    3    0  502 -0.46031442523E+03  0.44927103530E+03 -0.87008286020E+03  0.10820249613E+04  0.50400001928E-02 0. -1.
</event>
<event>
 5   0  0.1501947E-05  0.2490926E+04  0.7818609E-02  0.8406225E-01
        2   -1    0    0  501    0  0.00000000000E+00  0.00000000000E+00  0.14247653777E+04  0.14247653777E+04  0.25500000920E-02 0.  1.
       -2   -1    0    0    0  501  0.00000000000E+00  0.00000000000E+00 -0.10887249310E+04  0.10887249310E+04  0.25500000920E-02 0. -1.
    10030    2    1    2    0    0  0.00000000000E+00  0.00000000000E+00  0.33604044672E+03  0.25134903087E+04  0.24909256010E+04 0.  0.
        3    1    3    3  502    0  0.81843102899E+01 -0.59546559455E+03  0.12717899906E+04  0.14043133723E+04  0.10100000352E+00 0.  1.
       -3    1    3    3    0  502 -0.81843102899E+01  0.59546559455E+03 -0.93574954384E+03  0.11091769364E+04  0.10100000352E+00 0. -1.
</event>
<event>
 5   0  0.6346420E-06  0.2509755E+04  0.7818609E-02  0.8399519E-01
        1   -1    0    0  501    0  0.00000000000E+00  0.00000000000E+00  0.12483871050E+04  0.12483871050E+04  0.50400001928E-02 0. -1.
       -1   -1    0    0    0  501  0.00000000000E+00  0.00000000000E+00 -0.12614016096E+04  0.12614016097E+04  0.50400001928E-02 0.  1.
    10030    2    1    2    0    0  0.00000000000E+00  0.00000000000E+00 -0.13014504683E+02  0.25097887146E+04  0.25097549711E+04 0.  0.
        4    1    3    3  502    0  0.12591564338E+03 -0.40136076013E+03  0.11757821657E+04  0.12487635977E+04  0.12699999809E+01 0. -1.
       -4    1    3    3    0  502 -0.12591564338E+03  0.40136076013E+03 -0.11887966704E+04  0.12610251169E+04  0.12699999809E+01 0.  1.
</event>
<event>
 5   0  0.6290861E-06  0.2510152E+04  0.7818609E-02  0.8399378E-01
        1   -1    0    0  501    0  0.00000000000E+00  0.00000000000E+00  0.16553244806E+04  0.16553244806E+04  0.50400001928E-02 0. -1.
       -1   -1    0    0    0  501  0.00000000000E+00  0.00000000000E+00 -0.95160542733E+03  0.95160542734E+03  0.50400001928E-02 0.  1.
    10030    2    1    2    0    0  0.00000000000E+00  0.00000000000E+00  0.70371905327E+03  0.26069299079E+04  0.25101519952E+04 0.  0.
        1    1    3    3  502    0  0.15921643623E+03  0.59479731245E+03  0.14876803330E+04  0.16100703368E+04  0.50400001928E-02 0. -1.
       -1    1    3    3    0  502 -0.15921643623E+03 -0.59479731245E+03 -0.78396127968E+03  0.99685957112E+03  0.50400001928E-02 0.  1.
</event>
<event>
 5   0  0.1550483E-05  0.2521070E+04  0.7818609E-02  0.8395517E-01
       -2   -1    0    0    0  501  0.00000000000E+00  0.00000000000E+00  0.56415819136E+03  0.56415819137E+03  0.25500000920E-02 0. -1.
        2   -1    0    0  501    0  0.00000000000E+00  0.00000000000E+00 -0.28164953749E+04  0.28164953749E+04  0.25500000920E-02 0.  1.
    10030    2    1    2    0    0  0.00000000000E+00  0.00000000000E+00 -0.22523371835E+04  0.33806535663E+04  0.25210703574E+04 0.  0.
        5    1    3    3  502    0 -0.11173978500E+02 -0.26961901511E+03 -0.27772964745E+04  0.27903793772E+04  0.46999998093E+01 0.  1.
       -5    1    3    3    0  502  0.11173978500E+02  0.26961901511E+03  0.52495929100E+03  0.59027418909E+03  0.46999998093E+01 0. -1.
</event>
<event>
 5   0  0.6477703E-06  0.2490179E+04  0.7818609E-02  0.8406493E-01
       -1   -1    0    0    0  501  0.00000000000E+00  0.00000000000E+00  0.15333478108E+04  0.15333478108E+04  0.50400001928E-02 0.  1.
        1   -1    0    0  501    0  0.00000000000E+00  0.00000000000E+00 -0.10110218170E+04  0.10110218170E+04  0.50400001928E-02 0. -1.
    10030    2    1    2    0    0  0.00000000000E+00  0.00000000000E+00  0.52232599382E+03  0.25443696278E+04  0.24901791822E+04 0.  0.
        5    1    3    3  502    0  0.50417640037E+03 -0.11354559195E+04  0.17707994577E+03  0.12549236571E+04  0.46999998093E+01 0.  1.
       -5    1    3    3    0  502 -0.50417640037E+03  0.11354559195E+04  0.34524604805E+03  0.12894459708E+04  0.46999998093E+01 0. -1.
</event>
<event>
 5   0  0.1501947E-05  0.2516414E+04  0.7818609E-02  0.8397161E-01
       -2   -1    0    0    0  501  0.00000000000E+00  0.00000000000E+00  0.13330529234E+04  0.13330529234E+04  0.25500000920E-02 0.  1.
        2   -1    0    0  501    0  0.00000000000E+00  0.00000000000E+00 -0.11875638003E+04  0.11875638003E+04  0.25500000920E-02 0. -1.
    10030    2    1    2    0    0  0.00000000000E+00  0.00000000000E+00  0.14548912306E+03  0.25206167237E+04  0.25164144299E+04 0.  0.
        3    1    3    3  502    0 -0.40316184755E+03  0.48666606488E+03 -0.10170530372E+04  0.11974056224E+04  0.10100000352E+00 0. -1.
       -3    1    3    3    0  502  0.40316184755E+03 -0.48666606488E+03  0.11625421602E+04  0.13232111013E+04  0.10100000352E+00 0.  1.
</event>
<event>
 5   0  0.6104486E-06  0.2469218E+04  0.7818609E-02  0.8414034E-01
        1   -1    0    0  501    0  0.00000000000E+00  0.00000000000E+00  0.15300390764E+04  0.15300390764E+04  0.50400001928E-02 0. -1.
       -1   -1    0    0    0  501  0.00000000000E+00  0.00000000000E+00 -0.99622280502E+03  0.99622280504E+03  0.50400001928E-02 0.  1.
    10030    2    1    2    0    0  0.00000000000E+00  0.00000000000E+00  0.53381627139E+03  0.25262618815E+04  0.24692183545E+04 0.  0.
        2    1    3    3  502    0  0.52099273780E+03  0.79345355050E+03 -0.54079682730E+03  0.10924574033E+04  0.25500000920E-02 0.  1.
       -2    1    3    3    0  502 -0.52099273780E+03 -0.79345355050E+03  0.10746130987E+04  0.14338044781E+04  0.25500000920E-02 0. -1.
</event>
<event>
 5   0  0.6346420E-06  0.2504911E+04  0.7818609E-02  0.8401238E-01
        1   -1    0    0  501    0  0.00000000000E+00  0.00000000000E+00  0.13862352083E+04  0.13862352083E+04  0.50400001928E-02 0.  1.
       -1   -1    0    0    0  501  0.00000000000E+00  0.00000000000E+00 -0.11315864080E+04  0.11315864080E+04  0.50400001928E-02 0. -1.
    10030    2    1    2    0    0  0.00000000000E+00  0.00000000000E+00  0.25464880035E+03  0.25178216163E+04  0.25049111122E+04 0.  0.
        4    1    3    3  502    0 -0.52457828818E+03 -0.27805765011E+02  0.12701486779E+04  0.13744943862E+04  0.12699999809E+01 0.  1.
       -4    1    3    3    0  502  0.52457828818E+03  0.27805765011E+02 -0.10154998775E+04  0.11433272301E+04  0.12699999809E+01 0. -1.
</event>
<event>
 5   0  0.6290861E-06  0.2523516E+04  0.7818609E-02  0.8394655E-01
       -1   -1    0    0    0  501  0.00000000000E+00  0.00000000000E+00  0.13313095471E+04  0.13313095471E+04  0.50400001928E-02 0. -1.
        1   -1    0    0  501    0  0.00000000000E+00  0.00000000000E+00 -0.11958403898E+04  0.11958403898E+04  0.50400001928E-02 0.  1.
    10030    2    1    2    0    0  0.00000000000E+00  0.00000000000E+00  0.13546915726E+03  0.25271499369E+04  0.25235163782E+04 0.  0.
        1    1    3    3  502    0 -0.34556894324E+03  0.14441878994E+03  0.12743591149E+04  0.13282566902E+04  0.50400001928E-02 0. -1.
       -1    1    3    3    0  502  0.34556894324E+03 -0.14441878994E+03 -0.11388899576E+04  0.11988932467E+04  0.50400001928E-02 0.  1.
</event>
<event>
 5   0  0.6346420E-06  0.2506975E+04  0.7818609E-02  0.8400505E-01
        1   -1    0    0  501    0  0.00000000000E+00  0.00000000000E+00  0.21439703665E+04  0.21439703665E+04  0.50400001928E-02 0.  1.
       -1   -1    0    0    0  501  0.00000000000E+00  0.00000000000E+00 -0.73286011622E+03  0.73286011624E+03  0.50400001928E-02 0. -1.
    10030    2    1    2    0    0  0.00000000000E+00  0.00000000000E+00  0.14111102503E+04  0.28768304828E+04  0.25069745687E+04 0.  0.
        4    1    3    3  502    0  0.10604726509E+04 -0.50420788258E+03  0.20220761646E+03  0.11915189320E+04  0.12699999809E+01 0. -1.
       -4    1    3    3    0  502 -0.10604726509E+04  0.50420788258E+03  0.12089026339E+04  0.16853115508E+04  0.12699999809E+01 0.  1.
</event>
<event>
 5   0  0.1526824E-05  0.2473200E+04  0.7818609E-02  0.8412596E-01
       -2   -1    0    0    0  501  0.00000000000E+00  0.00000000000E+00  0.12990547393E+04  0.12990547393E+04  0.25500000920E-02 0.  1.
        2   -1    0    0  501    0  0.00000000000E+00  0.00000000000E+00 -0.11771483707E+04  0.11771483707E+04  0.25500000920E-02 0. -1.
    10030    2    1    2    0    0  0.00000000000E+00  0.00000000000E+00  0.12190636860E+03  0.24762031100E+04  0.24732004932E+04 0.  0.
        2    1    3    3  502    0 -0.25743108266E+02  0.12620343205E+03 -0.11704139988E+04  0.11774799117E+04  0.25500000920E-02 0. -1.
       -2    1    3    3    0  502  0.25743108266E+02 -0.12620343205E+03  0.12923203674E+04  0.12987231983E+04  0.25500000920E-02 0.  1.
</event>
<event>
 5   0  0.1572732E-05  0.2463407E+04  0.7818609E-02  0.8416139E-01
       -2   -1    0    0    0  501  0.00000000000E+00  0.00000000000E+00  0.14013213607E+04  0.14013213607E+04  0.25500000920E-02 0. -1.
        2   -1    0    0  501    0  0.00000000000E+00  0.00000000000E+00 -0.10826167006E+04  0.10826167006E+04  0.25500000920E-02 0.  1.
    10030    2    1    2    0    0  0.00000000000E+00  0.00000000000E+00  0.31870466010E+03  0.24839380614E+04  0.24634073217E+04 0.  0.
        1    1    3    3  502    0 -0.79829866573E+03  0.16423824418E+03  0.10905417804E+04  0.13614464129E+04  0.50400001928E-02 0. -1.
       -1    1    3    3    0  502  0.79829866573E+03 -0.16423824418E+03 -0.77183712028E+03  0.11224916484E+04  0.50400001928E-02 0.  1.
</event>
<event>
 5   0  0.1501947E-05  0.2482939E+04  0.7818609E-02  0.8409089E-01
        2   -1    0    0  501    0  0.00000000000E+00  0.00000000000E+00  0.26156607221E+04  0.26156607221E+04  0.25500000920E-02 0.  1.
       -2   -1    0    0    0  501  0.00000000000E+00  0.00000000000E+00 -0.58923790382E+03  0.58923790383E+03  0.25500000920E-02 0. -1.
    10030    2    1    2    0    0  0.00000000000E+00  0.00000000000E+00  0.20264228183E+04  0.32048986259E+04  0.24829389368E+04 0.  0.
        3    1    3    3  502    0 -0.19029454307E+03  0.12581350536E+03 -0.56195178757E+03  0.60649062070E+03  0.10100000352E+00 0. -1.
       -3    1    3    3    0  502  0.19029454307E+03 -0.12581350536E+03  0.25883746058E+04  0.25984080052E+04  0.10100000352E+00 0.  1.
</event>
<event>
 5   0  0.1572732E-05  0.2530234E+04  0.7818609E-02  0.8392293E-01
       -2   -1    0    0    0  501  0.00000000000E+00  0.00000000000E+00  0.11620736439E+04  0.11620736439E+04  0.25500000920E-02 0.  1.
        2   -1    0    0  501    0  0.00000000000E+00  0.00000000000E+00 -0.13772976763E+04  0.13772976763E+04  0.25500000920E-02 0. -1.
    10030    2    1    2    0    0  0.00000000000E+00  0.00000000000E+00 -0.21522403236E+03  0.25393713202E+04  0.25302342416E+04 0.  0.
        1    1    3    3  502    0 -0.54618738739E+03  0.56389131222E+03  0.88805283332E+03  0.11852982363E+04  0.50400001928E-02 0.  1.
       -1    1    3    3    0  502  0.54618738739E+03 -0.56389131222E+03 -0.11032768657E+04  0.13540730839E+04  0.50400001928E-02 0. -1.
</event>
<event>
 5   0  0.1468512E-05  0.2491193E+04  0.7818609E-02  0.8406130E-01
       -2   -1    0    0    0  501  0.00000000000E+00  0.00000000000E+00  0.75508257424E+03  0.75508257424E+03  0.25500000920E-02 0.  1.
        2   -1    0    0  501    0  0.00000000000E+00  0.00000000000E+00 -0.20547564796E+04  0.20547564796E+04  0.25500000920E-02 0. -1.
    10030    2    1    2    0    0  0.00000000000E+00  0.00000000000E+00 -0.12996739054E+04  0.28098390539E+04  0.24911931375E+04 0.  0.
        4    1    3    3  502    0  0.65559027702E+03 -0.13014040914E+03  0.53568822062E+03  0.85656209350E+03  0.12699999809E+01 0.  1.
       -4    1    3    3    0  502 -0.65559027702E+03  0.13014040914E+03 -0.18353621260E+04  0.19532769604E+04  0.12699999809E+01 0. -1.
</event>
<event>
 5   0  0.6105353E-06  0.2464364E+04  0.7818609E-02  0.8415792E-01
        1   -1    0    0  501    0  0.00000000000E+00  0.00000000000E+00  0.11847733258E+04  0.11847733258E+04  0.50400001928E-02 0.  1.
       -1   -1    0    0    0  501  0.00000000000E+00  0.00000000000E+00 -0.12814878435E+04  0.12814878436E+04  0.50400001928E-02 0. -1.
    10030    2    1    2    0    0  0.00000000000E+00  0.00000000000E+00 -0.96714517720E+02  0.24662611694E+04  0.24643641082E+04 0.  0.
        3    1    3    3  502    0  0.63038647540E+03 -0.15306656957E+03 -0.10967590947E+04  0.12742436992E+04  0.10100000352E+00 0. -1.
       -3    1    3    3    0  502 -0.63038647540E+03  0.15306656957E+03  0.10000445769E+04  0.11920174702E+04  0.10100000352E+00 0.  1.
</event>
<event>
 5   0  0.6290861E-06  0.2487278E+04  0.7818609E-02  0.8407532E-01
        1   -1    0    0  501    0  0.00000000000E+00  0.00000000000E+00  0.54384465047E+03  0.54384465049E+03  0.50400001928E-02 0.  1.
       -1   -1    0    0    0  501  0.00000000000E+00  0.00000000000E+00 -0.28438956870E+04  0.28438956870E+04  0.50400001928E-02 0. -1.
    10030    2    1    2    0    0  0.00000000000E+00  0.00000000000E+00 -0.23000510365E+04  0.33877403375E+04  0.24872775928E+04 0.  0.
        1    1    3    3  502    0  0.35141599595E+03 -0.69953661074E+03  0.16614183616E+03  0.80027981464E+03  0.50400001928E-02 0.  1.
       -1    1    3    3    0  502 -0.35141599595E+03  0.69953661074E+03 -0.24661928727E+04  0.25874605228E+04  0.50400001928E-02 0. -1.
</event>
<event>
 5   0  0.5164625E-06  0.2503419E+04  0.7818609E-02  0.8401769E-01
        3   -1    0    0  501    0  0.00000000000E+00  0.00000000000E+00  0.17093891917E+04  0.17093891947E+04  0.10100000352E+00 0.  1.
       -3   -1    0    0    0  501  0.00000000000E+00  0.00000000000E+00 -0.91657085557E+03  0.91657086113E+03  0.10100000352E+00 0. -1.
    10030    2    1    2    0    0  0.00000000000E+00  0.00000000000E+00  0.79281833616E+03  0.26259600558E+04  0.25034187226E+04 0.  0.
        4    1    3    3  502    0 -0.86292792287E+03 -0.65542007082E+03 -0.26080161268E+03  0.11145578331E+04  0.12699999809E+01 0. -1.
       -4    1    3    3    0  502  0.86292792287E+03  0.65542007082E+03  0.10536199488E+04  0.15114022227E+04  0.12699999809E+01 0.  1.
</event>
<event>
 5   0  0.6290861E-06  0.2516455E+04  0.7818609E-02  0.8397147E-01
       -1   -1    0    0    0  501  0.00000000000E+00  0.00000000000E+00  0.12416490296E+04  0.12416490297E+04  0.50400001928E-02 0.  1.
        1   -1    0    0  501    0  0.00000000000E+00  0.00000000000E+00 -0.12750272403E+04  0.12750272403E+04  0.50400001928E-02 0. -1.
    10030    2    1    2    0    0  0.00000000000E+00  0.00000000000E+00 -0.33378210660E+02  0.25166762700E+04  0.25164549157E+04 0.  0.
        1    1    3    3  502    0  0.29954256453E+03  0.12048499026E+04  0.18765042755E+03  0.12556280177E+04  0.50400001928E-02 0.  1.
       -1    1    3    3    0  502 -0.29954256453E+03 -0.12048499026E+04 -0.22102863821E+03  0.12610482523E+04  0.50400001928E-02 0. -1.
</event>
<event>
 5   0  0.6346420E-06  0.2477646E+04  0.7818609E-02  0.8410993E-01
       -1   -1    0    0    0  501  0.00000000000E+00  0.00000000000E+00  0.11620014166E+04  0.11620014167E+04  0.50400001928E-02 0. -1.
        1   -1    0    0  501    0  0.00000000000E+00  0.00000000000E+00 -0.13207238549E+04  0.13207238549E+04  0.50400001928E-02 0.  1.
    10030    2    1    2    0    0  0.00000000000E+00  0.00000000000E+00 -0.15872243823E+03  0.24827252715E+04  0.24776464561E+04 0.  0.
        4    1    3    3  502    0  0.10108136686E+04  0.15629327937E+03  0.62100605279E+03  0.11965876450E+04  0.12699999809E+01 0. -1.
       -4    1    3    3    0  502 -0.10108136686E+04 -0.15629327937E+03 -0.77972849102E+03  0.12861376265E+04  0.12699999809E+01 0.  1.
</event>
<event>
 5   0  0.6105353E-06  0.2511526E+04  0.7818609E-02  0.8398891E-01
       -1   -1    0    0    0  501  0.00000000000E+00  0.00000000000E+00  0.10311266108E+04  0.10311266108E+04  0.50400001928E-02 0.  1.
        1   -1    0    0  501    0  0.00000000000E+00  0.00000000000E+00 -0.15293379627E+04  0.15293379627E+04  0.50400001928E-02 0. -1.
    10030    2    1    2    0    0  0.00000000000E+00  0.00000000000E+00 -0.49821135196E+03  0.25604645735E+04  0.25115262851E+04 0.  0.
        3    1    3    3  502    0 -0.12007726707E+04 -0.35533756011E+03 -0.15335394340E+03  0.12616010584E+04  0.10100000352E+00 0.  1.
       -3    1    3    3    0  502  0.12007726707E+04  0.35533756011E+03 -0.34485740856E+03  0.12988635151E+04  0.10100000352E+00 0. -1.
</event>
<event>
 5   0  0.1468512E-05  0.2473709E+04  0.7818609E-02  0.8412412E-01
        2   -1    0    0  501    0  0.00000000000E+00  0.00000000000E+00  0.14422863920E+04  0.14422863920E+04  0.25500000920E-02 0. -1.
       -2   -1    0    0    0  501  0.00000000000E+00  0.00000000000E+00 -0.10606828945E+04  0.10606828945E+04  0.25500000920E-02 0.  1.
    10030    2    1    2    0    0  0.00000000000E+00  0.00000000000E+00  0.38160349750E+03  0.25029692865E+04  0.24737085560E+04 0.  0.
        4    1    3    3  502    0 -0.29127568752E+03  0.12012652240E+04  0.14638226685E+03  0.12447124348E+04  0.12699999809E+01 0. -1.
       -4    1    3    3    0  502  0.29127568752E+03 -0.12012652240E+04  0.23522123064E+03  0.12582568517E+04  0.12699999809E+01 0.  1.
</event>
<event>
 5   0  0.6104486E-06  0.2492322E+04  0.7818609E-02  0.8405726E-01
        1   -1    0    0  501    0  0.00000000000E+00  0.00000000000E+00  0.98024590973E+03  0.98024590974E+03  0.50400001928E-02 0.  1.
       -1   -1    0    0    0  501  0.00000000000E+00  0.00000000000E+00 -0.15842117596E+04  0.15842117596E+04  0.50400001928E-02 0. -1.
    10030    2    1    2    0    0  0.00000000000E+00  0.00000000000E+00 -0.60396584990E+03  0.25644576694E+04  0.24923218874E+04 0.  0.
        2    1    3    3  502    0  0.11834775786E+04  0.14291644494E+03  0.71670554444E+02  0.11942281849E+04  0.25500000920E-02 0. -1.
       -2    1    3    3    0  502 -0.11834775786E+04 -0.14291644494E+03 -0.67563640435E+03  0.13702294845E+04  0.25500000920E-02 0.  1.
</event>
<event>
 5   0  0.6105353E-06  0.2505233E+04  0.7818609E-02  0.8401124E-01
        1   -1    0    0  501    0  0.00000000000E+00  0.00000000000E+00  0.17698823800E+04  0.17698823800E+04  0.50400001928E-02 0.  1.
       -1   -1    0    0    0  501  0.00000000000E+00  0.00000000000E+00 -0.88652695562E+03  0.88652695563E+03  0.50400001928E-02 0. -1.
    10030    2    1    2    0    0  0.00000000000E+00  0.00000000000E+00  0.88335542441E+03  0.26564093357E+04  0.25052332731E+04 0.  0.
        3    1    3    3  502    0 -0.58567600756E+03  0.11045089432E+04  0.52443915909E+03  0.13557259433E+04  0.10100000352E+00 0.  1.
       -3    1    3    3    0  502  0.58567600756E+03 -0.11045089432E+04  0.35891626531E+03  0.13006833924E+04  0.10100000352E+00 0. -1.
</event>
<event>
 5   0  0.1550483E-05  0.2518919E+04  0.7818609E-02  0.8396276E-01
       -2   -1    0    0    0  501  0.00000000000E+00  0.00000000000E+00  0.60636957164E+03  0.60636957164E+03  0.25500000920E-02 0. -1.
        2   -1    0    0  501    0  0.00000000000E+00  0.00000000000E+00 -0.26159601164E+04  0.26159601164E+04  0.25500000920E-02 0.  1.
    10030    2    1    2    0    0  0.00000000000E+00  0.00000000000E+00 -0.20095905448E+04  0.32223296880E+04  0.25189193042E+04 0.  0.
        5    1    3    3  502    0  0.81117247478E+03  0.95595437607E+03 -0.85146131511E+03  0.15155388527E+04  0.46999998093E+01 0. -1.
       -5    1    3    3    0  502 -0.81117247478E+03 -0.95595437607E+03 -0.11581292296E+04  0.17067908353E+04  0.46999998093E+01 0.  1.
</event>
<event>
 5   0  0.6104486E-06  0.2496098E+04  0.7818609E-02  0.8404377E-01
        1   -1    0    0  501    0  0.00000000000E+00  0.00000000000E+00  0.18190783262E+04  0.18190783262E+04  0.50400001928E-02 0.  1.
       -1   -1    0    0    0  501  0.00000000000E+00  0.00000000000E+00 -0.85627208926E+03  0.85627208927E+03  0.50400001928E-02 0. -1.
    10030    2    1    2    0    0  0.00000000000E+00  0.00000000000E+00  0.96280623690E+03  0.26753504154E+04  0.24960977536E+04 0.  0.
        2    1    3    3  502    0  0.93540973885E+03 -0.46925828151E+03  0.12102607207E+04  0.15999767893E+04  0.25500000920E-02 0.  1.
       -2    1    3    3    0  502 -0.93540973885E+03  0.46925828151E+03 -0.24745448376E+03  0.10753736262E+04  0.25500000920E-02 0. -1.
</event>
<event>
 5   0  0.6477703E-06  0.2537997E+04  0.7818609E-02  0.8389573E-01
        1   -1    0    0  501    0  0.00000000000E+00  0.00000000000E+00  0.83794962167E+03  0.83794962168E+03  0.50400001928E-02 0.  1.
       -1   -1    0    0    0  501  0.00000000000E+00  0.00000000000E+00 -0.19217829400E+04  0.19217829400E+04  0.50400001928E-02 0. -1.
    10030    2    1    2    0    0  0.00000000000E+00  0.00000000000E+00 -0.10838333184E+04  0.27597325617E+04  0.25379970745E+04 0.  0.
        5    1    3    3  502    0 -0.11097960423E+03  0.47919469604E+03  0.73006547647E+03  0.88031910078E+03  0.46999998093E+01 0.  1.
       -5    1    3    3    0  502  0.11097960423E+03 -0.47919469604E+03 -0.18138987948E+04  0.18794134609E+04  0.46999998093E+01 0. -1.
</event>
<event>
 5   0  0.6477703E-06  0.2504110E+04  0.7818609E-02  0.8401523E-01
        1   -1    0    0  501    0  0.00000000000E+00  0.00000000000E+00  0.25244163182E+04  0.25244163182E+04  0.50400001928E-02 0. -1.
       -1   -1    0    0    0  501  0.00000000000E+00  0.00000000000E+00 -0.62099177110E+03  0.62099177112E+03  0.50400001928E-02 0.  1.
    10030    2    1    2    0    0  0.00000000000E+00  0.00000000000E+00  0.19034245471E+04  0.31454080894E+04  0.25041100299E+04 0.  0.
        5    1    3    3  502    0  0.87781190515E+02 -0.29856762543E+03  0.24750499915E+04  0.24945425863E+04  0.46999998093E+01 0. -1.
       -5    1    3    3    0  502 -0.87781190515E+02  0.29856762543E+03 -0.57162544441E+03  0.65086550304E+03  0.46999998093E+01 0.  1.
</event>
<event>
 5   0  0.1526824E-05  0.2505390E+04  0.7818609E-02  0.8401068E-01
       -2   -1    0    0    0  501  0.00000000000E+00  0.00000000000E+00  0.93542505873E+03  0.93542505874E+03  0.25500000920E-02 0. -1.
        2   -1    0    0  501    0  0.00000000000E+00  0.00000000000E+00 -0.16775741898E+04  0.16775741898E+04  0.25500000920E-02 0.  1.
    10030    2    1    2    0    0  0.00000000000E+00  0.00000000000E+00 -0.74214913107E+03  0.26129992485E+04  0.25053901373E+04 0.  0.
        2    1    3    3  502    0 -0.33629243453E+03 -0.34227648727E+03 -0.15779267209E+04  0.16492721218E+04  0.25500000920E-02 0.  1.
       -2    1    3    3    0  502  0.33629243453E+03  0.34227648727E+03  0.83577758979E+03  0.96372712677E+03  0.25500000920E-02 0. -1.
</event>
<event>
 5   0  0.1526824E-05  0.2490543E+04  0.7818609E-02  0.8406362E-01
       -2   -1    0    0    0  501  0.00000000000E+00  0.00000000000E+00  0.12001467302E+04  0.12001467302E+04  0.25500000920E-02 0.  1.
        2   -1    0    0  501    0  0.00000000000E+00  0.00000000000E+00 -0.12920926245E+04  0.12920926245E+04  0.25500000920E-02 0. -1.
    10030    2    1    2    0    0  0.00000000000E+00  0.00000000000E+00 -0.91945894303E+02  0.24922393546E+04  0.24905427026E+04 0.  0.
        2    1    3    3  502    0  0.43656674735E+03  0.57253624840E+03  0.97074699339E+03  0.12086099478E+04  0.25500000920E-02 0.  1.
       -2    1    3    3    0  502 -0.43656674735E+03 -0.57253624840E+03 -0.10626928877E+04  0.12836294069E+04  0.25500000920E-02 0. -1.
</event>
<event>
 5   0  0.1550483E-05  0.2492853E+04  0.7818609E-02  0.8405536E-01
        2   -1    0    0  501    0  0.00000000000E+00  0.00000000000E+00  0.17663658269E+04  0.17663658269E+04  0.25500000920E-02 0.  1.
       -2   -1    0    0    0  501  0.00000000000E+00  0.00000000000E+00 -0.87953398551E+03  0.87953398551E+03  0.25500000920E-02 0. -1.
    10030    2    1    2    0    0  0.00000000000E+00  0.00000000000E+00  0.88683184139E+03  0.26458998124E+04  0.24928528040E+04 0.  0.
        5    1    3    3  502    0  0.14822889357E+03 -0.80036580683E+02 -0.86738631167E+03  0.88360554707E+03  0.46999998093E+01 0. -1.
       -5    1    3    3    0  502 -0.14822889357E+03  0.80036580683E+02  0.17542181531E+04  0.17622942653E+04  0.46999998093E+01 0.  1.
</event>
<event>
 5   0  0.1468512E-05  0.2430876E+04  0.7818609E-02  0.8428034E-01
        2   -1    0    0  501    0  0.00000000000E+00  0.00000000000E+00  0.28584765480E+04  0.28584765480E+04  0.25500000920E-02 0. -1.
       -2   -1    0    0    0  501  0.00000000000E+00  0.00000000000E+00 -0.51681013809E+03  0.51681013810E+03  0.25500000920E-02 0.  1.
    10030    2    1    2    0    0  0.00000000000E+00  0.00000000000E+00  0.23416664099E+04  0.33752866861E+04  0.24308761050E+04 0.  0.
        4    1    3    3  502    0  0.62829631819E+03  0.22556723587E+03 -0.23947582505E+03  0.70921585221E+03  0.12699999809E+01 0.  1.
       -4    1    3    3    0  502 -0.62829631819E+03 -0.22556723587E+03  0.25811422350E+04  0.26660708339E+04  0.12699999809E+01 0. -1.
</event>
<event>
 5   0  0.6290861E-06  0.2501760E+04  0.7818609E-02  0.8402359E-01
       -1   -1    0    0    0  501  0.00000000000E+00  0.00000000000E+00  0.16866469622E+04  0.16866469622E+04  0.50400001928E-02 0. -1.
        1   -1    0    0  501    0  0.00000000000E+00  0.00000000000E+00 -0.92769897712E+03  0.92769897713E+03  0.50400001928E-02 0.  1.
    10030    2    1    2    0    0  0.00000000000E+00  0.00000000000E+00  0.75894798504E+03  0.26143459393E+04  0.25017599098E+04 0.  0.
        1    1    3    3  502    0 -0.50067156383E+03  0.88449352105E+02 -0.81485274832E+03  0.96045838233E+03  0.50400001928E-02 0.  1.
       -1    1    3    3    0  502  0.50067156383E+03 -0.88449352105E+02  0.15738007334E+04  0.16538875570E+04  0.50400001928E-02 0. -1.
</event>
<event>
 5   0  0.1468512E-05  0.2501786E+04  0.7818609E-02  0.8402349E-01
       -2   -1    0    0    0  501  0.00000000000E+00  0.00000000000E+00  0.13603338898E+04  0.13603338898E+04  0.25500000920E-02 0.  1.
        2   -1    0    0  501    0  0.00000000000E+00  0.00000000000E+00 -0.11502572286E+04  0.11502572286E+04  0.25500000920E-02 0. -1.
    10030    2    1    2    0    0  0.00000000000E+00  0.00000000000E+00  0.21007666122E+03  0.25105911184E+04  0.25017864737E+04 0.  0.
        4    1    3    3  502    0 -0.50867313069E+03 -0.56623680424E+03  0.11011847292E+04  0.13386492793E+04  0.12699999809E+01 0.  1.
       -4    1    3    3    0  502  0.50867313069E+03  0.56623680424E+03 -0.89110806797E+03  0.11719418390E+04  0.12699999809E+01 0. -1.
</event>
<event>
 5   0  0.6346420E-06  0.2463126E+04  0.7818609E-02  0.8416241E-01
        1   -1    0    0  501    0  0.00000000000E+00  0.00000000000E+00  0.95609963545E+03  0.95609963546E+03  0.50400001928E-02 0. -1.
       -1   -1    0    0    0  501  0.00000000000E+00  0.00000000000E+00 -0.15863903904E+04  0.15863903904E+04  0.50400001928E-02 0.  1.
    10030    2    1    2    0    0  0.00000000000E+00  0.00000000000E+00 -0.63029075494E+03  0.25424900259E+04  0.24631258790E+04 0.  0.
        4    1    3    3  502    0 -0.24806623223E+03  0.65692819629E+03 -0.13595030856E+04  0.15301443602E+04  0.12699999809E+01 0.  1.
       -4    1    3    3    0  502  0.24806623223E+03 -0.65692819629E+03  0.72921233062E+03  0.10123456656E+04  0.12699999809E+01 0. -1.
</event>
<event>
 5   0  0.1572732E-05  0.2481827E+04  0.7818609E-02  0.8409488E-01
       -2   -1    0    0    0  501  0.00000000000E+00  0.00000000000E+00  0.81564991347E+03  0.81564991348E+03  0.25500000920E-02 0.  1.
        2   -1    0    0  501    0  0.00000000000E+00  0.00000000000E+00 -0.18879017779E+04  0.18879017779E+04  0.25500000920E-02 0. -1.
    10030    2    1    2    0    0  0.00000000000E+00  0.00000000000E+00 -0.10722518644E+04  0.27035516914E+04  0.24818274894E+04 0.  0.
        1    1    3    3  502    0  0.10009427595E+04  0.11839473024E+02  0.26276919779E+03  0.10349271628E+04  0.50400001928E-02 0.  1.
       -1    1    3    3    0  502 -0.10009427595E+04 -0.11839473024E+02 -0.13350210622E+04  0.16686245286E+04  0.50400001928E-02 0. -1.
</event>
<event>
 5   0  0.6105353E-06  0.2469088E+04  0.7818609E-02  0.8414082E-01
        1   -1    0    0  501    0  0.00000000000E+00  0.00000000000E+00  0.14253680538E+04  0.14253680538E+04  0.50400001928E-02 0. -1.
       -1   -1    0    0    0  501  0.00000000000E+00  0.00000000000E+00 -0.10692667367E+04  0.10692667368E+04  0.50400001928E-02 0.  1.
    10030    2    1    2    0    0  0.00000000000E+00  0.00000000000E+00  0.35610131701E+03  0.24946347905E+04  0.24690878053E+04 0.  0.
        3    1    3    3  502    0  0.34509421467E+03  0.10708625104E+04  0.69150376143E+03  0.13206112204E+04  0.10100000352E+00 0. -1.
       -3    1    3    3    0  502 -0.34509421467E+03 -0.10708625104E+04 -0.33540244443E+03  0.11740235701E+04  0.10100000352E+00 0.  1.
</event>
<event>
 5   0  0.1501947E-05  0.2505722E+04  0.7818609E-02  0.8400950E-01
        2   -1    0    0  501    0  0.00000000000E+00  0.00000000000E+00  0.18120221962E+04  0.18120221962E+04  0.25500000920E-02 0. -1.
       -2   -1    0    0    0  501  0.00000000000E+00  0.00000000000E+00 -0.86624794241E+03  0.86624794241E+03  0.25500000920E-02 0.  1.
    10030    2    1    2    0    0  0.00000000000E+00  0.00000000000E+00  0.94577425375E+03  0.26782701386E+04  0.25057218513E+04 0.  0.
        3    1    3    3  502    0 -0.18631502821E+03  0.51177356626E+03 -0.73309728307E+03  0.91326727167E+03  0.10100000352E+00 0.  1.
       -3    1    3    3    0  502  0.18631502821E+03 -0.51177356626E+03  0.16788715368E+04  0.17650028669E+04  0.10100000352E+00 0. -1.
</event>
<event>
 5   0  0.6477703E-06  0.2574279E+04  0.7818609E-02  0.8376991E-01
       -1   -1    0    0    0  501  0.00000000000E+00  0.00000000000E+00  0.26664751951E+04  0.26664751951E+04  0.50400001928E-02 0.  1.
        1   -1    0    0  501    0  0.00000000000E+00  0.00000000000E+00 -0.62131759237E+03  0.62131759239E+03  0.50400001928E-02 0. -1.
    10030    2    1    2    0    0  0.00000000000E+00  0.00000000000E+00  0.20451576027E+04  0.32877927875E+04  0.25742788880E+04 0.  0.
        5    1    3    3  502    0 -0.55524948592E+03 -0.48898420831E+03  0.23677359353E+04  0.24806457016E+04  0.46999998093E+01 0.  1.
       -5    1    3    3    0  502  0.55524948592E+03  0.48898420831E+03 -0.32257833258E+03  0.80714708588E+03  0.46999998093E+01 0. -1.
</event>
<event>
 5   0  0.1572732E-05  0.2494499E+04  0.7818609E-02  0.8404948E-01
        2   -1    0    0  501    0  0.00000000000E+00  0.00000000000E+00  0.20496167651E+04  0.20496167651E+04  0.25500000920E-02 0.  1.
       -2   -1    0    0    0  501  0.00000000000E+00  0.00000000000E+00 -0.75898651546E+03  0.75898651547E+03  0.25500000920E-02 0. -1.
    10030    2    1    2    0    0  0.00000000000E+00  0.00000000000E+00  0.12906302496E+04  0.28086032805E+04  0.24944991373E+04 0.  0.
        1    1    3    3  502    0 -0.47037617518E+03  0.36228357044E+03  0.18803039327E+04  0.19718128742E+04  0.50400001928E-02 0.  1.
       -1    1    3    3    0  502  0.47037617518E+03 -0.36228357044E+03 -0.58967368307E+03  0.83679040633E+03  0.50400001928E-02 0. -1.
</event>
<event>
 5   0  0.1501947E-05  0.2470986E+04  0.7818609E-02  0.8413395E-01
        2   -1    0    0  501    0  0.00000000000E+00  0.00000000000E+00  0.25921119747E+04  0.25921119747E+04  0.25500000920E-02 0.  1.
       -2   -1    0    0    0  501  0.00000000000E+00  0.00000000000E+00 -0.58887999015E+03  0.58887999015E+03  0.25500000920E-02 0. -1.
    10030    2    1    2    0    0  0.00000000000E+00  0.00000000000E+00  0.20032319846E+04  0.31809919649E+04  0.24709859361E+04 0.  0.
        3    1    3    3  502    0  0.14607391365E+03 -0.84699743158E+03 -0.14092790247E+03  0.87097814051E+03  0.10100000352E+00 0. -1.
       -3    1    3    3    0  502 -0.14607391365E+03  0.84699743158E+03  0.21441598870E+04  0.23100138244E+04  0.10100000352E+00 0.  1.
</event>
<event>
 5   0  0.5164625E-06  0.2497102E+04  0.7818609E-02  0.8404019E-01
        3   -1    0    0  501    0  0.00000000000E+00  0.00000000000E+00  0.17546352081E+04  0.17546352110E+04  0.10100000352E+00 0.  1.
       -3   -1    0    0    0  501  0.00000000000E+00  0.00000000000E+00 -0.88843504997E+03  0.88843505571E+03  0.10100000352E+00 0. -1.
    10030    2    1    2    0    0  0.00000000000E+00  0.00000000000E+00  0.86620015813E+03  0.26430702667E+04  0.24971018643E+04 0.  0.
        4    1    3    3  502    0  0.89538773361E+03  0.68443518574E+03 -0.13562343235E+03  0.11351502303E+04  0.12699999809E+01 0. -1.
       -4    1    3    3    0  502 -0.89538773361E+03 -0.68443518574E+03  0.10018235905E+04  0.15079200364E+04  0.12699999809E+01 0.  1.
</event>
<event>
 5   0  0.6346420E-06  0.2478229E+04  0.7818609E-02  0.8410783E-01
       -1   -1    0    0    0  501  0.00000000000E+00  0.00000000000E+00  0.79167354183E+03  0.79167354185E+03  0.50400001928E-02 0. -1.
        1   -1    0    0  501    0  0.00000000000E+00  0.00000000000E+00 -0.19394423996E+04  0.19394423997E+04  0.50400001928E-02 0.  1.
    10030    2    1    2    0    0  0.00000000000E+00  0.00000000000E+00 -0.11477688578E+04  0.27311159415E+04  0.24782293951E+04 0.  0.
        4    1    3    3  502    0  0.80737796510E+01 -0.11827669763E+04 -0.16687267028E+03  0.11945086886E+04  0.12699999809E+01 0. -1.
       -4    1    3    3    0  502 -0.80737796510E+01  0.11827669763E+04 -0.98089618754E+03  0.15366072529E+04  0.12699999809E+01 0.  1.
</event>
<event>
 5   0  0.6104486E-06  0.2494377E+04  0.7818609E-02  0.8404991E-01
       -1   -1    0    0    0  501  0.00000000000E+00  0.00000000000E+00  0.83498805889E+03  0.83498805890E+03  0.50400001928E-02 0. -1.
        1   -1    0    0  501    0  0.00000000000E+00  0.00000000000E+00 -0.18628761424E+04  0.18628761424E+04  0.50400001928E-02 0.  1.
    10030    2    1    2    0    0  0.00000000000E+00  0.00000000000E+00 -0.10278880835E+04  0.26978642013E+04  0.24943771440E+04 0.  0.
        2    1    3    3  502    0  0.11949505601E+04  0.35408346551E+03 -0.56464448782E+03  0.13682490049E+04  0.25500000920E-02 0.  1.
       -2    1    3    3    0  502 -0.11949505601E+04 -0.35408346551E+03 -0.46324359566E+03  0.13296151964E+04  0.25500000920E-02 0. -1.
</event>
<event>
 5   0  0.1468512E-05  0.2510577E+04  0.7818609E-02  0.8399227E-01
        2   -1    0    0  501    0  0.00000000000E+00  0.00000000000E+00  0.12857167049E+04  0.12857167049E+04  0.25500000920E-02 0. -1.
       -2   -1    0    0    0  501  0.00000000000E+00  0.00000000000E+00 -0.12255807552E+04  0.12255807552E+04  0.25500000920E-02 0.  1.
    10030    2    1    2    0    0  0.00000000000E+00  0.00000000000E+00  0.60135949689E+02  0.25112974601E+04  0.25105773440E+04 0.  0.
        4    1    3    3  502    0  0.71198712933E+03 -0.52514079103E+03  0.92085668436E+03  0.12769797057E+04  0.12699999809E+01 0. -1.
       -4    1    3    3    0  502 -0.71198712933E+03  0.52514079103E+03 -0.86072073467E+03  0.12343177544E+04  0.12699999809E+01 0.  1.
</event>
<event>
 5   0  0.1572732E-05  0.2506988E+04  0.7818609E-02  0.8400500E-01
        2   -1    0    0  501    0  0.00000000000E+00  0.00000000000E+00  0.19693770730E+04  0.19693770730E+04  0.25500000920E-02 0. -1.
       -2   -1    0    0    0  501  0.00000000000E+00  0.00000000000E+00 -0.79783948795E+03  0.79783948796E+03  0.25500000920E-02 0.  1.
    10030    2    1    2    0    0  0.00000000000E+00  0.00000000000E+00  0.11715375850E+04  0.27672165609E+04  0.25069876709E+04 0.  0.
        1    1    3    3  502    0  0.98214173965E+03 -0.22109743571E+03 -0.23858712216E+03  0.10346063443E+04  0.50400001928E-02 0.  1.
       -1    1    3    3    0  502 -0.98214173965E+03  0.22109743571E+03  0.14101247072E+04  0.17326102166E+04  0.50400001928E-02 0. -1.
</event>
<event>
 5   0  0.6290861E-06  0.2497271E+04  0.7818609E-02  0.8403958E-01
       -1   -1    0    0    0  501  0.00000000000E+00  0.00000000000E+00  0.15092536442E+04  0.15092536442E+04  0.50400001928E-02 0.  1.
        1   -1    0    0  501    0  0.00000000000E+00  0.00000000000E+00 -0.10330210610E+04  0.10330210610E+04  0.50400001928E-02 0. -1.
    10030    2    1    2    0    0  0.00000000000E+00  0.00000000000E+00  0.47623258328E+03  0.25422747052E+04  0.24972711514E+04 0.  0.
        1    1    3    3  502    0 -0.10752376148E+04  0.63238552710E+03  0.18195493979E+03  0.12606169059E+04  0.50400001928E-02 0.  1.
       -1    1    3    3    0  502  0.10752376148E+04 -0.63238552710E+03  0.29427764349E+03  0.12816577994E+04  0.50400001928E-02 0. -1.
</event>
<event>
 5   0  0.1550483E-05  0.2502022E+04  0.7818609E-02  0.8402266E-01
       -2   -1    0    0    0  501  0.00000000000E+00  0.00000000000E+00  0.20748750980E+04  0.20748750980E+04  0.25500000920E-02 0. -1.
        2   -1    0    0  501    0  0.00000000000E+00  0.00000000000E+00 -0.75427573201E+03  0.75427573202E+03  0.25500000920E-02 0.  1.
    10030    2    1    2    0    0  0.00000000000E+00  0.00000000000E+00  0.13205993659E+04  0.28291508300E+04  0.25020215294E+04 0.  0.
        5    1    3    3  502    0  0.79313430180E+03  0.61897821826E+03 -0.18042330231E+03  0.10221402611E+04  0.46999998093E+01 0.  1.
       -5    1    3    3    0  502 -0.79313430180E+03 -0.61897821826E+03  0.15010226683E+04  0.18070105689E+04  0.46999998093E+01 0. -1.
</event>
<event>
 5   0  0.6346420E-06  0.2535152E+04  0.7818609E-02  0.8390568E-01
       -1   -1    0    0    0  501  0.00000000000E+00  0.00000000000E+00  0.12503695701E+04  0.12503695701E+04  0.50400001928E-02 0.  1.
        1   -1    0    0  501    0  0.00000000000E+00  0.00000000000E+00 -0.12850192413E+04  0.12850192413E+04  0.50400001928E-02 0. -1.
    10030    2    1    2    0    0  0.00000000000E+00  0.00000000000E+00 -0.34649671277E+02  0.25353888114E+04  0.25351520320E+04 0.  0.
        4    1    3    3  502    0 -0.55921495400E+03 -0.40658228658E+03 -0.10798349173E+04  0.12822151076E+04  0.12699999809E+01 0. -1.
       -4    1    3    3    0  502  0.55921495400E+03  0.40658228658E+03  0.10451852460E+04  0.12531737038E+04  0.12699999809E+01 0.  1.
</event>
<event>
 5   0  0.6105353E-06  0.2228309E+04  0.7818609E-02  0.8506737E-01
       -1   -1    0    0    0  501  0.00000000000E+00  0.00000000000E+00  0.16965232080E+04  0.16965232081E+04  0.50400001928E-02 0.  1.
        1   -1    0    0  501    0  0.00000000000E+00  0.00000000000E+00 -0.73169646486E+03  0.73169646488E+03  0.50400001928E-02 0. -1.
    10030    2    1    2    0    0  0.00000000000E+00  0.00000000000E+00  0.96482674318E+03  0.24282196729E+04  0.22283088062E+04 0.  0.
        3    1    3    3  502    0  0.11030952076E+03  0.10041612339E+04 -0.29673507784E+02  0.10106376706E+04  0.10100000352E+00 0. -1.
       -3    1    3    3    0  502 -0.11030952076E+03 -0.10041612339E+04  0.99450025097E+03  0.14175820023E+04  0.10100000352E+00 0.  1.
</event>
<event>
 5   0  0.6104486E-06  0.2501593E+04  0.7818609E-02  0.8402418E-01
       -1   -1    0    0    0  501  0.00000000000E+00  0.00000000000E+00  0.80783546856E+03  0.80783546857E+03  0.50400001928E-02 0. -1.
        1   -1    0    0  501    0  0.00000000000E+00  0.00000000000E+00 -0.19366468884E+04  0.19366468884E+04  0.50400001928E-02 0.  1.
    10030    2    1    2    0    0  0.00000000000E+00  0.00000000000E+00 -0.11288114199E+04  0.27444823570E+04  0.25015931296E+04 0.  0.
        2    1    3    3  502    0  0.22180264514E+03  0.11642876882E+04 -0.10028725539E+04  0.15525835223E+04  0.25500000920E-02 0.  1.
       -2    1    3    3    0  502 -0.22180264514E+03 -0.11642876882E+04 -0.12593886594E+03  0.11918988347E+04  0.25500000920E-02 0. -1.
</event>
<event>
 5   0  0.1468512E-05  0.2501738E+04  0.7818609E-02  0.8402367E-01
       -2   -1    0    0    0  501  0.00000000000E+00  0.00000000000E+00  0.92496331790E+03  0.92496331790E+03  0.25500000920E-02 0. -1.
        2   -1    0    0  501    0  0.00000000000E+00  0.00000000000E+00 -0.16916056854E+04  0.16916056854E+04  0.25500000920E-02 0.  1.
    10030    2    1    2    0    0  0.00000000000E+00  0.00000000000E+00 -0.76664236747E+03  0.26165690033E+04  0.25017379618E+04 0.  0.
        4    1    3    3  502    0 -0.10208509030E+04 -0.32195903254E+03  0.29359335691E+03  0.11099517363E+04  0.12699999809E+01 0.  1.
       -4    1    3    3    0  502  0.10208509030E+04  0.32195903254E+03 -0.10602357244E+04  0.15066172669E+04  0.12699999809E+01 0. -1.
</event>
<event>
 5   0  0.6290861E-06  0.2507410E+04  0.7818609E-02  0.8400351E-01
        1   -1    0    0  501    0  0.00000000000E+00  0.00000000000E+00  0.92080718605E+03  0.92080718606E+03  0.50400001928E-02 0. -1.
       -1   -1    0    0    0  501  0.00000000000E+00  0.00000000000E+00 -0.17069542662E+04  0.17069542662E+04  0.50400001928E-02 0.  1.
    10030    2    1    2    0    0  0.00000000000E+00  0.00000000000E+00 -0.78614708019E+03  0.26277614523E+04  0.25074096232E+04 0.  0.
        1    1    3    3  502    0  0.25513993922E+02  0.11047061497E+04 -0.10137409476E+04  0.14995657204E+04  0.50400001928E-02 0.  1.
       -1    1    3    3    0  502 -0.25513993922E+02 -0.11047061497E+04  0.22759386739E+03  0.11281957319E+04  0.50400001928E-02 0. -1.
</event>
<event>
 5   0  0.6105353E-06  0.2530946E+04  0.7818609E-02  0.8392043E-01
        1   -1    0    0  501    0  0.00000000000E+00  0.00000000000E+00  0.13192126248E+04  0.13192126248E+04  0.50400001928E-02 0.  1.
       -1   -1    0    0    0  501  0.00000000000E+00  0.00000000000E+00 -0.12139220759E+04  0.12139220759E+04  0.50400001928E-02 0. -1.
    10030    2    1    2    0    0  0.00000000000E+00  0.00000000000E+00  0.10529054892E+03  0.25331347007E+04  0.25309455372E+04 0.  0.
        3    1    3    3  502    0  0.12515439362E+04 -0.15370488439E+03  0.15966719021E+03  0.12710157503E+04  0.10100000352E+00 0.  1.
       -3    1    3    3    0  502 -0.12515439362E+04  0.15370488439E+03 -0.54376641293E+02  0.12621189504E+04  0.10100000352E+00 0. -1.
</event>
<event>
 5   0  0.1526824E-05  0.2502869E+04  0.7818609E-02  0.8401964E-01
        2   -1    0    0  501    0  0.00000000000E+00  0.00000000000E+00  0.10388540375E+04  0.10388540375E+04  0.25500000920E-02 0.  1.
       -2   -1    0    0    0  501  0.00000000000E+00  0.00000000000E+00 -0.15075147369E+04  0.15075147369E+04  0.25500000920E-02 0. -1.
    10030    2    1    2    0    0  0.00000000000E+00  0.00000000000E+00 -0.46866069939E+03  0.25463687745E+04  0.25028685711E+04 0.  0.
        2    1    3    3  502    0  0.24100617938E+03  0.65911525870E+03 -0.12884711290E+04  0.14671996296E+04  0.25500000920E-02 0. -1.
       -2    1    3    3    0  502 -0.24100617938E+03 -0.65911525870E+03  0.81981042962E+03  0.10791691449E+04  0.25500000920E-02 0.  1.
</event>
<event>
 5   0  0.1468512E-05  0.2505504E+04  0.7818609E-02  0.8401027E-01
        2   -1    0    0  501    0  0.00000000000E+00  0.00000000000E+00  0.24486151709E+04  0.24486151709E+04  0.25500000920E-02 0. -1.
       -2   -1    0    0    0  501  0.00000000000E+00  0.00000000000E+00 -0.64092887194E+03  0.64092887195E+03  0.25500000920E-02 0.  1.
    10030    2    1    2    0    0  0.00000000000E+00  0.00000000000E+00  0.18076862990E+04  0.30895440429E+04  0.25055044676E+04 0.  0.
        4    1    3    3  502    0 -0.47118107677E+03  0.10375129733E+04  0.15456985367E+04  0.19203203785E+04  0.12699999809E+01 0. -1.
       -4    1    3    3    0  502  0.47118107677E+03 -0.10375129733E+04  0.26198776226E+03  0.11692236644E+04  0.12699999809E+01 0.  1.
</event>
<event>
 5   0  0.6477703E-06  0.2501302E+04  0.7818609E-02  0.8402522E-01
       -1   -1    0    0    0  501  0.00000000000E+00  0.00000000000E+00  0.10449580519E+04  0.10449580520E+04  0.50400001928E-02 0.  1.
        1   -1    0    0  501    0  0.00000000000E+00  0.00000000000E+00 -0.14968336079E+04  0.14968336079E+04  0.50400001928E-02 0. -1.
    10030    2    1    2    0    0  0.00000000000E+00  0.00000000000E+00 -0.45187555596E+03  0.25417916599E+04  0.25013023256E+04 0.  0.
        5    1    3    3  502    0  0.17400202052E+03 -0.83170536222E+02  0.10297474812E+04  0.10476621623E+04  0.46999998093E+01 0.  1.
       -5    1    3    3    0  502 -0.17400202052E+03  0.83170536222E+02 -0.14816230372E+04  0.14941294976E+04  0.46999998093E+01 0. -1.
</event>
<event>
 5   0  0.1468512E-05  0.2496573E+04  0.7818609E-02  0.8404208E-01
        2   -1    0    0  501    0  0.00000000000E+00  0.00000000000E+00  0.15813661978E+04  0.15813661978E+04  0.25500000920E-02 0.  1.
       -2   -1    0    0    0  501  0.00000000000E+00  0.00000000000E+00 -0.98536236482E+03  0.98536236483E+03  0.25500000920E-02 0. -1.
    10030    2    1    2    0    0  0.00000000000E+00  0.00000000000E+00  0.59600383297E+03  0.25667285626E+04  0.24965726397E+04 0.  0.
        4    1    3    3  502    0 -0.11560926046E+04 -0.17314841531E+03 -0.15212155378E+03  0.11788439524E+04  0.12699999809E+01 0. -1.
       -4    1    3    3    0  502  0.11560926046E+04  0.17314841531E+03  0.74812538675E+03  0.13878846102E+04  0.12699999809E+01 0.  1.
</event>
<event>
 5   0  0.6104486E-06  0.2502471E+04  0.7818609E-02  0.8402106E-01
        1   -1    0    0  501    0  0.00000000000E+00  0.00000000000E+00  0.12432858215E+04  0.12432858215E+04  0.50400001928E-02 0.  1.
       -1   -1    0    0    0  501  0.00000000000E+00  0.00000000000E+00 -0.12592358791E+04  0.12592358791E+04  0.50400001928E-02 0. -1.
    10030    2    1    2    0    0  0.00000000000E+00  0.00000000000E+00 -0.15950057580E+02  0.25025217006E+04  0.25024708704E+04 0.  0.
        2    1    3    3  502    0 -0.46040409848E+02 -0.11908772199E+04 -0.38914132331E+03  0.12536902495E+04  0.25500000920E-02 0.  1.
       -2    1    3    3    0  502  0.46040409848E+02  0.11908772199E+04  0.37319126573E+03  0.12488314510E+04  0.25500000920E-02 0. -1.
</event>
<event>
 5   0  0.1550483E-05  0.2491272E+04  0.7818609E-02  0.8406101E-01
        2   -1    0    0  501    0  0.00000000000E+00  0.00000000000E+00  0.10351256163E+04  0.10351256163E+04  0.25500000920E-02 0. -1.
       -2   -1    0    0    0  501  0.00000000000E+00  0.00000000000E+00 -0.14989578061E+04  0.14989578061E+04  0.25500000920E-02 0.  1.
    10030    2    1    2    0    0  0.00000000000E+00  0.00000000000E+00 -0.46383218983E+03  0.25340834225E+04  0.24912724644E+04 0.  0.
        5    1    3    3  502    0  0.10166041345E+04 -0.46540896025E+03 -0.79044023104E+03  0.13692725497E+04  0.46999998093E+01 0.  1.
       -5    1    3    3    0  502 -0.10166041345E+04  0.46540896025E+03  0.32660804121E+03  0.11648108727E+04  0.46999998093E+01 0. -1.
</event>
<event>
 5   0  0.6346420E-06  0.2498589E+04  0.7818609E-02  0.8403488E-01
       -1   -1    0    0    0  501  0.00000000000E+00  0.00000000000E+00  0.88165116900E+03  0.88165116902E+03  0.50400001928E-02 0. -1.
        1   -1    0    0  501    0  0.00000000000E+00  0.00000000000E+00 -0.17702434717E+04  0.17702434717E+04  0.50400001928E-02 0.  1.
    10030    2    1    2    0    0  0.00000000000E+00  0.00000000000E+00 -0.88859230273E+03  0.26518946408E+04  0.24985893831E+04 0.  0.
        4    1    3    3  502    0 -0.11596836792E+04  0.11952915738E+03 -0.92082305025E+03  0.14856211354E+04  0.12699999809E+01 0.  1.
       -4    1    3    3    0  502  0.11596836792E+04 -0.11952915738E+03  0.32230747522E+02  0.11662735053E+04  0.12699999809E+01 0. -1.
</event>
<event>
 5   0  0.1501947E-05  0.2492926E+04  0.7818609E-02  0.8405510E-01
        2   -1    0    0  501    0  0.00000000000E+00  0.00000000000E+00  0.13468083225E+04  0.13468083225E+04  0.25500000920E-02 0. -1.
       -2   -1    0    0    0  501  0.00000000000E+00  0.00000000000E+00 -0.11535939063E+04  0.11535939063E+04  0.25500000920E-02 0.  1.
    10030    2    1    2    0    0  0.00000000000E+00  0.00000000000E+00  0.19321441622E+03  0.25004022287E+04  0.24929258904E+04 0.  0.
        3    1    3    3  502    0 -0.20160952521E+03  0.10700568659E+04  0.70505800059E+03  0.12972181356E+04  0.10100000352E+00 0. -1.
       -3    1    3    3    0  502  0.20160952521E+03 -0.10700568659E+04 -0.51184358438E+03  0.12031840931E+04  0.10100000352E+00 0.  1.
</event>
<event>
 5   0  0.6104486E-06  0.2503466E+04  0.7818609E-02  0.8401752E-01
       -1   -1    0    0    0  501  0.00000000000E+00  0.00000000000E+00  0.77842579608E+03  0.77842579609E+03  0.50400001928E-02 0.  1.
        1   -1    0    0  501    0  0.00000000000E+00  0.00000000000E+00 -0.20128259681E+04  0.20128259681E+04  0.50400001928E-02 0. -1.
    10030    2    1    2    0    0  0.00000000000E+00  0.00000000000E+00 -0.12344001720E+04  0.27912517642E+04  0.25034661225E+04 0.  0.
        2    1    3    3  502    0  0.11787392329E+04  0.42076322956E+03 -0.59581787791E+03  0.13861698374E+04  0.25500000920E-02 0. -1.
       -2    1    3    3    0  502 -0.11787392329E+04 -0.42076322956E+03 -0.63858229413E+03  0.14050819268E+04  0.25500000920E-02 0.  1.
</event>
<event>
 5   0  0.1526824E-05  0.2472589E+04  0.7818609E-02  0.8412816E-01
       -2   -1    0    0    0  501  0.00000000000E+00  0.00000000000E+00  0.68867305756E+03  0.68867305756E+03  0.25500000920E-02 0. -1.
        2   -1    0    0  501    0  0.00000000000E+00  0.00000000000E+00 -0.22193761687E+04  0.22193761687E+04  0.25500000920E-02 0.  1.
    10030    2    1    2    0    0  0.00000000000E+00  0.00000000000E+00 -0.15307031111E+04  0.29080492262E+04  0.24725893893E+04 0.  0.
        2    1    3    3  502    0  0.81537903973E+02  0.50327634980E+03 -0.20899770677E+04  0.21512646647E+04  0.25500000920E-02 0.  1.
       -2    1    3    3    0  502 -0.81537903973E+02 -0.50327634980E+03  0.55927395659E+03  0.75678456154E+03  0.25500000920E-02 0. -1.
</event>
<event>
 5   0  0.5164625E-06  0.2534129E+04  0.7818609E-02  0.8390927E-01
        3   -1    0    0  501    0  0.00000000000E+00  0.00000000000E+00  0.20134917516E+04  0.20134917541E+04  0.10100000352E+00 0.  1.
       -3   -1    0    0    0  501  0.00000000000E+00  0.00000000000E+00 -0.79734735060E+03  0.79734735700E+03  0.10100000352E+00 0. -1.
    10030    2    1    2    0    0  0.00000000000E+00  0.00000000000E+00  0.12161444010E+04  0.28108391111E+04  0.25341289045E+04 0.  0.
        3    1    3    3  502    0 -0.85994003654E+03  0.36994875123E+03  0.15551787941E+04  0.18151969691E+04  0.10100000352E+00 0.  1.
       -3    1    3    3    0  502  0.85994003654E+03 -0.36994875123E+03 -0.33903439310E+03  0.99564214198E+03  0.10100000352E+00 0. -1.
</event>
<event>
 5   0  0.1468512E-05  0.2546711E+04  0.7818609E-02  0.8386531E-01
       -2   -1    0    0    0  501  0.00000000000E+00  0.00000000000E+00  0.11690627709E+04  0.11690627709E+04  0.25500000920E-02 0.  1.
        2   -1    0    0  501    0  0.00000000000E+00  0.00000000000E+00 -0.13869520909E+04  0.13869520909E+04  0.25500000920E-02 0. -1.
    10030    2    1    2    0    0  0.00000000000E+00  0.00000000000E+00 -0.21788932006E+03  0.25560148618E+04  0.25467108626E+04 0.  0.
        4    1    3    3  502    0  0.20334589895E+03 -0.73231134527E+02 -0.13684076723E+04  0.13853712587E+04  0.12699999809E+01 0. -1.
       -4    1    3    3    0  502 -0.20334589895E+03  0.73231134527E+02  0.11505183523E+04  0.11706436031E+04  0.12699999809E+01 0.  1.
</event>
<event>
 5   0  0.1550483E-05  0.2502501E+04  0.7818609E-02  0.8402095E-01
       -2   -1    0    0    0  501  0.00000000000E+00  0.00000000000E+00  0.16183932276E+04  0.16183932276E+04  0.25500000920E-02 0.  1.
        2   -1    0    0  501    0  0.00000000000E+00  0.00000000000E+00 -0.96739643929E+03  0.96739643929E+03  0.25500000920E-02 0. -1.
    10030    2    1    2    0    0  0.00000000000E+00  0.00000000000E+00  0.65099678829E+03  0.25857896669E+04  0.25025010256E+04 0.  0.
        5    1    3    3  502    0  0.12510655960E+04  0.19854732195E+02  0.31845842954E+03  0.12911224564E+04  0.46999998093E+01 0.  1.
       -5    1    3    3    0  502 -0.12510655960E+04 -0.19854732195E+02  0.33253835875E+03  0.12946672105E+04  0.46999998093E+01 0. -1.
</event>
<event>
 5   0  0.6346420E-06  0.2482272E+04  0.7818609E-02  0.8409329E-01
       -1   -1    0    0    0  501  0.00000000000E+00  0.00000000000E+00  0.56793211890E+03  0.56793211892E+03  0.50400001928E-02 0. -1.
        1   -1    0    0  501    0  0.00000000000E+00  0.00000000000E+00 -0.27123288858E+04  0.27123288858E+04  0.50400001928E-02 0.  1.
    10030    2    1    2    0    0  0.00000000000E+00  0.00000000000E+00 -0.21443967669E+04  0.32802610047E+04  0.24822720973E+04 0.  0.
        4    1    3    3  502    0  0.62263942396E+03  0.71618092333E+03 -0.15165159666E+02  0.94911883460E+03  0.12699999809E+01 0. -1.
       -4    1    3    3    0  502 -0.62263942396E+03 -0.71618092333E+03 -0.21292316072E+04  0.23311421701E+04  0.12699999809E+01 0.  1.
</event>
<event>
 5   0  0.6104486E-06  0.2493404E+04  0.7818609E-02  0.8405339E-01
       -1   -1    0    0    0  501  0.00000000000E+00  0.00000000000E+00  0.22580018194E+04  0.22580018194E+04  0.50400001928E-02 0. -1.
        1   -1    0    0  501    0  0.00000000000E+00  0.00000000000E+00 -0.68833675251E+03  0.68833675252E+03  0.50400001928E-02 0.  1.
    10030    2    1    2    0    0  0.00000000000E+00  0.00000000000E+00  0.15696650669E+04  0.29463385719E+04  0.24934038097E+04 0.  0.
        2    1    3    3  502    0  0.24155594881E+03 -0.87618978151E+03  0.17931973982E+04  0.20103767603E+04  0.25500000920E-02 0. -1.
       -2    1    3    3    0  502 -0.24155594881E+03  0.87618978151E+03 -0.22353233129E+03  0.93596181160E+03  0.25500000920E-02 0.  1.
</event>
<event>
 5   0  0.1550483E-05  0.2376957E+04  0.7818609E-02  0.8448181E-01
       -2   -1    0    0    0  501  0.00000000000E+00  0.00000000000E+00  0.67430636644E+03  0.67430636644E+03  0.25500000920E-02 0.  1.
        2   -1    0    0  501    0  0.00000000000E+00  0.00000000000E+00 -0.20947167557E+04  0.20947167557E+04  0.25500000920E-02 0. -1.
    10030    2    1    2    0    0  0.00000000000E+00  0.00000000000E+00 -0.14204103893E+04  0.27690231222E+04  0.23769567470E+04 0.  0.
        5    1    3    3  502    0 -0.33517987023E+03  0.25767597162E+03 -0.20041416684E+04  0.20482549570E+04  0.46999998093E+01 0. -1.
       -5    1    3    3    0  502  0.33517987023E+03 -0.25767597162E+03  0.58373127911E+03  0.72076816520E+03  0.46999998093E+01 0.  1.
</event>
<event>
 5   0  0.6105353E-06  0.2476062E+04  0.7818609E-02  0.8411564E-01
       -1   -1    0    0    0  501  0.00000000000E+00  0.00000000000E+00  0.59846153992E+03  0.59846153994E+03  0.50400001928E-02 0. -1.
        1   -1    0    0  501    0  0.00000000000E+00  0.00000000000E+00 -0.25611005784E+04  0.25611005784E+04  0.50400001928E-02 0.  1.
    10030    2    1    2    0    0  0.00000000000E+00  0.00000000000E+00 -0.19626390385E+04  0.31595621183E+04  0.24760615469E+04 0.  0.
        3    1    3    3  502    0 -0.22713661283E+03  0.11369354952E+04 -0.15353440588E+04  0.19239269088E+04  0.10100000352E+00 0. -1.
       -3    1    3    3    0  502  0.22713661283E+03 -0.11369354952E+04 -0.42729497965E+03  0.12356352095E+04  0.10100000352E+00 0.  1.
</event>
<event>
 5   0  0.1572732E-05  0.2483105E+04  0.7818609E-02  0.8409029E-01
        2   -1    0    0  501    0  0.00000000000E+00  0.00000000000E+00  0.11212857464E+04  0.11212857464E+04  0.25500000920E-02 0.  1.
       -2   -1    0    0    0  501  0.00000000000E+00  0.00000000000E+00 -0.13747183084E+04  0.13747183084E+04  0.25500000920E-02 0. -1.
    10030    2    1    2    0    0  0.00000000000E+00  0.00000000000E+00 -0.25343256200E+03  0.24960040547E+04  0.24831045443E+04 0.  0.
        1    1    3    3  502    0  0.30298637259E+02 -0.35994418441E+02  0.11203893264E+04  0.11213767647E+04  0.50400001928E-02 0.  1.
       -1    1    3    3    0  502 -0.30298637259E+02  0.35994418441E+02 -0.13738218884E+04  0.13746272901E+04  0.50400001928E-02 0. -1.
</event>
<event>
 5   0  0.6290861E-06  0.2373022E+04  0.7818609E-02  0.8449673E-01
       -1   -1    0    0    0  501  0.00000000000E+00  0.00000000000E+00  0.11986512764E+04  0.11986512764E+04  0.50400001928E-02 0.  1.
        1   -1    0    0  501    0  0.00000000000E+00  0.00000000000E+00 -0.11744939903E+04  0.11744939903E+04  0.50400001928E-02 0. -1.
    10030    2    1    2    0    0  0.00000000000E+00  0.00000000000E+00  0.24157286069E+02  0.23731452667E+04  0.23730223097E+04 0.  0.
        1    1    3    3  502    0 -0.76851600538E+02 -0.10682917630E+04  0.52264918009E+03  0.11917699547E+04  0.50400001928E-02 0.  1.
       -1    1    3    3    0  502  0.76851600538E+02  0.10682917630E+04 -0.49849189403E+03  0.11813753120E+04  0.50400001928E-02 0. -1.
</event>
<event>
 5   0  0.1572732E-05  0.2559153E+04  0.7818609E-02  0.8382210E-01
        2   -1    0    0  501    0  0.00000000000E+00  0.00000000000E+00  0.69129091719E+03  0.69129091719E+03  0.25500000920E-02 0.  1.
       -2   -1    0    0    0  501  0.00000000000E+00  0.00000000000E+00 -0.23684905523E+04  0.23684905523E+04  0.25500000920E-02 0. -1.
    10030    2    1    2    0    0  0.00000000000E+00  0.00000000000E+00 -0.16771996351E+04  0.30597814695E+04  0.25591529897E+04 0.  0.
        1    1    3    3  502    0 -0.41980483716E+03 -0.48253697976E+02 -0.22826584146E+04  0.23214422152E+04  0.50400001928E-02 0. -1.
       -1    1    3    3    0  502  0.41980483716E+03  0.48253697976E+02  0.60545877952E+03  0.73833925427E+03  0.50400001928E-02 0.  1.
</event>
<event>
 5   0  0.1572732E-05  0.2544789E+04  0.7818609E-02  0.8387201E-01
       -2   -1    0    0    0  501  0.00000000000E+00  0.00000000000E+00  0.11702486575E+04  0.11702486575E+04  0.25500000920E-02 0.  1.
        2   -1    0    0  501    0  0.00000000000E+00  0.00000000000E+00 -0.13834561897E+04  0.13834561897E+04  0.25500000920E-02 0. -1.
    10030    2    1    2    0    0  0.00000000000E+00  0.00000000000E+00 -0.21320753215E+03  0.25537048472E+04  0.25447889883E+04 0.  0.
        1    1    3    3  502    0  0.40789519294E+03  0.86601233161E+03 -0.94777198566E+03  0.13470811348E+04  0.50400001928E-02 0. -1.
       -1    1    3    3    0  502 -0.40789519294E+03 -0.86601233161E+03  0.73456445351E+03  0.12066237124E+04  0.50400001928E-02 0.  1.
</event>
<event>
 5   0  0.1550483E-05  0.2503114E+04  0.7818609E-02  0.8401877E-01
        2   -1    0    0  501    0  0.00000000000E+00  0.00000000000E+00  0.19894223108E+04  0.19894223108E+04  0.25500000920E-02 0.  1.
       -2   -1    0    0    0  501  0.00000000000E+00  0.00000000000E+00 -0.78736182342E+03  0.78736182343E+03  0.25500000920E-02 0. -1.
    10030    2    1    2    0    0  0.00000000000E+00  0.00000000000E+00  0.12020604874E+04  0.27767841342E+04  0.25031142029E+04 0.  0.
        5    1    3    3  502    0  0.10746179313E+04 -0.63821831748E+03  0.52873815372E+03  0.13570970652E+04  0.46999998093E+01 0. -1.
       -5    1    3    3    0  502 -0.10746179313E+04  0.63821831748E+03  0.67332233368E+03  0.14196870691E+04  0.46999998093E+01 0.  1.
</event>
<event>
 5   0  0.1501947E-05  0.2474602E+04  0.7818609E-02  0.8412090E-01
       -2   -1    0    0    0  501  0.00000000000E+00  0.00000000000E+00  0.64261844572E+03  0.64261844572E+03  0.25500000920E-02 0. -1.
        2   -1    0    0  501    0  0.00000000000E+00  0.00000000000E+00 -0.23823066086E+04  0.23823066086E+04  0.25500000920E-02 0.  1.
    10030    2    1    2    0    0  0.00000000000E+00  0.00000000000E+00 -0.17396881629E+04  0.30249250543E+04  0.24746023277E+04 0.  0.
        3    1    3    3  502    0  0.57860160268E+02 -0.27920293465E+03 -0.23415976655E+04  0.23588941719E+04  0.10100000352E+00 0.  1.
       -3    1    3    3    0  502 -0.57860160268E+02  0.27920293465E+03  0.60190950260E+03  0.66603088246E+03  0.10100000352E+00 0. -1.
</event>
<event>
 5   0  0.6104486E-06  0.2504801E+04  0.7818609E-02  0.8401277E-01
       -1   -1    0    0    0  501  0.00000000000E+00  0.00000000000E+00  0.22377676526E+04  0.22377676526E+04  0.50400001928E-02 0.  1.
        1   -1    0    0  501    0  0.00000000000E+00  0.00000000000E+00 -0.70092459843E+03  0.70092459845E+03  0.50400001928E-02 0. -1.
    10030    2    1    2    0    0  0.00000000000E+00  0.00000000000E+00  0.15368430541E+04  0.29386922510E+04  0.25048005057E+04 0.  0.
        2    1    3    3  502    0 -0.36480879394E+03  0.50582849351E+03  0.20426306280E+04  0.21357171637E+04  0.25500000920E-02 0.  1.
       -2    1    3    3    0  502  0.36480879394E+03 -0.50582849351E+03 -0.50578757384E+03  0.80297508731E+03  0.25500000920E-02 0. -1.
</event>
<event>
 5   0  0.6105353E-06  0.2508351E+04  0.7818609E-02  0.8400016E-01
       -1   -1    0    0    0  501  0.00000000000E+00  0.00000000000E+00  0.73192221515E+03  0.73192221516E+03  0.50400001928E-02 0. -1.
        1   -1    0    0  501    0  0.00000000000E+00  0.00000000000E+00 -0.21490759716E+04  0.21490759716E+04  0.50400001928E-02 0.  1.
    10030    2    1    2    0    0  0.00000000000E+00  0.00000000000E+00 -0.14171537565E+04  0.28809981868E+04  0.25083512080E+04 0.  0.
        3    1    3    3  502    0  0.12476725851E+04 -0.12439782144E+03 -0.74095611383E+03  0.14564263354E+04  0.10100000352E+00 0.  1.
       -3    1    3    3    0  502 -0.12476725851E+04  0.12439782144E+03 -0.67619764265E+03  0.14245718514E+04  0.10100000352E+00 0. -1.
</event>
<event>
 5   0  0.6104486E-06  0.2488720E+04  0.7818609E-02  0.8407015E-01
        1   -1    0    0  501    0  0.00000000000E+00  0.00000000000E+00  0.18926670411E+04  0.18926670411E+04  0.50400001928E-02 0.  1.
       -1   -1    0    0    0  501  0.00000000000E+00  0.00000000000E+00 -0.81812182692E+03  0.81812182694E+03  0.50400001928E-02 0. -1.
    10030    2    1    2    0    0  0.00000000000E+00  0.00000000000E+00  0.10745452142E+04  0.27107888680E+04  0.24887203278E+04 0.  0.
        2    1    3    3  502    0  0.11402411440E+04  0.10721904010E+03  0.72455967981E+01  0.11452939743E+04  0.25500000920E-02 0. -1.
       -2    1    3    3    0  502 -0.11402411440E+04 -0.10721904010E+03  0.10672996174E+04  0.15654948937E+04  0.25500000920E-02 0.  1.
</event>
<event>
 5   0  0.6290861E-06  0.2501858E+04  0.7818609E-02  0.8402324E-01
        1   -1    0    0  501    0  0.00000000000E+00  0.00000000000E+00  0.15172282265E+04  0.15172282265E+04  0.50400001928E-02 0.  1.
       -1   -1    0    0    0  501  0.00000000000E+00  0.00000000000E+00 -0.10313700027E+04  0.10313700027E+04  0.50400001928E-02 0. -1.
    10030    2    1    2    0    0  0.00000000000E+00  0.00000000000E+00  0.48585822375E+03  0.25485982292E+04  0.25018582534E+04 0.  0.
        1    1    3    3  502    0  0.54348739283E+03  0.10130303684E+04 -0.25945223196E+03  0.11785264249E+04  0.50400001928E-02 0. -1.
       -1    1    3    3    0  502 -0.54348739283E+03 -0.10130303684E+04  0.74531045571E+03  0.13700718043E+04  0.50400001928E-02 0.  1.
</event>
<event>
 5   0  0.1468512E-05  0.2492548E+04  0.7818609E-02  0.8405645E-01
       -2   -1    0    0    0  501  0.00000000000E+00  0.00000000000E+00  0.10842703713E+04  0.10842703713E+04  0.25500000920E-02 0.  1.
        2   -1    0    0  501    0  0.00000000000E+00  0.00000000000E+00 -0.14324832913E+04  0.14324832913E+04  0.25500000920E-02 0. -1.
    10030    2    1    2    0    0  0.00000000000E+00  0.00000000000E+00 -0.34821292005E+03  0.25167536626E+04  0.24925482464E+04 0.  0.
        4    1    3    3  502    0  0.34951082986E+03 -0.11774274936E+04 -0.38759352339E+03  0.12879144674E+04  0.12699999809E+01 0.  1.
       -4    1    3    3    0  502 -0.34951082986E+03  0.11774274936E+04  0.39380603340E+02  0.12288391953E+04  0.12699999809E+01 0. -1.
</event>
<event>
 5   0  0.6105353E-06  0.2440031E+04  0.7818609E-02  0.8424667E-01
       -1   -1    0    0    0  501  0.00000000000E+00  0.00000000000E+00  0.91210710728E+03  0.91210710730E+03  0.50400001928E-02 0. -1.
        1   -1    0    0  501    0  0.00000000000E+00  0.00000000000E+00 -0.16318678120E+04  0.16318678120E+04  0.50400001928E-02 0.  1.
    10030    2    1    2    0    0  0.00000000000E+00  0.00000000000E+00 -0.71976070475E+03  0.25439749193E+04  0.24400313355E+04 0.  0.
        3    1    3    3  502    0  0.17242505006E+03  0.10706647824E+04  0.22284287644E+03  0.11071189782E+04  0.10100000352E+00 0. -1.
       -3    1    3    3    0  502 -0.17242505006E+03 -0.10706647824E+04 -0.94260358118E+03  0.14368559411E+04  0.10100000352E+00 0.  1.
</event>
<event>
 5   0  0.1526824E-05  0.2510999E+04  0.7818609E-02  0.8399077E-01
        2   -1    0    0  501    0  0.00000000000E+00  0.00000000000E+00  0.16615866746E+04  0.16615866746E+04  0.25500000920E-02 0. -1.
       -2   -1    0    0    0  501  0.00000000000E+00  0.00000000000E+00 -0.94865916897E+03  0.94865916897E+03  0.25500000920E-02 0.  1.
    10030    2    1    2    0    0  0.00000000000E+00  0.00000000000E+00  0.71292750559E+03  0.26102458435E+04  0.25109993500E+04 0.  0.
        2    1    3    3  502    0  0.92852191150E+03  0.15089852336E+03  0.12208059611E+04  0.15411977482E+04  0.25500000920E-02 0. -1.
       -2    1    3    3    0  502 -0.92852191150E+03 -0.15089852336E+03 -0.50787845551E+03  0.10690480953E+04  0.25500000920E-02 0.  1.
</event>
<event>
 5   0  0.6477703E-06  0.2449305E+04  0.7818609E-02  0.8421272E-01
       -1   -1    0    0    0  501  0.00000000000E+00  0.00000000000E+00  0.10286302039E+04  0.10286302039E+04  0.50400001928E-02 0. -1.
        1   -1    0    0  501    0  0.00000000000E+00  0.00000000000E+00 -0.14580302564E+04  0.14580302564E+04  0.50400001928E-02 0.  1.
    10030    2    1    2    0    0  0.00000000000E+00  0.00000000000E+00 -0.42940005251E+03  0.24866604602E+04  0.24493051748E+04 0.  0.
        5    1    3    3  502    0 -0.87324120632E+03  0.20023899272E+03 -0.10623625885E+04  0.13897058027E+04  0.46999998093E+01 0.  1.
       -5    1    3    3    0  502  0.87324120632E+03 -0.20023899272E+03  0.63296253603E+03  0.10969546575E+04  0.46999998093E+01 0. -1.
</event>
<event>
 5   0  0.1468512E-05  0.2499810E+04  0.7818609E-02  0.8403053E-01
       -2   -1    0    0    0  501  0.00000000000E+00  0.00000000000E+00  0.15784229648E+04  0.15784229648E+04  0.25500000920E-02 0. -1.
        2   -1    0    0  501    0  0.00000000000E+00  0.00000000000E+00 -0.98976163265E+03  0.98976163265E+03  0.25500000920E-02 0.  1.
    10030    2    1    2    0    0  0.00000000000E+00  0.00000000000E+00  0.58866133214E+03  0.25681845974E+04  0.24998099853E+04 0.  0.
        4    1    3    3  502    0  0.60406933729E+03 -0.90577716722E+03  0.92506855566E+03  0.14286656314E+04  0.12699999809E+01 0. -1.
       -4    1    3    3    0  502 -0.60406933729E+03  0.90577716722E+03 -0.33640722353E+03  0.11395189660E+04  0.12699999809E+01 0.  1.
</event>
<event>
 5   0  0.1572732E-05  0.2499666E+04  0.7818609E-02  0.8403105E-01
       -2   -1    0    0    0  501  0.00000000000E+00  0.00000000000E+00  0.13345195761E+04  0.13345195761E+04  0.25500000920E-02 0. -1.
        2   -1    0    0  501    0  0.00000000000E+00  0.00000000000E+00 -0.11705201954E+04  0.11705201954E+04  0.25500000920E-02 0.  1.
    10030    2    1    2    0    0  0.00000000000E+00  0.00000000000E+00  0.16399938075E+03  0.25050397715E+04  0.24996656697E+04 0.  0.
        1    1    3    3  502    0  0.31688755912E+03  0.70198004964E+03  0.10684371994E+04  0.13170997549E+04  0.50400001928E-02 0. -1.
       -1    1    3    3    0  502 -0.31688755912E+03 -0.70198004964E+03 -0.90443781869E+03  0.11879400166E+04  0.50400001928E-02 0.  1.
</event>
<event>
 5   0  0.1572732E-05  0.2515165E+04  0.7818609E-02  0.8397603E-01
       -2   -1    0    0    0  501  0.00000000000E+00  0.00000000000E+00  0.71622258678E+03  0.71622258678E+03  0.25500000920E-02 0. -1.
        2   -1    0    0  501    0  0.00000000000E+00  0.00000000000E+00 -0.22081318031E+04  0.22081318031E+04  0.25500000920E-02 0.  1.
    10030    2    1    2    0    0  0.00000000000E+00  0.00000000000E+00 -0.14919092163E+04  0.29243543899E+04  0.25151651015E+04 0.  0.
        1    1    3    3  502    0 -0.46147094535E+02 -0.82016313532E+03 -0.18530864011E+04  0.20269993421E+04  0.50400001928E-02 0.  1.
       -1    1    3    3    0  502  0.46147094535E+02  0.82016313532E+03  0.36117718481E+03  0.89735504776E+03  0.50400001928E-02 0. -1.
</event>
<event>
 5   0  0.6346420E-06  0.2524078E+04  0.7818609E-02  0.8394457E-01
        1   -1    0    0  501    0  0.00000000000E+00  0.00000000000E+00  0.12294572741E+04  0.12294572741E+04  0.50400001928E-02 0.  1.
       -1   -1    0    0    0  501  0.00000000000E+00  0.00000000000E+00 -0.12954843705E+04  0.12954843705E+04  0.50400001928E-02 0. -1.
    10030    2    1    2    0    0  0.00000000000E+00  0.00000000000E+00 -0.66027096434E+02  0.25249416446E+04  0.25240781944E+04 0.  0.
        4    1    3    3  502    0 -0.59716999681E+02 -0.11932139543E+04  0.37383851437E+03  0.12518316614E+04  0.12699999809E+01 0.  1.
       -4    1    3    3    0  502  0.59716999681E+02  0.11932139543E+04 -0.43986561081E+03  0.12731099832E+04  0.12699999809E+01 0. -1.
</event>
<event>
 5   0  0.1468512E-05  0.2512727E+04  0.7818609E-02  0.8398465E-01
        2   -1    0    0  501    0  0.00000000000E+00  0.00000000000E+00  0.15567161027E+04  0.15567161027E+04  0.25500000920E-02 0. -1.
       -2   -1    0    0    0  501  0.00000000000E+00  0.00000000000E+00 -0.10139612636E+04  0.10139612636E+04  0.25500000920E-02 0.  1.
    10030    2    1    2    0    0  0.00000000000E+00  0.00000000000E+00  0.54275483909E+03  0.25706773662E+04  0.25127274635E+04 0.  0.
        4    1    3    3  502    0 -0.16387697652E+02 -0.11212290083E+04  0.85103527828E+03  0.14077235891E+04  0.12699999809E+01 0. -1.
       -4    1    3    3    0  502  0.16387697652E+02  0.11212290083E+04 -0.30828043918E+03  0.11629537771E+04  0.12699999809E+01 0.  1.
</event>
<event>
 5   0  0.1468512E-05  0.2562112E+04  0.7818609E-02  0.8381186E-01
       -2   -1    0    0    0  501  0.00000000000E+00  0.00000000000E+00  0.12212748568E+04  0.12212748568E+04  0.25500000920E-02 0. -1.
        2   -1    0    0  501    0  0.00000000000E+00  0.00000000000E+00 -0.13437629815E+04  0.13437629816E+04  0.25500000920E-02 0.  1.
    10030    2    1    2    0    0  0.00000000000E+00  0.00000000000E+00 -0.12248812472E+03  0.25650378384E+04  0.25621115845E+04 0.  0.
        4    1    3    3  502    0  0.14974058812E+03 -0.38848648886E+03 -0.12741385253E+04  0.13404382083E+04  0.12699999809E+01 0.  1.
       -4    1    3    3    0  502 -0.14974058812E+03  0.38848648886E+03  0.11516504006E+04  0.12245996300E+04  0.12699999809E+01 0. -1.
</event>
<event>
 5   0  0.6104486E-06  0.2507420E+04  0.7818609E-02  0.8400347E-01
       -1   -1    0    0    0  501  0.00000000000E+00  0.00000000000E+00  0.10038083506E+04  0.10038083506E+04  0.50400001928E-02 0. -1.
        1   -1    0    0  501    0  0.00000000000E+00  0.00000000000E+00 -0.15658261203E+04  0.15658261203E+04  0.50400001928E-02 0.  1.
    10030    2    1    2    0    0  0.00000000000E+00  0.00000000000E+00 -0.56201776974E+03  0.25696344709E+04  0.25074204555E+04 0.  0.
        2    1    3    3  502    0 -0.11625319814E+03 -0.56201691701E+03 -0.14233003157E+04  0.15346535797E+04  0.25500000920E-02 0.  1.
       -2    1    3    3    0  502  0.11625319814E+03  0.56201691701E+03  0.86128254597E+03  0.10349808912E+04  0.25500000920E-02 0. -1.
</event>
<event>
 5   0  0.1468512E-05  0.2496346E+04  0.7818609E-02  0.8404289E-01
        2   -1    0    0  501    0  0.00000000000E+00  0.00000000000E+00  0.18763527448E+04  0.18763527448E+04  0.25500000920E-02 0.  1.
       -2   -1    0    0    0  501  0.00000000000E+00  0.00000000000E+00 -0.83029985015E+03  0.83029985016E+03  0.25500000920E-02 0. -1.
    10030    2    1    2    0    0  0.00000000000E+00  0.00000000000E+00  0.10460528946E+04  0.27066525949E+04  0.24963456514E+04 0.  0.
        4    1    3    3  502    0  0.18457981772E+03 -0.76183552518E+03  0.15761807577E+04  0.17603438500E+04  0.12699999809E+01 0.  1.
       -4    1    3    3    0  502 -0.18457981772E+03  0.76183552518E+03 -0.53012786308E+03  0.94630874489E+03  0.12699999809E+01 0. -1.
</event>
<event>
 5   0  0.6477703E-06  0.2480760E+04  0.7818609E-02  0.8409872E-01
       -1   -1    0    0    0  501  0.00000000000E+00  0.00000000000E+00  0.11405913698E+04  0.11405913699E+04  0.50400001928E-02 0.  1.
        1   -1    0    0  501    0  0.00000000000E+00  0.00000000000E+00 -0.13488993073E+04  0.13488993073E+04  0.50400001928E-02 0. -1.
    10030    2    1    2    0    0  0.00000000000E+00  0.00000000000E+00 -0.20830793747E+03  0.24894906772E+04  0.24807602937E+04 0.  0.
        5    1    3    3  502    0  0.13479110020E+03 -0.58393369221E+03 -0.11939655205E+04  0.13359352348E+04  0.46999998093E+01 0. -1.
       -5    1    3    3    0  502 -0.13479110020E+03  0.58393369221E+03  0.98565758302E+03  0.11535554423E+04  0.46999998093E+01 0.  1.
</event>
<event>
 5   0  0.6477703E-06  0.2500492E+04  0.7818609E-02  0.8402810E-01
       -1   -1    0    0    0  501  0.00000000000E+00  0.00000000000E+00  0.88948197532E+03  0.88948197533E+03  0.50400001928E-02 0.  1.
        1   -1    0    0  501    0  0.00000000000E+00  0.00000000000E+00 -0.17573317838E+04  0.17573317838E+04  0.50400001928E-02 0. -1.
    10030    2    1    2    0    0  0.00000000000E+00  0.00000000000E+00 -0.86784980850E+03  0.26468137591E+04  0.25004919087E+04 0.  0.
        5    1    3    3  502    0  0.75184029915E+03  0.66404430072E+03 -0.12238328346E+04  0.15824056262E+04  0.46999998093E+01 0. -1.
       -5    1    3    3    0  502 -0.75184029915E+03 -0.66404430072E+03  0.35598302606E+03  0.10644081330E+04  0.46999998093E+01 0.  1.
</event>
<event>
 5   0  0.6477703E-06  0.2500590E+04  0.7818609E-02  0.8402775E-01
       -1   -1    0    0    0  501  0.00000000000E+00  0.00000000000E+00  0.62763946619E+03  0.62763946621E+03  0.50400001928E-02 0. -1.
        1   -1    0    0  501    0  0.00000000000E+00  0.00000000000E+00 -0.24906610680E+04  0.24906610680E+04  0.50400001928E-02 0.  1.
    10030    2    1    2    0    0  0.00000000000E+00  0.00000000000E+00 -0.18630216018E+04  0.31183005342E+04  0.25005896770E+04 0.  0.
        5    1    3    3  502    0  0.15589487647E+03 -0.74997008482E+03 -0.21637699226E+04  0.22953606924E+04  0.46999998093E+01 0.  1.
       -5    1    3    3    0  502 -0.15589487647E+03  0.74997008482E+03  0.30074832080E+03  0.82293984172E+03  0.46999998093E+01 0. -1.
</event>
<event>
 5   0  0.6104486E-06  0.2492356E+04  0.7818609E-02  0.8405714E-01
        1   -1    0    0  501    0  0.00000000000E+00  0.00000000000E+00  0.13118843410E+04  0.13118843410E+04  0.50400001928E-02 0. -1.
       -1   -1    0    0    0  501  0.00000000000E+00  0.00000000000E+00 -0.11837628898E+04  0.11837628898E+04  0.50400001928E-02 0.  1.
    10030    2    1    2    0    0  0.00000000000E+00  0.00000000000E+00  0.12812145116E+03  0.24956472308E+04  0.24923563137E+04 0.  0.
        2    1    3    3  502    0 -0.49030567349E+02  0.45966929801E+03 -0.10947314051E+04  0.11883335851E+04  0.25500000920E-02 0.  1.
       -2    1    3    3    0  502  0.49030567349E+02 -0.45966929801E+03  0.12228528563E+04  0.13073136457E+04  0.25500000920E-02 0. -1.
</event>
<event>
 5   0  0.1501947E-05  0.2493104E+04  0.7818609E-02  0.8405446E-01
        2   -1    0    0  501    0  0.00000000000E+00  0.00000000000E+00  0.18176922155E+04  0.18176922155E+04  0.25500000920E-02 0. -1.
       -2   -1    0    0    0  501  0.00000000000E+00  0.00000000000E+00 -0.85487056142E+03  0.85487056143E+03  0.25500000920E-02 0.  1.
    10030    2    1    2    0    0  0.00000000000E+00  0.00000000000E+00  0.96282165407E+03  0.26725627769E+04  0.24931037401E+04 0.  0.
        3    1    3    3  502    0 -0.10241940885E+04 -0.29042705291E+03 -0.21378441008E+03  0.10858292629E+04  0.10100000352E+00 0. -1.
       -3    1    3    3    0  502  0.10241940885E+04  0.29042705291E+03  0.11766060642E+04  0.15867335140E+04  0.10100000352E+00 0.  1.
</event>
<event>
 5   0  0.1550483E-05  0.2510729E+04  0.7818609E-02  0.8399173E-01
       -2   -1    0    0    0  501  0.00000000000E+00  0.00000000000E+00  0.88757926078E+03  0.88757926079E+03  0.25500000920E-02 0. -1.
        2   -1    0    0  501    0  0.00000000000E+00  0.00000000000E+00 -0.17755485373E+04  0.17755485373E+04  0.25500000920E-02 0.  1.
    10030    2    1    2    0    0  0.00000000000E+00  0.00000000000E+00 -0.88796927655E+03  0.26631277981E+04  0.25107290242E+04 0.  0.
        5    1    3    3  502    0 -0.13084165238E+02 -0.10009385814E+04  0.35953860650E+03  0.10636443667E+04  0.46999998093E+01 0. -1.
       -5    1    3    3    0  502  0.13084165238E+02  0.10009385814E+04 -0.12475078831E+04  0.15994834314E+04  0.46999998093E+01 0.  1.
</event>
<event>
 5   0  0.1526824E-05  0.2550944E+04  0.7818609E-02  0.8385058E-01
       -2   -1    0    0    0  501  0.00000000000E+00  0.00000000000E+00  0.12687931948E+04  0.12687931948E+04  0.25500000920E-02 0.  1.
        2   -1    0    0  501    0  0.00000000000E+00  0.00000000000E+00 -0.12821858698E+04  0.12821858698E+04  0.25500000920E-02 0. -1.
    10030    2    1    2    0    0  0.00000000000E+00  0.00000000000E+00 -0.13392674966E+02  0.25509790646E+04  0.25509439085E+04 0.  0.
        2    1    3    3  502    0  0.11233746917E+04 -0.57639016652E+03 -0.18734318501E+03  0.12764379307E+04  0.25500000920E-02 0.  1.
       -2    1    3    3    0  502 -0.11233746917E+04  0.57639016652E+03  0.17395051004E+03  0.12745411339E+04  0.25500000920E-02 0. -1.
</event>
<event>
 5   0  0.6346420E-06  0.2492891E+04  0.7818609E-02  0.8405522E-01
        1   -1    0    0  501    0  0.00000000000E+00  0.00000000000E+00  0.17584311711E+04  0.17584311711E+04  0.50400001928E-02 0. -1.
       -1   -1    0    0    0  501  0.00000000000E+00  0.00000000000E+00 -0.88352992675E+03  0.88352992676E+03  0.50400001928E-02 0.  1.
    10030    2    1    2    0    0  0.00000000000E+00  0.00000000000E+00  0.87490124433E+03  0.26419610978E+04  0.24928911439E+04 0.  0.
        4    1    3    3  502    0 -0.56811802090E+03 -0.88181814458E+03 -0.27605686980E+03  0.10846982687E+04  0.12699999809E+01 0. -1.
       -4    1    3    3    0  502  0.56811802090E+03  0.88181814458E+03  0.11509581141E+04  0.15572628292E+04  0.12699999809E+01 0.  1.
</event>
<event>
 5   0  0.1572732E-05  0.2477955E+04  0.7818609E-02  0.8410882E-01
       -2   -1    0    0    0  501  0.00000000000E+00  0.00000000000E+00  0.10440610490E+04  0.10440610490E+04  0.25500000920E-02 0.  1.
        2   -1    0    0  501    0  0.00000000000E+00  0.00000000000E+00 -0.14702826014E+04  0.14702826014E+04  0.25500000920E-02 0. -1.
    10030    2    1    2    0    0  0.00000000000E+00  0.00000000000E+00 -0.42622155240E+03  0.25143436504E+04  0.24779546366E+04 0.  0.
        1    1    3    3  502    0  0.82433666089E+03  0.79271375871E+03  0.27047877669E+03  0.11751956443E+04  0.50400001928E-02 0.  1.
       -1    1    3    3    0  502 -0.82433666089E+03 -0.79271375871E+03 -0.69670032909E+03  0.13391480061E+04  0.50400001928E-02 0. -1.
</event>
<event>
 5   0  0.6104486E-06  0.2483611E+04  0.7818609E-02  0.8408847E-01
        1   -1    0    0  501    0  0.00000000000E+00  0.00000000000E+00  0.16086745881E+04  0.16086745882E+04  0.50400001928E-02 0. -1.
       -1   -1    0    0    0  501  0.00000000000E+00  0.00000000000E+00 -0.95860349880E+03  0.95860349881E+03  0.50400001928E-02 0.  1.
    10030    2    1    2    0    0  0.00000000000E+00  0.00000000000E+00  0.65007108935E+03  0.25672780870E+04  0.24836111521E+04 0.  0.
        2    1    3    3  502    0  0.12045779191E+04  0.19173346576E+03  0.56593444985E+03  0.13446380504E+04  0.25500000920E-02 0.  1.
       -2    1    3    3    0  502 -0.12045779191E+04 -0.19173346576E+03  0.84136639498E+02  0.12226400366E+04  0.25500000920E-02 0. -1.
</event>
<event>
 5   0  0.6290861E-06  0.2507156E+04  0.7818609E-02  0.8400441E-01
        1   -1    0    0  501    0  0.00000000000E+00  0.00000000000E+00  0.15273335473E+04  0.15273335473E+04  0.50400001928E-02 0. -1.
       -1   -1    0    0    0  501  0.00000000000E+00  0.00000000000E+00 -0.10288899611E+04  0.10288899611E+04  0.50400001928E-02 0.  1.
    10030    2    1    2    0    0  0.00000000000E+00  0.00000000000E+00  0.49844358620E+03  0.25562235083E+04  0.25071562807E+04 0.  0.
        1    1    3    3  502    0 -0.30850185800E+03  0.11321949326E+04  0.69878132365E+03  0.13657723456E+04  0.50400001928E-02 0. -1.
       -1    1    3    3    0  502  0.30850185800E+03 -0.11321949326E+04 -0.20033773746E+03  0.11904511627E+04  0.50400001928E-02 0.  1.
</event>
<event>
 5   0  0.6105353E-06  0.2504756E+04  0.7818609E-02  0.8401293E-01
       -1   -1    0    0    0  501  0.00000000000E+00  0.00000000000E+00  0.11360764739E+04  0.11360764739E+04  0.50400001928E-02 0. -1.
        1   -1    0    0  501    0  0.00000000000E+00  0.00000000000E+00 -0.13805855146E+04  0.13805855146E+04  0.50400001928E-02 0.  1.
    10030    2    1    2    0    0  0.00000000000E+00  0.00000000000E+00 -0.24450904067E+03  0.25166619885E+04  0.25047560547E+04 0.  0.
        3    1    3    3  502    0  0.30939525989E+03 -0.95400518421E+02 -0.13378084166E+04  0.13764294590E+04  0.10100000352E+00 0.  1.
       -3    1    3    3    0  502 -0.30939525989E+03  0.95400518421E+02  0.10932993760E+04  0.11402325295E+04  0.10100000352E+00 0. -1.
</event>
<event>
 5   0  0.6104486E-06  0.2498667E+04  0.7818609E-02  0.8403460E-01
        1   -1    0    0  501    0  0.00000000000E+00  0.00000000000E+00  0.12725871409E+04  0.12725871409E+04  0.50400001928E-02 0. -1.
       -1   -1    0    0    0  501  0.00000000000E+00  0.00000000000E+00 -0.12265052303E+04  0.12265052303E+04  0.50400001928E-02 0.  1.
    10030    2    1    2    0    0  0.00000000000E+00  0.00000000000E+00  0.46081910552E+02  0.24990923712E+04  0.24986674723E+04 0.  0.
        2    1    3    3  502    0  0.71925459403E+03  0.15071199651E+03  0.10335560265E+04  0.12681795365E+04  0.25500000920E-02 0. -1.
       -2    1    3    3    0  502 -0.71925459403E+03 -0.15071199651E+03 -0.98747411592E+03  0.12309128347E+04  0.25500000920E-02 0.  1.
</event>
<event>
 5   0  0.6105353E-06  0.2510078E+04  0.7818609E-02  0.8399404E-01
       -1   -1    0    0    0  501  0.00000000000E+00  0.00000000000E+00  0.55137297864E+03  0.55137297866E+03  0.50400001928E-02 0.  1.
        1   -1    0    0  501    0  0.00000000000E+00  0.00000000000E+00 -0.28567278122E+04  0.28567278122E+04  0.50400001928E-02 0. -1.
    10030    2    1    2    0    0  0.00000000000E+00  0.00000000000E+00 -0.23053548336E+04  0.34081007909E+04  0.25100777064E+04 0.  0.
        3    1    3    3  502    0  0.37931675254E+03 -0.65250259076E+02 -0.27746173721E+04  0.28011855288E+04  0.10100000352E+00 0. -1.
       -3    1    3    3    0  502 -0.37931675254E+03  0.65250259076E+02  0.46926253853E+03  0.60691526207E+03  0.10100000352E+00 0.  1.
</event>
<event>
 5   0  0.6290861E-06  0.2464733E+04  0.7818609E-02  0.8415658E-01
       -1   -1    0    0    0  501  0.00000000000E+00  0.00000000000E+00  0.10312804420E+04  0.10312804421E+04  0.50400001928E-02 0. -1.
        1   -1    0    0  501    0  0.00000000000E+00  0.00000000000E+00 -0.14726621919E+04  0.14726621919E+04  0.50400001928E-02 0.  1.
    10030    2    1    2    0    0  0.00000000000E+00  0.00000000000E+00 -0.44138174986E+03  0.25039426340E+04  0.24647334268E+04 0.  0.
        1    1    3    3  502    0 -0.10092702023E+04 -0.65477449549E+03  0.50713939494E+02  0.12041295133E+04  0.50400001928E-02 0. -1.
       -1    1    3    3    0  502  0.10092702023E+04  0.65477449549E+03 -0.49209568936E+03  0.12998131207E+04  0.50400001928E-02 0.  1.
</event>
<event>
 5   0  0.6104486E-06  0.2471583E+04  0.7818609E-02  0.8413180E-01
        1   -1    0    0  501    0  0.00000000000E+00  0.00000000000E+00  0.13624150666E+04  0.13624150667E+04  0.50400001928E-02 0.  1.
       -1   -1    0    0    0  501  0.00000000000E+00  0.00000000000E+00 -0.11209367204E+04  0.11209367204E+04  0.50400001928E-02 0. -1.
    10030    2    1    2    0    0  0.00000000000E+00  0.00000000000E+00  0.24147834623E+03  0.24833517871E+04  0.24715833603E+04 0.  0.
        2    1    3    3  502    0  0.37843833384E+03 -0.27106145667E+03  0.12709568444E+04  0.13535217716E+04  0.25500000920E-02 0.  1.
       -2    1    3    3    0  502 -0.37843833384E+03  0.27106145667E+03 -0.10294784981E+04  0.11298300155E+04  0.25500000920E-02 0. -1.
</event>
<event>
 5   0  0.1526824E-05  0.2506532E+04  0.7818609E-02  0.8400662E-01
       -2   -1    0    0    0  501  0.00000000000E+00  0.00000000000E+00  0.18248151610E+04  0.18248151610E+04  0.25500000920E-02 0.  1.
        2   -1    0    0  501    0  0.00000000000E+00  0.00000000000E+00 -0.86073151358E+03  0.86073151359E+03  0.25500000920E-02 0. -1.
    10030    2    1    2    0    0  0.00000000000E+00  0.00000000000E+00  0.96408364744E+03  0.26855466746E+04  0.25065321985E+04 0.  0.
        2    1    3    3  502    0  0.47611186646E+03  0.11254889413E+04  0.77986561678E+03  0.14496890172E+04  0.25500000920E-02 0.  1.
       -2    1    3    3    0  502 -0.47611186646E+03 -0.11254889413E+04  0.18421803066E+03  0.12358576574E+04  0.25500000920E-02 0. -1.
</event>
<event>
 5   0  0.6104486E-06  0.2457351E+04  0.7818609E-02  0.8418339E-01
       -1   -1    0    0    0  501  0.00000000000E+00  0.00000000000E+00  0.11513331148E+04  0.11513331148E+04  0.50400001928E-02 0.  1.
        1   -1    0    0  501    0  0.00000000000E+00  0.00000000000E+00 -0.13112129510E+04  0.13112129510E+04  0.50400001928E-02 0. -1.
    10030    2    1    2    0    0  0.00000000000E+00  0.00000000000E+00 -0.15987983617E+03  0.24625460658E+04  0.24573505171E+04 0.  0.
        2    1    3    3  502    0 -0.44733366937E+03 -0.10784769037E+04 -0.46340160217E+03  0.12561691321E+04  0.25500000920E-02 0. -1.
       -2    1    3    3    0  502  0.44733366937E+03  0.10784769037E+04  0.30352176600E+03  0.12063769337E+04  0.25500000920E-02 0.  1.
</event>
<event>
 5   0  0.6477703E-06  0.2473011E+04  0.7818609E-02  0.8412664E-01
       -1   -1    0    0    0  501  0.00000000000E+00  0.00000000000E+00  0.19380520761E+04  0.19380520761E+04  0.50400001928E-02 0.  1.
        1   -1    0    0  501    0  0.00000000000E+00  0.00000000000E+00 -0.78890851786E+03  0.78890851787E+03  0.50400001928E-02 0. -1.
    10030    2    1    2    0    0  0.00000000000E+00  0.00000000000E+00  0.11491435582E+04  0.27269605940E+04  0.24730109510E+04 0.  0.
        5    1    3    3  502    0  0.99176706042E+03  0.50720757282E+03 -0.17256914494E+02  0.11140831725E+04  0.46999998093E+01 0. -1.
       -5    1    3    3    0  502 -0.99176706042E+03 -0.50720757282E+03  0.11664004727E+04  0.16128774215E+04  0.46999998093E+01 0.  1.
</event>
<event>
 5   0  0.5164625E-06  0.2483794E+04  0.7818609E-02  0.8408782E-01
        3   -1    0    0  501    0  0.00000000000E+00  0.00000000000E+00  0.17025433194E+04  0.17025433224E+04  0.10100000352E+00 0.  1.
       -3   -1    0    0    0  501  0.00000000000E+00  0.00000000000E+00 -0.90588500208E+03  0.90588500771E+03  0.10100000352E+00 0. -1.
    10030    2    1    2    0    0  0.00000000000E+00  0.00000000000E+00  0.79665831730E+03  0.26084283301E+04  0.24837942505E+04 0.  0.
        5    1    3    3  502    0  0.94738604234E+03  0.46176376959E+03  0.10881938227E+04  0.15149105511E+04  0.46999998093E+01 0.  1.
       -5    1    3    3    0  502 -0.94738604234E+03 -0.46176376959E+03 -0.29153550535E+03  0.10935177790E+04  0.46999998093E+01 0. -1.
</event>
<event>
 5   0  0.1501947E-05  0.2476530E+04  0.7818609E-02  0.8411395E-01
       -2   -1    0    0    0  501  0.00000000000E+00  0.00000000000E+00  0.84149082767E+03  0.84149082768E+03  0.25500000920E-02 0. -1.
        2   -1    0    0  501    0  0.00000000000E+00  0.00000000000E+00 -0.18221237807E+04  0.18221237807E+04  0.25500000920E-02 0.  1.
    10030    2    1    2    0    0  0.00000000000E+00  0.00000000000E+00 -0.98063295306E+03  0.26636146084E+04  0.24765301923E+04 0.  0.
        3    1    3    3  502    0  0.91419452018E+03 -0.40814654394E+03  0.29340328314E+03  0.10432740382E+04  0.10100000352E+00 0. -1.
       -3    1    3    3    0  502 -0.91419452018E+03  0.40814654394E+03 -0.12740362362E+04  0.16203405702E+04  0.10100000352E+00 0.  1.
</event>
<event>
 5   0  0.1501947E-05  0.2459563E+04  0.7818609E-02  0.8417535E-01
        2   -1    0    0  501    0  0.00000000000E+00  0.00000000000E+00  0.15768952928E+04  0.15768952928E+04  0.25500000920E-02 0.  1.
       -2   -1    0    0    0  501  0.00000000000E+00  0.00000000000E+00 -0.95907601268E+03  0.95907601268E+03  0.25500000920E-02 0. -1.
    10030    2    1    2    0    0  0.00000000000E+00  0.00000000000E+00  0.61781928008E+03  0.25359713054E+04  0.24595629285E+04 0.  0.
        3    1    3    3  502    0  0.10261964796E+04 -0.44638374171E+03  0.83467717449E+03  0.13960743732E+04  0.10100000352E+00 0.  1.
       -3    1    3    3    0  502 -0.10261964796E+04  0.44638374171E+03 -0.21685789441E+03  0.11398969323E+04  0.10100000352E+00 0. -1.
</event>
<event>
 5   0  0.1468512E-05  0.2495421E+04  0.7818609E-02  0.8404619E-01
        2   -1    0    0  501    0  0.00000000000E+00  0.00000000000E+00  0.13942693664E+04  0.13942693664E+04  0.25500000920E-02 0.  1.
       -2   -1    0    0    0  501  0.00000000000E+00  0.00000000000E+00 -0.11165567545E+04  0.11165567545E+04  0.25500000920E-02 0. -1.
    10030    2    1    2    0    0  0.00000000000E+00  0.00000000000E+00  0.27771261193E+03  0.25108261209E+04  0.24954205086E+04 0.  0.
        4    1    3    3  502    0 -0.54671798803E+03  0.10103809180E+04  0.62869762506E+03  0.13095924841E+04  0.12699999809E+01 0.  1.
       -4    1    3    3    0  502  0.54671798803E+03 -0.10103809180E+04 -0.35098501313E+03  0.12012336368E+04  0.12699999809E+01 0. -1.
</event>
<event>
 5   0  0.1501947E-05  0.2475378E+04  0.7818609E-02  0.8411810E-01
       -2   -1    0    0    0  501  0.00000000000E+00  0.00000000000E+00  0.68403272399E+03  0.68403272400E+03  0.25500000920E-02 0.  1.
        2   -1    0    0  501    0  0.00000000000E+00  0.00000000000E+00 -0.22394751807E+04  0.22394751807E+04  0.25500000920E-02 0. -1.
    10030    2    1    2    0    0  0.00000000000E+00  0.00000000000E+00 -0.15554424567E+04  0.29235079047E+04  0.24753781999E+04 0.  0.
        3    1    3    3  502    0 -0.17239620763E+02 -0.46081327537E+03 -0.21342302198E+04  0.21834799565E+04  0.10100000352E+00 0. -1.
       -3    1    3    3    0  502  0.17239620763E+02  0.46081327537E+03  0.57878776305E+03  0.74002794821E+03  0.10100000352E+00 0.  1.
</event>
<event>
 5   0  0.1572732E-05  0.2560908E+04  0.7818609E-02  0.8381602E-01
        2   -1    0    0  501    0  0.00000000000E+00  0.00000000000E+00  0.81404994534E+03  0.81404994534E+03  0.25500000920E-02 0. -1.
       -2   -1    0    0    0  501  0.00000000000E+00  0.00000000000E+00 -0.20140807036E+04  0.20140807036E+04  0.25500000920E-02 0.  1.
    10030    2    1    2    0    0  0.00000000000E+00  0.00000000000E+00 -0.12000307583E+04  0.28281306489E+04  0.25609078755E+04 0.  0.
        1    1    3    3  502    0 -0.11140958712E+04  0.61423177582E+03 -0.43970619223E+03  0.13460430232E+04  0.50400001928E-02 0.  1.
       -1    1    3    3    0  502  0.11140958712E+04 -0.61423177582E+03 -0.76032456603E+03  0.14820876258E+04  0.50400001928E-02 0. -1.
</event>
<event>
 5   0  0.1501947E-05  0.2501631E+04  0.7818609E-02  0.8402405E-01
        2   -1    0    0  501    0  0.00000000000E+00  0.00000000000E+00  0.22783569334E+04  0.22783569334E+04  0.25500000920E-02 0.  1.
       -2   -1    0    0    0  501  0.00000000000E+00  0.00000000000E+00 -0.68669633963E+03  0.68669633964E+03  0.25500000920E-02 0. -1.
    10030    2    1    2    0    0  0.00000000000E+00  0.00000000000E+00  0.15916605938E+04  0.29650532731E+04  0.25016309612E+04 0.  0.
        3    1    3    3  502    0 -0.10469465644E+04 -0.51584913190E+03  0.26267688633E+03  0.11963262901E+04  0.10100000352E+00 0. -1.
       -3    1    3    3    0  502  0.10469465644E+04  0.51584913190E+03  0.13289837075E+04  0.17687269830E+04  0.10100000352E+00 0.  1.
</event>
<event>
 5   0  0.1550483E-05  0.2464548E+04  0.7818609E-02  0.8415725E-01
        2   -1    0    0  501    0  0.00000000000E+00  0.00000000000E+00  0.15002387240E+04  0.15002387240E+04  0.25500000920E-02 0.  1.
       -2   -1    0    0    0  501  0.00000000000E+00  0.00000000000E+00 -0.10121718629E+04  0.10121718629E+04  0.25500000920E-02 0. -1.
    10030    2    1    2    0    0  0.00000000000E+00  0.00000000000E+00  0.48806686110E+03  0.25124105869E+04  0.24645481728E+04 0.  0.
        5    1    3    3  502    0 -0.64387434836E+03 -0.22216025638E+03 -0.80282143288E+03  0.10528407758E+04  0.46999998093E+01 0. -1.
       -5    1    3    3    0  502  0.64387434836E+03  0.22216025638E+03  0.12908882940E+04  0.14595698111E+04  0.46999998093E+01 0.  1.
</event>
<event>
 5   0  0.6105353E-06  0.2508262E+04  0.7818609E-02  0.8400048E-01
        1   -1    0    0  501    0  0.00000000000E+00  0.00000000000E+00  0.16460214675E+04  0.16460214675E+04  0.50400001928E-02 0. -1.
       -1   -1    0    0    0  501  0.00000000000E+00  0.00000000000E+00 -0.95554285075E+03  0.95554285076E+03  0.50400001928E-02 0.  1.
    10030    2    1    2    0    0  0.00000000000E+00  0.00000000000E+00  0.69047861673E+03  0.26015643183E+04  0.25082615856E+04 0.  0.
        3    1    3    3  502    0  0.46598311601E+03  0.99557928196E+03  0.97145766686E+03  0.14669861553E+04  0.10100000352E+00 0. -1.
       -3    1    3    3    0  502 -0.46598311601E+03 -0.99557928196E+03 -0.28097905012E+03  0.11345781630E+04  0.10100000352E+00 0.  1.
</event>
<event>
 5   0  0.6290861E-06  0.2502937E+04  0.7818609E-02  0.8401940E-01
        1   -1    0    0  501    0  0.00000000000E+00  0.00000000000E+00  0.17113284010E+04  0.17113284010E+04  0.50400001928E-02 0.  1.
       -1   -1    0    0    0  501  0.00000000000E+00  0.00000000000E+00 -0.91517998626E+03  0.91517998628E+03  0.50400001928E-02 0. -1.
    10030    2    1    2    0    0  0.00000000000E+00  0.00000000000E+00  0.79614841473E+03  0.26265083873E+04  0.25029370767E+04 0.  0.
        1    1    3    3  502    0 -0.82788219865E+03 -0.21381072513E+03 -0.56086302684E+03  0.10225807039E+04  0.50400001928E-02 0. -1.
       -1    1    3    3    0  502  0.82788219865E+03  0.21381072513E+03  0.13570114416E+04  0.16039276834E+04  0.50400001928E-02 0.  1.
</event>
<event>
 5   0  0.6105353E-06  0.2506488E+04  0.7818609E-02  0.8400678E-01
        1   -1    0    0  501    0  0.00000000000E+00  0.00000000000E+00  0.18695703321E+04  0.18695703322E+04  0.50400001928E-02 0. -1.
       -1   -1    0    0    0  501  0.00000000000E+00  0.00000000000E+00 -0.84009736763E+03  0.84009736764E+03  0.50400001928E-02 0.  1.
    10030    2    1    2    0    0  0.00000000000E+00  0.00000000000E+00  0.10294729645E+04  0.27096676998E+04  0.25064884717E+04 0.  0.
        3    1    3    3  502    0  0.92056934504E+03 -0.49638986071E+03 -0.23172072550E+03  0.10712354165E+04  0.10100000352E+00 0.  1.
       -3    1    3    3    0  502 -0.92056934504E+03  0.49638986071E+03  0.12611936900E+04  0.16384322832E+04  0.10100000352E+00 0. -1.
</event>
<event>
 5   0  0.6290861E-06  0.2502216E+04  0.7818609E-02  0.8402196E-01
        1   -1    0    0  501    0  0.00000000000E+00  0.00000000000E+00  0.12781251521E+04  0.12781251521E+04  0.50400001928E-02 0. -1.
       -1   -1    0    0    0  501  0.00000000000E+00  0.00000000000E+00 -0.12246620221E+04  0.12246620221E+04  0.50400001928E-02 0.  1.
    10030    2    1    2    0    0  0.00000000000E+00  0.00000000000E+00  0.53463129988E+02  0.25027871742E+04  0.25022160844E+04 0.  0.
        1    1    3    3  502    0 -0.48374653508E+03  0.57146407830E+03 -0.97583917584E+03  0.12299772356E+04  0.50400001928E-02 0.  1.
       -1    1    3    3    0  502  0.48374653508E+03 -0.57146407830E+03  0.10293023058E+04  0.12728099386E+04  0.50400001928E-02 0. -1.
</event>
<event>
 5   0  0.6346420E-06  0.2260947E+04  0.7818609E-02  0.8493480E-01
       -1   -1    0    0    0  501  0.00000000000E+00  0.00000000000E+00  0.75956227266E+03  0.75956227268E+03  0.50400001928E-02 0.  1.
        1   -1    0    0  501    0  0.00000000000E+00  0.00000000000E+00 -0.16825093460E+04  0.16825093460E+04  0.50400001928E-02 0. -1.
    10030    2    1    2    0    0  0.00000000000E+00  0.00000000000E+00 -0.92294707338E+03  0.24420716187E+04  0.22609472552E+04 0.  0.
        4    1    3    3  502    0  0.95419857801E+03 -0.48221357890E+02 -0.11141574291E+04  0.14677086275E+04  0.12699999809E+01 0. -1.
       -4    1    3    3    0  502 -0.95419857801E+03  0.48221357890E+02  0.19121035567E+03  0.97436299122E+03  0.12699999809E+01 0.  1.
</event>
<event>
 5   0  0.1468512E-05  0.2497568E+04  0.7818609E-02  0.8403853E-01
       -2   -1    0    0    0  501  0.00000000000E+00  0.00000000000E+00  0.15710783108E+04  0.15710783108E+04  0.25500000920E-02 0.  1.
        2   -1    0    0  501    0  0.00000000000E+00  0.00000000000E+00 -0.99260553551E+03  0.99260553551E+03  0.25500000920E-02 0. -1.
    10030    2    1    2    0    0  0.00000000000E+00  0.00000000000E+00  0.57847277529E+03  0.25636838463E+04  0.24975676391E+04 0.  0.
        4    1    3    3  502    0  0.60510288751E+03 -0.49180857928E+03 -0.71199993115E+03  0.10559217291E+04  0.12699999809E+01 0. -1.
       -4    1    3    3    0  502 -0.60510288751E+03  0.49180857928E+03  0.12904727064E+04  0.15077621172E+04  0.12699999809E+01 0.  1.
</event>
<event>
 5   0  0.1550483E-05  0.2503587E+04  0.7818609E-02  0.8401709E-01
        2   -1    0    0  501    0  0.00000000000E+00  0.00000000000E+00  0.98992204059E+03  0.98992204059E+03  0.25500000920E-02 0.  1.
       -2   -1    0    0    0  501  0.00000000000E+00  0.00000000000E+00 -0.15829393200E+04  0.15829393200E+04  0.25500000920E-02 0. -1.
    10030    2    1    2    0    0  0.00000000000E+00  0.00000000000E+00 -0.59301727937E+03  0.25728613606E+04  0.25035866446E+04 0.  0.
        5    1    3    3  502    0  0.13362422920E+02 -0.10948609200E+04  0.32696239381E+03  0.11427272139E+04  0.46999998093E+01 0.  1.
       -5    1    3    3    0  502 -0.13362422920E+02  0.10948609200E+04 -0.91997967318E+03  0.14301341467E+04  0.46999998093E+01 0. -1.
</event>
<event>
 5   0  0.6290861E-06  0.2522824E+04  0.7818609E-02  0.8394899E-01
       -1   -1    0    0    0  501  0.00000000000E+00  0.00000000000E+00  0.78620559528E+03  0.78620559530E+03  0.50400001928E-02 0.  1.
        1   -1    0    0  501    0  0.00000000000E+00  0.00000000000E+00 -0.20238471298E+04  0.20238471298E+04  0.50400001928E-02 0. -1.
    10030    2    1    2    0    0  0.00000000000E+00  0.00000000000E+00 -0.12376415345E+04  0.28100527251E+04  0.25228237651E+04 0.  0.
        1    1    3    3  502    0 -0.10332124615E+04 -0.53911176805E+03 -0.81174526150E+02  0.11682289128E+04  0.50400001928E-02 0.  1.
       -1    1    3    3    0  502  0.10332124615E+04  0.53911176805E+03 -0.11564670084E+04  0.16418238123E+04  0.50400001928E-02 0. -1.
</event>
<event>
 5   0  0.1501947E-05  0.2507422E+04  0.7818609E-02  0.8400346E-01
       -2   -1    0    0    0  501  0.00000000000E+00  0.00000000000E+00  0.92405554461E+03  0.92405554461E+03  0.25500000920E-02 0. -1.
        2   -1    0    0  501    0  0.00000000000E+00  0.00000000000E+00 -0.17009709159E+04  0.17009709159E+04  0.25500000920E-02 0.  1.
    10030    2    1    2    0    0  0.00000000000E+00  0.00000000000E+00 -0.77691537130E+03  0.26250264605E+04  0.25074222668E+04 0.  0.
        3    1    3    3  502    0  0.98240811791E+03  0.77876693707E+03 -0.37410544164E+03  0.13082654716E+04  0.10100000352E+00 0.  1.
       -3    1    3    3    0  502 -0.98240811791E+03 -0.77876693707E+03 -0.40280992966E+03  0.13167609890E+04  0.10100000352E+00 0. -1.
</event>
<event>
 5   0  0.1572732E-05  0.2505677E+04  0.7818609E-02  0.8400966E-01
       -2   -1    0    0    0  501  0.00000000000E+00  0.00000000000E+00  0.14216605925E+04  0.14216605925E+04  0.25500000920E-02 0.  1.
        2   -1    0    0  501    0  0.00000000000E+00  0.00000000000E+00 -0.11040637597E+04  0.11040637597E+04  0.25500000920E-02 0. -1.
    10030    2    1    2    0    0  0.00000000000E+00  0.00000000000E+00  0.31759683280E+03  0.25257243522E+04  0.25056767060E+04 0.  0.
        1    1    3    3  502    0 -0.30656044827E+03  0.25055580767E+03 -0.10393438624E+04  0.11122019536E+04  0.50400001928E-02 0. -1.
       -1    1    3    3    0  502  0.30656044827E+03 -0.25055580767E+03  0.13569406952E+04  0.14135223987E+04  0.50400001928E-02 0.  1.
</event>
<event>
 5   0  0.1526824E-05  0.2502201E+04  0.7818609E-02  0.8402202E-01
       -2   -1    0    0    0  501  0.00000000000E+00  0.00000000000E+00  0.62809008961E+03  0.62809008962E+03  0.25500000920E-02 0. -1.
        2   -1    0    0  501    0  0.00000000000E+00  0.00000000000E+00 -0.24920831585E+04  0.24920831585E+04  0.25500000920E-02 0.  1.
    10030    2    1    2    0    0  0.00000000000E+00  0.00000000000E+00 -0.18639930689E+04  0.31201732482E+04  0.25022012184E+04 0.  0.
        2    1    3    3  502    0  0.81218990731E+03 -0.53006430022E+03 -0.19175237829E+04  0.21488410984E+04  0.25500000920E-02 0.  1.
       -2    1    3    3    0  502 -0.81218990731E+03  0.53006430022E+03  0.53530713982E+02  0.97133214981E+03  0.25500000920E-02 0. -1.
</event>
<event>
 5   0  0.6104486E-06  0.2548768E+04  0.7818609E-02  0.8385815E-01
       -1   -1    0    0    0  501  0.00000000000E+00  0.00000000000E+00  0.16371608046E+04  0.16371608046E+04  0.50400001928E-02 0. -1.
        1   -1    0    0  501    0  0.00000000000E+00  0.00000000000E+00 -0.99199486651E+03  0.99199486652E+03  0.50400001928E-02 0.  1.
    10030    2    1    2    0    0  0.00000000000E+00  0.00000000000E+00  0.64516593810E+03  0.26291556711E+04  0.25487684193E+04 0.  0.
        2    1    3    3  502    0  0.10507666465E+04 -0.64825641079E+03 -0.31422236883E+01  0.12346484492E+04  0.25500000920E-02 0.  1.
       -2    1    3    3    0  502 -0.10507666465E+04  0.64825641079E+03  0.64830816179E+03  0.13945072220E+04  0.25500000920E-02 0. -1.
</event>
<event>
 5   0  0.6346420E-06  0.2477958E+04  0.7818609E-02  0.8410881E-01
       -1   -1    0    0    0  501  0.00000000000E+00  0.00000000000E+00  0.91924564118E+03  0.91924564119E+03  0.50400001928E-02 0.  1.
        1   -1    0    0  501    0  0.00000000000E+00  0.00000000000E+00 -0.16699219925E+04  0.16699219926E+04  0.50400001928E-02 0. -1.
    10030    2    1    2    0    0  0.00000000000E+00  0.00000000000E+00 -0.75067635137E+03  0.25891676337E+04  0.24779576371E+04 0.  0.
        4    1    3    3  502    0  0.37801430317E+02 -0.25502711684E+03  0.89090735066E+03  0.92746175059E+03  0.12699999809E+01 0.  1.
       -4    1    3    3    0  502 -0.37801430317E+02  0.25502711684E+03 -0.16415837020E+04  0.16617058832E+04  0.12699999809E+01 0. -1.
</event>
<event>
 5   0  0.1550483E-05  0.2491325E+04  0.7818609E-02  0.8406083E-01
       -2   -1    0    0    0  501  0.00000000000E+00  0.00000000000E+00  0.75581075167E+03  0.75581075167E+03  0.25500000920E-02 0.  1.
        2   -1    0    0  501    0  0.00000000000E+00  0.00000000000E+00 -0.20529936196E+04  0.20529936196E+04  0.25500000920E-02 0. -1.
    10030    2    1    2    0    0  0.00000000000E+00  0.00000000000E+00 -0.12971828679E+04  0.28088043713E+04  0.24913246684E+04 0.  0.
        5    1    3    3  502    0  0.37569153672E+03  0.10951642494E+04 -0.11666270925E+04  0.16436452558E+04  0.46999998093E+01 0. -1.
       -5    1    3    3    0  502 -0.37569153672E+03 -0.10951642494E+04 -0.13055577543E+03  0.11651591155E+04  0.46999998093E+01 0.  1.
</event>
<event>
 5   0  0.6104486E-06  0.2495357E+04  0.7818609E-02  0.8404642E-01
        1   -1    0    0  501    0  0.00000000000E+00  0.00000000000E+00  0.10442330532E+04  0.10442330532E+04  0.50400001928E-02 0. -1.
       -1   -1    0    0    0  501  0.00000000000E+00  0.00000000000E+00 -0.14907602376E+04  0.14907602376E+04  0.50400001928E-02 0.  1.
    10030    2    1    2    0    0  0.00000000000E+00  0.00000000000E+00 -0.44652718442E+03  0.25349932908E+04  0.24953565794E+04 0.  0.
        2    1    3    3  502    0 -0.38866392484E+03 -0.54220967969E+03 -0.12943592587E+04  0.14561651259E+04  0.25500000920E-02 0.  1.
       -2    1    3    3    0  502  0.38866392484E+03  0.54220967969E+03  0.84783207432E+03  0.10788281649E+04  0.25500000920E-02 0. -1.
</event>
<event>
 5   0  0.6477703E-06  0.2489529E+04  0.7818609E-02  0.8406725E-01
       -1   -1    0    0    0  501  0.00000000000E+00  0.00000000000E+00  0.81797253333E+03  0.81797253334E+03  0.50400001928E-02 0.  1.
        1   -1    0    0  501    0  0.00000000000E+00  0.00000000000E+00 -0.18942432028E+04  0.18942432028E+04  0.50400001928E-02 0. -1.
    10030    2    1    2    0    0  0.00000000000E+00  0.00000000000E+00 -0.10762706695E+04  0.27122157362E+04  0.24895292016E+04 0.  0.
        5    1    3    3  502    0  0.25159183652E+03 -0.96735012746E+03 -0.13463511055E+04  0.16768267980E+04  0.46999998093E+01 0. -1.
       -5    1    3    3    0  502 -0.25159183652E+03  0.96735012746E+03  0.27008043602E+03  0.10353889381E+04  0.46999998093E+01 0.  1.
</event>
<event>
 5   0  0.6346420E-06  0.2524825E+04  0.7818609E-02  0.8394195E-01
       -1   -1    0    0    0  501  0.00000000000E+00  0.00000000000E+00  0.13872602413E+04  0.13872602413E+04  0.50400001928E-02 0. -1.
        1   -1    0    0  501    0  0.00000000000E+00  0.00000000000E+00 -0.11488005350E+04  0.11488005350E+04  0.50400001928E-02 0.  1.
    10030    2    1    2    0    0  0.00000000000E+00  0.00000000000E+00  0.23845970637E+03  0.25360607763E+04  0.25248249899E+04 0.  0.
        4    1    3    3  502    0 -0.62245521245E+03 -0.40219169372E+03  0.11457734799E+04  0.13645538209E+04  0.12699999809E+01 0. -1.
       -4    1    3    3    0  502  0.62245521245E+03  0.40219169372E+03 -0.90731377354E+03  0.11715069554E+04  0.12699999809E+01 0.  1.
</event>
<event>
 5   0  0.6105353E-06  0.2507462E+04  0.7818609E-02  0.8400332E-01
       -1   -1    0    0    0  501  0.00000000000E+00  0.00000000000E+00  0.82867141429E+03  0.82867141431E+03  0.50400001928E-02 0. -1.
        1   -1    0    0  501    0  0.00000000000E+00  0.00000000000E+00 -0.18968216012E+04  0.18968216012E+04  0.50400001928E-02 0.  1.
    10030    2    1    2    0    0  0.00000000000E+00  0.00000000000E+00 -0.10681501869E+04  0.27254930155E+04  0.25074623339E+04 0.  0.
        3    1    3    3  502    0 -0.76187972593E+03  0.96989664812E+03 -0.77877614232E+03  0.14586474951E+04  0.10100000352E+00 0.  1.
       -3    1    3    3    0  502  0.76187972593E+03 -0.96989664812E+03 -0.28937404459E+03  0.12668455205E+04  0.10100000352E+00 0. -1.
</event>
<event>
 5   0  0.6477703E-06  0.2528932E+04  0.7818609E-02  0.8392750E-01
        1   -1    0    0  501    0  0.00000000000E+00  0.00000000000E+00  0.16722766484E+04  0.16722766484E+04  0.50400001928E-02 0.  1.
       -1   -1    0    0    0  501  0.00000000000E+00  0.00000000000E+00 -0.95610612191E+03  0.95610612192E+03  0.50400001928E-02 0. -1.
    10030    2    1    2    0    0  0.00000000000E+00  0.00000000000E+00  0.71617052648E+03  0.26283827703E+04  0.25289317437E+04 0.  0.
        5    1    3    3  502    0 -0.87484963436E+03 -0.16529371041E+03  0.12912627872E+04  0.15684596166E+04  0.46999998093E+01 0.  1.
       -5    1    3    3    0  502  0.87484963436E+03  0.16529371041E+03 -0.57509226069E+03  0.10599231537E+04  0.46999998093E+01 0. -1.
</event>
<event>
 5   0  0.6290861E-06  0.2522053E+04  0.7818609E-02  0.8395171E-01
       -1   -1    0    0    0  501  0.00000000000E+00  0.00000000000E+00  0.65213270132E+03  0.65213270134E+03  0.50400001928E-02 0. -1.
        1   -1    0    0  501    0  0.00000000000E+00  0.00000000000E+00 -0.24384415303E+04  0.24384415303E+04  0.50400001928E-02 0.  1.
    10030    2    1    2    0    0  0.00000000000E+00  0.00000000000E+00 -0.17863088290E+04  0.30905742316E+04  0.25220527054E+04 0.  0.
        1    1    3    3  502    0  0.92817764867E+03 -0.70941391475E+03 -0.31136289872E+03  0.12090197288E+04  0.50400001928E-02 0. -1.
       -1    1    3    3    0  502 -0.92817764867E+03  0.70941391475E+03 -0.14749459303E+04  0.18815545028E+04  0.50400001928E-02 0.  1.
</event>
<event>
 5   0  0.1572732E-05  0.2485019E+04  0.7818609E-02  0.8408342E-01
       -2   -1    0    0    0  501  0.00000000000E+00  0.00000000000E+00  0.80077609236E+03  0.80077609236E+03  0.25500000920E-02 0. -1.
        2   -1    0    0  501    0  0.00000000000E+00  0.00000000000E+00 -0.19279165027E+04  0.19279165027E+04  0.25500000920E-02 0.  1.
    10030    2    1    2    0    0  0.00000000000E+00  0.00000000000E+00 -0.11271404104E+04  0.27286925951E+04  0.24850186667E+04 0.  0.
        1    1    3    3  502    0  0.57269432040E+03  0.39780735497E+03 -0.16928086917E+04  0.18308005744E+04  0.50400001928E-02 0.  1.
       -1    1    3    3    0  502 -0.57269432040E+03 -0.39780735497E+03  0.56566828137E+03  0.89789202071E+03  0.50400001928E-02 0. -1.
</event>
<event>
 5   0  0.6290861E-06  0.2496595E+04  0.7818609E-02  0.8404200E-01
        1   -1    0    0  501    0  0.00000000000E+00  0.00000000000E+00  0.18145646677E+04  0.18145646677E+04  0.50400001928E-02 0. -1.
       -1   -1    0    0    0  501  0.00000000000E+00  0.00000000000E+00 -0.85874401405E+03  0.85874401407E+03  0.50400001928E-02 0.  1.
    10030    2    1    2    0    0  0.00000000000E+00  0.00000000000E+00  0.95582065367E+03  0.26733086818E+04  0.24965949183E+04 0.  0.
        1    1    3    3  502    0 -0.80418738270E+03 -0.93617791760E+03  0.27729909506E+03  0.12649273608E+04  0.50400001928E-02 0.  1.
       -1    1    3    3    0  502  0.80418738270E+03  0.93617791760E+03  0.67852155861E+03  0.14083813210E+04  0.50400001928E-02 0. -1.
</event>
<event>
 5   0  0.1468512E-05  0.2506058E+04  0.7818609E-02  0.8400830E-01
        2   -1    0    0  501    0  0.00000000000E+00  0.00000000000E+00  0.19179037962E+04  0.19179037962E+04  0.25500000920E-02 0.  1.
       -2   -1    0    0    0  501  0.00000000000E+00  0.00000000000E+00 -0.81864487461E+03  0.81864487461E+03  0.25500000920E-02 0. -1.
    10030    2    1    2    0    0  0.00000000000E+00  0.00000000000E+00  0.10992589216E+04  0.27365486708E+04  0.25060583495E+04 0.  0.
        4    1    3    3  502    0 -0.95045750874E+03 -0.19340856580E+03  0.14158775630E+04  0.17162421844E+04  0.12699999809E+01 0.  1.
       -4    1    3    3    0  502  0.95045750874E+03  0.19340856580E+03 -0.31661864139E+03  0.10203064864E+04  0.12699999809E+01 0. -1.
</event>
<event>
 5   0  0.1550483E-05  0.2507468E+04  0.7818609E-02  0.8400330E-01
        2   -1    0    0  501    0  0.00000000000E+00  0.00000000000E+00  0.11644565138E+04  0.11644565138E+04  0.25500000920E-02 0.  1.
       -2   -1    0    0    0  501  0.00000000000E+00  0.00000000000E+00 -0.13498559337E+04  0.13498559337E+04  0.25500000920E-02 0. -1.
    10030    2    1    2    0    0  0.00000000000E+00  0.00000000000E+00 -0.18539941994E+03  0.25143124475E+04  0.25074676746E+04 0.  0.
        5    1    3    3  502    0  0.39485767681E+03 -0.94686562808E+03  0.62993343344E+03  0.12038709745E+04  0.46999998093E+01 0.  1.
       -5    1    3    3    0  502 -0.39485767681E+03  0.94686562808E+03 -0.81533285338E+03  0.13104414731E+04  0.46999998093E+01 0. -1.
</event>
<event>
 5   0  0.6104486E-06  0.2516640E+04  0.7818609E-02  0.8397081E-01
       -1   -1    0    0    0  501  0.00000000000E+00  0.00000000000E+00  0.11183140251E+04  0.11183140251E+04  0.50400001928E-02 0. -1.
        1   -1    0    0  501    0  0.00000000000E+00  0.00000000000E+00 -0.14158535780E+04  0.14158535780E+04  0.50400001928E-02 0.  1.
    10030    2    1    2    0    0  0.00000000000E+00  0.00000000000E+00 -0.29753955284E+03  0.25341676031E+04  0.25166397547E+04 0.  0.
        2    1    3    3  502    0 -0.80236676797E+03  0.59771983923E+03 -0.91717527723E+03  0.13573031812E+04  0.25500000920E-02 0.  1.
       -2    1    3    3    0  502  0.80236676797E+03 -0.59771983923E+03  0.61963572439E+03  0.11768644219E+04  0.25500000920E-02 0. -1.
</event>
<event>
 5   0  0.6290861E-06  0.2501636E+04  0.7818609E-02  0.8402403E-01
        1   -1    0    0  501    0  0.00000000000E+00  0.00000000000E+00  0.18521400345E+04  0.18521400345E+04  0.50400001928E-02 0. -1.
       -1   -1    0    0    0  501  0.00000000000E+00  0.00000000000E+00 -0.84472334159E+03  0.84472334160E+03  0.50400001928E-02 0.  1.
    10030    2    1    2    0    0  0.00000000000E+00  0.00000000000E+00  0.10074166929E+04  0.26968633761E+04  0.25016361998E+04 0.  0.
        1    1    3    3  502    0  0.11987771239E+03 -0.43390241893E+03 -0.75437099672E+03  0.87847457322E+03  0.50400001928E-02 0.  1.
       -1    1    3    3    0  502 -0.11987771239E+03  0.43390241893E+03  0.17617876896E+04  0.18183888029E+04  0.50400001928E-02 0. -1.
</event>
<event>
 5   0  0.1526824E-05  0.2542924E+04  0.7818609E-02  0.8387851E-01
       -2   -1    0    0    0  501  0.00000000000E+00  0.00000000000E+00  0.58723418743E+03  0.58723418743E+03  0.25500000920E-02 0. -1.
        2   -1    0    0  501    0  0.00000000000E+00  0.00000000000E+00 -0.27529312356E+04  0.27529312356E+04  0.25500000920E-02 0.  1.
    10030    2    1    2    0    0  0.00000000000E+00  0.00000000000E+00 -0.21656970481E+04  0.33401654230E+04  0.25429237796E+04 0.  0.
        2    1    3    3  502    0  0.72001036761E+03  0.15345633637E+03  0.27881081720E+03  0.78720978680E+03  0.25500000920E-02 0. -1.
       -2    1    3    3    0  502 -0.72001036761E+03 -0.15345633637E+03 -0.24445078653E+04  0.25529556362E+04  0.25500000920E-02 0.  1.
</event>
<event>
 5   0  0.6105353E-06  0.2478247E+04  0.7818609E-02  0.8410776E-01
        1   -1    0    0  501    0  0.00000000000E+00  0.00000000000E+00  0.23138136869E+04  0.23138136869E+04  0.50400001928E-02 0. -1.
       -1   -1    0    0    0  501  0.00000000000E+00  0.00000000000E+00 -0.66359149667E+03  0.66359149669E+03  0.50400001928E-02 0.  1.
    10030    2    1    2    0    0  0.00000000000E+00  0.00000000000E+00  0.16502221902E+04  0.29774051835E+04  0.24782470317E+04 0.  0.
        3    1    3    3  502    0  0.61185481789E+03 -0.18949186874E+03  0.20994919861E+04  0.21950262177E+04  0.10100000352E+00 0. -1.
       -3    1    3    3    0  502 -0.61185481789E+03  0.18949186874E+03 -0.44926979591E+03  0.78237896585E+03  0.10100000352E+00 0.  1.
</event>
<event>
 5   0  0.6105353E-06  0.2502110E+04  0.7818609E-02  0.8402234E-01
        1   -1    0    0  501    0  0.00000000000E+00  0.00000000000E+00  0.10425244257E+04  0.10425244257E+04  0.50400001928E-02 0. -1.
       -1   -1    0    0    0  501  0.00000000000E+00  0.00000000000E+00 -0.15012970309E+04  0.15012970309E+04  0.50400001928E-02 0.  1.
    10030    2    1    2    0    0  0.00000000000E+00  0.00000000000E+00 -0.45877260520E+03  0.25438214567E+04  0.25021101695E+04 0.  0.
        3    1    3    3  502    0  0.94742115609E+03  0.69225166223E+03 -0.67057864328E+03  0.13514787967E+04  0.10100000352E+00 0. -1.
       -3    1    3    3    0  502 -0.94742115609E+03 -0.69225166223E+03  0.21180603808E+03  0.11923426600E+04  0.10100000352E+00 0.  1.
</event>
<event>
 5   0  0.1526824E-05  0.2460583E+04  0.7818609E-02  0.8417164E-01
       -2   -1    0    0    0  501  0.00000000000E+00  0.00000000000E+00  0.70479312343E+03  0.70479312343E+03  0.25500000920E-02 0. -1.
        2   -1    0    0  501    0  0.00000000000E+00  0.00000000000E+00 -0.21476054355E+04  0.21476054355E+04  0.25500000920E-02 0.  1.
    10030    2    1    2    0    0  0.00000000000E+00  0.00000000000E+00 -0.14428123121E+04  0.28523985589E+04  0.24605832990E+04 0.  0.
        2    1    3    3  502    0  0.11281388279E+04  0.18267950231E+03 -0.19328694662E+03  0.11590637857E+04  0.25500000920E-02 0. -1.
       -2    1    3    3    0  502 -0.11281388279E+04 -0.18267950231E+03 -0.12495253655E+04  0.16933347733E+04  0.25500000920E-02 0.  1.
</event>
<event>
 5   0  0.6477703E-06  0.2489292E+04  0.7818609E-02  0.8406810E-01
       -1   -1    0    0    0  501  0.00000000000E+00  0.00000000000E+00  0.10236520114E+04  0.10236520114E+04  0.50400001928E-02 0.  1.
        1   -1    0    0  501    0  0.00000000000E+00  0.00000000000E+00 -0.15133494053E+04  0.15133494053E+04  0.50400001928E-02 0. -1.
    10030    2    1    2    0    0  0.00000000000E+00  0.00000000000E+00 -0.48969739391E+03  0.25370014167E+04  0.24892915962E+04 0.  0.
        5    1    3    3  502    0  0.48144818387E+02  0.46974992169E+03  0.92880324832E+03  0.10419599208E+04  0.46999998093E+01 0.  1.
       -5    1    3    3    0  502 -0.48144818387E+02 -0.46974992169E+03 -0.14185006422E+04  0.14950414959E+04  0.46999998093E+01 0. -1.
</event>
<event>
 5   0  0.1501947E-05  0.2503143E+04  0.7818609E-02  0.8401867E-01
       -2   -1    0    0    0  501  0.00000000000E+00  0.00000000000E+00  0.68596030202E+03  0.68596030202E+03  0.25500000920E-02 0.  1.
        2   -1    0    0  501    0  0.00000000000E+00  0.00000000000E+00 -0.22835602274E+04  0.22835602274E+04  0.25500000920E-02 0. -1.
    10030    2    1    2    0    0  0.00000000000E+00  0.00000000000E+00 -0.15975999254E+04  0.29695205295E+04  0.25031433545E+04 0.  0.
        3    1    3    3  502    0 -0.11563209020E+04  0.29784307081E+03 -0.35390255916E+03  0.12454057792E+04  0.10100000352E+00 0. -1.
       -3    1    3    3    0  502  0.11563209020E+04 -0.29784307081E+03 -0.12436973663E+04  0.17241147503E+04  0.10100000352E+00 0.  1.
</event>
<event>
 5   0  0.1501947E-05  0.2495486E+04  0.7818609E-02  0.8404595E-01
        2   -1    0    0  501    0  0.00000000000E+00  0.00000000000E+00  0.25267906352E+04  0.25267906353E+04  0.25500000920E-02 0. -1.
       -2   -1    0    0    0  501  0.00000000000E+00  0.00000000000E+00 -0.61614242059E+03  0.61614242060E+03  0.25500000920E-02 0.  1.
    10030    2    1    2    0    0  0.00000000000E+00  0.00000000000E+00  0.19106482147E+04  0.31429330558E+04  0.24954862439E+04 0.  0.
        3    1    3    3  502    0  0.80581270442E+03 -0.60941042065E+03  0.33130347264E+02  0.10108475679E+04  0.10100000352E+00 0.  1.
       -3    1    3    3    0  502 -0.80581270442E+03  0.60941042065E+03  0.18775178674E+04  0.21320854880E+04  0.10100000352E+00 0. -1.
</event>
<event>
 5   0  0.1526824E-05  0.2456609E+04  0.7818609E-02  0.8418609E-01
       -2   -1    0    0    0  501  0.00000000000E+00  0.00000000000E+00  0.15081752282E+04  0.15081752282E+04  0.25500000920E-02 0. -1.
        2   -1    0    0  501    0  0.00000000000E+00  0.00000000000E+00 -0.10003688968E+04  0.10003688968E+04  0.25500000920E-02 0.  1.
    10030    2    1    2    0    0  0.00000000000E+00  0.00000000000E+00  0.50780633138E+03  0.25085441251E+04  0.24566087106E+04 0.  0.
        2    1    3    3  502    0  0.99328863457E+03 -0.65694189709E+03 -0.53351084759E+02  0.11920743710E+04  0.25500000920E-02 0.  1.
       -2    1    3    3    0  502 -0.99328863457E+03  0.65694189709E+03  0.56115741614E+03  0.13164697541E+04  0.25500000920E-02 0. -1.
</event>
<event>
 5   0  0.6346420E-06  0.2508640E+04  0.7818609E-02  0.8399914E-01
       -1   -1    0    0    0  501  0.00000000000E+00  0.00000000000E+00  0.90888597569E+03  0.90888597571E+03  0.50400001928E-02 0. -1.
        1   -1    0    0  501    0  0.00000000000E+00  0.00000000000E+00 -0.17310402034E+04  0.17310402034E+04  0.50400001928E-02 0.  1.
    10030    2    1    2    0    0  0.00000000000E+00  0.00000000000E+00 -0.82215422767E+03  0.26399261791E+04  0.25086396028E+04 0.  0.
        4    1    3    3  502    0 -0.27370515140E+03  0.63860448985E+03 -0.15100412935E+04  0.16622143440E+04  0.12699999809E+01 0.  1.
       -4    1    3    3    0  502  0.27370515140E+03 -0.63860448985E+03  0.68788706579E+03  0.97771183513E+03  0.12699999809E+01 0. -1.
</event>
<event>
 5   0  0.1572732E-05  0.2520333E+04  0.7818609E-02  0.8395778E-01
       -2   -1    0    0    0  501  0.00000000000E+00  0.00000000000E+00  0.71195569154E+03  0.71195569154E+03  0.25500000920E-02 0. -1.
        2   -1    0    0  501    0  0.00000000000E+00  0.00000000000E+00 -0.22305027556E+04  0.22305027556E+04  0.25500000920E-02 0.  1.
    10030    2    1    2    0    0  0.00000000000E+00  0.00000000000E+00 -0.15185470640E+04  0.29424584471E+04  0.25203326224E+04 0.  0.
        1    1    3    3  502    0 -0.53505396045E+03 -0.29759387512E+03 -0.20451938972E+04  0.21348683642E+04  0.50400001928E-02 0.  1.
       -1    1    3    3    0  502  0.53505396045E+03  0.29759387512E+03  0.52664683320E+03  0.80759008293E+03  0.50400001928E-02 0. -1.
</event>
<event>
 5   0  0.1526824E-05  0.2489286E+04  0.7818609E-02  0.8406813E-01
       -2   -1    0    0    0  501  0.00000000000E+00  0.00000000000E+00  0.86051696632E+03  0.86051696632E+03  0.25500000920E-02 0.  1.
        2   -1    0    0  501    0  0.00000000000E+00  0.00000000000E+00 -0.18002383759E+04  0.18002383759E+04  0.25500000920E-02 0. -1.
    10030    2    1    2    0    0  0.00000000000E+00  0.00000000000E+00 -0.93972140962E+03  0.26607553423E+04  0.24892855729E+04 0.  0.
        2    1    3    3  502    0 -0.71514735520E+03  0.78371193841E+03  0.22573138227E+03  0.10847095459E+04  0.25500000920E-02 0.  1.
       -2    1    3    3    0  502  0.71514735520E+03 -0.78371193841E+03 -0.11654527919E+04  0.15760457963E+04  0.25500000920E-02 0. -1.
</event>
<event>
 5   0  0.1572732E-05  0.2528280E+04  0.7818609E-02  0.8392979E-01
        2   -1    0    0  501    0  0.00000000000E+00  0.00000000000E+00  0.14130367224E+04  0.14130367224E+04  0.25500000920E-02 0.  1.
       -2   -1    0    0    0  501  0.00000000000E+00  0.00000000000E+00 -0.11309332501E+04  0.11309332501E+04  0.25500000920E-02 0. -1.
    10030    2    1    2    0    0  0.00000000000E+00  0.00000000000E+00  0.28210347228E+03  0.25439699724E+04  0.25282802162E+04 0.  0.
        1    1    3    3  502    0 -0.74580560959E+03  0.22986963994E+03 -0.85959651609E+03  0.11610220623E+04  0.50400001928E-02 0. -1.
       -1    1    3    3    0  502  0.74580560959E+03 -0.22986963994E+03  0.11416999884E+04  0.13829479101E+04  0.50400001928E-02 0.  1.
</event>
<event>
 5   0  0.1501947E-05  0.2514060E+04  0.7818609E-02  0.8397994E-01
       -2   -1    0    0    0  501  0.00000000000E+00  0.00000000000E+00  0.13032804769E+04  0.13032804769E+04  0.25500000920E-02 0. -1.
        2   -1    0    0  501    0  0.00000000000E+00  0.00000000000E+00 -0.12124205019E+04  0.12124205019E+04  0.25500000920E-02 0.  1.
    10030    2    1    2    0    0  0.00000000000E+00  0.00000000000E+00  0.90859975011E+02  0.25157009787E+04  0.25140596412E+04 0.  0.
        3    1    3    3  502    0  0.73172872502E+03  0.42749786596E+03  0.97444475390E+03  0.12914038644E+04  0.10100000352E+00 0. -1.
       -3    1    3    3    0  502 -0.73172872502E+03 -0.42749786596E+03 -0.88358477889E+03  0.12242971143E+04  0.10100000352E+00 0.  1.
</event>
<event>
 5   0  0.6104486E-06  0.2526582E+04  0.7818609E-02  0.8393576E-01
       -1   -1    0    0    0  501  0.00000000000E+00  0.00000000000E+00  0.83297302810E+03  0.83297302811E+03  0.50400001928E-02 0. -1.
        1   -1    0    0  501    0  0.00000000000E+00  0.00000000000E+00 -0.19159132711E+04  0.19159132711E+04  0.50400001928E-02 0.  1.
    10030    2    1    2    0    0  0.00000000000E+00  0.00000000000E+00 -0.10829402430E+04  0.27488862993E+04  0.25265819433E+04 0.  0.
        2    1    3    3  502    0 -0.35547558815E+03  0.81430816787E+03  0.43556535359E+03  0.98953416479E+03  0.25500000920E-02 0. -1.
       -2    1    3    3    0  502  0.35547558815E+03 -0.81430816787E+03 -0.15185055966E+04  0.17593521345E+04  0.25500000920E-02 0.  1.
</event>
<event>
 5   0  0.1572732E-05  0.2487870E+04  0.7818609E-02  0.8407320E-01
       -2   -1    0    0    0  501  0.00000000000E+00  0.00000000000E+00  0.64341428431E+03  0.64341428431E+03  0.25500000920E-02 0.  1.
        2   -1    0    0  501    0  0.00000000000E+00  0.00000000000E+00 -0.24049420591E+04  0.24049420591E+04  0.25500000920E-02 0. -1.
    10030    2    1    2    0    0  0.00000000000E+00  0.00000000000E+00 -0.17615277748E+04  0.30483563434E+04  0.24878698308E+04 0.  0.
        1    1    3    3  502    0 -0.49009173082E+03  0.11384655858E+04 -0.10097412311E+04  0.15987092132E+04  0.50400001928E-02 0. -1.
       -1    1    3    3    0  502  0.49009173082E+03 -0.11384655858E+04 -0.75178654376E+03  0.14496471302E+04  0.50400001928E-02 0.  1.
</event>
<event>
 5   0  0.1468512E-05  0.2514352E+04  0.7818609E-02  0.8397891E-01
        2   -1    0    0  501    0  0.00000000000E+00  0.00000000000E+00  0.17975287398E+04  0.17975287398E+04  0.25500000920E-02 0.  1.
       -2   -1    0    0    0  501  0.00000000000E+00  0.00000000000E+00 -0.87925766198E+03  0.87925766198E+03  0.25500000920E-02 0. -1.
    10030    2    1    2    0    0  0.00000000000E+00  0.00000000000E+00  0.91827107784E+03  0.26767864018E+04  0.25143515404E+04 0.  0.
        4    1    3    3  502    0  0.33175551730E+03  0.88151336858E+03  0.13456129288E+04  0.16424991048E+04  0.12699999809E+01 0.  1.
       -4    1    3    3    0  502 -0.33175551730E+03 -0.88151336858E+03 -0.42734185096E+03  0.10342872970E+04  0.12699999809E+01 0. -1.
</event>
<event>
 5   0  0.6290861E-06  0.2505408E+04  0.7818609E-02  0.8401061E-01
        1   -1    0    0  501    0  0.00000000000E+00  0.00000000000E+00  0.18649050536E+04  0.18649050536E+04  0.50400001928E-02 0. -1.
       -1   -1    0    0    0  501  0.00000000000E+00  0.00000000000E+00 -0.84147322863E+03  0.84147322864E+03  0.50400001928E-02 0.  1.
    10030    2    1    2    0    0  0.00000000000E+00  0.00000000000E+00  0.10234318250E+04  0.27063782823E+04  0.25054082914E+04 0.  0.
        1    1    3    3  502    0  0.33508204231E+03 -0.96442641985E+03 -0.27236606235E+03  0.10566842321E+04  0.50400001928E-02 0. -1.
       -1    1    3    3    0  502 -0.33508204231E+03  0.96442641985E+03  0.12957978874E+04  0.16496940502E+04  0.50400001928E-02 0.  1.
</event>
<event>
 5   0  0.6104486E-06  0.2496277E+04  0.7818609E-02  0.8404313E-01
        1   -1    0    0  501    0  0.00000000000E+00  0.00000000000E+00  0.13338650068E+04  0.13338650068E+04  0.50400001928E-02 0.  1.
       -1   -1    0    0    0  501  0.00000000000E+00  0.00000000000E+00 -0.11679219553E+04  0.11679219553E+04  0.50400001928E-02 0. -1.
    10030    2    1    2    0    0  0.00000000000E+00  0.00000000000E+00  0.16594305154E+03  0.25017869622E+04  0.24962774100E+04 0.  0.
        2    1    3    3  502    0  0.12044971806E+04 -0.32700043894E+03  0.93361745795E+02  0.12515826624E+04  0.25500000920E-02 0.  1.
       -2    1    3    3    0  502 -0.12044971806E+04  0.32700043894E+03  0.72581305747E+02  0.12502042998E+04  0.25500000920E-02 0. -1.
</event>
<event>
 5   0  0.6477703E-06  0.2497883E+04  0.7818609E-02  0.8403740E-01
        1   -1    0    0  501    0  0.00000000000E+00  0.00000000000E+00  0.13354369059E+04  0.13354369060E+04  0.50400001928E-02 0. -1.
       -1   -1    0    0    0  501  0.00000000000E+00  0.00000000000E+00 -0.11680485480E+04  0.11680485481E+04  0.50400001928E-02 0.  1.
    10030    2    1    2    0    0  0.00000000000E+00  0.00000000000E+00  0.16738835790E+03  0.25034854540E+04  0.24978832151E+04 0.  0.
        5    1    3    3  502    0 -0.90068968405E+03 -0.79848678346E+03  0.41762306712E+03  0.12740699221E+04  0.46999998093E+01 0.  1.
       -5    1    3    3    0  502  0.90068968405E+03  0.79848678346E+03 -0.25023470921E+03  0.12294155319E+04  0.46999998093E+01 0. -1.
</event>
<event>
 5   0  0.5164625E-06  0.2474093E+04  0.7818609E-02  0.8412273E-01
        3   -1    0    0  501    0  0.00000000000E+00  0.00000000000E+00  0.13538010086E+04  0.13538010123E+04  0.10100000352E+00 0.  1.
       -3   -1    0    0    0  501  0.00000000000E+00  0.00000000000E+00 -0.11303615607E+04  0.11303615652E+04  0.10100000352E+00 0. -1.
    10030    2    1    2    0    0  0.00000000000E+00  0.00000000000E+00  0.22343944785E+03  0.24841625776E+04  0.24740934754E+04 0.  0.
        5    1    3    3  502    0  0.24909567036E+03  0.41962226461E+02 -0.11041806560E+04  0.11327164219E+04  0.46999998093E+01 0. -1.
       -5    1    3    3    0  502 -0.24909567036E+03 -0.41962226461E+02  0.13276201039E+04  0.13514461556E+04  0.46999998093E+01 0.  1.
</event>
<event>
 5   0  0.6105353E-06  0.2495982E+04  0.7818609E-02  0.8404418E-01
        1   -1    0    0  501    0  0.00000000000E+00  0.00000000000E+00  0.14143015241E+04  0.14143015241E+04  0.50400001928E-02 0. -1.
       -1   -1    0    0    0  501  0.00000000000E+00  0.00000000000E+00 -0.11012372278E+04  0.11012372278E+04  0.50400001928E-02 0.  1.
    10030    2    1    2    0    0  0.00000000000E+00  0.00000000000E+00  0.31306429627E+03  0.25155387519E+04  0.24959819628E+04 0.  0.
        3    1    3    3  502    0  0.47103326515E+03 -0.23149825591E+03 -0.98460168037E+03  0.11157527766E+04  0.10100000352E+00 0.  1.
       -3    1    3    3    0  502 -0.47103326515E+03  0.23149825591E+03  0.12976659766E+04  0.13997859753E+04  0.10100000352E+00 0. -1.
</event>
<event>
 5   0  0.1468512E-05  0.2501001E+04  0.7818609E-02  0.8402629E-01
        2   -1    0    0  501    0  0.00000000000E+00  0.00000000000E+00  0.66609527911E+03  0.66609527912E+03  0.25500000920E-02 0.  1.
       -2   -1    0    0    0  501  0.00000000000E+00  0.00000000000E+00 -0.23476391827E+04  0.23476391827E+04  0.25500000920E-02 0. -1.
    10030    2    1    2    0    0  0.00000000000E+00  0.00000000000E+00 -0.16815439036E+04  0.30137344618E+04  0.25010009010E+04 0.  0.
        4    1    3    3  502    0 -0.30093807931E+03  0.27719145761E+02  0.62142760735E+03  0.69101806249E+03  0.12699999809E+01 0.  1.
       -4    1    3    3    0  502  0.30093807931E+03 -0.27719145761E+02 -0.23029715109E+04  0.23227163993E+04  0.12699999809E+01 0. -1.
</event>
<event>
 5   0  0.6290861E-06  0.2501514E+04  0.7818609E-02  0.8402446E-01
       -1   -1    0    0    0  501  0.00000000000E+00  0.00000000000E+00  0.88422146352E+03  0.88422146353E+03  0.50400001928E-02 0. -1.
        1   -1    0    0  501    0  0.00000000000E+00  0.00000000000E+00 -0.17692324382E+04  0.17692324382E+04  0.50400001928E-02 0.  1.
    10030    2    1    2    0    0  0.00000000000E+00  0.00000000000E+00 -0.88501097470E+03  0.26534539018E+04  0.25015141781E+04 0.  0.
        1    1    3    3  502    0  0.10844834776E+03  0.43195035169E+03  0.79726718221E+03  0.91322347227E+03  0.50400001928E-02 0. -1.
       -1    1    3    3    0  502 -0.10844834776E+03 -0.43195035169E+03 -0.16822781569E+04  0.17402304295E+04  0.50400001928E-02 0.  1.
</event>
<event>
 5   0  0.1550483E-05  0.2507909E+04  0.7818609E-02  0.8400173E-01
       -2   -1    0    0    0  501  0.00000000000E+00  0.00000000000E+00  0.15211757102E+04  0.15211757102E+04  0.25500000920E-02 0.  1.
        2   -1    0    0  501    0  0.00000000000E+00  0.00000000000E+00 -0.10336757286E+04  0.10336757286E+04  0.25500000920E-02 0. -1.
    10030    2    1    2    0    0  0.00000000000E+00  0.00000000000E+00  0.48749998166E+03  0.25548514388E+04  0.25079094167E+04 0.  0.
        5    1    3    3  502    0  0.46264730234E+03 -0.82167663468E+03 -0.59827128015E+03  0.11167567475E+04  0.46999998093E+01 0. -1.
       -5    1    3    3    0  502 -0.46264730234E+03  0.82167663468E+03  0.10857712618E+04  0.14380946914E+04  0.46999998093E+01 0.  1.
</event>
<event>
 5   0  0.1550483E-05  0.2499270E+04  0.7818609E-02  0.8403246E-01
       -2   -1    0    0    0  501  0.00000000000E+00  0.00000000000E+00  0.14726367358E+04  0.14726367359E+04  0.25500000920E-02 0. -1.
        2   -1    0    0  501    0  0.00000000000E+00  0.00000000000E+00 -0.10604022882E+04  0.10604022882E+04  0.25500000920E-02 0.  1.
    10030    2    1    2    0    0  0.00000000000E+00  0.00000000000E+00  0.41223444769E+03  0.25330390240E+04  0.24992697848E+04 0.  0.
        5    1    3    3  502    0  0.66882045722E+03 -0.40297010618E+03  0.11949325309E+04  0.14274423119E+04  0.46999998093E+01 0. -1.
       -5    1    3    3    0  502 -0.66882045722E+03  0.40297010618E+03 -0.78269808317E+03  0.11055967121E+04  0.46999998093E+01 0.  1.
</event>
<event>
 5   0  0.1550483E-05  0.2493206E+04  0.7818609E-02  0.8405410E-01
       -2   -1    0    0    0  501  0.00000000000E+00  0.00000000000E+00  0.98558827563E+03  0.98558827564E+03  0.25500000920E-02 0.  1.
        2   -1    0    0  501    0  0.00000000000E+00  0.00000000000E+00 -0.15767428998E+04  0.15767428998E+04  0.25500000920E-02 0. -1.
    10030    2    1    2    0    0  0.00000000000E+00  0.00000000000E+00 -0.59115462417E+03  0.25623311754E+04  0.24932062215E+04 0.  0.
        5    1    3    3  502    0 -0.44936651705E+02  0.10001605592E+03  0.98061370783E+03  0.98673595662E+03  0.46999998093E+01 0.  1.
       -5    1    3    3    0  502  0.44936651705E+02 -0.10001605592E+03 -0.15717683320E+04  0.15755952188E+04  0.46999998093E+01 0. -1.
</event>
<event>
 5   0  0.1526824E-05  0.2503959E+04  0.7818609E-02  0.8401576E-01
        2   -1    0    0  501    0  0.00000000000E+00  0.00000000000E+00  0.91828286331E+03  0.91828286331E+03  0.25500000920E-02 0. -1.
       -2   -1    0    0    0  501  0.00000000000E+00  0.00000000000E+00 -0.17069392510E+04  0.17069392510E+04  0.25500000920E-02 0.  1.
    10030    2    1    2    0    0  0.00000000000E+00  0.00000000000E+00 -0.78865638773E+03  0.26252221143E+04  0.25039593151E+04 0.  0.
        2    1    3    3  502    0 -0.47912326263E+03  0.40391566578E+03 -0.15306747271E+04  0.16539867249E+04  0.25500000920E-02 0.  1.
       -2    1    3    3    0  502  0.47912326263E+03 -0.40391566578E+03  0.74201833935E+03  0.97123538949E+03  0.25500000920E-02 0. -1.
</event>
<event>
 5   0  0.6346420E-06  0.2489516E+04  0.7818609E-02  0.8406730E-01
        1   -1    0    0  501    0  0.00000000000E+00  0.00000000000E+00  0.14028464748E+04  0.14028464748E+04  0.50400001928E-02 0.  1.
       -1   -1    0    0    0  501  0.00000000000E+00  0.00000000000E+00 -0.11044844484E+04  0.11044844484E+04  0.50400001928E-02 0. -1.
    10030    2    1    2    0    0  0.00000000000E+00  0.00000000000E+00  0.29836202638E+03  0.25073309232E+04  0.24895157079E+04 0.  0.
        4    1    3    3  502    0 -0.59381856055E+03  0.10138790419E+04  0.56303431847E+03  0.13029122960E+04  0.12699999809E+01 0.  1.
       -4    1    3    3    0  502  0.59381856055E+03 -0.10138790419E+04 -0.26467229209E+03  0.12044186272E+04  0.12699999809E+01 0. -1.
</event>
<event>
 5   0  0.1572732E-05  0.2485482E+04  0.7818609E-02  0.8408176E-01
       -2   -1    0    0    0  501  0.00000000000E+00  0.00000000000E+00  0.83433398515E+03  0.83433398516E+03  0.25500000920E-02 0. -1.
        2   -1    0    0  501    0  0.00000000000E+00  0.00000000000E+00 -0.18510628609E+04  0.18510628609E+04  0.25500000920E-02 0.  1.
    10030    2    1    2    0    0  0.00000000000E+00  0.00000000000E+00 -0.10167288758E+04  0.26853968461E+04  0.24854815658E+04 0.  0.
        1    1    3    3  502    0 -0.35093139859E+03  0.85013772571E+03 -0.14113620909E+04  0.16845859880E+04  0.50400001928E-02 0.  1.
       -1    1    3    3    0  502  0.35093139859E+03 -0.85013772571E+03  0.39463321514E+03  0.10008108581E+04  0.50400001928E-02 0. -1.
</event>
<event>
 5   0  0.1550483E-05  0.2500650E+04  0.7818609E-02  0.8402754E-01
        2   -1    0    0  501    0  0.00000000000E+00  0.00000000000E+00  0.76306985410E+03  0.76306985411E+03  0.25500000920E-02 0.  1.
       -2   -1    0    0    0  501  0.00000000000E+00  0.00000000000E+00 -0.20487148044E+04  0.20487148044E+04  0.25500000920E-02 0. -1.
    10030    2    1    2    0    0  0.00000000000E+00  0.00000000000E+00 -0.12856449503E+04  0.28117846585E+04  0.25006499211E+04 0.  0.
        5    1    3    3  502    0 -0.73004291233E+03 -0.70164466320E+03 -0.14675858960E+04  0.17830026190E+04  0.46999998093E+01 0. -1.
       -5    1    3    3    0  502  0.73004291233E+03  0.70164466320E+03  0.18194094563E+03  0.10287820396E+04  0.46999998093E+01 0.  1.
</event>
<event>
 5   0  0.1468512E-05  0.2473879E+04  0.7818609E-02  0.8412351E-01
        2   -1    0    0  501    0  0.00000000000E+00  0.00000000000E+00  0.14244997858E+04  0.14244997858E+04  0.25500000920E-02 0.  1.
       -2   -1    0    0    0  501  0.00000000000E+00  0.00000000000E+00 -0.10740749731E+04  0.10740749731E+04  0.25500000920E-02 0. -1.
    10030    2    1    2    0    0  0.00000000000E+00  0.00000000000E+00  0.35042481269E+03  0.24985747589E+04  0.24738791960E+04 0.  0.
        4    1    3    3  502    0 -0.18550230045E+03  0.63913569371E+03  0.12282674879E+04  0.13969782293E+04  0.12699999809E+01 0.  1.
       -4    1    3    3    0  502  0.18550230045E+03 -0.63913569371E+03 -0.87784267524E+03  0.11015965295E+04  0.12699999809E+01 0. -1.
</event>
<event>
 5   0  0.1501947E-05  0.2469860E+04  0.7818609E-02  0.8413802E-01
        2   -1    0    0  501    0  0.00000000000E+00  0.00000000000E+00  0.11884805420E+04  0.11884805420E+04  0.25500000920E-02 0.  1.
       -2   -1    0    0    0  501  0.00000000000E+00  0.00000000000E+00 -0.12831953474E+04  0.12831953474E+04  0.25500000920E-02 0. -1.
    10030    2    1    2    0    0  0.00000000000E+00  0.00000000000E+00 -0.94714805376E+02  0.24716758894E+04  0.24698604834E+04 0.  0.
        3    1    3    3  502    0  0.34986352624E+03 -0.32696479469E+03 -0.11865008222E+04  0.12794900059E+04  0.10100000352E+00 0. -1.
       -3    1    3    3    0  502 -0.34986352624E+03  0.32696479469E+03  0.10917860168E+04  0.11921858834E+04  0.10100000352E+00 0.  1.
</event>
<event>
 5   0  0.1550483E-05  0.2499580E+04  0.7818609E-02  0.8403135E-01
        2   -1    0    0  501    0  0.00000000000E+00  0.00000000000E+00  0.81617392196E+03  0.81617392196E+03  0.25500000920E-02 0.  1.
       -2   -1    0    0    0  501  0.00000000000E+00  0.00000000000E+00 -0.19137774056E+04  0.19137774056E+04  0.25500000920E-02 0. -1.
    10030    2    1    2    0    0  0.00000000000E+00  0.00000000000E+00 -0.10976034837E+04  0.27299513276E+04  0.24995801335E+04 0.  0.
        5    1    3    3  502    0 -0.11924896256E+04 -0.26274867231E+03 -0.25802193576E+03  0.12480648145E+04  0.46999998093E+01 0.  1.
       -5    1    3    3    0  502  0.11924896256E+04  0.26274867231E+03 -0.83958154792E+03  0.14818865131E+04  0.46999998093E+01 0. -1.
</event>
<event>
 5   0  0.6346420E-06  0.2505471E+04  0.7818609E-02  0.8401039E-01
        1   -1    0    0  501    0  0.00000000000E+00  0.00000000000E+00  0.68953557019E+03  0.68953557021E+03  0.50400001928E-02 0. -1.
       -1   -1    0    0    0  501  0.00000000000E+00  0.00000000000E+00 -0.22759461242E+04  0.22759461242E+04  0.50400001928E-02 0.  1.
    10030    2    1    2    0    0  0.00000000000E+00  0.00000000000E+00 -0.15864105540E+04  0.29654816944E+04  0.25054706612E+04 0.  0.
        4    1    3    3  502    0 -0.13947539423E+02 -0.46306377503E+03  0.58441952812E+03  0.74576832284E+03  0.12699999809E+01 0. -1.
       -4    1    3    3    0  502  0.13947539423E+02  0.46306377503E+03 -0.21708300821E+04  0.22197133716E+04  0.12699999809E+01 0.  1.
</event>
<event>
 5   0  0.6105353E-06  0.2489344E+04  0.7818609E-02  0.8406792E-01
        1   -1    0    0  501    0  0.00000000000E+00  0.00000000000E+00  0.11628096538E+04  0.11628096539E+04  0.50400001928E-02 0. -1.
       -1   -1    0    0    0  501  0.00000000000E+00  0.00000000000E+00 -0.13322978737E+04  0.13322978737E+04  0.50400001928E-02 0.  1.
    10030    2    1    2    0    0  0.00000000000E+00  0.00000000000E+00 -0.16948821986E+03  0.24951075276E+04  0.24893443549E+04 0.  0.
        3    1    3    3  502    0  0.55418736626E+03 -0.97795023709E+03 -0.62048930086E+03  0.12839459824E+04  0.10100000352E+00 0.  1.
       -3    1    3    3    0  502 -0.55418736626E+03  0.97795023709E+03  0.45100108100E+03  0.12111615451E+04  0.10100000352E+00 0. -1.
</event>
<event>
 5   0  0.6477703E-06  0.2501804E+04  0.7818609E-02  0.8402343E-01
        1   -1    0    0  501    0  0.00000000000E+00  0.00000000000E+00  0.85018574877E+03  0.85018574879E+03  0.50400001928E-02 0.  1.
       -1   -1    0    0    0  501  0.00000000000E+00  0.00000000000E+00 -0.18404869183E+04  0.18404869183E+04  0.50400001928E-02 0. -1.
    10030    2    1    2    0    0  0.00000000000E+00  0.00000000000E+00 -0.99030116948E+03  0.26906726670E+04  0.25018039481E+04 0.  0.
        5    1    3    3  502    0  0.98801430941E+02 -0.65297119645E+03 -0.16377071831E+04  0.17658539050E+04  0.46999998093E+01 0. -1.
       -5    1    3    3    0  502 -0.98801430941E+02  0.65297119645E+03  0.64740601364E+03  0.92481876205E+03  0.46999998093E+01 0.  1.
</event>
<event>
 5   0  0.1572732E-05  0.2496007E+04  0.7818609E-02  0.8404409E-01
        2   -1    0    0  501    0  0.00000000000E+00  0.00000000000E+00  0.11294154989E+04  0.11294154989E+04  0.25500000920E-02 0.  1.
       -2   -1    0    0    0  501  0.00000000000E+00  0.00000000000E+00 -0.13790430106E+04  0.13790430106E+04  0.25500000920E-02 0. -1.
    10030    2    1    2    0    0  0.00000000000E+00  0.00000000000E+00 -0.24962751174E+03  0.25084585095E+04  0.24960068508E+04 0.  0.
        1    1    3    3  502    0  0.12319572804E+04 -0.19599766801E+03 -0.16213015114E+03  0.12579427700E+04  0.50400001928E-02 0.  1.
       -1    1    3    3    0  502 -0.12319572804E+04  0.19599766801E+03 -0.87497360601E+02  0.12505157395E+04  0.50400001928E-02 0. -1.
</event>
<event>
 5   0  0.1550483E-05  0.2490473E+04  0.7818609E-02  0.8406388E-01
       -2   -1    0    0    0  501  0.00000000000E+00  0.00000000000E+00  0.99017545329E+03  0.99017545329E+03  0.25500000920E-02 0.  1.
        2   -1    0    0  501    0  0.00000000000E+00  0.00000000000E+00 -0.15659986420E+04  0.15659986420E+04  0.25500000920E-02 0. -1.
    10030    2    1    2    0    0  0.00000000000E+00  0.00000000000E+00 -0.57582318867E+03  0.25561740953E+04  0.24904725778E+04 0.  0.
        5    1    3    3  502    0 -0.13126145006E+03 -0.12377971174E+04 -0.25206086220E+03  0.12700110394E+04  0.46999998093E+01 0.  1.
       -5    1    3    3    0  502  0.13126145006E+03  0.12377971174E+04 -0.32376232647E+03  0.12861630558E+04  0.46999998093E+01 0. -1.
</event>
<event>
 5   0  0.6477703E-06  0.2268030E+04  0.7818609E-02  0.8490634E-01
       -1   -1    0    0    0  501  0.00000000000E+00  0.00000000000E+00  0.95052603674E+03  0.95052603675E+03  0.50400001928E-02 0. -1.
        1   -1    0    0  501    0  0.00000000000E+00  0.00000000000E+00 -0.13529241657E+04  0.13529241657E+04  0.50400001928E-02 0.  1.
    10030    2    1    2    0    0  0.00000000000E+00  0.00000000000E+00 -0.40239812892E+03  0.23034502024E+04  0.22680296693E+04 0.  0.
        5    1    3    3  502    0 -0.85642870117E+03 -0.18479088201E+03  0.53000997100E+03  0.10239875242E+04  0.46999998093E+01 0.  1.
       -5    1    3    3    0  502  0.85642870117E+03  0.18479088201E+03 -0.93240809992E+03  0.12794626783E+04  0.46999998093E+01 0. -1.
</event>
<event>
 5   0  0.6290861E-06  0.2607912E+04  0.7818609E-02  0.8365519E-01
        1   -1    0    0  501    0  0.00000000000E+00  0.00000000000E+00  0.21170380952E+04  0.21170380952E+04  0.50400001928E-02 0. -1.
       -1   -1    0    0    0  501  0.00000000000E+00  0.00000000000E+00 -0.80315115605E+03  0.80315115606E+03  0.50400001928E-02 0.  1.
    10030    2    1    2    0    0  0.00000000000E+00  0.00000000000E+00  0.13138869392E+04  0.29201892513E+04  0.26079122636E+04 0.  0.
        1    1    3    3  502    0  0.15065035640E+03 -0.60793663675E+03  0.19375775817E+04  0.20362930460E+04  0.50400001928E-02 0. -1.
       -1    1    3    3    0  502 -0.15065035640E+03  0.60793663675E+03 -0.62369064249E+03  0.88389620530E+03  0.50400001928E-02 0.  1.
</event>
<event>
 5   0  0.1468512E-05  0.2533445E+04  0.7818609E-02  0.8391167E-01
       -2   -1    0    0    0  501  0.00000000000E+00  0.00000000000E+00  0.11262648273E+04  0.11262648273E+04  0.25500000920E-02 0. -1.
        2   -1    0    0  501    0  0.00000000000E+00  0.00000000000E+00 -0.14246967450E+04  0.14246967450E+04  0.25500000920E-02 0.  1.
    10030    2    1    2    0    0  0.00000000000E+00  0.00000000000E+00 -0.29843191770E+03  0.25509615723E+04  0.25334449538E+04 0.  0.
        4    1    3    3  502    0 -0.71702732722E+03  0.17586305117E+03  0.88723488187E+03  0.11542284649E+04  0.12699999809E+01 0. -1.
       -4    1    3    3    0  502  0.71702732722E+03 -0.17586305117E+03 -0.11856667996E+04  0.13967331074E+04  0.12699999809E+01 0.  1.
</event>
<event>
 5   0  0.6290861E-06  0.2497510E+04  0.7818609E-02  0.8403873E-01
       -1   -1    0    0    0  501  0.00000000000E+00  0.00000000000E+00  0.98936536903E+03  0.98936536904E+03  0.50400001928E-02 0.  1.
        1   -1    0    0  501    0  0.00000000000E+00  0.00000000000E+00 -0.15761503198E+04  0.15761503198E+04  0.50400001928E-02 0. -1.
    10030    2    1    2    0    0  0.00000000000E+00  0.00000000000E+00 -0.58678495079E+03  0.25655156889E+04  0.24975095939E+04 0.  0.
        1    1    3    3  502    0 -0.34705909051E+03 -0.46098538099E+03  0.84420618241E+03  0.10225661897E+04  0.50400001928E-02 0.  1.
       -1    1    3    3    0  502  0.34705909051E+03  0.46098538099E+03 -0.14309911332E+04  0.15429494992E+04  0.50400001928E-02 0. -1.
</event>
<event>
 5   0  0.1468512E-05  0.2259214E+04  0.7818609E-02  0.8494178E-01
        2   -1    0    0  501    0  0.00000000000E+00  0.00000000000E+00  0.22211113797E+04  0.22211113797E+04  0.25500000920E-02 0.  1.
       -2   -1    0    0    0  501  0.00000000000E+00  0.00000000000E+00 -0.57449272275E+03  0.57449272275E+03  0.25500000920E-02 0. -1.
    10030    2    1    2    0    0  0.00000000000E+00  0.00000000000E+00  0.16466186570E+04  0.27956041025E+04  0.22592143095E+04 0.  0.
        4    1    3    3  502    0  0.59502546691E+03 -0.49436027888E+03  0.18418847270E+04  0.19977458177E+04  0.12699999809E+01 0.  1.
       -4    1    3    3    0  502 -0.59502546691E+03  0.49436027888E+03 -0.19526607003E+03  0.79785828480E+03  0.12699999809E+01 0. -1.
</event>
<event>
 5   0  0.1572732E-05  0.2505715E+04  0.7818609E-02  0.8400952E-01
       -2   -1    0    0    0  501  0.00000000000E+00  0.00000000000E+00  0.54421025645E+03  0.54421025646E+03  0.25500000920E-02 0.  1.
        2   -1    0    0  501    0  0.00000000000E+00  0.00000000000E+00 -0.28842757966E+04  0.28842757966E+04  0.25500000920E-02 0. -1.
    10030    2    1    2    0    0  0.00000000000E+00  0.00000000000E+00 -0.23400655402E+04  0.34284860531E+04  0.25057154435E+04 0.  0.
        1    1    3    3  502    0  0.26647571363E+03  0.61422095138E+03 -0.26189588342E+04  0.27031873887E+04  0.50400001928E-02 0. -1.
       -1    1    3    3    0  502 -0.26647571363E+03 -0.61422095138E+03  0.27889329404E+03  0.72529866439E+03  0.50400001928E-02 0.  1.
</event>
<event>
 5   0  0.6104486E-06  0.2508727E+04  0.7818609E-02  0.8399883E-01
        1   -1    0    0  501    0  0.00000000000E+00  0.00000000000E+00  0.19221738102E+04  0.19221738103E+04  0.50400001928E-02 0.  1.
       -1   -1    0    0    0  501  0.00000000000E+00  0.00000000000E+00 -0.81856689671E+03  0.81856689672E+03  0.50400001928E-02 0. -1.
    10030    2    1    2    0    0  0.00000000000E+00  0.00000000000E+00  0.11036069135E+04  0.27407407070E+04  0.25087270484E+04 0.  0.
        2    1    3    3  502    0  0.11592749678E+04 -0.32971684089E+03  0.93150396877E+03  0.15232633685E+04  0.25500000920E-02 0.  1.
       -2    1    3    3    0  502 -0.11592749678E+04  0.32971684089E+03  0.17210294477E+03  0.12174773385E+04  0.25500000920E-02 0. -1.
</event>
<event>
 5   0  0.6290861E-06  0.2533999E+04  0.7818609E-02  0.8390972E-01
       -1   -1    0    0    0  501  0.00000000000E+00  0.00000000000E+00  0.14080560396E+04  0.14080560397E+04  0.50400001928E-02 0.  1.
        1   -1    0    0  501    0  0.00000000000E+00  0.00000000000E+00 -0.11400741455E+04  0.11400741455E+04  0.50400001928E-02 0. -1.
    10030    2    1    2    0    0  0.00000000000E+00  0.00000000000E+00  0.26798189414E+03  0.25481301852E+04  0.25339994367E+04 0.  0.
        1    1    3    3  502    0 -0.91322420153E+01 -0.11127991323E+04  0.74307731658E+03  0.13381215211E+04  0.50400001928E-02 0.  1.
       -1    1    3    3    0  502  0.91322420153E+01  0.11127991323E+04 -0.47509542244E+03  0.12100086641E+04  0.50400001928E-02 0. -1.
</event>
<event>
 5   0  0.5164625E-06  0.2485263E+04  0.7818609E-02  0.8408254E-01
       -3   -1    0    0    0  501  0.00000000000E+00  0.00000000000E+00  0.16029192708E+04  0.16029192739E+04  0.10100000352E+00 0. -1.
        3   -1    0    0  501    0  0.00000000000E+00  0.00000000000E+00 -0.96332560156E+03  0.96332560685E+03  0.10100000352E+00 0.  1.
    10030    2    1    2    0    0  0.00000000000E+00  0.00000000000E+00  0.63959366920E+03  0.25662448808E+04  0.24852631101E+04 0.  0.
        1    1    3    3  502    0  0.71256859993E+03  0.84224871819E+03 -0.27067219165E+03  0.11359578990E+04  0.50400001928E-02 0.  1.
       -1    1    3    3    0  502 -0.71256859993E+03 -0.84224871819E+03  0.91026586085E+03  0.14302869818E+04  0.50400001928E-02 0. -1.
</event>
<event>
 5   0  0.1468512E-05  0.2504255E+04  0.7818609E-02  0.8401471E-01
       -2   -1    0    0    0  501  0.00000000000E+00  0.00000000000E+00  0.13634876339E+04  0.13634876340E+04  0.25500000920E-02 0. -1.
        2   -1    0    0  501    0  0.00000000000E+00  0.00000000000E+00 -0.11498626896E+04  0.11498626896E+04  0.25500000920E-02 0.  1.
    10030    2    1    2    0    0  0.00000000000E+00  0.00000000000E+00  0.21362494431E+03  0.25133503236E+04  0.25042552251E+04 0.  0.
        4    1    3    3  502    0  0.53986926229E+03 -0.64293420852E+03 -0.82553868953E+03  0.11774289608E+04  0.12699999809E+01 0.  1.
       -4    1    3    3    0  502 -0.53986926229E+03  0.64293420852E+03  0.10391636338E+04  0.13359213628E+04  0.12699999809E+01 0. -1.
</event>
<event>
 5   0  0.6346420E-06  0.2505448E+04  0.7818609E-02  0.8401047E-01
        1   -1    0    0  501    0  0.00000000000E+00  0.00000000000E+00  0.15557275270E+04  0.15557275270E+04  0.50400001928E-02 0.  1.
       -1   -1    0    0    0  501  0.00000000000E+00  0.00000000000E+00 -0.10087357638E+04  0.10087357638E+04  0.50400001928E-02 0. -1.
    10030    2    1    2    0    0  0.00000000000E+00  0.00000000000E+00  0.54699176315E+03  0.25644632908E+04  0.25054484590E+04 0.  0.
        4    1    3    3  502    0 -0.54458128866E+03  0.10986269749E+04  0.11005764156E+02  0.12262433485E+04  0.12699999809E+01 0.  1.
       -4    1    3    3    0  502  0.54458128866E+03 -0.10986269749E+04  0.53598599900E+03  0.13382199423E+04  0.12699999809E+01 0. -1.
</event>
<event>
 5   0  0.1468512E-05  0.2512400E+04  0.7818609E-02  0.8398581E-01
        2   -1    0    0  501    0  0.00000000000E+00  0.00000000000E+00  0.11414684997E+04  0.11414684997E+04  0.25500000920E-02 0.  1.
       -2   -1    0    0    0  501  0.00000000000E+00  0.00000000000E+00 -0.13824636104E+04  0.13824636104E+04  0.25500000920E-02 0. -1.
    10030    2    1    2    0    0  0.00000000000E+00  0.00000000000E+00 -0.24099511066E+03  0.25239321102E+04  0.25124001778E+04 0.  0.
        4    1    3    3  502    0  0.19549273435E+03 -0.55511538443E+03 -0.12353963016E+04  0.13684210368E+04  0.12699999809E+01 0. -1.
       -4    1    3    3    0  502 -0.19549273435E+03  0.55511538443E+03  0.99440119091E+03  0.11555110733E+04  0.12699999809E+01 0.  1.
</event>
<event>
 5   0  0.6104486E-06  0.2503717E+04  0.7818609E-02  0.8401662E-01
        1   -1    0    0  501    0  0.00000000000E+00  0.00000000000E+00  0.11501996732E+04  0.11501996732E+04  0.50400001928E-02 0. -1.
       -1   -1    0    0    0  501  0.00000000000E+00  0.00000000000E+00 -0.13625024483E+04  0.13625024483E+04  0.50400001928E-02 0.  1.
    10030    2    1    2    0    0  0.00000000000E+00  0.00000000000E+00 -0.21230277512E+03  0.25127021216E+04  0.25037171333E+04 0.  0.
        2    1    3    3  502    0  0.82071582906E+03 -0.37765399625E+02 -0.10540774934E+04  0.13364430626E+04  0.25500000920E-02 0.  1.
       -2    1    3    3    0  502 -0.82071582906E+03  0.37765399625E+02  0.84177471827E+03  0.11762590590E+04  0.25500000920E-02 0. -1.
</event>
<event>
 5   0  0.1572732E-05  0.2693783E+04  0.7818609E-02  0.8337025E-01
       -2   -1    0    0    0  501  0.00000000000E+00  0.00000000000E+00  0.82988741575E+03  0.82988741575E+03  0.25500000920E-02 0. -1.
        2   -1    0    0  501    0  0.00000000000E+00  0.00000000000E+00 -0.21859787329E+04  0.21859787329E+04  0.25500000920E-02 0.  1.
    10030    2    1    2    0    0  0.00000000000E+00  0.00000000000E+00 -0.13560913172E+04  0.30158661487E+04  0.26937826502E+04 0.  0.
        1    1    3    3  502    0  0.74832400150E+03  0.10759322670E+04 -0.10258274486E+04  0.16643139754E+04  0.50400001928E-02 0.  1.
       -1    1    3    3    0  502 -0.74832400150E+03 -0.10759322670E+04 -0.33026386863E+03  0.13515521733E+04  0.50400001928E-02 0. -1.
</event>
<event>
 5   0  0.6105353E-06  0.2436456E+04  0.7818609E-02  0.8425980E-01
        1   -1    0    0  501    0  0.00000000000E+00  0.00000000000E+00  0.11558506304E+04  0.11558506304E+04  0.50400001928E-02 0. -1.
       -1   -1    0    0    0  501  0.00000000000E+00  0.00000000000E+00 -0.12839716159E+04  0.12839716159E+04  0.50400001928E-02 0.  1.
    10030    2    1    2    0    0  0.00000000000E+00  0.00000000000E+00 -0.12812098554E+03  0.24398222463E+04  0.24364559522E+04 0.  0.
        3    1    3    3  502    0  0.61558338445E+02 -0.69892689752E+03 -0.10613235651E+04  0.12722798266E+04  0.10100000352E+00 0.  1.
       -3    1    3    3    0  502 -0.61558338445E+02  0.69892689752E+03  0.93320257958E+03  0.11675424197E+04  0.10100000352E+00 0. -1.
</event>
<event>
 5   0  0.6290861E-06  0.2532820E+04  0.7818609E-02  0.8391386E-01
        1   -1    0    0  501    0  0.00000000000E+00  0.00000000000E+00  0.11179705217E+04  0.11179705217E+04  0.50400001928E-02 0. -1.
       -1   -1    0    0    0  501  0.00000000000E+00  0.00000000000E+00 -0.14345588352E+04  0.14345588353E+04  0.50400001928E-02 0.  1.
    10030    2    1    2    0    0  0.00000000000E+00  0.00000000000E+00 -0.31658831353E+03  0.25525293570E+04  0.25328201590E+04 0.  0.
        1    1    3    3  502    0  0.10969402227E+04 -0.52896022909E+03  0.19185403800E+03  0.12328360589E+04  0.50400001928E-02 0. -1.
       -1    1    3    3    0  502 -0.10969402227E+04  0.52896022909E+03 -0.50844235153E+03  0.13196932981E+04  0.50400001928E-02 0.  1.
</event>
<event>
 5   0  0.6105353E-06  0.2501099E+04  0.7818609E-02  0.8402594E-01
       -1   -1    0    0    0  501  0.00000000000E+00  0.00000000000E+00  0.59460568382E+03  0.59460568384E+03  0.50400001928E-02 0.  1.
        1   -1    0    0  501    0  0.00000000000E+00  0.00000000000E+00 -0.26301026951E+04  0.26301026951E+04  0.50400001928E-02 0. -1.
    10030    2    1    2    0    0  0.00000000000E+00  0.00000000000E+00 -0.20354970113E+04  0.32247083790E+04  0.25010989677E+04 0.  0.
        3    1    3    3  502    0  0.39172220696E+03  0.39657625660E+03 -0.24610662881E+04  0.25234037131E+04  0.10100000352E+00 0. -1.
       -3    1    3    3    0  502 -0.39172220696E+03 -0.39657625660E+03  0.42556927683E+03  0.70130466582E+03  0.10100000352E+00 0.  1.
</event>
<event>
 5   0  0.1501947E-05  0.2476613E+04  0.7818609E-02  0.8411365E-01
       -2   -1    0    0    0  501  0.00000000000E+00  0.00000000000E+00  0.10925776446E+04  0.10925776446E+04  0.25500000920E-02 0.  1.
        2   -1    0    0  501    0  0.00000000000E+00  0.00000000000E+00 -0.14034722859E+04  0.14034722859E+04  0.25500000920E-02 0. -1.
    10030    2    1    2    0    0  0.00000000000E+00  0.00000000000E+00 -0.31089464134E+03  0.24960499305E+04  0.24766125611E+04 0.  0.
        3    1    3    3  502    0  0.42503970735E+03  0.90695975817E+03  0.57839342387E+03  0.11566216835E+04  0.10100000352E+00 0.  1.
       -3    1    3    3    0  502 -0.42503970735E+03 -0.90695975817E+03 -0.88928806521E+03  0.13394282470E+04  0.10100000352E+00 0. -1.
</event>
<event>
 5   0  0.1526824E-05  0.2516664E+04  0.7818609E-02  0.8397073E-01
        2   -1    0    0  501    0  0.00000000000E+00  0.00000000000E+00  0.14732232794E+04  0.14732232794E+04  0.25500000920E-02 0.  1.
       -2   -1    0    0    0  501  0.00000000000E+00  0.00000000000E+00 -0.10747859687E+04  0.10747859687E+04  0.25500000920E-02 0. -1.
    10030    2    1    2    0    0  0.00000000000E+00  0.00000000000E+00  0.39843731074E+03  0.25480092482E+04  0.25166642283E+04 0.  0.
        2    1    3    3  502    0 -0.12160481923E+04 -0.30531360268E+03  0.30736717847E+03  0.12909160253E+04  0.25500000920E-02 0.  1.
       -2    1    3    3    0  502  0.12160481923E+04  0.30531360268E+03  0.91070132269E+02  0.12570932229E+04  0.25500000920E-02 0. -1.
</event>
<event>
 5   0  0.6346420E-06  0.2331466E+04  0.7818609E-02  0.8465617E-01
        1   -1    0    0  501    0  0.00000000000E+00  0.00000000000E+00  0.68720465773E+03  0.68720465775E+03  0.50400001928E-02 0. -1.
       -1   -1    0    0    0  501  0.00000000000E+00  0.00000000000E+00 -0.19774806447E+04  0.19774806447E+04  0.50400001928E-02 0.  1.
    10030    2    1    2    0    0  0.00000000000E+00  0.00000000000E+00 -0.12902759870E+04  0.26646853025E+04  0.23314664138E+04 0.  0.
        4    1    3    3  502    0 -0.94596716811E+03 -0.51767158892E+03 -0.13902263877E+03  0.10872748797E+04  0.12699999809E+01 0. -1.
       -4    1    3    3    0  502  0.94596716811E+03  0.51767158892E+03 -0.11512533482E+04  0.15774104228E+04  0.12699999809E+01 0.  1.
</event>
<event>
 5   0  0.1572732E-05  0.2457310E+04  0.7818609E-02  0.8418354E-01
       -2   -1    0    0    0  501  0.00000000000E+00  0.00000000000E+00  0.16614123622E+04  0.16614123622E+04  0.25500000920E-02 0. -1.
        2   -1    0    0  501    0  0.00000000000E+00  0.00000000000E+00 -0.90862018461E+03  0.90862018461E+03  0.25500000920E-02 0.  1.
    10030    2    1    2    0    0  0.00000000000E+00  0.00000000000E+00  0.75279217761E+03  0.25700325468E+04  0.24573097544E+04 0.  0.
        1    1    3    3  502    0  0.93366468360E+03  0.17970824921E+03  0.11902757234E+04  0.15234110063E+04  0.50400001928E-02 0. -1.
       -1    1    3    3    0  502 -0.93366468360E+03 -0.17970824921E+03 -0.43748354583E+03  0.10466215405E+04  0.50400001928E-02 0.  1.
</event>
<event>
 5   0  0.1550483E-05  0.2581447E+04  0.7818609E-02  0.8374531E-01
       -2   -1    0    0    0  501  0.00000000000E+00  0.00000000000E+00  0.17602774973E+04  0.17602774973E+04  0.25500000920E-02 0. -1.
        2   -1    0    0  501    0  0.00000000000E+00  0.00000000000E+00 -0.94642275709E+03  0.94642275710E+03  0.25500000920E-02 0.  1.
    10030    2    1    2    0    0  0.00000000000E+00  0.00000000000E+00  0.81385474018E+03  0.27067002544E+04  0.25814466349E+04 0.  0.
        5    1    3    3  502    0  0.52919093669E+03  0.34630443338E+03 -0.77282141826E+03  0.99862147112E+03  0.46999998093E+01 0.  1.
       -5    1    3    3    0  502 -0.52919093669E+03 -0.34630443338E+03  0.15866761584E+04  0.17080787833E+04  0.46999998093E+01 0. -1.
</event>
<event>
 5   0  0.6346420E-06  0.2477727E+04  0.7818609E-02  0.8410964E-01
       -1   -1    0    0    0  501  0.00000000000E+00  0.00000000000E+00  0.68487598705E+03  0.68487598707E+03  0.50400001928E-02 0.  1.
        1   -1    0    0  501    0  0.00000000000E+00  0.00000000000E+00 -0.22409644630E+04  0.22409644631E+04  0.50400001928E-02 0. -1.
    10030    2    1    2    0    0  0.00000000000E+00  0.00000000000E+00 -0.15560884760E+04  0.29258404501E+04  0.24777269814E+04 0.  0.
        4    1    3    3  502    0  0.24265072860E+03  0.73719096833E+03  0.36223247223E+03  0.85647176060E+03  0.12699999809E+01 0.  1.
       -4    1    3    3    0  502 -0.24265072860E+03 -0.73719096833E+03 -0.19183209482E+04  0.20693686895E+04  0.12699999809E+01 0. -1.
</event>
<event>
 5   0  0.1572732E-05  0.2505861E+04  0.7818609E-02  0.8400900E-01
       -2   -1    0    0    0  501  0.00000000000E+00  0.00000000000E+00  0.11161413501E+04  0.11161413501E+04  0.25500000920E-02 0.  1.
        2   -1    0    0  501    0  0.00000000000E+00  0.00000000000E+00 -0.14064841855E+04  0.14064841855E+04  0.25500000920E-02 0. -1.
    10030    2    1    2    0    0  0.00000000000E+00  0.00000000000E+00 -0.29034283544E+03  0.25226255356E+04  0.25058612552E+04 0.  0.
        1    1    3    3  502    0  0.40058654960E+03 -0.10748439630E+04 -0.65260313898E+03  0.13197158731E+04  0.50400001928E-02 0. -1.
       -1    1    3    3    0  502 -0.40058654960E+03  0.10748439630E+04  0.36226030354E+03  0.12029096625E+04  0.50400001928E-02 0.  1.
</event>
<event>
 5   0  0.6290861E-06  0.2487282E+04  0.7818609E-02  0.8407531E-01
       -1   -1    0    0    0  501  0.00000000000E+00  0.00000000000E+00  0.11137203095E+04  0.11137203095E+04  0.50400001928E-02 0. -1.
        1   -1    0    0  501    0  0.00000000000E+00  0.00000000000E+00 -0.13887172116E+04  0.13887172116E+04  0.50400001928E-02 0.  1.
    10030    2    1    2    0    0  0.00000000000E+00  0.00000000000E+00 -0.27499690211E+03  0.25024375211E+04  0.24872816992E+04 0.  0.
        1    1    3    3  502    0  0.83504955630E+03  0.33526801552E+03  0.72617870728E+03  0.11563078823E+04  0.50400001928E-02 0. -1.
       -1    1    3    3    0  502 -0.83504955630E+03 -0.33526801552E+03 -0.10011756094E+04  0.13461296388E+04  0.50400001928E-02 0.  1.
</event>
<event>
 5   0  0.1572732E-05  0.2501326E+04  0.7818609E-02  0.8402513E-01
        2   -1    0    0  501    0  0.00000000000E+00  0.00000000000E+00  0.27531964917E+04  0.27531964917E+04  0.25500000920E-02 0.  1.
       -2   -1    0    0    0  501  0.00000000000E+00  0.00000000000E+00 -0.56812447844E+03  0.56812447844E+03  0.25500000920E-02 0. -1.
    10030    2    1    2    0    0  0.00000000000E+00  0.00000000000E+00  0.21850720132E+04  0.33213209701E+04  0.25013263049E+04 0.  0.
        1    1    3    3  502    0  0.60552831562E+02  0.90600316809E+03 -0.49431137506E+02  0.90936891489E+03  0.50400001928E-02 0. -1.
       -1    1    3    3    0  502 -0.60552831562E+02 -0.90600316809E+03  0.22345031508E+04  0.24119520552E+04  0.50400001928E-02 0.  1.
</event>
<event>
 5   0  0.6346420E-06  0.2528200E+04  0.7818609E-02  0.8393007E-01
        1   -1    0    0  501    0  0.00000000000E+00  0.00000000000E+00  0.10985455052E+04  0.10985455052E+04  0.50400001928E-02 0.  1.
       -1   -1    0    0    0  501  0.00000000000E+00  0.00000000000E+00 -0.14546043856E+04  0.14546043856E+04  0.50400001928E-02 0. -1.
    10030    2    1    2    0    0  0.00000000000E+00  0.00000000000E+00 -0.35605888042E+03  0.25531498908E+04  0.25282002370E+04 0.  0.
        4    1    3    3  502    0 -0.12522520460E+04 -0.16069425299E+03 -0.11424229508E+03  0.12676792751E+04  0.12699999809E+01 0.  1.
       -4    1    3    3    0  502  0.12522520460E+04  0.16069425299E+03 -0.24181658534E+03  0.12854706156E+04  0.12699999809E+01 0. -1.
</event>
<event>
 5   0  0.1526824E-05  0.2464806E+04  0.7818609E-02  0.8415632E-01
       -2   -1    0    0    0  501  0.00000000000E+00  0.00000000000E+00  0.83086425778E+03  0.83086425778E+03  0.25500000920E-02 0.  1.
        2   -1    0    0  501    0  0.00000000000E+00  0.00000000000E+00 -0.18279972160E+04  0.18279972160E+04  0.25500000920E-02 0. -1.
    10030    2    1    2    0    0  0.00000000000E+00  0.00000000000E+00 -0.99713295822E+03  0.26588614738E+04  0.24648063211E+04 0.  0.
        2    1    3    3  502    0 -0.17685354975E+03  0.11528863932E+04 -0.92788672122E+03  0.14904355005E+04  0.25500000920E-02 0. -1.
       -2    1    3    3    0  502  0.17685354975E+03 -0.11528863932E+04 -0.69246237004E+02  0.11684259733E+04  0.25500000920E-02 0.  1.
</event>
<event>
 5   0  0.1526824E-05  0.2518913E+04  0.7818609E-02  0.8396279E-01
       -2   -1    0    0    0  501  0.00000000000E+00  0.00000000000E+00  0.16729490420E+04  0.16729490420E+04  0.25500000920E-02 0.  1.
        2   -1    0    0  501    0  0.00000000000E+00  0.00000000000E+00 -0.94816438904E+03  0.94816438904E+03  0.25500000920E-02 0. -1.
    10030    2    1    2    0    0  0.00000000000E+00  0.00000000000E+00  0.72478465295E+03  0.26211134310E+04  0.25189130245E+04 0.  0.
        2    1    3    3  502    0 -0.31289244335E+03  0.73863402019E+02  0.16295324862E+04  0.16609435893E+04  0.25500000920E-02 0.  1.
       -2    1    3    3    0  502  0.31289244335E+03 -0.73863402019E+02 -0.90474783323E+03  0.96016984175E+03  0.25500000920E-02 0. -1.
</event>
<event>
 5   0  0.6346420E-06  0.2490750E+04  0.7818609E-02  0.8406288E-01
       -1   -1    0    0    0  501  0.00000000000E+00  0.00000000000E+00  0.11089093954E+04  0.11089093954E+04  0.50400001928E-02 0. -1.
        1   -1    0    0  501    0  0.00000000000E+00  0.00000000000E+00 -0.13986349004E+04  0.13986349004E+04  0.50400001928E-02 0.  1.
    10030    2    1    2    0    0  0.00000000000E+00  0.00000000000E+00 -0.28972550497E+03  0.25075442958E+04  0.24907503944E+04 0.  0.
        4    1    3    3  502    0  0.81703769187E+02 -0.41122259735E+03  0.10357239886E+04  0.11173653493E+04  0.12699999809E+01 0. -1.
       -4    1    3    3    0  502 -0.81703769187E+02  0.41122259735E+03 -0.13254494935E+04  0.13901789465E+04  0.12699999809E+01 0.  1.
</event>
<event>
 5   0  0.6477703E-06  0.2503916E+04  0.7818609E-02  0.8401592E-01
       -1   -1    0    0    0  501  0.00000000000E+00  0.00000000000E+00  0.65806407332E+03  0.65806407334E+03  0.50400001928E-02 0.  1.
        1   -1    0    0  501    0  0.00000000000E+00  0.00000000000E+00 -0.23818322887E+04  0.23818322887E+04  0.50400001928E-02 0. -1.
    10030    2    1    2    0    0  0.00000000000E+00  0.00000000000E+00 -0.17237682153E+04  0.30398963620E+04  0.25039155400E+04 0.  0.
        5    1    3    3  502    0 -0.26656658757E+03 -0.69636557550E+03 -0.20828377122E+04  0.22122879075E+04  0.46999998093E+01 0. -1.
       -5    1    3    3    0  502  0.26656658757E+03  0.69636557550E+03  0.35906949687E+03  0.82760845449E+03  0.46999998093E+01 0.  1.
</event>
<event>
 5   0  0.6104486E-06  0.2528622E+04  0.7818609E-02  0.8392859E-01
        1   -1    0    0  501    0  0.00000000000E+00  0.00000000000E+00  0.12173521763E+04  0.12173521763E+04  0.50400001928E-02 0.  1.
       -1   -1    0    0    0  501  0.00000000000E+00  0.00000000000E+00 -0.13130808398E+04  0.13130808398E+04  0.50400001928E-02 0. -1.
    10030    2    1    2    0    0  0.00000000000E+00  0.00000000000E+00 -0.95728663455E+02  0.25304330161E+04  0.25286216150E+04 0.  0.
        2    1    3    3  502    0  0.34564421758E+03  0.16875453159E+03 -0.12531081873E+04  0.13108120179E+04  0.25500000920E-02 0. -1.
       -2    1    3    3    0  502 -0.34564421758E+03 -0.16875453159E+03  0.11573795238E+04  0.12196209982E+04  0.25500000920E-02 0.  1.
</event>
<event>
 5   0  0.1501947E-05  0.2503398E+04  0.7818609E-02  0.8401776E-01
        2   -1    0    0  501    0  0.00000000000E+00  0.00000000000E+00  0.18522770171E+04  0.18522770171E+04  0.25500000920E-02 0. -1.
       -2   -1    0    0    0  501  0.00000000000E+00  0.00000000000E+00 -0.84585134493E+03  0.84585134494E+03  0.25500000920E-02 0.  1.
    10030    2    1    2    0    0  0.00000000000E+00  0.00000000000E+00  0.10064256722E+04  0.26981283620E+04  0.25033984949E+04 0.  0.
        3    1    3    3  502    0 -0.74073136820E+03 -0.27393380746E+02 -0.58386566694E+03  0.94357431312E+03  0.10100000352E+00 0.  1.
       -3    1    3    3    0  502  0.74073136820E+03  0.27393380746E+02  0.15902913391E+04  0.17545540489E+04  0.10100000352E+00 0. -1.
</event>
<event>
 5   0  0.6104486E-06  0.2535754E+04  0.7818609E-02  0.8390358E-01
       -1   -1    0    0    0  501  0.00000000000E+00  0.00000000000E+00  0.73092957120E+03  0.73092957121E+03  0.50400001928E-02 0.  1.
        1   -1    0    0  501    0  0.00000000000E+00  0.00000000000E+00 -0.21992710766E+04  0.21992710766E+04  0.50400001928E-02 0. -1.
    10030    2    1    2    0    0  0.00000000000E+00  0.00000000000E+00 -0.14683415054E+04  0.29302006479E+04  0.25357541403E+04 0.  0.
        2    1    3    3  502    0 -0.84969071976E+02  0.12518775132E+04 -0.52395134316E+03  0.13597580892E+04  0.25500000920E-02 0. -1.
       -2    1    3    3    0  502  0.84969071976E+02 -0.12518775132E+04 -0.94439016228E+03  0.15704425586E+04  0.25500000920E-02 0.  1.
</event>
<event>
 5   0  0.6290861E-06  0.2505850E+04  0.7818609E-02  0.8400904E-01
        1   -1    0    0  501    0  0.00000000000E+00  0.00000000000E+00  0.14271302616E+04  0.14271302616E+04  0.50400001928E-02 0.  1.
       -1   -1    0    0    0  501  0.00000000000E+00  0.00000000000E+00 -0.10999847588E+04  0.10999847588E+04  0.50400001928E-02 0. -1.
    10030    2    1    2    0    0  0.00000000000E+00  0.00000000000E+00  0.32714550279E+03  0.25271150204E+04  0.25058503839E+04 0.  0.
        1    1    3    3  502    0  0.12325345082E+04  0.13702439283E+02  0.39018488606E+03  0.12928933893E+04  0.50400001928E-02 0. -1.
       -1    1    3    3    0  502 -0.12325345082E+04 -0.13702439283E+02 -0.63039383279E+02  0.12342216311E+04  0.50400001928E-02 0.  1.
</event>
<event>
 5   0  0.1572732E-05  0.2503098E+04  0.7818609E-02  0.8401883E-01
        2   -1    0    0  501    0  0.00000000000E+00  0.00000000000E+00  0.13036462448E+04  0.13036462448E+04  0.25500000920E-02 0. -1.
       -2   -1    0    0    0  501  0.00000000000E+00  0.00000000000E+00 -0.12015340126E+04  0.12015340126E+04  0.25500000920E-02 0.  1.
    10030    2    1    2    0    0  0.00000000000E+00  0.00000000000E+00  0.10211223215E+03  0.25051802574E+04  0.25030983229E+04 0.  0.
        1    1    3    3  502    0  0.31458917725E+03 -0.58661097604E+01 -0.11613037785E+04  0.12031738144E+04  0.50400001928E-02 0.  1.
       -1    1    3    3    0  502 -0.31458917725E+03  0.58661097604E+01  0.12634160107E+04  0.13020064430E+04  0.50400001928E-02 0. -1.
</event>
<event>
 5   0  0.5164625E-06  0.2467650E+04  0.7818609E-02  0.8414602E-01
        3   -1    0    0  501    0  0.00000000000E+00  0.00000000000E+00  0.70608050312E+03  0.70608051035E+03  0.10100000352E+00 0.  1.
       -3   -1    0    0    0  501  0.00000000000E+00  0.00000000000E+00 -0.21560202972E+04  0.21560202996E+04  0.10100000352E+00 0. -1.
    10030    2    1    2    0    0  0.00000000000E+00  0.00000000000E+00 -0.14499397941E+04  0.28621008100E+04  0.24676498211E+04 0.  0.
        2    1    3    3  502    0 -0.12277692070E+04  0.10769652540E+03 -0.65825950149E+03  0.13972549297E+04  0.25500000920E-02 0.  1.
       -2    1    3    3    0  502  0.12277692070E+04 -0.10769652540E+03 -0.79168029264E+03  0.14648458803E+04  0.25500000920E-02 0. -1.
</event>
<event>
 5   0  0.6477703E-06  0.2508464E+04  0.7818609E-02  0.8399976E-01
        1   -1    0    0  501    0  0.00000000000E+00  0.00000000000E+00  0.11172067768E+04  0.11172067768E+04  0.50400001928E-02 0. -1.
       -1   -1    0    0    0  501  0.00000000000E+00  0.00000000000E+00 -0.14080637118E+04  0.14080637118E+04  0.50400001928E-02 0.  1.
    10030    2    1    2    0    0  0.00000000000E+00  0.00000000000E+00 -0.29085693497E+03  0.25252704886E+04  0.25084643279E+04 0.  0.
        5    1    3    3  502    0  0.18158712813E+03  0.42356512825E+03 -0.13197319720E+04  0.13978897921E+04  0.46999998093E+01 0.  1.
       -5    1    3    3    0  502 -0.18158712813E+03 -0.42356512825E+03  0.10288750371E+04  0.11273806965E+04  0.46999998093E+01 0. -1.
</event>
<event>
 5   0  0.1526824E-05  0.2503165E+04  0.7818609E-02  0.8401859E-01
       -2   -1    0    0    0  501  0.00000000000E+00  0.00000000000E+00  0.11005169544E+04  0.11005169544E+04  0.25500000920E-02 0.  1.
        2   -1    0    0  501    0  0.00000000000E+00  0.00000000000E+00 -0.14233839373E+04  0.14233839373E+04  0.25500000920E-02 0. -1.
    10030    2    1    2    0    0  0.00000000000E+00  0.00000000000E+00 -0.32286698293E+03  0.25239008917E+04  0.25031645217E+04 0.  0.
        2    1    3    3  502    0 -0.66750493464E+03  0.60369059872E+03  0.71551456725E+03  0.11497679212E+04  0.25500000920E-02 0.  1.
       -2    1    3    3    0  502  0.66750493464E+03 -0.60369059872E+03 -0.10383815502E+04  0.13741329705E+04  0.25500000920E-02 0. -1.
</event>
<event>
 5   0  0.1526824E-05  0.2484043E+04  0.7818609E-02  0.8408692E-01
       -2   -1    0    0    0  501  0.00000000000E+00  0.00000000000E+00  0.80510737124E+03  0.80510737125E+03  0.25500000920E-02 0.  1.
        2   -1    0    0  501    0  0.00000000000E+00  0.00000000000E+00 -0.19160391470E+04  0.19160391470E+04  0.25500000920E-02 0. -1.
    10030    2    1    2    0    0  0.00000000000E+00  0.00000000000E+00 -0.11109317757E+04  0.27211465182E+04  0.24840428666E+04 0.  0.
        2    1    3    3  502    0  0.31810084930E+03  0.21997746458E+03 -0.18483942997E+04  0.18884225487E+04  0.25500000920E-02 0. -1.
       -2    1    3    3    0  502 -0.31810084930E+03 -0.21997746458E+03  0.73746252394E+03  0.83272396956E+03  0.25500000920E-02 0.  1.
</event>
<event>
 5   0  0.6105353E-06  0.2505736E+04  0.7818609E-02  0.8400945E-01
        1   -1    0    0  501    0  0.00000000000E+00  0.00000000000E+00  0.15080268637E+04  0.15080268637E+04  0.50400001928E-02 0. -1.
       -1   -1    0    0    0  501  0.00000000000E+00  0.00000000000E+00 -0.10408819381E+04  0.10408819381E+04  0.50400001928E-02 0.  1.
    10030    2    1    2    0    0  0.00000000000E+00  0.00000000000E+00  0.46714492559E+03  0.25489088018E+04  0.25057357599E+04 0.  0.
        3    1    3    3  502    0  0.10513641911E+04  0.31174490833E+03 -0.38277670330E+03  0.11614945394E+04  0.10100000352E+00 0.  1.
       -3    1    3    3    0  502 -0.10513641911E+04 -0.31174490833E+03  0.84992162889E+03  0.13874142624E+04  0.10100000352E+00 0. -1.
</event>
<event>
 5   0  0.1550483E-05  0.2361973E+04  0.7818609E-02  0.8453879E-01
        2   -1    0    0  501    0  0.00000000000E+00  0.00000000000E+00  0.20845303497E+04  0.20845303497E+04  0.25500000920E-02 0. -1.
       -2   -1    0    0    0  501  0.00000000000E+00  0.00000000000E+00 -0.66908567320E+03  0.66908567320E+03  0.25500000920E-02 0.  1.
    10030    2    1    2    0    0  0.00000000000E+00  0.00000000000E+00  0.14154446765E+04  0.27536160229E+04  0.23619732364E+04 0.  0.
        5    1    3    3  502    0 -0.35530823420E+03  0.73680695400E+03  0.17007714386E+04  0.18872662783E+04  0.46999998093E+01 0. -1.
       -5    1    3    3    0  502  0.35530823420E+03 -0.73680695400E+03 -0.28532676214E+03  0.86634974459E+03  0.46999998093E+01 0.  1.
</event>
<event>
 5   0  0.6346420E-06  0.2499629E+04  0.7818609E-02  0.8403118E-01
        1   -1    0    0  501    0  0.00000000000E+00  0.00000000000E+00  0.13883395260E+04  0.13883395260E+04  0.50400001928E-02 0.  1.
       -1   -1    0    0    0  501  0.00000000000E+00  0.00000000000E+00 -0.11251113964E+04  0.11251113964E+04  0.50400001928E-02 0. -1.
    10030    2    1    2    0    0  0.00000000000E+00  0.00000000000E+00  0.26322812964E+03  0.25134509224E+04  0.24996292708E+04 0.  0.
        4    1    3    3  502    0 -0.59291954204E+03 -0.62123939494E+03 -0.78145046788E+03  0.11611022418E+04  0.12699999809E+01 0. -1.
       -4    1    3    3    0  502  0.59291954204E+03  0.62123939494E+03  0.10446785975E+04  0.13523486807E+04  0.12699999809E+01 0.  1.
</event>
<event>
 5   0  0.1526824E-05  0.2501036E+04  0.7818609E-02  0.8402617E-01
       -2   -1    0    0    0  501  0.00000000000E+00  0.00000000000E+00  0.60602220927E+03  0.60602220927E+03  0.25500000920E-02 0.  1.
        2   -1    0    0  501    0  0.00000000000E+00  0.00000000000E+00 -0.25804247989E+04  0.25804247989E+04  0.25500000920E-02 0. -1.
    10030    2    1    2    0    0  0.00000000000E+00  0.00000000000E+00 -0.19744025896E+04  0.31864470082E+04  0.25010355755E+04 0.  0.
        2    1    3    3  502    0 -0.10047438612E+04 -0.69401062014E+03 -0.64383621608E+03  0.13804658781E+04  0.25500000920E-02 0.  1.
       -2    1    3    3    0  502  0.10047438612E+04  0.69401062014E+03 -0.13305663735E+04  0.18059811300E+04  0.25500000920E-02 0. -1.
</event>
<event>
 5   0  0.6477703E-06  0.2642479E+04  0.7818609E-02  0.8353914E-01
        1   -1    0    0  501    0  0.00000000000E+00  0.00000000000E+00  0.13902839763E+04  0.13902839763E+04  0.50400001928E-02 0. -1.
       -1   -1    0    0    0  501  0.00000000000E+00  0.00000000000E+00 -0.12556240161E+04  0.12556240161E+04  0.50400001928E-02 0.  1.
    10030    2    1    2    0    0  0.00000000000E+00  0.00000000000E+00  0.13465996012E+03  0.26459079924E+04  0.26424791010E+04 0.  0.
        5    1    3    3  502    0  0.14969816409E+03  0.11382350572E+04 -0.58747828899E+03  0.12896284022E+04  0.46999998093E+01 0.  1.
       -5    1    3    3    0  502 -0.14969816409E+03 -0.11382350572E+04  0.72213824911E+03  0.13562795902E+04  0.46999998093E+01 0. -1.
</event>
<event>
 5   0  0.5164625E-06  0.2501534E+04  0.7818609E-02  0.8402439E-01
       -3   -1    0    0    0  501  0.00000000000E+00  0.00000000000E+00  0.12790841719E+04  0.12790841759E+04  0.10100000352E+00 0.  1.
        3   -1    0    0  501    0  0.00000000000E+00  0.00000000000E+00 -0.12230764765E+04  0.12230764807E+04  0.10100000352E+00 0. -1.
    10030    2    1    2    0    0  0.00000000000E+00  0.00000000000E+00  0.56007695447E+02  0.25021606566E+04  0.25015337474E+04 0.  0.
        2    1    3    3  502    0 -0.22588888146E+03 -0.38121403038E+03  0.11979412979E+04  0.12772678955E+04  0.25500000920E-02 0.  1.
       -2    1    3    3    0  502  0.22588888146E+03  0.38121403038E+03 -0.11419336024E+04  0.12248927611E+04  0.25500000920E-02 0. -1.
</event>
<event>
 5   0  0.6104486E-06  0.2524281E+04  0.7818609E-02  0.8394386E-01
        1   -1    0    0  501    0  0.00000000000E+00  0.00000000000E+00  0.26777695482E+04  0.26777695482E+04  0.50400001928E-02 0. -1.
       -1   -1    0    0    0  501  0.00000000000E+00  0.00000000000E+00 -0.59489773184E+03  0.59489773186E+03  0.50400001928E-02 0.  1.
    10030    2    1    2    0    0  0.00000000000E+00  0.00000000000E+00  0.20828718164E+04  0.32726672801E+04  0.25242813081E+04 0.  0.
        2    1    3    3  502    0 -0.73094280601E+03  0.51580841751E+03 -0.11283695184E+03  0.90170277085E+03  0.25500000920E-02 0.  1.
       -2    1    3    3    0  502  0.73094280601E+03 -0.51580841751E+03  0.21957087682E+04  0.23709645092E+04  0.25500000920E-02 0. -1.
</event>
<event>
 5   0  0.6477703E-06  0.2502048E+04  0.7818609E-02  0.8402256E-01
       -1   -1    0    0    0  501  0.00000000000E+00  0.00000000000E+00  0.75881187994E+03  0.75881187996E+03  0.50400001928E-02 0.  1.
        1   -1    0    0  501    0  0.00000000000E+00  0.00000000000E+00 -0.20625147877E+04  0.20625147877E+04  0.50400001928E-02 0. -1.
    10030    2    1    2    0    0  0.00000000000E+00  0.00000000000E+00 -0.13037029078E+04  0.28213266677E+04  0.25020477402E+04 0.  0.
        5    1    3    3  502    0 -0.26741439934E+03  0.10522492044E+04 -0.13526932836E+04  0.17345143582E+04  0.46999998093E+01 0. -1.
       -5    1    3    3    0  502  0.26741439934E+03 -0.10522492044E+04  0.48990375870E+02  0.10868123095E+04  0.46999998093E+01 0.  1.
</event>
<event>
 5   0  0.1526824E-05  0.2462421E+04  0.7818609E-02  0.8416497E-01
        2   -1    0    0  501    0  0.00000000000E+00  0.00000000000E+00  0.91491553883E+03  0.91491553884E+03  0.25500000920E-02 0.  1.
       -2   -1    0    0    0  501  0.00000000000E+00  0.00000000000E+00 -0.16568511310E+04  0.16568511310E+04  0.25500000920E-02 0. -1.
    10030    2    1    2    0    0  0.00000000000E+00  0.00000000000E+00 -0.74193559216E+03  0.25717666698E+04  0.24624206345E+04 0.  0.
        2    1    3    3  502    0  0.89858865527E+03 -0.53607285536E+03 -0.10486602252E+04  0.14813925697E+04  0.25500000920E-02 0. -1.
       -2    1    3    3    0  502 -0.89858865527E+03  0.53607285536E+03  0.30672463309E+03  0.10903741001E+04  0.25500000920E-02 0.  1.
</event>
<event>
 5   0  0.1526824E-05  0.2612364E+04  0.7818609E-02  0.8364014E-01
       -2   -1    0    0    0  501  0.00000000000E+00  0.00000000000E+00  0.88236259421E+03  0.88236259422E+03  0.25500000920E-02 0.  1.
        2   -1    0    0  501    0  0.00000000000E+00  0.00000000000E+00 -0.19335719435E+04  0.19335719435E+04  0.25500000920E-02 0. -1.
    10030    2    1    2    0    0  0.00000000000E+00  0.00000000000E+00 -0.10512093493E+04  0.28159345377E+04  0.26123641064E+04 0.  0.
        2    1    3    3  502    0 -0.75609365737E+03 -0.79996253900E+03  0.23239549746E+03  0.11250001555E+04  0.25500000920E-02 0. -1.
       -2    1    3    3    0  502  0.75609365737E+03  0.79996253900E+03 -0.12836048467E+04  0.16909343822E+04  0.25500000920E-02 0.  1.
</event>
<event>
 5   0  0.6346420E-06  0.2500585E+04  0.7818609E-02  0.8402777E-01
        1   -1    0    0  501    0  0.00000000000E+00  0.00000000000E+00  0.11981394477E+04  0.11981394477E+04  0.50400001928E-02 0.  1.
       -1   -1    0    0    0  501  0.00000000000E+00  0.00000000000E+00 -0.13047160739E+04  0.13047160739E+04  0.50400001928E-02 0. -1.
    10030    2    1    2    0    0  0.00000000000E+00  0.00000000000E+00 -0.10657662618E+03  0.25028555216E+04  0.25005853684E+04 0.  0.
        4    1    3    3  502    0  0.69904293515E+03 -0.98792069911E+03 -0.36755082510E+03  0.12648096912E+04  0.12699999809E+01 0.  1.
       -4    1    3    3    0  502 -0.69904293515E+03  0.98792069911E+03  0.26097419892E+03  0.12380458305E+04  0.12699999809E+01 0. -1.
</event>
<event>
 5   0  0.1468512E-05  0.2482020E+04  0.7818609E-02  0.8409419E-01
       -2   -1    0    0    0  501  0.00000000000E+00  0.00000000000E+00  0.11193590481E+04  0.11193590481E+04  0.25500000920E-02 0.  1.
        2   -1    0    0  501    0  0.00000000000E+00  0.00000000000E+00 -0.13758818638E+04  0.13758818638E+04  0.25500000920E-02 0. -1.
    10030    2    1    2    0    0  0.00000000000E+00  0.00000000000E+00 -0.25652281571E+03  0.24952409120E+04  0.24820199947E+04 0.  0.
        4    1    3    3  502    0  0.10476299844E+04  0.13259087271E+03  0.52712775908E+03  0.11802432846E+04  0.12699999809E+01 0.  1.
       -4    1    3    3    0  502 -0.10476299844E+04 -0.13259087271E+03 -0.78365057479E+03  0.13149976273E+04  0.12699999809E+01 0. -1.
</event>
<event>
 5   0  0.5164625E-06  0.2470784E+04  0.7818609E-02  0.8413468E-01
        3   -1    0    0  501    0  0.00000000000E+00  0.00000000000E+00  0.12867300088E+04  0.12867300128E+04  0.10100000352E+00 0. -1.
       -3   -1    0    0    0  501  0.00000000000E+00  0.00000000000E+00 -0.11861026339E+04  0.11861026382E+04  0.10100000352E+00 0.  1.
    10030    2    1    2    0    0  0.00000000000E+00  0.00000000000E+00  0.10062737491E+03  0.24728326509E+04  0.24707843797E+04 0.  0.
        3    1    3    3  502    0 -0.30422285830E+03 -0.59317225778E+03 -0.99063939473E+03  0.11940566551E+04  0.10100000352E+00 0.  1.
       -3    1    3    3    0  502  0.30422285830E+03  0.59317225778E+03  0.10912667696E+04  0.12787759959E+04  0.10100000352E+00 0. -1.
</event>
<event>
 5   0  0.5164625E-06  0.2338187E+04  0.7818609E-02  0.8463015E-01
        3   -1    0    0  501    0  0.00000000000E+00  0.00000000000E+00  0.80086537672E+03  0.80086538309E+03  0.10100000352E+00 0.  1.
       -3   -1    0    0    0  501  0.00000000000E+00  0.00000000000E+00 -0.17066287317E+04  0.17066287347E+04  0.10100000352E+00 0. -1.
    10030    2    1    2    0    0  0.00000000000E+00  0.00000000000E+00 -0.90576335497E+03  0.25074941178E+04  0.23381872242E+04 0.  0.
        2    1    3    3  502    0  0.87921403850E+03 -0.82812272606E+02 -0.12744513976E+04  0.15505165471E+04  0.25500000920E-02 0. -1.
       -2    1    3    3    0  502 -0.87921403850E+03  0.82812272606E+02  0.36868804262E+03  0.95697757067E+03  0.25500000920E-02 0.  1.
</event>
<event>
 5   0  0.6105353E-06  0.2505476E+04  0.7818609E-02  0.8401037E-01
       -1   -1    0    0    0  501  0.00000000000E+00  0.00000000000E+00  0.14579260438E+04  0.14579260438E+04  0.50400001928E-02 0. -1.
        1   -1    0    0  501    0  0.00000000000E+00  0.00000000000E+00 -0.10764283022E+04  0.10764283022E+04  0.50400001928E-02 0.  1.
    10030    2    1    2    0    0  0.00000000000E+00  0.00000000000E+00  0.38149774157E+03  0.25343543460E+04  0.25054762870E+04 0.  0.
        3    1    3    3  502    0  0.81286382660E+03 -0.54605240346E+03 -0.59955788111E+03  0.11482118667E+04  0.10100000352E+00 0.  1.
       -3    1    3    3    0  502 -0.81286382660E+03  0.54605240346E+03  0.98105562268E+03  0.13861424793E+04  0.10100000352E+00 0. -1.
</event>
<event>
 5   0  0.1526824E-05  0.2493179E+04  0.7818609E-02  0.8405420E-01
        2   -1    0    0  501    0  0.00000000000E+00  0.00000000000E+00  0.97507903181E+03  0.97507903181E+03  0.25500000920E-02 0.  1.
       -2   -1    0    0    0  501  0.00000000000E+00  0.00000000000E+00 -0.15937018699E+04  0.15937018699E+04  0.25500000920E-02 0. -1.
    10030    2    1    2    0    0  0.00000000000E+00  0.00000000000E+00 -0.61862283813E+03  0.25687809018E+04  0.24931789156E+04 0.  0.
        2    1    3    3  502    0 -0.35181798710E+03  0.59918564005E+03 -0.13756768354E+04  0.15411963154E+04  0.25500000920E-02 0. -1.
       -2    1    3    3    0  502  0.35181798710E+03 -0.59918564005E+03  0.75705399725E+03  0.10275845863E+04  0.25500000920E-02 0.  1.
</event>
<event>
 5   0  0.6290861E-06  0.2451947E+04  0.7818609E-02  0.8420307E-01
       -1   -1    0    0    0  501  0.00000000000E+00  0.00000000000E+00  0.15220965478E+04  0.15220965478E+04  0.50400001928E-02 0.  1.
        1   -1    0    0  501    0  0.00000000000E+00  0.00000000000E+00 -0.98746119247E+03  0.98746119249E+03  0.50400001928E-02 0. -1.
    10030    2    1    2    0    0  0.00000000000E+00  0.00000000000E+00  0.53463535534E+03  0.25095577403E+04  0.24519472035E+04 0.  0.
        1    1    3    3  502    0 -0.11118754124E+04  0.36740101106E+03  0.63883515562E+03  0.13339268314E+04  0.50400001928E-02 0. -1.
       -1    1    3    3    0  502  0.11118754124E+04 -0.36740101106E+03 -0.10419980028E+03  0.11756309089E+04  0.50400001928E-02 0.  1.
</event>
<event>
 5   0  0.1526824E-05  0.2460834E+04  0.7818609E-02  0.8417073E-01
       -2   -1    0    0    0  501  0.00000000000E+00  0.00000000000E+00  0.93712878427E+03  0.93712878427E+03  0.25500000920E-02 0.  1.
        2   -1    0    0  501    0  0.00000000000E+00  0.00000000000E+00 -0.16154941943E+04  0.16154941943E+04  0.25500000920E-02 0. -1.
    10030    2    1    2    0    0  0.00000000000E+00  0.00000000000E+00 -0.67836541000E+03  0.25526229785E+04  0.24608340946E+04 0.  0.
        2    1    3    3  502    0 -0.96527173185E+03  0.36563994342E+03 -0.10338515608E+04  0.14609213307E+04  0.25500000920E-02 0. -1.
       -2    1    3    3    0  502  0.96527173185E+03 -0.36563994342E+03  0.35548615083E+03  0.10917016479E+04  0.25500000920E-02 0.  1.
</event>
<event>
 5   0  0.1526824E-05  0.2514761E+04  0.7818609E-02  0.8397746E-01
        2   -1    0    0  501    0  0.00000000000E+00  0.00000000000E+00  0.16766111814E+04  0.16766111814E+04  0.25500000920E-02 0. -1.
       -2   -1    0    0    0  501  0.00000000000E+00  0.00000000000E+00 -0.94297683120E+03  0.94297683120E+03  0.25500000920E-02 0.  1.
    10030    2    1    2    0    0  0.00000000000E+00  0.00000000000E+00  0.73363435019E+03  0.26195880126E+04  0.25147608228E+04 0.  0.
        2    1    3    3  502    0 -0.97751832931E+03 -0.15891957824E+03 -0.44020820311E+03  0.10837807798E+04  0.25500000920E-02 0.  1.
       -2    1    3    3    0  502  0.97751832931E+03  0.15891957824E+03  0.11738425533E+04  0.15358072328E+04  0.25500000920E-02 0. -1.
</event>
<event>
 5   0  0.6105353E-06  0.2473986E+04  0.7818609E-02  0.8412312E-01
       -1   -1    0    0    0  501  0.00000000000E+00  0.00000000000E+00  0.10523475901E+04  0.10523475901E+04  0.50400001928E-02 0. -1.
        1   -1    0    0  501    0  0.00000000000E+00  0.00000000000E+00 -0.14540359383E+04  0.14540359383E+04  0.50400001928E-02 0.  1.
    10030    2    1    2    0    0  0.00000000000E+00  0.00000000000E+00 -0.40168834822E+03  0.25063835284E+04  0.24739856229E+04 0.  0.
        3    1    3    3  502    0  0.13849218454E+03 -0.87145279743E+03  0.67742317290E+03  0.11124352694E+04  0.10100000352E+00 0. -1.
       -3    1    3    3    0  502 -0.13849218454E+03  0.87145279743E+03 -0.10791115211E+04  0.13939482589E+04  0.10100000352E+00 0.  1.
</event>
<event>
 5   0  0.6290861E-06  0.2492324E+04  0.7818609E-02  0.8405725E-01
        1   -1    0    0  501    0  0.00000000000E+00  0.00000000000E+00  0.11928462585E+04  0.11928462585E+04  0.50400001928E-02 0. -1.
       -1   -1    0    0    0  501  0.00000000000E+00  0.00000000000E+00 -0.13018607491E+04  0.13018607491E+04  0.50400001928E-02 0.  1.
    10030    2    1    2    0    0  0.00000000000E+00  0.00000000000E+00 -0.10901449059E+03  0.24947070075E+04  0.24923239947E+04 0.  0.
        1    1    3    3  502    0  0.91784965236E+03  0.81980843650E+03  0.14160319899E+03  0.12387838080E+04  0.50400001928E-02 0.  1.
       -1    1    3    3    0  502 -0.91784965236E+03 -0.81980843650E+03 -0.25061768958E+03  0.12559231996E+04  0.50400001928E-02 0. -1.
</event>
<event>
 5   0  0.6105353E-06  0.2502766E+04  0.7818609E-02  0.8402001E-01
       -1   -1    0    0    0  501  0.00000000000E+00  0.00000000000E+00  0.78857616276E+03  0.78857616278E+03  0.50400001928E-02 0.  1.
        1   -1    0    0  501    0  0.00000000000E+00  0.00000000000E+00 -0.19858058034E+04  0.19858058034E+04  0.50400001928E-02 0. -1.
    10030    2    1    2    0    0  0.00000000000E+00  0.00000000000E+00 -0.11972296406E+04  0.27743819662E+04  0.25027657665E+04 0.  0.
        3    1    3    3  502    0 -0.94318073223E+03 -0.64040546484E+03 -0.11706080677E+04  0.16340233509E+04  0.10100000352E+00 0. -1.
       -3    1    3    3    0  502  0.94318073223E+03  0.64040546484E+03 -0.26621572954E+02  0.11403586153E+04  0.10100000352E+00 0.  1.
</event>
<event>
 5   0  0.5164625E-06  0.2471242E+04  0.7818609E-02  0.8413303E-01
        3   -1    0    0  501    0  0.00000000000E+00  0.00000000000E+00  0.78736563133E+03  0.78736563781E+03  0.10100000352E+00 0. -1.
       -3   -1    0    0    0  501  0.00000000000E+00  0.00000000000E+00 -0.19390720665E+04  0.19390720691E+04  0.10100000352E+00 0.  1.
    10030    2    1    2    0    0  0.00000000000E+00  0.00000000000E+00 -0.11517064351E+04  0.27264377069E+04  0.24712415618E+04 0.  0.
        1    1    3    3  502    0 -0.69816401147E+03 -0.84292607158E+02 -0.16967525657E+04  0.18367110550E+04  0.50400001928E-02 0.  1.
       -1    1    3    3    0  502  0.69816401147E+03  0.84292607158E+02  0.54504613056E+03  0.88972665185E+03  0.50400001928E-02 0. -1.
</event>
<event>
 5   0  0.6346420E-06  0.2276921E+04  0.7818609E-02  0.8487077E-01
        1   -1    0    0  501    0  0.00000000000E+00  0.00000000000E+00  0.15139025351E+04  0.15139025351E+04  0.50400001928E-02 0.  1.
       -1   -1    0    0    0  501  0.00000000000E+00  0.00000000000E+00 -0.85612641717E+03  0.85612641719E+03  0.50400001928E-02 0. -1.
    10030    2    1    2    0    0  0.00000000000E+00  0.00000000000E+00  0.65777611792E+03  0.23700289523E+04  0.22769206867E+04 0.  0.
        4    1    3    3  502    0 -0.98418139736E+03  0.13061927434E+03 -0.25104483618E+03  0.10240603207E+04  0.12699999809E+01 0. -1.
       -4    1    3    3    0  502  0.98418139736E+03 -0.13061927434E+03  0.90882095410E+03  0.13459686316E+04  0.12699999809E+01 0.  1.
</event>
<event>
 5   0  0.6346420E-06  0.2479453E+04  0.7818609E-02  0.8410342E-01
       -1   -1    0    0    0  501  0.00000000000E+00  0.00000000000E+00  0.17563161956E+04  0.17563161956E+04  0.50400001928E-02 0. -1.
        1   -1    0    0  501    0  0.00000000000E+00  0.00000000000E+00 -0.87508251406E+03  0.87508251407E+03  0.50400001928E-02 0.  1.
    10030    2    1    2    0    0  0.00000000000E+00  0.00000000000E+00  0.88123368156E+03  0.26313987097E+04  0.24794528364E+04 0.  0.
        4    1    3    3  502    0 -0.65218490021E+03 -0.30744175235E+03  0.15109103658E+04  0.16741318113E+04  0.12699999809E+01 0. -1.
       -4    1    3    3    0  502  0.65218490021E+03  0.30744175235E+03 -0.62967668427E+03  0.95726689839E+03  0.12699999809E+01 0.  1.
</event>
<event>
 5   0  0.1572732E-05  0.2497718E+04  0.7818609E-02  0.8403799E-01
        2   -1    0    0  501    0  0.00000000000E+00  0.00000000000E+00  0.63448616812E+03  0.63448616813E+03  0.25500000920E-02 0.  1.
       -2   -1    0    0    0  501  0.00000000000E+00  0.00000000000E+00 -0.24581282725E+04  0.24581282725E+04  0.25500000920E-02 0. -1.
    10030    2    1    2    0    0  0.00000000000E+00  0.00000000000E+00 -0.18236421044E+04  0.30926144407E+04  0.24977176689E+04 0.  0.
        1    1    3    3  502    0 -0.76666728910E+03 -0.59754659809E+03  0.59028845624E+02  0.97381983637E+03  0.50400001928E-02 0.  1.
       -1    1    3    3    0  502  0.76666728910E+03  0.59754659809E+03 -0.18826709500E+04  0.21187946043E+04  0.50400001928E-02 0. -1.
</event>
<event>
 5   0  0.1501947E-05  0.2440823E+04  0.7818609E-02  0.8424376E-01
        2   -1    0    0  501    0  0.00000000000E+00  0.00000000000E+00  0.17240431397E+04  0.17240431397E+04  0.25500000920E-02 0.  1.
       -2   -1    0    0    0  501  0.00000000000E+00  0.00000000000E+00 -0.86390164735E+03  0.86390164735E+03  0.25500000920E-02 0. -1.
    10030    2    1    2    0    0  0.00000000000E+00  0.00000000000E+00  0.86014149236E+03  0.25879447871E+04  0.24408225732E+04 0.  0.
        3    1    3    3  502    0  0.11948548123E+04 -0.18411384719E+03  0.60694229350E+03  0.13527582523E+04  0.10100000352E+00 0.  1.
       -3    1    3    3    0  502 -0.11948548123E+04  0.18411384719E+03  0.25319919886E+03  0.12351865348E+04  0.10100000352E+00 0. -1.
</event>
<event>
 5   0  0.5164625E-06  0.2369595E+04  0.7818609E-02  0.8450975E-01
        3   -1    0    0  501    0  0.00000000000E+00  0.00000000000E+00  0.13557274580E+04  0.13557274618E+04  0.10100000352E+00 0. -1.
       -3   -1    0    0    0  501  0.00000000000E+00  0.00000000000E+00 -0.10354187924E+04  0.10354187973E+04  0.10100000352E+00 0.  1.
    10030    2    1    2    0    0  0.00000000000E+00  0.00000000000E+00  0.32030866562E+03  0.23911462591E+04  0.23695954910E+04 0.  0.
        2    1    3    3  502    0  0.91966648563E+02  0.30003765081E+03 -0.99271825556E+03  0.10411387954E+04  0.25500000920E-02 0.  1.
       -2    1    3    3    0  502 -0.91966648563E+02 -0.30003765081E+03  0.13130269212E+04  0.13500074637E+04  0.25500000920E-02 0. -1.
</event>
<event>
 5   0  0.1526824E-05  0.2571217E+04  0.7818609E-02  0.8378044E-01
       -2   -1    0    0    0  501  0.00000000000E+00  0.00000000000E+00  0.10242512837E+04  0.10242512838E+04  0.25500000920E-02 0. -1.
        2   -1    0    0  501    0  0.00000000000E+00  0.00000000000E+00 -0.16136558838E+04  0.16136558838E+04  0.25500000920E-02 0.  1.
    10030    2    1    2    0    0  0.00000000000E+00  0.00000000000E+00 -0.58940460008E+03  0.26379071676E+04  0.25712169185E+04 0.  0.
        2    1    3    3  502    0 -0.64967611807E+03 -0.96720306344E+03  0.26273981089E+03  0.11944007002E+04  0.25500000920E-02 0. -1.
       -2    1    3    3    0  502  0.64967611807E+03  0.96720306344E+03 -0.85214441097E+03  0.14435064674E+04  0.25500000920E-02 0.  1.
</event>
<event>
 5   0  0.1468512E-05  0.2480644E+04  0.7818609E-02  0.8409914E-01
       -2   -1    0    0    0  501  0.00000000000E+00  0.00000000000E+00  0.28022762247E+04  0.28022762247E+04  0.25500000920E-02 0. -1.
        2   -1    0    0  501    0  0.00000000000E+00  0.00000000000E+00 -0.54898165053E+03  0.54898165053E+03  0.25500000920E-02 0.  1.
    10030    2    1    2    0    0  0.00000000000E+00  0.00000000000E+00  0.22532945742E+04  0.33512578753E+04  0.24806436480E+04 0.  0.
        4    1    3    3  502    0  0.82047729474E+03  0.45782630119E+03  0.32777012172E+02  0.94014033988E+03  0.12699999809E+01 0.  1.
       -4    1    3    3    0  502 -0.82047729474E+03 -0.45782630119E+03  0.22205175620E+04  0.24111175354E+04  0.12699999809E+01 0. -1.
</event>
<event>
 5   0  0.6346420E-06  0.2339530E+04  0.7818609E-02  0.8462496E-01
       -1   -1    0    0    0  501  0.00000000000E+00  0.00000000000E+00  0.90139145169E+03  0.90139145170E+03  0.50400001928E-02 0. -1.
        1   -1    0    0  501    0  0.00000000000E+00  0.00000000000E+00 -0.15180424986E+04  0.15180424986E+04  0.50400001928E-02 0.  1.
    10030    2    1    2    0    0  0.00000000000E+00  0.00000000000E+00 -0.61665104693E+03  0.24194339503E+04  0.23395303217E+04 0.  0.
        4    1    3    3  502    0 -0.95685564564E+03 -0.40596157530E+03  0.24663202717E+03  0.10682726698E+04  0.12699999809E+01 0. -1.
       -4    1    3    3    0  502  0.95685564564E+03  0.40596157530E+03 -0.86328307409E+03  0.13511612806E+04  0.12699999809E+01 0.  1.
</event>
<event>
 5   0  0.1550483E-05  0.2519177E+04  0.7818609E-02  0.8396185E-01
       -2   -1    0    0    0  501  0.00000000000E+00  0.00000000000E+00  0.11960041845E+04  0.11960041846E+04  0.25500000920E-02 0. -1.
        2   -1    0    0  501    0  0.00000000000E+00  0.00000000000E+00 -0.13265528031E+04  0.13265528031E+04  0.25500000920E-02 0.  1.
    10030    2    1    2    0    0  0.00000000000E+00  0.00000000000E+00 -0.13054861852E+03  0.25225569876E+04  0.25191766143E+04 0.  0.
        5    1    3    3  502    0  0.66656190493E+03 -0.79145927803E+03 -0.78444975015E+03  0.12984976174E+04  0.46999998093E+01 0.  1.
       -5    1    3    3    0  502 -0.66656190493E+03  0.79145927803E+03  0.65390113163E+03  0.12240593702E+04  0.46999998093E+01 0. -1.
</event>
<event>
 5   0  0.1501947E-05  0.2510880E+04  0.7818609E-02  0.8399120E-01
       -2   -1    0    0    0  501  0.00000000000E+00  0.00000000000E+00  0.12796964394E+04  0.12796964394E+04  0.25500000920E-02 0.  1.
        2   -1    0    0  501    0  0.00000000000E+00  0.00000000000E+00 -0.12316434610E+04  0.12316434610E+04  0.25500000920E-02 0. -1.
    10030    2    1    2    0    0  0.00000000000E+00  0.00000000000E+00  0.48052978408E+02  0.25113399004E+04  0.25108801259E+04 0.  0.
        3    1    3    3  502    0  0.33308752444E+03 -0.27032968738E+02 -0.11863404098E+04  0.12325103076E+04  0.10100000352E+00 0. -1.
       -3    1    3    3    0  502 -0.33308752444E+03  0.27032968738E+02  0.12343933882E+04  0.12788295928E+04  0.10100000352E+00 0.  1.
</event>
<event>
 5   0  0.6346420E-06  0.2476299E+04  0.7818609E-02  0.8411478E-01
        1   -1    0    0  501    0  0.00000000000E+00  0.00000000000E+00  0.14937868716E+04  0.14937868716E+04  0.50400001928E-02 0. -1.
       -1   -1    0    0    0  501  0.00000000000E+00  0.00000000000E+00 -0.10262604656E+04  0.10262604656E+04  0.50400001928E-02 0.  1.
    10030    2    1    2    0    0  0.00000000000E+00  0.00000000000E+00  0.46752640593E+03  0.25200473372E+04  0.24762991826E+04 0.  0.
        4    1    3    3  502    0 -0.36236167705E+03  0.11684011718E+04  0.39217060703E+02  0.12239309106E+04  0.12699999809E+01 0.  1.
       -4    1    3    3    0  502  0.36236167705E+03 -0.11684011718E+04  0.42830934522E+03  0.12961164266E+04  0.12699999809E+01 0. -1.
</event>
<event>
 5   0  0.6105353E-06  0.2488720E+04  0.7818609E-02  0.8407015E-01
        1   -1    0    0  501    0  0.00000000000E+00  0.00000000000E+00  0.14866736466E+04  0.14866736467E+04  0.50400001928E-02 0. -1.
       -1   -1    0    0    0  501  0.00000000000E+00  0.00000000000E+00 -0.10415410267E+04  0.10415410267E+04  0.50400001928E-02 0.  1.
    10030    2    1    2    0    0  0.00000000000E+00  0.00000000000E+00  0.44513261997E+03  0.25282146733E+04  0.24887198286E+04 0.  0.
        3    1    3    3  502    0 -0.34684852472E+03  0.11151364349E+04 -0.21390120659E+03  0.11872602512E+04  0.10100000352E+00 0.  1.
       -3    1    3    3    0  502  0.34684852472E+03 -0.11151364349E+04  0.65903382656E+03  0.13409544222E+04  0.10100000352E+00 0. -1.
</event>
<event>
 5   0  0.1468512E-05  0.2512277E+04  0.7818609E-02  0.8398625E-01
        2   -1    0    0  501    0  0.00000000000E+00  0.00000000000E+00  0.14361694462E+04  0.14361694462E+04  0.25500000920E-02 0. -1.
       -2   -1    0    0    0  501  0.00000000000E+00  0.00000000000E+00 -0.10986749431E+04  0.10986749431E+04  0.25500000920E-02 0.  1.
    10030    2    1    2    0    0  0.00000000000E+00  0.00000000000E+00  0.33749450314E+03  0.25348443893E+04  0.25122765649E+04 0.  0.
        4    1    3    3  502    0  0.11567904823E+03  0.92012991905E+03 -0.68613057953E+03  0.11536019657E+04  0.12699999809E+01 0.  1.
       -4    1    3    3    0  502 -0.11567904823E+03 -0.92012991905E+03  0.10236250827E+04  0.13812424237E+04  0.12699999809E+01 0. -1.
</event>
<event>
 5   0  0.1501947E-05  0.2494923E+04  0.7818609E-02  0.8404796E-01
       -2   -1    0    0    0  501  0.00000000000E+00  0.00000000000E+00  0.83707950541E+03  0.83707950542E+03  0.25500000920E-02 0. -1.
        2   -1    0    0  501    0  0.00000000000E+00  0.00000000000E+00 -0.18590355144E+04  0.18590355144E+04  0.25500000920E-02 0.  1.
    10030    2    1    2    0    0  0.00000000000E+00  0.00000000000E+00 -0.10219560090E+04  0.26961150198E+04  0.24949232685E+04 0.  0.
        3    1    3    3  502    0 -0.60784035778E+03  0.10883131232E+04 -0.45954628429E+03  0.13285624382E+04  0.10100000352E+00 0.  1.
       -3    1    3    3    0  502  0.60784035778E+03 -0.10883131232E+04 -0.56240972470E+03  0.13675525816E+04  0.10100000352E+00 0. -1.
</event>
<event>
 5   0  0.1526824E-05  0.2490293E+04  0.7818609E-02  0.8406452E-01
       -2   -1    0    0    0  501  0.00000000000E+00  0.00000000000E+00  0.11265535793E+04  0.11265535793E+04  0.25500000920E-02 0.  1.
        2   -1    0    0  501    0  0.00000000000E+00  0.00000000000E+00 -0.13762235230E+04  0.13762235230E+04  0.25500000920E-02 0. -1.
    10030    2    1    2    0    0  0.00000000000E+00  0.00000000000E+00 -0.24966994369E+03  0.25027771023E+04  0.24902927826E+04 0.  0.
        2    1    3    3  502    0  0.93870845913E+03 -0.17569263229E+03  0.67813727631E+03  0.11712863176E+04  0.25500000920E-02 0.  1.
       -2    1    3    3    0  502 -0.93870845913E+03  0.17569263229E+03 -0.92780722000E+03  0.13314907847E+04  0.25500000920E-02 0. -1.
</event>
<event>
 5   0  0.1526824E-05  0.2445947E+04  0.7818609E-02  0.8422499E-01
       -2   -1    0    0    0  501  0.00000000000E+00  0.00000000000E+00  0.20370553061E+04  0.20370553061E+04  0.25500000920E-02 0.  1.
        2   -1    0    0  501    0  0.00000000000E+00  0.00000000000E+00 -0.73422857491E+03  0.73422857491E+03  0.25500000920E-02 0. -1.
    10030    2    1    2    0    0  0.00000000000E+00  0.00000000000E+00  0.13028267312E+04  0.27712838810E+04  0.24459470268E+04 0.  0.
        2    1    3    3  502    0 -0.39935251420E+02  0.79435671719E+03 -0.40116920171E+03  0.89080533612E+03  0.25500000920E-02 0.  1.
       -2    1    3    3    0  502  0.39935251420E+02 -0.79435671719E+03  0.17039959329E+04  0.18804785449E+04  0.25500000920E-02 0. -1.
</event>
<event>
 5   0  0.1468512E-05  0.2496077E+04  0.7818609E-02  0.8404384E-01
        2   -1    0    0  501    0  0.00000000000E+00  0.00000000000E+00  0.19753177926E+04  0.19753177926E+04  0.25500000920E-02 0. -1.
       -2   -1    0    0    0  501  0.00000000000E+00  0.00000000000E+00 -0.78853132061E+03  0.78853132061E+03  0.25500000920E-02 0.  1.
    10030    2    1    2    0    0  0.00000000000E+00  0.00000000000E+00  0.11867864720E+04  0.27638491132E+04  0.24960768799E+04 0.  0.
        4    1    3    3  502    0 -0.91957241665E+02  0.12446435116E+04  0.59580128666E+03  0.13829585645E+04  0.12699999809E+01 0.  1.
       -4    1    3    3    0  502  0.91957241665E+02 -0.12446435116E+04  0.59098518530E+03  0.13808905486E+04  0.12699999809E+01 0. -1.
</event>
<event>
 5   0  0.1550483E-05  0.2473344E+04  0.7818609E-02  0.8412544E-01
       -2   -1    0    0    0  501  0.00000000000E+00  0.00000000000E+00  0.12641393149E+04  0.12641393149E+04  0.25500000920E-02 0.  1.
        2   -1    0    0  501    0  0.00000000000E+00  0.00000000000E+00 -0.12098013793E+04  0.12098013793E+04  0.25500000920E-02 0. -1.
    10030    2    1    2    0    0  0.00000000000E+00  0.00000000000E+00  0.54337935615E+02  0.24739406942E+04  0.24733438797E+04 0.  0.
        5    1    3    3  502    0 -0.21746222955E+03  0.25544707014E+03 -0.11634091239E+04  0.12108203445E+04  0.46999998093E+01 0. -1.
       -5    1    3    3    0  502  0.21746222955E+03 -0.25544707014E+03  0.12177470595E+04  0.12631203497E+04  0.46999998093E+01 0.  1.
</event>
<event>
 5   0  0.1550483E-05  0.2498314E+04  0.7818609E-02  0.8403586E-01
       -2   -1    0    0    0  501  0.00000000000E+00  0.00000000000E+00  0.10871100053E+04  0.10871100053E+04  0.25500000920E-02 0.  1.
        2   -1    0    0  501    0  0.00000000000E+00  0.00000000000E+00 -0.14353589875E+04  0.14353589875E+04  0.25500000920E-02 0. -1.
    10030    2    1    2    0    0  0.00000000000E+00  0.00000000000E+00 -0.34824898222E+03  0.25224689928E+04  0.24983139246E+04 0.  0.
        5    1    3    3  502    0 -0.85156517019E+02 -0.87154577532E+03  0.72528979048E+03  0.11370624614E+04  0.46999998093E+01 0.  1.
       -5    1    3    3    0  502  0.85156517019E+02  0.87154577532E+03 -0.10735387727E+04  0.13854065314E+04  0.46999998093E+01 0. -1.
</event>
<event>
 5   0  0.1501947E-05  0.2495111E+04  0.7818609E-02  0.8404729E-01
        2   -1    0    0  501    0  0.00000000000E+00  0.00000000000E+00  0.96117634856E+03  0.96117634856E+03  0.25500000920E-02 0.  1.
       -2   -1    0    0    0  501  0.00000000000E+00  0.00000000000E+00 -0.16192601267E+04  0.16192601267E+04  0.25500000920E-02 0. -1.
    10030    2    1    2    0    0  0.00000000000E+00  0.00000000000E+00 -0.65808377816E+03  0.25804364753E+04  0.24951108480E+04 0.  0.
        3    1    3    3  502    0  0.85928304936E+03  0.74397816010E+03 -0.86094875060E+03  0.14258694270E+04  0.10100000352E+00 0. -1.
       -3    1    3    3    0  502 -0.85928304936E+03 -0.74397816010E+03  0.20286497245E+03  0.11545670482E+04  0.10100000352E+00 0.  1.
</event>
<event>
 5   0  0.6290861E-06  0.2493149E+04  0.7818609E-02  0.8405430E-01
       -1   -1    0    0    0  501  0.00000000000E+00  0.00000000000E+00  0.14253895012E+04  0.14253895012E+04  0.50400001928E-02 0.  1.
        1   -1    0    0  501    0  0.00000000000E+00  0.00000000000E+00 -0.10901915410E+04  0.10901915410E+04  0.50400001928E-02 0. -1.
    10030    2    1    2    0    0  0.00000000000E+00  0.00000000000E+00  0.33519796020E+03  0.25155810422E+04  0.24931486733E+04 0.  0.
        1    1    3    3  502    0 -0.64684146575E+03 -0.68763506511E+03  0.98898854662E+03  0.13672396315E+04  0.50400001928E-02 0.  1.
       -1    1    3    3    0  502  0.64684146575E+03  0.68763506511E+03 -0.65379058642E+03  0.11483414107E+04  0.50400001928E-02 0. -1.
</event>
<event>
 5   0  0.6290861E-06  0.2491288E+04  0.7818609E-02  0.8406096E-01
        1   -1    0    0  501    0  0.00000000000E+00  0.00000000000E+00  0.13279965977E+04  0.13279965977E+04  0.50400001928E-02 0.  1.
       -1   -1    0    0    0  501  0.00000000000E+00  0.00000000000E+00 -0.11683981280E+04  0.11683981280E+04  0.50400001928E-02 0. -1.
    10030    2    1    2    0    0  0.00000000000E+00  0.00000000000E+00  0.15959846967E+03  0.24963947257E+04  0.24912878106E+04 0.  0.
        1    1    3    3  502    0  0.56762440691E+02 -0.54217429596E+03  0.12021191992E+04  0.13199490562E+04  0.50400001928E-02 0.  1.
       -1    1    3    3    0  502 -0.56762440691E+02  0.54217429596E+03 -0.10425207295E+04  0.11764456695E+04  0.50400001928E-02 0. -1.
</event>
<event>
 5   0  0.1526824E-05  0.2492849E+04  0.7818609E-02  0.8405537E-01
        2   -1    0    0  501    0  0.00000000000E+00  0.00000000000E+00  0.18739228922E+04  0.18739228922E+04  0.25500000920E-02 0. -1.
       -2   -1    0    0    0  501  0.00000000000E+00  0.00000000000E+00 -0.82904932645E+03  0.82904932645E+03  0.25500000920E-02 0.  1.
    10030    2    1    2    0    0  0.00000000000E+00  0.00000000000E+00  0.10448735657E+04  0.27029722186E+04  0.24928493830E+04 0.  0.
        2    1    3    3  502    0  0.97773422368E+03  0.17445452644E+03 -0.29415392518E+03  0.10358209911E+04  0.25500000920E-02 0.  1.
       -2    1    3    3    0  502 -0.97773422368E+03 -0.17445452644E+03  0.13390274909E+04  0.16671512275E+04  0.25500000920E-02 0. -1.
</event>
<event>
 5   0  0.1468512E-05  0.2488989E+04  0.7818609E-02  0.8406919E-01
        2   -1    0    0  501    0  0.00000000000E+00  0.00000000000E+00  0.12061882386E+04  0.12061882386E+04  0.25500000920E-02 0.  1.
       -2   -1    0    0    0  501  0.00000000000E+00  0.00000000000E+00 -0.12840173216E+04  0.12840173216E+04  0.25500000920E-02 0. -1.
    10030    2    1    2    0    0  0.00000000000E+00  0.00000000000E+00 -0.77829083034E+02  0.24902055602E+04  0.24889890249E+04 0.  0.
        4    1    3    3  502    0 -0.32992148674E+03  0.10070885038E+04 -0.69168231362E+03  0.12655044361E+04  0.12699999809E+01 0. -1.
       -4    1    3    3    0  502  0.32992148674E+03 -0.10070885038E+04  0.61385323059E+03  0.12247011242E+04  0.12699999809E+01 0.  1.
</event>
<event>
 5   0  0.6477703E-06  0.2495594E+04  0.7818609E-02  0.8404557E-01
        1   -1    0    0  501    0  0.00000000000E+00  0.00000000000E+00  0.12425799724E+04  0.12425799724E+04  0.50400001928E-02 0. -1.
       -1   -1    0    0    0  501  0.00000000000E+00  0.00000000000E+00 -0.12530358224E+04  0.12530358224E+04  0.50400001928E-02 0.  1.
    10030    2    1    2    0    0  0.00000000000E+00  0.00000000000E+00 -0.10455849965E+02  0.24956157949E+04  0.24955938914E+04 0.  0.
        5    1    3    3  502    0 -0.59928283419E+03  0.10487366206E+02  0.10891880161E+04  0.12432226368E+04  0.46999998093E+01 0. -1.
       -5    1    3    3    0  502  0.59928283419E+03 -0.10487366206E+02 -0.10996438661E+04  0.12523931581E+04  0.46999998093E+01 0.  1.
</event>
<event>
 5   0  0.1468512E-05  0.2538887E+04  0.7818609E-02  0.8389261E-01
        2   -1    0    0  501    0  0.00000000000E+00  0.00000000000E+00  0.16250585065E+04  0.16250585065E+04  0.25500000920E-02 0. -1.
       -2   -1    0    0    0  501  0.00000000000E+00  0.00000000000E+00 -0.99164856759E+03  0.99164856759E+03  0.25500000920E-02 0.  1.
    10030    2    1    2    0    0  0.00000000000E+00  0.00000000000E+00  0.63340993889E+03  0.26167070741E+04  0.25388871107E+04 0.  0.
        4    1    3    3  502    0  0.10396682517E+04  0.25397773448E+03 -0.38691402542E+03  0.11380328814E+04  0.12699999809E+01 0.  1.
       -4    1    3    3    0  502 -0.10396682517E+04 -0.25397773448E+03  0.10203239643E+04  0.14786741927E+04  0.12699999809E+01 0. -1.
</event>
<event>
 5   0  0.6477703E-06  0.2488536E+04  0.7818609E-02  0.8407081E-01
        1   -1    0    0  501    0  0.00000000000E+00  0.00000000000E+00  0.15640549656E+04  0.15640549656E+04  0.50400001928E-02 0. -1.
       -1   -1    0    0    0  501  0.00000000000E+00  0.00000000000E+00 -0.98986441404E+03  0.98986441405E+03  0.50400001928E-02 0.  1.
    10030    2    1    2    0    0  0.00000000000E+00  0.00000000000E+00  0.57419055157E+03  0.25539193797E+04  0.24885355951E+04 0.  0.
        5    1    3    3  502    0 -0.10481007589E+04  0.13118046626E+03 -0.38779732205E+03  0.11252254745E+04  0.46999998093E+01 0.  1.
       -5    1    3    3    0  502  0.10481007589E+04 -0.13118046626E+03  0.96198787362E+03  0.14286939051E+04  0.46999998093E+01 0. -1.
</event>
<event>
 5   0  0.6346420E-06  0.2508816E+04  0.7818609E-02  0.8399851E-01
        1   -1    0    0  501    0  0.00000000000E+00  0.00000000000E+00  0.10218689942E+04  0.10218689942E+04  0.50400001928E-02 0.  1.
       -1   -1    0    0    0  501  0.00000000000E+00  0.00000000000E+00 -0.15398642422E+04  0.15398642422E+04  0.50400001928E-02 0. -1.
    10030    2    1    2    0    0  0.00000000000E+00  0.00000000000E+00 -0.51799524802E+03  0.25617332365E+04  0.25088160749E+04 0.  0.
        4    1    3    3  502    0 -0.10746876975E+04  0.13750313717E+03  0.38653729580E+03  0.11503362351E+04  0.12699999809E+01 0.  1.
       -4    1    3    3    0  502  0.10746876975E+04 -0.13750313717E+03 -0.90453254381E+03  0.14113970014E+04  0.12699999809E+01 0. -1.
</event>
<event>
 5   0  0.6290861E-06  0.2518965E+04  0.7818609E-02  0.8396260E-01
       -1   -1    0    0    0  501  0.00000000000E+00  0.00000000000E+00  0.17519725405E+04  0.17519725405E+04  0.50400001928E-02 0. -1.
        1   -1    0    0  501    0  0.00000000000E+00  0.00000000000E+00 -0.90543435941E+03  0.90543435943E+03  0.50400001928E-02 0.  1.
    10030    2    1    2    0    0  0.00000000000E+00  0.00000000000E+00  0.84653818111E+03  0.26574069000E+04  0.25189649739E+04 0.  0.
        1    1    3    3  502    0  0.10755514183E+04 -0.55909246069E+03  0.62570155013E+02  0.12137999247E+04  0.50400001928E-02 0.  1.
       -1    1    3    3    0  502 -0.10755514183E+04  0.55909246069E+03  0.78396802610E+03  0.14436069752E+04  0.50400001928E-02 0. -1.
</event>
<event>
 5   0  0.6290861E-06  0.2470358E+04  0.7818609E-02  0.8413622E-01
       -1   -1    0    0    0  501  0.00000000000E+00  0.00000000000E+00  0.13713104776E+04  0.13713104776E+04  0.50400001928E-02 0. -1.
        1   -1    0    0  501    0  0.00000000000E+00  0.00000000000E+00 -0.11125612891E+04  0.11125612891E+04  0.50400001928E-02 0.  1.
    10030    2    1    2    0    0  0.00000000000E+00  0.00000000000E+00  0.25874918848E+03  0.24838717667E+04  0.24703578305E+04 0.  0.
        1    1    3    3  502    0  0.44551143075E+03  0.61581206461E+03 -0.84958501662E+03  0.11399559791E+04  0.50400001928E-02 0.  1.
       -1    1    3    3    0  502 -0.44551143075E+03 -0.61581206461E+03  0.11083342051E+04  0.13439157876E+04  0.50400001928E-02 0. -1.
</event>
<event>
 5   0  0.6290861E-06  0.2551494E+04  0.7818609E-02  0.8384867E-01
        1   -1    0    0  501    0  0.00000000000E+00  0.00000000000E+00  0.16860839541E+04  0.16860839541E+04  0.50400001928E-02 0.  1.
       -1   -1    0    0    0  501  0.00000000000E+00  0.00000000000E+00 -0.96527214353E+03  0.96527214354E+03  0.50400001928E-02 0. -1.
    10030    2    1    2    0    0  0.00000000000E+00  0.00000000000E+00  0.72081181060E+03  0.26513560977E+04  0.25514935803E+04 0.  0.
        1    1    3    3  502    0  0.10905855657E+04  0.64817864520E+03  0.49988853527E+03  0.13635985406E+04  0.50400001928E-02 0. -1.
       -1    1    3    3    0  502 -0.10905855657E+04 -0.64817864520E+03  0.22092327533E+03  0.12877575571E+04  0.50400001928E-02 0.  1.
</event>
<event>
 5   0  0.6104486E-06  0.2427880E+04  0.7818609E-02  0.8429139E-01
        1   -1    0    0  501    0  0.00000000000E+00  0.00000000000E+00  0.12906527251E+04  0.12906527251E+04  0.50400001928E-02 0. -1.
       -1   -1    0    0    0  501  0.00000000000E+00  0.00000000000E+00 -0.11417864522E+04  0.11417864522E+04  0.50400001928E-02 0.  1.
    10030    2    1    2    0    0  0.00000000000E+00  0.00000000000E+00  0.14886627286E+03  0.24324391773E+04  0.24278795654E+04 0.  0.
        2    1    3    3  502    0  0.53292608325E+03 -0.83460277191E+03  0.77794686067E+03  0.12592749164E+04  0.25500000920E-02 0. -1.
       -2    1    3    3    0  502 -0.53292608325E+03  0.83460277191E+03 -0.62908058781E+03  0.11731642609E+04  0.25500000920E-02 0.  1.
</event>
<event>
 5   0  0.6477703E-06  0.2498106E+04  0.7818609E-02  0.8403661E-01
       -1   -1    0    0    0  501  0.00000000000E+00  0.00000000000E+00  0.99187309336E+03  0.99187309337E+03  0.50400001928E-02 0. -1.
        1   -1    0    0  501    0  0.00000000000E+00  0.00000000000E+00 -0.15729165773E+04  0.15729165773E+04  0.50400001928E-02 0.  1.
    10030    2    1    2    0    0  0.00000000000E+00  0.00000000000E+00 -0.58104348398E+03  0.25647896707E+04  0.24981061876E+04 0.  0.
        5    1    3    3  502    0  0.57831413263E+03  0.10628575391E+04 -0.60862806950E+03  0.13544606312E+04  0.46999998093E+01 0.  1.
       -5    1    3    3    0  502 -0.57831413263E+03 -0.10628575391E+04  0.27584585522E+02  0.12103290395E+04  0.46999998093E+01 0. -1.
</event>
<event>
 5   0  0.1501947E-05  0.2499285E+04  0.7818609E-02  0.8403240E-01
        2   -1    0    0  501    0  0.00000000000E+00  0.00000000000E+00  0.22976306972E+04  0.22976306972E+04  0.25500000920E-02 0.  1.
       -2   -1    0    0    0  501  0.00000000000E+00  0.00000000000E+00 -0.67965943522E+03  0.67965943522E+03  0.25500000920E-02 0. -1.
    10030    2    1    2    0    0  0.00000000000E+00  0.00000000000E+00  0.16179712619E+04  0.29772901324E+04  0.24992850033E+04 0.  0.
        3    1    3    3  502    0 -0.92150695809E+03 -0.32198422577E+03 -0.12046755755E+03  0.98354530047E+03  0.10100000352E+00 0. -1.
       -3    1    3    3    0  502  0.92150695809E+03  0.32198422577E+03  0.17384388195E+04  0.19937448319E+04  0.10100000352E+00 0.  1.
</event>
<event>
 5   0  0.6105353E-06  0.2519139E+04  0.7818609E-02  0.8396199E-01
       -1   -1    0    0    0  501  0.00000000000E+00  0.00000000000E+00  0.10792186279E+04  0.10792186279E+04  0.50400001928E-02 0. -1.
        1   -1    0    0  501    0  0.00000000000E+00  0.00000000000E+00 -0.14700594804E+04  0.14700594804E+04  0.50400001928E-02 0.  1.
    10030    2    1    2    0    0  0.00000000000E+00  0.00000000000E+00 -0.39084085247E+03  0.25492781083E+04  0.25191391985E+04 0.  0.
        3    1    3    3  502    0 -0.42275916211E+03  0.11806928668E+04 -0.31410361284E+03  0.12928348868E+04  0.10100000352E+00 0.  1.
       -3    1    3    3    0  502  0.42275916211E+03 -0.11806928668E+04 -0.76737239628E+02  0.12564432215E+04  0.10100000352E+00 0. -1.
</event>
<event>
 5   0  0.6104486E-06  0.2499811E+04  0.7818609E-02  0.8403053E-01
       -1   -1    0    0    0  501  0.00000000000E+00  0.00000000000E+00  0.16488825105E+04  0.16488825105E+04  0.50400001928E-02 0.  1.
        1   -1    0    0  501    0  0.00000000000E+00  0.00000000000E+00 -0.94746851673E+03  0.94746851675E+03  0.50400001928E-02 0. -1.
    10030    2    1    2    0    0  0.00000000000E+00  0.00000000000E+00  0.70141399377E+03  0.25963510273E+04  0.24998114061E+04 0.  0.
        2    1    3    3  502    0  0.79104782102E+03 -0.62357406453E+03  0.11193290890E+04  0.15058216623E+04  0.25500000920E-02 0. -1.
       -2    1    3    3    0  502 -0.79104782102E+03  0.62357406453E+03 -0.41791509521E+03  0.10905293650E+04  0.25500000920E-02 0.  1.
</event>
<event>
 5   0  0.1550483E-05  0.2508245E+04  0.7818609E-02  0.8400054E-01
       -2   -1    0    0    0  501  0.00000000000E+00  0.00000000000E+00  0.11446975535E+04  0.11446975535E+04  0.25500000920E-02 0.  1.
        2   -1    0    0  501    0  0.00000000000E+00  0.00000000000E+00 -0.13740076038E+04  0.13740076039E+04  0.25500000920E-02 0. -1.
    10030    2    1    2    0    0  0.00000000000E+00  0.00000000000E+00 -0.22931005039E+03  0.25187051573E+04  0.25082449183E+04 0.  0.
        5    1    3    3  502    0  0.47021810510E+03 -0.10582915364E+04  0.36872029660E+03  0.12153447205E+04  0.46999998093E+01 0.  1.
       -5    1    3    3    0  502 -0.47021810510E+03  0.10582915364E+04 -0.59803034699E+03  0.13033604369E+04  0.46999998093E+01 0. -1.
</event>
<event>
 5   0  0.1501947E-05  0.2487837E+04  0.7818609E-02  0.8407332E-01
        2   -1    0    0  501    0  0.00000000000E+00  0.00000000000E+00  0.17287465336E+04  0.17287465336E+04  0.25500000920E-02 0.  1.
       -2   -1    0    0    0  501  0.00000000000E+00  0.00000000000E+00 -0.89506069247E+03  0.89506069248E+03  0.25500000920E-02 0. -1.
    10030    2    1    2    0    0  0.00000000000E+00  0.00000000000E+00  0.83368584115E+03  0.26238072261E+04  0.24878368672E+04 0.  0.
        3    1    3    3  502    0  0.42029148740E+03  0.34487465433E+03 -0.76312107200E+03  0.93698305338E+03  0.10100000352E+00 0. -1.
       -3    1    3    3    0  502 -0.42029148740E+03 -0.34487465433E+03  0.15968069132E+04  0.16868241727E+04  0.10100000352E+00 0.  1.
</event>
<event>
 5   0  0.6290861E-06  0.2465693E+04  0.7818609E-02  0.8415310E-01
        1   -1    0    0  501    0  0.00000000000E+00  0.00000000000E+00  0.16132056170E+04  0.16132056170E+04  0.50400001928E-02 0.  1.
       -1   -1    0    0    0  501  0.00000000000E+00  0.00000000000E+00 -0.94216806900E+03  0.94216806901E+03  0.50400001928E-02 0. -1.
    10030    2    1    2    0    0  0.00000000000E+00  0.00000000000E+00  0.67103754803E+03  0.25553736861E+04  0.24656932665E+04 0.  0.
        1    1    3    3  502    0 -0.68977660323E+03  0.88087968798E+03 -0.20116750566E+03  0.11367537783E+04  0.50400001928E-02 0. -1.
       -1    1    3    3    0  502  0.68977660323E+03 -0.88087968798E+03  0.87220505369E+03  0.14186199078E+04  0.50400001928E-02 0.  1.
</event>
<event>
 5   0  0.1468512E-05  0.2500288E+04  0.7818609E-02  0.8402883E-01
        2   -1    0    0  501    0  0.00000000000E+00  0.00000000000E+00  0.14181432372E+04  0.14181432372E+04  0.25500000920E-02 0. -1.
       -2   -1    0    0    0  501  0.00000000000E+00  0.00000000000E+00 -0.11020466404E+04  0.11020466404E+04  0.25500000920E-02 0.  1.
    10030    2    1    2    0    0  0.00000000000E+00  0.00000000000E+00  0.31609659682E+03  0.25201898777E+04  0.25002879756E+04 0.  0.
        4    1    3    3  502    0 -0.11010479364E+03 -0.24318819505E+03  0.13890783726E+04  0.14144977560E+04  0.12699999809E+01 0. -1.
       -4    1    3    3    0  502  0.11010479364E+03  0.24318819505E+03 -0.10729817758E+04  0.11056921216E+04  0.12699999809E+01 0.  1.
</event>
<event>
 5   0  0.1572732E-05  0.2486384E+04  0.7818609E-02  0.8407853E-01
       -2   -1    0    0    0  501  0.00000000000E+00  0.00000000000E+00  0.65052756535E+03  0.65052756536E+03  0.25500000920E-02 0. -1.
        2   -1    0    0  501    0  0.00000000000E+00  0.00000000000E+00 -0.23758038976E+04  0.23758038976E+04  0.25500000920E-02 0.  1.
    10030    2    1    2    0    0  0.00000000000E+00  0.00000000000E+00 -0.17252763322E+04  0.30263314630E+04  0.24863836593E+04 0.  0.
        1    1    3    3  502    0 -0.24475572508E+03 -0.11697421390E+04 -0.12795474578E+04  0.17508408647E+04  0.50400001928E-02 0.  1.
       -1    1    3    3    0  502  0.24475572508E+03  0.11697421390E+04 -0.44572887449E+03  0.12754905983E+04  0.50400001928E-02 0. -1.
</event>
<event>
 5   0  0.1501947E-05  0.2353524E+04  0.7818609E-02  0.8457111E-01
       -2   -1    0    0    0  501  0.00000000000E+00  0.00000000000E+00  0.20267872407E+04  0.20267872407E+04  0.25500000920E-02 0.  1.
        2   -1    0    0  501    0  0.00000000000E+00  0.00000000000E+00 -0.68323344377E+03  0.68323344378E+03  0.25500000920E-02 0. -1.
    10030    2    1    2    0    0  0.00000000000E+00  0.00000000000E+00  0.13435537969E+04  0.27100206845E+04  0.23535240184E+04 0.  0.
        3    1    3    3  502    0  0.81598568136E+03 -0.56606508808E+03  0.13986718886E+04  0.17153849068E+04  0.10100000352E+00 0.  1.
       -3    1    3    3    0  502 -0.81598568136E+03  0.56606508808E+03 -0.55118091669E+02  0.99463577774E+03  0.10100000352E+00 0. -1.
</event>
<event>
 5   0  0.6477703E-06  0.2527237E+04  0.7818609E-02  0.8393346E-01
       -1   -1    0    0    0  501  0.00000000000E+00  0.00000000000E+00  0.12569270566E+04  0.12569270566E+04  0.50400001928E-02 0. -1.
        1   -1    0    0  501    0  0.00000000000E+00  0.00000000000E+00 -0.12703454272E+04  0.12703454272E+04  0.50400001928E-02 0.  1.
    10030    2    1    2    0    0  0.00000000000E+00  0.00000000000E+00 -0.13418370618E+02  0.25272724838E+04  0.25272368616E+04 0.  0.
        5    1    3    3  502    0  0.64956528475E+03 -0.45644174897E+03 -0.98979746412E+03  0.12688558781E+04  0.46999998093E+01 0.  1.
       -5    1    3    3    0  502 -0.64956528475E+03  0.45644174897E+03  0.97637909350E+03  0.12584166057E+04  0.46999998093E+01 0. -1.
</event>
<event>
 5   0  0.6104486E-06  0.2508057E+04  0.7818609E-02  0.8400121E-01
       -1   -1    0    0    0  501  0.00000000000E+00  0.00000000000E+00  0.79766358616E+03  0.79766358617E+03  0.50400001928E-02 0.  1.
        1   -1    0    0  501    0  0.00000000000E+00  0.00000000000E+00 -0.19714920742E+04  0.19714920742E+04  0.50400001928E-02 0. -1.
    10030    2    1    2    0    0  0.00000000000E+00  0.00000000000E+00 -0.11738284880E+04  0.27691556604E+04  0.25080569675E+04 0.  0.
        2    1    3    3  502    0 -0.80886580671E+02 -0.69233683497E+02  0.79266421986E+03  0.79978278758E+03  0.25500000920E-02 0.  1.
       -2    1    3    3    0  502  0.80886580671E+02  0.69233683497E+02 -0.19664927079E+04  0.19693728728E+04  0.25500000920E-02 0. -1.
</event>
<event>
 5   0  0.6105353E-06  0.2515502E+04  0.7818609E-02  0.8397484E-01
        1   -1    0    0  501    0  0.00000000000E+00  0.00000000000E+00  0.20583091215E+04  0.20583091215E+04  0.50400001928E-02 0. -1.
       -1   -1    0    0    0  501  0.00000000000E+00  0.00000000000E+00 -0.76856187509E+03  0.76856187511E+03  0.50400001928E-02 0.  1.
    10030    2    1    2    0    0  0.00000000000E+00  0.00000000000E+00  0.12897472464E+04  0.28268709966E+04  0.25155022703E+04 0.  0.
        3    1    3    3  502    0 -0.57613825726E+03  0.10773803752E+04  0.30913951123E+03  0.12602583116E+04  0.10100000352E+00 0.  1.
       -3    1    3    3    0  502  0.57613825726E+03 -0.10773803752E+04  0.98060773513E+03  0.15666126850E+04  0.10100000352E+00 0. -1.
</event>
<event>
 5   0  0.1526824E-05  0.2524899E+04  0.7818609E-02  0.8394168E-01
        2   -1    0    0  501    0  0.00000000000E+00  0.00000000000E+00  0.19117234734E+04  0.19117234734E+04  0.25500000920E-02 0. -1.
       -2   -1    0    0    0  501  0.00000000000E+00  0.00000000000E+00 -0.83368717162E+03  0.83368717162E+03  0.25500000920E-02 0.  1.
    10030    2    1    2    0    0  0.00000000000E+00  0.00000000000E+00  0.10780363018E+04  0.27454106450E+04  0.25248994716E+04 0.  0.
        2    1    3    3  502    0  0.65522063998E+03 -0.12283541317E+03  0.17047386085E+04  0.18304470354E+04  0.25500000920E-02 0. -1.
       -2    1    3    3    0  502 -0.65522063998E+03  0.12283541317E+03 -0.62670230673E+03  0.91496360969E+03  0.25500000920E-02 0.  1.
</event>
<event>
 5   0  0.1468512E-05  0.2467362E+04  0.7818609E-02  0.8414706E-01
       -2   -1    0    0    0  501  0.00000000000E+00  0.00000000000E+00  0.90604232418E+03  0.90604232419E+03  0.25500000920E-02 0.  1.
        2   -1    0    0  501    0  0.00000000000E+00  0.00000000000E+00 -0.16797988702E+04  0.16797988702E+04  0.25500000920E-02 0. -1.
    10030    2    1    2    0    0  0.00000000000E+00  0.00000000000E+00 -0.77375654600E+03  0.25858411944E+04  0.24673620509E+04 0.  0.
        4    1    3    3  502    0 -0.28046496094E+03 -0.72296579469E+03  0.61868835603E+03  0.99202672816E+03  0.12699999809E+01 0.  1.
       -4    1    3    3    0  502  0.28046496094E+03  0.72296579469E+03 -0.13924449020E+04  0.15938144662E+04  0.12699999809E+01 0. -1.
</event>
<event>
 5   0  0.6104486E-06  0.2501134E+04  0.7818609E-02  0.8402582E-01
        1   -1    0    0  501    0  0.00000000000E+00  0.00000000000E+00  0.23667589532E+04  0.23667589532E+04  0.50400001928E-02 0.  1.
       -1   -1    0    0    0  501  0.00000000000E+00  0.00000000000E+00 -0.66078479575E+03  0.66078479577E+03  0.50400001928E-02 0. -1.
    10030    2    1    2    0    0  0.00000000000E+00  0.00000000000E+00  0.17059741574E+04  0.30275437490E+04  0.25011344078E+04 0.  0.
        2    1    3    3  502    0  0.27142868224E+03 -0.11937216212E+04  0.54372845125E+03  0.13395094128E+04  0.25500000920E-02 0.  1.
       -2    1    3    3    0  502 -0.27142868224E+03  0.11937216212E+04  0.11622457062E+04  0.16880343361E+04  0.25500000920E-02 0. -1.
</event>
<event>
 5   0  0.6477703E-06  0.2494984E+04  0.7818609E-02  0.8404775E-01
        1   -1    0    0  501    0  0.00000000000E+00  0.00000000000E+00  0.14856753459E+04  0.14856753459E+04  0.50400001928E-02 0. -1.
       -1   -1    0    0    0  501  0.00000000000E+00  0.00000000000E+00 -0.10474943096E+04  0.10474943096E+04  0.50400001928E-02 0.  1.
    10030    2    1    2    0    0  0.00000000000E+00  0.00000000000E+00  0.43818103628E+03  0.25331696555E+04  0.24949841449E+04 0.  0.
        5    1    3    3  502    0 -0.57518246762E+03 -0.42412862598E+03  0.12572339156E+04  0.14461601471E+04  0.46999998093E+01 0. -1.
       -5    1    3    3    0  502  0.57518246762E+03  0.42412862598E+03 -0.81905287931E+03  0.10870095085E+04  0.46999998093E+01 0.  1.
</event>
<event>
 5   0  0.6104486E-06  0.2482208E+04  0.7818609E-02  0.8409351E-01
        1   -1    0    0  501    0  0.00000000000E+00  0.00000000000E+00  0.14320426577E+04  0.14320426577E+04  0.50400001928E-02 0.  1.
       -1   -1    0    0    0  501  0.00000000000E+00  0.00000000000E+00 -0.10756239446E+04  0.10756239446E+04  0.50400001928E-02 0. -1.
    10030    2    1    2    0    0  0.00000000000E+00  0.00000000000E+00  0.35641871308E+03  0.25076666023E+04  0.24822081881E+04 0.  0.
        2    1    3    3  502    0  0.10575219554E+04  0.64675170210E+03  0.23965189804E+03  0.12625662290E+04  0.25500000920E-02 0.  1.
       -2    1    3    3    0  502 -0.10575219554E+04 -0.64675170210E+03  0.11676681504E+03  0.12451003733E+04  0.25500000920E-02 0. -1.
</event>
<event>
 5   0  0.1526824E-05  0.2491359E+04  0.7818609E-02  0.8406070E-01
        2   -1    0    0  501    0  0.00000000000E+00  0.00000000000E+00  0.98253770755E+03  0.98253770756E+03  0.25500000920E-02 0. -1.
       -2   -1    0    0    0  501  0.00000000000E+00  0.00000000000E+00 -0.15792959222E+04  0.15792959223E+04  0.25500000920E-02 0.  1.
    10030    2    1    2    0    0  0.00000000000E+00  0.00000000000E+00 -0.59675821470E+03  0.25618336298E+04  0.24913593037E+04 0.  0.
        2    1    3    3  502    0 -0.10672861160E+04  0.23173475405E+03 -0.91442300354E+03  0.14244192076E+04  0.25500000920E-02 0.  1.
       -2    1    3    3    0  502  0.10672861160E+04 -0.23173475405E+03  0.31766478884E+03  0.11374144222E+04  0.25500000920E-02 0. -1.
</event>
<event>
 5   0  0.1501947E-05  0.2467465E+04  0.7818609E-02  0.8414669E-01
        2   -1    0    0  501    0  0.00000000000E+00  0.00000000000E+00  0.15638084039E+04  0.15638084039E+04  0.25500000920E-02 0. -1.
       -2   -1    0    0    0  501  0.00000000000E+00  0.00000000000E+00 -0.97332654359E+03  0.97332654360E+03  0.25500000920E-02 0.  1.
    10030    2    1    2    0    0  0.00000000000E+00  0.00000000000E+00  0.59048186029E+03  0.25371349475E+04  0.24674652813E+04 0.  0.
        3    1    3    3  502    0 -0.10958631252E+04  0.82984009277E+02 -0.28120752744E+03  0.11344073425E+04  0.10100000352E+00 0.  1.
       -3    1    3    3    0  502  0.10958631252E+04 -0.82984009277E+02  0.87168938773E+03  0.14027276050E+04  0.10100000352E+00 0. -1.
</event>
<event>
 5   0  0.1526824E-05  0.2523605E+04  0.7818609E-02  0.8394624E-01
       -2   -1    0    0    0  501  0.00000000000E+00  0.00000000000E+00  0.27233653962E+04  0.27233653962E+04  0.25500000920E-02 0.  1.
        2   -1    0    0  501    0  0.00000000000E+00  0.00000000000E+00 -0.58462449054E+03  0.58462449055E+03  0.25500000920E-02 0. -1.
    10030    2    1    2    0    0  0.00000000000E+00  0.00000000000E+00  0.21387409057E+04  0.33079898868E+04  0.25236054425E+04 0.  0.
        2    1    3    3  502    0  0.48375235809E+03  0.10960774862E+04  0.15883354331E+04  0.19895254830E+04  0.25500000920E-02 0.  1.
       -2    1    3    3    0  502 -0.48375235809E+03 -0.10960774862E+04  0.55040547261E+03  0.13184644037E+04  0.25500000920E-02 0. -1.
</event>
<event>
 5   0  0.6105353E-06  0.2488201E+04  0.7818609E-02  0.8407201E-01
        1   -1    0    0  501    0  0.00000000000E+00  0.00000000000E+00  0.11997907231E+04  0.11997907231E+04  0.50400001928E-02 0.  1.
       -1   -1    0    0    0  501  0.00000000000E+00  0.00000000000E+00 -0.12900470168E+04  0.12900470168E+04  0.50400001928E-02 0. -1.
    10030    2    1    2    0    0  0.00000000000E+00  0.00000000000E+00 -0.90256293703E+02  0.24898377400E+04  0.24882013128E+04 0.  0.
        3    1    3    3  502    0  0.43458541268E+02 -0.10511348080E+04 -0.70965330145E+03  0.12690078203E+04  0.10100000352E+00 0. -1.
       -3    1    3    3    0  502 -0.43458541268E+02  0.10511348080E+04  0.61939700775E+03  0.12208299197E+04  0.10100000352E+00 0.  1.
</event>
<event>
 5   0  0.6477703E-06  0.2628179E+04  0.7818609E-02  0.8358692E-01
        1   -1    0    0  501    0  0.00000000000E+00  0.00000000000E+00  0.14057594380E+04  0.14057594380E+04  0.50400001928E-02 0.  1.
       -1   -1    0    0    0  501  0.00000000000E+00  0.00000000000E+00 -0.12283975975E+04  0.12283975975E+04  0.50400001928E-02 0. -1.
    10030    2    1    2    0    0  0.00000000000E+00  0.00000000000E+00  0.17736184052E+03  0.26341570355E+04  0.26281792300E+04 0.  0.
        5    1    3    3  502    0  0.29080846848E+03 -0.12382487620E+04  0.41955276643E+03  0.13393566275E+04  0.46999998093E+01 0. -1.
       -5    1    3    3    0  502 -0.29080846848E+03  0.12382487620E+04 -0.24219092592E+03  0.12948004080E+04  0.46999998093E+01 0.  1.
</event>
<event>
 5   0  0.1550483E-05  0.2520252E+04  0.7818609E-02  0.8395806E-01
       -2   -1    0    0    0  501  0.00000000000E+00  0.00000000000E+00  0.10557400082E+04  0.10557400082E+04  0.25500000920E-02 0. -1.
        2   -1    0    0  501    0  0.00000000000E+00  0.00000000000E+00 -0.15040805385E+04  0.15040805385E+04  0.25500000920E-02 0.  1.
    10030    2    1    2    0    0  0.00000000000E+00  0.00000000000E+00 -0.44834053037E+03  0.25598205467E+04  0.25202523683E+04 0.  0.
        5    1    3    3  502    0  0.34532633518E+03 -0.23486486286E+03 -0.14317364895E+04  0.14914098186E+04  0.46999998093E+01 0.  1.
       -5    1    3    3    0  502 -0.34532633518E+03  0.23486486286E+03  0.98339595911E+03  0.10684107281E+04  0.46999998093E+01 0. -1.
</event>
<event>
 5   0  0.6477703E-06  0.2519984E+04  0.7818609E-02  0.8395901E-01
        1   -1    0    0  501    0  0.00000000000E+00  0.00000000000E+00  0.14280163001E+04  0.14280163001E+04  0.50400001928E-02 0.  1.
       -1   -1    0    0    0  501  0.00000000000E+00  0.00000000000E+00 -0.11117378029E+04  0.11117378029E+04  0.50400001928E-02 0. -1.
    10030    2    1    2    0    0  0.00000000000E+00  0.00000000000E+00  0.31627849718E+03  0.25397541030E+04  0.25199838920E+04 0.  0.
        5    1    3    3  502    0  0.42591656089E+03 -0.91367297850E+03  0.91994928244E+03  0.13647461305E+04  0.46999998093E+01 0.  1.
       -5    1    3    3    0  502 -0.42591656089E+03  0.91367297850E+03 -0.60367078526E+03  0.11750079725E+04  0.46999998093E+01 0. -1.
</event>
<event>
 5   0  0.6104486E-06  0.2506492E+04  0.7818609E-02  0.8400676E-01
       -1   -1    0    0    0  501  0.00000000000E+00  0.00000000000E+00  0.76871712580E+03  0.76871712582E+03  0.50400001928E-02 0.  1.
        1   -1    0    0  501    0  0.00000000000E+00  0.00000000000E+00 -0.20431780761E+04  0.20431780761E+04  0.50400001928E-02 0. -1.
    10030    2    1    2    0    0  0.00000000000E+00  0.00000000000E+00 -0.12744609503E+04  0.28118952019E+04  0.25064923524E+04 0.  0.
        2    1    3    3  502    0 -0.78705018776E+03  0.97508617980E+03 -0.65924043134E+03  0.14159233745E+04  0.25500000920E-02 0.  1.
       -2    1    3    3    0  502  0.78705018776E+03 -0.97508617980E+03 -0.61522051897E+03  0.13959718275E+04  0.25500000920E-02 0. -1.
</event>
<event>
 5   0  0.1550483E-05  0.2475958E+04  0.7818609E-02  0.8411601E-01
       -2   -1    0    0    0  501  0.00000000000E+00  0.00000000000E+00  0.10878992344E+04  0.10878992344E+04  0.25500000920E-02 0.  1.
        2   -1    0    0  501    0  0.00000000000E+00  0.00000000000E+00 -0.14087624858E+04  0.14087624858E+04  0.25500000920E-02 0. -1.
    10030    2    1    2    0    0  0.00000000000E+00  0.00000000000E+00 -0.32086325139E+03  0.24966617203E+04  0.24759576974E+04 0.  0.
        5    1    3    3  502    0 -0.87556056224E+03 -0.70801453238E+03  0.35833968296E+03  0.11816599742E+04  0.46999998093E+01 0.  1.
       -5    1    3    3    0  502  0.87556056224E+03  0.70801453238E+03 -0.67920293435E+03  0.13150017461E+04  0.46999998093E+01 0. -1.
</event>
<event>
 5   0  0.6290861E-06  0.2467491E+04  0.7818609E-02  0.8414660E-01
        1   -1    0    0  501    0  0.00000000000E+00  0.00000000000E+00  0.14682629355E+04  0.14682629355E+04  0.50400001928E-02 0.  1.
       -1   -1    0    0    0  501  0.00000000000E+00  0.00000000000E+00 -0.10366859287E+04  0.10366859287E+04  0.50400001928E-02 0. -1.
    10030    2    1    2    0    0  0.00000000000E+00  0.00000000000E+00  0.43157700680E+03  0.25049488642E+04  0.24674906483E+04 0.  0.
        1    1    3    3  502    0 -0.48058661177E+03  0.92141266744E+03  0.89083613146E+03  0.13687782173E+04  0.50400001928E-02 0.  1.
       -1    1    3    3    0  502  0.48058661177E+03 -0.92141266744E+03 -0.45925912465E+03  0.11361706468E+04  0.50400001928E-02 0. -1.
</event>
<event>
 5   0  0.1501947E-05  0.2507268E+04  0.7818609E-02  0.8400401E-01
        2   -1    0    0  501    0  0.00000000000E+00  0.00000000000E+00  0.19310310524E+04  0.19310310524E+04  0.25500000920E-02 0. -1.
       -2   -1    0    0    0  501  0.00000000000E+00  0.00000000000E+00 -0.81386470817E+03  0.81386470817E+03  0.25500000920E-02 0.  1.
    10030    2    1    2    0    0  0.00000000000E+00  0.00000000000E+00  0.11171663442E+04  0.27448957606E+04  0.25072678548E+04 0.  0.
        3    1    3    3  502    0  0.74325381066E+03 -0.14286945018E+03  0.16526798953E+04  0.18177427633E+04  0.10100000352E+00 0. -1.
       -3    1    3    3    0  502 -0.74325381066E+03  0.14286945018E+03 -0.53551355106E+03  0.92715299732E+03  0.10100000352E+00 0.  1.
</event>
<event>
 5   0  0.1572732E-05  0.2501324E+04  0.7818609E-02  0.8402514E-01
        2   -1    0    0  501    0  0.00000000000E+00  0.00000000000E+00  0.88115926550E+03  0.88115926550E+03  0.25500000920E-02 0. -1.
       -2   -1    0    0    0  501  0.00000000000E+00  0.00000000000E+00 -0.17751104237E+04  0.17751104237E+04  0.25500000920E-02 0.  1.
    10030    2    1    2    0    0  0.00000000000E+00  0.00000000000E+00 -0.89395115824E+03  0.26562696892E+04  0.25013236473E+04 0.  0.
        1    1    3    3  502    0  0.17139751432E+03 -0.11391882659E+04  0.70038165753E+02  0.11541370620E+04  0.50400001928E-02 0. -1.
       -1    1    3    3    0  502 -0.17139751432E+03  0.11391882659E+04 -0.96398932399E+03  0.15021326273E+04  0.50400001928E-02 0.  1.
</event>
<event>
 5   0  0.1501947E-05  0.2660652E+04  0.7818609E-02  0.8347886E-01
        2   -1    0    0  501    0  0.00000000000E+00  0.00000000000E+00  0.13317235650E+04  0.13317235651E+04  0.25500000920E-02 0.  1.
       -2   -1    0    0    0  501  0.00000000000E+00  0.00000000000E+00 -0.13289302565E+04  0.13289302565E+04  0.25500000920E-02 0. -1.
    10030    2    1    2    0    0  0.00000000000E+00  0.00000000000E+00  0.27933085921E+01  0.26606538215E+04  0.26606523552E+04 0.  0.
        3    1    3    3  502    0  0.35105269265E+03 -0.49098642029E+03  0.11869191635E+04  0.13315715410E+04  0.10100000352E+00 0.  1.
       -3    1    3    3    0  502 -0.35105269265E+03  0.49098642029E+03 -0.11841258549E+04  0.13290822805E+04  0.10100000352E+00 0. -1.
</event>
<event>
 5   0  0.6104486E-06  0.2486540E+04  0.7818609E-02  0.8407796E-01
       -1   -1    0    0    0  501  0.00000000000E+00  0.00000000000E+00  0.75739047656E+03  0.75739047657E+03  0.50400001928E-02 0. -1.
        1   -1    0    0  501    0  0.00000000000E+00  0.00000000000E+00 -0.20408503344E+04  0.20408503344E+04  0.50400001928E-02 0.  1.
    10030    2    1    2    0    0  0.00000000000E+00  0.00000000000E+00 -0.12834598578E+04  0.27982408110E+04  0.24865402529E+04 0.  0.
        2    1    3    3  502    0 -0.52225924974E+03  0.11279393705E+04 -0.67189825928E+03  0.14129576138E+04  0.25500000920E-02 0. -1.
       -2    1    3    3    0  502  0.52225924974E+03 -0.11279393705E+04 -0.61156159854E+03  0.13852831972E+04  0.25500000920E-02 0.  1.
</event>
<event>
 5   0  0.1468512E-05  0.2486440E+04  0.7818609E-02  0.8407832E-01
       -2   -1    0    0    0  501  0.00000000000E+00  0.00000000000E+00  0.13957306177E+04  0.13957306177E+04  0.25500000920E-02 0. -1.
        2   -1    0    0  501    0  0.00000000000E+00  0.00000000000E+00 -0.11073744119E+04  0.11073744119E+04  0.25500000920E-02 0.  1.
    10030    2    1    2    0    0  0.00000000000E+00  0.00000000000E+00  0.28835620585E+03  0.25031050296E+04  0.24864403246E+04 0.  0.
        4    1    3    3  502    0  0.40793437461E+03  0.72933070922E+03 -0.78245891550E+03  0.11448044832E+04  0.12699999809E+01 0.  1.
       -4    1    3    3    0  502 -0.40793437461E+03 -0.72933070922E+03  0.10708151214E+04  0.13583005464E+04  0.12699999809E+01 0. -1.
</event>
<event>
 5   0  0.6477703E-06  0.2498580E+04  0.7818609E-02  0.8403491E-01
       -1   -1    0    0    0  501  0.00000000000E+00  0.00000000000E+00  0.13193131557E+04  0.13193131557E+04  0.50400001928E-02 0. -1.
        1   -1    0    0  501    0  0.00000000000E+00  0.00000000000E+00 -0.11829836544E+04  0.11829836544E+04  0.50400001928E-02 0.  1.
    10030    2    1    2    0    0  0.00000000000E+00  0.00000000000E+00  0.13632950134E+03  0.25022968101E+04  0.24985803154E+04 0.  0.
        5    1    3    3  502    0 -0.54919424773E+03 -0.10122974820E+04 -0.41664547737E+03  0.12247350969E+04  0.46999998093E+01 0.  1.
       -5    1    3    3    0  502  0.54919424773E+03  0.10122974820E+04  0.55297497871E+03  0.12775617131E+04  0.46999998093E+01 0. -1.
</event>
<event>
 5   0  0.6104486E-06  0.2503788E+04  0.7818609E-02  0.8401637E-01
        1   -1    0    0  501    0  0.00000000000E+00  0.00000000000E+00  0.22343311041E+04  0.22343311041E+04  0.50400001928E-02 0. -1.
       -1   -1    0    0    0  501  0.00000000000E+00  0.00000000000E+00 -0.70143527091E+03  0.70143527093E+03  0.50400001928E-02 0.  1.
    10030    2    1    2    0    0  0.00000000000E+00  0.00000000000E+00  0.15328958332E+04  0.29357663751E+04  0.25037880448E+04 0.  0.
        2    1    3    3  502    0  0.70697639321E+03 -0.14282669168E+03 -0.43333357338E+03  0.84142324085E+03  0.25500000920E-02 0.  1.
       -2    1    3    3    0  502 -0.70697639321E+03  0.14282669168E+03  0.19662294066E+04  0.20943431342E+04  0.25500000920E-02 0. -1.
</event>
<event>
 5   0  0.5164625E-06  0.2483715E+04  0.7818609E-02  0.8408810E-01
        3   -1    0    0  501    0  0.00000000000E+00  0.00000000000E+00  0.23409617291E+04  0.23409617313E+04  0.10100000352E+00 0.  1.
       -3   -1    0    0    0  501  0.00000000000E+00  0.00000000000E+00 -0.65879325687E+03  0.65879326461E+03  0.10100000352E+00 0. -1.
    10030    2    1    2    0    0  0.00000000000E+00  0.00000000000E+00  0.16821684723E+04  0.29997549959E+04  0.24837148118E+04 0.  0.
        5    1    3    3  502    0  0.80772198692E+02  0.96673845473E+03 -0.95291861683E+02  0.97478716489E+03  0.46999998093E+01 0. -1.
       -5    1    3    3    0  502 -0.80772198692E+02 -0.96673845473E+03  0.17774603339E+04  0.20249678310E+04  0.46999998093E+01 0.  1.
</event>
<event>
 5   0  0.6104486E-06  0.2477466E+04  0.7818609E-02  0.8411057E-01
       -1   -1    0    0    0  501  0.00000000000E+00  0.00000000000E+00  0.54201448850E+03  0.54201448852E+03  0.50400001928E-02 0. -1.
        1   -1    0    0  501    0  0.00000000000E+00  0.00000000000E+00 -0.28310311862E+04  0.28310311862E+04  0.50400001928E-02 0.  1.
    10030    2    1    2    0    0  0.00000000000E+00  0.00000000000E+00 -0.22890166977E+04  0.33730456747E+04  0.24774663835E+04 0.  0.
        2    1    3    3  502    0  0.63555162941E+03 -0.74288082498E+03 -0.10882503062E+03  0.98368728825E+03  0.25500000920E-02 0. -1.
       -2    1    3    3    0  502 -0.63555162941E+03  0.74288082498E+03 -0.21801916670E+04  0.23893583864E+04  0.25500000920E-02 0.  1.
</event>
<event>
 5   0  0.6105353E-06  0.2492770E+04  0.7818609E-02  0.8405566E-01
        1   -1    0    0  501    0  0.00000000000E+00  0.00000000000E+00  0.17059888673E+04  0.17059888673E+04  0.50400001928E-02 0.  1.
       -1   -1    0    0    0  501  0.00000000000E+00  0.00000000000E+00 -0.91060117143E+03  0.91060117144E+03  0.50400001928E-02 0. -1.
    10030    2    1    2    0    0  0.00000000000E+00  0.00000000000E+00  0.79538769589E+03  0.26165900388E+04  0.24927699140E+04 0.  0.
        3    1    3    3  502    0 -0.12235332797E+04  0.16805858828E+03  0.57395768600E+03  0.13618754756E+04  0.10100000352E+00 0.  1.
       -3    1    3    3    0  502  0.12235332797E+04 -0.16805858828E+03  0.22143000988E+03  0.12547145632E+04  0.10100000352E+00 0. -1.
</event>
<event>
 5   0  0.6477703E-06  0.2515707E+04  0.7818609E-02  0.8397411E-01
       -1   -1    0    0    0  501  0.00000000000E+00  0.00000000000E+00  0.81810188943E+03  0.81810188945E+03  0.50400001928E-02 0.  1.
        1   -1    0    0  501    0  0.00000000000E+00  0.00000000000E+00 -0.19339836276E+04  0.19339836276E+04  0.50400001928E-02 0. -1.
    10030    2    1    2    0    0  0.00000000000E+00  0.00000000000E+00 -0.11158817381E+04  0.27520855170E+04  0.25157071848E+04 0.  0.
        5    1    3    3  502    0 -0.79479995643E+03 -0.20804253914E+03  0.48401599838E+03  0.95356292163E+03  0.46999998093E+01 0.  1.
       -5    1    3    3    0  502  0.79479995643E+03  0.20804253914E+03 -0.15998977365E+04  0.17985225954E+04  0.46999998093E+01 0. -1.
</event>
<event>
 5   0  0.1550483E-05  0.2494461E+04  0.7818609E-02  0.8404961E-01
        2   -1    0    0  501    0  0.00000000000E+00  0.00000000000E+00  0.31597501878E+04  0.31597501878E+04  0.25500000920E-02 0. -1.
       -2   -1    0    0    0  501  0.00000000000E+00  0.00000000000E+00 -0.49231234223E+03  0.49231234224E+03  0.25500000920E-02 0.  1.
    10030    2    1    2    0    0  0.00000000000E+00  0.00000000000E+00  0.26674378455E+04  0.36520625300E+04  0.24944610767E+04 0.  0.
        5    1    3    3  502    0 -0.17932434323E+03  0.19179825440E+03 -0.45137547258E+03  0.52221231095E+03  0.46999998093E+01 0.  1.
       -5    1    3    3    0  502  0.17932434323E+03 -0.19179825440E+03  0.31188133181E+04  0.31298502190E+04  0.46999998093E+01 0. -1.
</event>
<event>
 5   0  0.6290861E-06  0.2505304E+04  0.7818609E-02  0.8401098E-01
        1   -1    0    0  501    0  0.00000000000E+00  0.00000000000E+00  0.15529738934E+04  0.15529738934E+04  0.50400001928E-02 0. -1.
       -1   -1    0    0    0  501  0.00000000000E+00  0.00000000000E+00 -0.10104076992E+04  0.10104076992E+04  0.50400001928E-02 0.  1.
    10030    2    1    2    0    0  0.00000000000E+00  0.00000000000E+00  0.54256619426E+03  0.25633815926E+04  0.25053037968E+04 0.  0.
        1    1    3    3  502    0  0.69458191606E+03 -0.26825964885E+03 -0.75940677410E+03  0.10635346378E+04  0.50400001928E-02 0.  1.
       -1    1    3    3    0  502 -0.69458191606E+03  0.26825964885E+03  0.13019729684E+04  0.14998469548E+04  0.50400001928E-02 0. -1.
</event>
<event>
 5   0  0.6477703E-06  0.2499026E+04  0.7818609E-02  0.8403333E-01
       -1   -1    0    0    0  501  0.00000000000E+00  0.00000000000E+00  0.46347927685E+03  0.46347927688E+03  0.50400001928E-02 0. -1.
        1   -1    0    0  501    0  0.00000000000E+00  0.00000000000E+00 -0.33686135650E+04  0.33686135650E+04  0.50400001928E-02 0.  1.
    10030    2    1    2    0    0  0.00000000000E+00  0.00000000000E+00 -0.29051342882E+04  0.38320928419E+04  0.24990258736E+04 0.  0.
        5    1    3    3  502    0  0.86974738417E+03  0.70344257720E+03 -0.23063040639E+04  0.25632698837E+04  0.46999998093E+01 0.  1.
       -5    1    3    3    0  502 -0.86974738417E+03 -0.70344257720E+03 -0.59883022427E+03  0.12688229582E+04  0.46999998093E+01 0. -1.
</event>
<event>
 5   0  0.6346420E-06  0.2380043E+04  0.7818609E-02  0.8447013E-01
        1   -1    0    0  501    0  0.00000000000E+00  0.00000000000E+00  0.10047393016E+04  0.10047393016E+04  0.50400001928E-02 0. -1.
       -1   -1    0    0    0  501  0.00000000000E+00  0.00000000000E+00 -0.14094707855E+04  0.14094707855E+04  0.50400001928E-02 0.  1.
    10030    2    1    2    0    0  0.00000000000E+00  0.00000000000E+00 -0.40473148395E+03  0.24142100871E+04  0.23800425985E+04 0.  0.
        4    1    3    3  502    0 -0.23271775526E+03 -0.41893667228E+03  0.90252974095E+03  0.10218742756E+04  0.12699999809E+01 0. -1.
       -4    1    3    3    0  502  0.23271775526E+03  0.41893667228E+03 -0.13072612249E+04  0.13923358115E+04  0.12699999809E+01 0.  1.
</event>
<event>
 5   0  0.6104486E-06  0.2491857E+04  0.7818609E-02  0.8405892E-01
       -1   -1    0    0    0  501  0.00000000000E+00  0.00000000000E+00  0.13986966733E+04  0.13986966733E+04  0.50400001928E-02 0. -1.
        1   -1    0    0  501    0  0.00000000000E+00  0.00000000000E+00 -0.11098456203E+04  0.11098456203E+04  0.50400001928E-02 0.  1.
    10030    2    1    2    0    0  0.00000000000E+00  0.00000000000E+00  0.28885105308E+03  0.25085422936E+04  0.24918566387E+04 0.  0.
        2    1    3    3  502    0 -0.15427408895E+02  0.13575719920E+03 -0.11022810330E+04  0.11107166596E+04  0.25500000920E-02 0.  1.
       -2    1    3    3    0  502  0.15427408895E+02 -0.13575719920E+03  0.13911320861E+04  0.13978256340E+04  0.25500000920E-02 0. -1.
</event>
<event>
 5   0  0.1526824E-05  0.2498462E+04  0.7818609E-02  0.8403534E-01
        2   -1    0    0  501    0  0.00000000000E+00  0.00000000000E+00  0.31980950063E+04  0.31980950063E+04  0.25500000920E-02 0.  1.
       -2   -1    0    0    0  501  0.00000000000E+00  0.00000000000E+00 -0.48797124836E+03  0.48797124837E+03  0.25500000920E-02 0. -1.
    10030    2    1    2    0    0  0.00000000000E+00  0.00000000000E+00  0.27101237579E+04  0.36860662547E+04  0.24984622572E+04 0.  0.
        2    1    3    3  502    0  0.11441974531E+04 -0.33677566042E+03  0.80705373495E+03  0.14401185327E+04  0.25500000920E-02 0.  1.
       -2    1    3    3    0  502 -0.11441974531E+04  0.33677566042E+03  0.19030700230E+04  0.22459477219E+04  0.25500000920E-02 0. -1.
</event>
<event>
 5   0  0.1501947E-05  0.2527904E+04  0.7818609E-02  0.8393112E-01
        2   -1    0    0  501    0  0.00000000000E+00  0.00000000000E+00  0.22361878733E+04  0.22361878733E+04  0.25500000920E-02 0.  1.
       -2   -1    0    0    0  501  0.00000000000E+00  0.00000000000E+00 -0.71441862938E+03  0.71441862939E+03  0.25500000920E-02 0. -1.
    10030    2    1    2    0    0  0.00000000000E+00  0.00000000000E+00  0.15217692439E+04  0.29506065027E+04  0.25279036971E+04 0.  0.
        3    1    3    3  502    0  0.69128634716E+03 -0.64008002313E+03  0.17443938067E+04  0.19825460935E+04  0.10100000352E+00 0.  1.
       -3    1    3    3    0  502 -0.69128634716E+03  0.64008002313E+03 -0.22262456274E+03  0.96806040923E+03  0.10100000352E+00 0. -1.
</event>
<event>
 5   0  0.1468512E-05  0.2508491E+04  0.7818609E-02  0.8399967E-01
        2   -1    0    0  501    0  0.00000000000E+00  0.00000000000E+00  0.18258780324E+04  0.18258780324E+04  0.25500000920E-02 0.  1.
       -2   -1    0    0    0  501  0.00000000000E+00  0.00000000000E+00 -0.86157580834E+03  0.86157580835E+03  0.25500000920E-02 0. -1.
    10030    2    1    2    0    0  0.00000000000E+00  0.00000000000E+00  0.96430222403E+03  0.26874538407E+04  0.25084914524E+04 0.  0.
        4    1    3    3  502    0 -0.91020264718E+03  0.54600385840E+03  0.11980626761E+04  0.16006076537E+04  0.12699999809E+01 0. -1.
       -4    1    3    3    0  502  0.91020264718E+03 -0.54600385840E+03 -0.23376045211E+03  0.10868461870E+04  0.12699999809E+01 0.  1.
</event>
<event>
 5   0  0.6477703E-06  0.2490426E+04  0.7818609E-02  0.8406404E-01
       -1   -1    0    0    0  501  0.00000000000E+00  0.00000000000E+00  0.11745097211E+04  0.11745097211E+04  0.50400001928E-02 0. -1.
        1   -1    0    0  501    0  0.00000000000E+00  0.00000000000E+00 -0.13201721659E+04  0.13201721659E+04  0.50400001928E-02 0.  1.
    10030    2    1    2    0    0  0.00000000000E+00  0.00000000000E+00 -0.14566244481E+03  0.24946818870E+04  0.24904257004E+04 0.  0.
        5    1    3    3  502    0 -0.86560672884E+03 -0.66154089065E+03  0.53120977644E+03  0.12120714812E+04  0.46999998093E+01 0. -1.
       -5    1    3    3    0  502  0.86560672884E+03  0.66154089065E+03 -0.67687222125E+03  0.12826104057E+04  0.46999998093E+01 0.  1.
</event>
<event>
 5   0  0.1572732E-05  0.2513257E+04  0.7818609E-02  0.8398278E-01
       -2   -1    0    0    0  501  0.00000000000E+00  0.00000000000E+00  0.87550945382E+03  0.87550945382E+03  0.25500000920E-02 0. -1.
        2   -1    0    0  501    0  0.00000000000E+00  0.00000000000E+00 -0.18036531236E+04  0.18036531236E+04  0.25500000920E-02 0.  1.
    10030    2    1    2    0    0  0.00000000000E+00  0.00000000000E+00 -0.92814366973E+03  0.26791625774E+04  0.25132571385E+04 0.  0.
        1    1    3    3  502    0 -0.10645352543E+04 -0.40104351950E+03  0.10506698485E+03  0.11424142346E+04  0.50400001928E-02 0. -1.
       -1    1    3    3    0  502  0.10645352543E+04  0.40104351950E+03 -0.10332106546E+04  0.15367483427E+04  0.50400001928E-02 0.  1.
</event>
<event>
 5   0  0.1550483E-05  0.2494354E+04  0.7818609E-02  0.8405000E-01
       -2   -1    0    0    0  501  0.00000000000E+00  0.00000000000E+00  0.98996024228E+03  0.98996024228E+03  0.25500000920E-02 0. -1.
        2   -1    0    0  501    0  0.00000000000E+00  0.00000000000E+00 -0.15712257737E+04  0.15712257737E+04  0.25500000920E-02 0.  1.
    10030    2    1    2    0    0  0.00000000000E+00  0.00000000000E+00 -0.58126553138E+03  0.25611860159E+04  0.24943544636E+04 0.  0.
        5    1    3    3  502    0 -0.11838721884E+03 -0.10704696982E+04  0.35511158538E+03  0.11340402269E+04  0.46999998093E+01 0. -1.
       -5    1    3    3    0  502  0.11838721884E+03  0.10704696982E+04 -0.93637711676E+03  0.14271457890E+04  0.46999998093E+01 0.  1.
</event>
<event>
 5   0  0.6346420E-06  0.2496709E+04  0.7818609E-02  0.8404159E-01
       -1   -1    0    0    0  501  0.00000000000E+00  0.00000000000E+00  0.10982949156E+04  0.10982949156E+04  0.50400001928E-02 0. -1.
        1   -1    0    0  501    0  0.00000000000E+00  0.00000000000E+00 -0.14189162307E+04  0.14189162307E+04  0.50400001928E-02 0.  1.
    10030    2    1    2    0    0  0.00000000000E+00  0.00000000000E+00 -0.32062131512E+03  0.25172111463E+04  0.24967086188E+04 0.  0.
        4    1    3    3  502    0 -0.49307000921E+03 -0.44782586593E+02 -0.13156982480E+04  0.14057691868E+04  0.12699999809E+01 0.  1.
       -4    1    3    3    0  502  0.49307000921E+03  0.44782586593E+02  0.99507693285E+03  0.11114419595E+04  0.12699999809E+01 0. -1.
</event>
<event>
 5   0  0.6104486E-06  0.2516649E+04  0.7818609E-02  0.8397078E-01
       -1   -1    0    0    0  501  0.00000000000E+00  0.00000000000E+00  0.12545131763E+04  0.12545131763E+04  0.50400001928E-02 0.  1.
        1   -1    0    0  501    0  0.00000000000E+00  0.00000000000E+00 -0.12621474786E+04  0.12621474786E+04  0.50400001928E-02 0. -1.
    10030    2    1    2    0    0  0.00000000000E+00  0.00000000000E+00 -0.76343022947E+01  0.25166606549E+04  0.25166490755E+04 0.  0.
        2    1    3    3  502    0 -0.43458045886E+03 -0.20284091982E+02  0.11769122216E+04  0.12547485792E+04  0.25500000920E-02 0.  1.
       -2    1    3    3    0  502  0.43458045886E+03  0.20284091982E+02 -0.11845465239E+04  0.12619120757E+04  0.25500000920E-02 0. -1.
</event>
<event>
 5   0  0.6104486E-06  0.2496740E+04  0.7818609E-02  0.8404148E-01
        1   -1    0    0  501    0  0.00000000000E+00  0.00000000000E+00  0.15368324904E+04  0.15368324904E+04  0.50400001928E-02 0.  1.
       -1   -1    0    0    0  501  0.00000000000E+00  0.00000000000E+00 -0.10140514467E+04  0.10140514467E+04  0.50400001928E-02 0. -1.
    10030    2    1    2    0    0  0.00000000000E+00  0.00000000000E+00  0.52278104369E+03  0.25508839372E+04  0.24967396423E+04 0.  0.
        2    1    3    3  502    0  0.67204801754E+02  0.36440215668E+03 -0.95656966440E+03  0.10258318283E+04  0.25500000920E-02 0. -1.
       -2    1    3    3    0  502 -0.67204801754E+02 -0.36440215668E+03  0.14793507081E+04  0.15250521088E+04  0.25500000920E-02 0.  1.
</event>
<event>
 5   0  0.6477703E-06  0.2490761E+04  0.7818609E-02  0.8406284E-01
       -1   -1    0    0    0  501  0.00000000000E+00  0.00000000000E+00  0.85772122695E+03  0.85772122697E+03  0.50400001928E-02 0.  1.
        1   -1    0    0  501    0  0.00000000000E+00  0.00000000000E+00 -0.18082484784E+04  0.18082484784E+04  0.50400001928E-02 0. -1.
    10030    2    1    2    0    0  0.00000000000E+00  0.00000000000E+00 -0.95052725144E+03  0.26659697054E+04  0.24907614125E+04 0.  0.
        5    1    3    3  502    0  0.41672168713E+03 -0.10514936164E+04 -0.10331324747E+04  0.15318879170E+04  0.46999998093E+01 0. -1.
       -5    1    3    3    0  502 -0.41672168713E+03  0.10514936164E+04  0.82605223220E+02  0.11340817884E+04  0.46999998093E+01 0.  1.
</event>
<event>
 5   0  0.6104486E-06  0.2492547E+04  0.7818609E-02  0.8405646E-01
        1   -1    0    0  501    0  0.00000000000E+00  0.00000000000E+00  0.81218775862E+03  0.81218775863E+03  0.50400001928E-02 0. -1.
       -1   -1    0    0    0  501  0.00000000000E+00  0.00000000000E+00 -0.19123625236E+04  0.19123625236E+04  0.50400001928E-02 0.  1.
    10030    2    1    2    0    0  0.00000000000E+00  0.00000000000E+00 -0.11001747650E+04  0.27245502823E+04  0.24925468355E+04 0.  0.
        2    1    3    3  502    0 -0.65788889189E+03 -0.69099898368E+03  0.32635470973E+03  0.10083673865E+04  0.25500000920E-02 0. -1.
       -2    1    3    3    0  502  0.65788889189E+03  0.69099898368E+03 -0.14265294747E+04  0.17161828958E+04  0.25500000920E-02 0.  1.
</event>
<event>
 5   0  0.1526824E-05  0.2508588E+04  0.7818609E-02  0.8399933E-01
       -2   -1    0    0    0  501  0.00000000000E+00  0.00000000000E+00  0.12791510718E+04  0.12791510718E+04  0.25500000920E-02 0.  1.
        2   -1    0    0  501    0  0.00000000000E+00  0.00000000000E+00 -0.12299196821E+04  0.12299196821E+04  0.25500000920E-02 0. -1.
    10030    2    1    2    0    0  0.00000000000E+00  0.00000000000E+00  0.49231389628E+02  0.25090707539E+04  0.25085877139E+04 0.  0.
        2    1    3    3  502    0  0.88981676782E+03 -0.46039376585E+03  0.77942436385E+03  0.12693457523E+04  0.25500000920E-02 0.  1.
       -2    1    3    3    0  502 -0.88981676782E+03  0.46039376585E+03 -0.73019297422E+03  0.12397250016E+04  0.25500000920E-02 0. -1.
</event>
<event>
 5   0  0.1526824E-05  0.2508558E+04  0.7818609E-02  0.8399943E-01
       -2   -1    0    0    0  501  0.00000000000E+00  0.00000000000E+00  0.12933836961E+04  0.12933836961E+04  0.25500000920E-02 0.  1.
        2   -1    0    0  501    0  0.00000000000E+00  0.00000000000E+00 -0.12163568906E+04  0.12163568906E+04  0.25500000920E-02 0. -1.
    10030    2    1    2    0    0  0.00000000000E+00  0.00000000000E+00  0.77026805513E+02  0.25097405867E+04  0.25085582879E+04 0.  0.
        2    1    3    3  502    0  0.11492336231E+04 -0.36404113089E+03  0.38501794912E+03  0.12655049137E+04  0.25500000920E-02 0.  1.
       -2    1    3    3    0  502 -0.11492336231E+04  0.36404113089E+03 -0.30799114361E+03  0.12442356730E+04  0.25500000920E-02 0. -1.
</event>
<event>
 5   0  0.1501947E-05  0.2491735E+04  0.7818609E-02  0.8405936E-01
        2   -1    0    0  501    0  0.00000000000E+00  0.00000000000E+00  0.17594601485E+04  0.17594601485E+04  0.25500000920E-02 0.  1.
       -2   -1    0    0    0  501  0.00000000000E+00  0.00000000000E+00 -0.88219422366E+03  0.88219422366E+03  0.25500000920E-02 0. -1.
    10030    2    1    2    0    0  0.00000000000E+00  0.00000000000E+00  0.87726592485E+03  0.26416543722E+04  0.24917348011E+04 0.  0.
        3    1    3    3  502    0 -0.86799836692E+03 -0.81834936920E+03  0.57756031117E+02  0.11943419211E+04  0.10100000352E+00 0. -1.
       -3    1    3    3    0  502  0.86799836692E+03  0.81834936920E+03  0.81950989373E+03  0.14473124511E+04  0.10100000352E+00 0.  1.
</event>
<event>
 5   0  0.6290861E-06  0.2482668E+04  0.7818609E-02  0.8409186E-01
        1   -1    0    0  501    0  0.00000000000E+00  0.00000000000E+00  0.17400161995E+04  0.17400161995E+04  0.50400001928E-02 0.  1.
       -1   -1    0    0    0  501  0.00000000000E+00  0.00000000000E+00 -0.88557200304E+03  0.88557200305E+03  0.50400001928E-02 0. -1.
    10030    2    1    2    0    0  0.00000000000E+00  0.00000000000E+00  0.85444419642E+03  0.26255882025E+04  0.24826676226E+04 0.  0.
        1    1    3    3  502    0  0.42350493015E+03  0.57289586635E+03  0.15022763829E+04  0.16626486190E+04  0.50400001928E-02 0.  1.
       -1    1    3    3    0  502 -0.42350493015E+03 -0.57289586635E+03 -0.64783218652E+03  0.96293958350E+03  0.50400001928E-02 0. -1.
</event>
<event>
 5   0  0.6104486E-06  0.2453269E+04  0.7818609E-02  0.8419826E-01
        1   -1    0    0  501    0  0.00000000000E+00  0.00000000000E+00  0.67113834674E+03  0.67113834676E+03  0.50400001928E-02 0.  1.
       -1   -1    0    0    0  501  0.00000000000E+00  0.00000000000E+00 -0.22419098136E+04  0.22419098136E+04  0.50400001928E-02 0. -1.
    10030    2    1    2    0    0  0.00000000000E+00  0.00000000000E+00 -0.15707714669E+04  0.29130481604E+04  0.24532685510E+04 0.  0.
        2    1    3    3  502    0  0.10905717574E+04  0.49361265770E+03 -0.11031860972E+04  0.16278881346E+04  0.25500000920E-02 0. -1.
       -2    1    3    3    0  502 -0.10905717574E+04 -0.49361265770E+03 -0.46758536968E+03  0.12851600257E+04  0.25500000920E-02 0.  1.
</event>
<event>
 5   0  0.6104486E-06  0.2471512E+04  0.7818609E-02  0.8413205E-01
        1   -1    0    0  501    0  0.00000000000E+00  0.00000000000E+00  0.17521870028E+04  0.17521870028E+04  0.50400001928E-02 0.  1.
       -1   -1    0    0    0  501  0.00000000000E+00  0.00000000000E+00 -0.87153528300E+03  0.87153528301E+03  0.50400001928E-02 0. -1.
    10030    2    1    2    0    0  0.00000000000E+00  0.00000000000E+00  0.88065171984E+03  0.26237222859E+04  0.24715119222E+04 0.  0.
        2    1    3    3  502    0 -0.93713157291E+03  0.37913242314E+03  0.11948258456E+04  0.15651088718E+04  0.25500000920E-02 0. -1.
       -2    1    3    3    0  502  0.93713157291E+03 -0.37913242314E+03 -0.31417412573E+03  0.10586134141E+04  0.25500000920E-02 0.  1.
</event>
<event>
 5   0  0.1501947E-05  0.2491664E+04  0.7818609E-02  0.8405961E-01
        2   -1    0    0  501    0  0.00000000000E+00  0.00000000000E+00  0.18407437209E+04  0.18407437209E+04  0.25500000920E-02 0. -1.
       -2   -1    0    0    0  501  0.00000000000E+00  0.00000000000E+00 -0.84319020294E+03  0.84319020294E+03  0.25500000920E-02 0.  1.
    10030    2    1    2    0    0  0.00000000000E+00  0.00000000000E+00  0.99755351791E+03  0.26839339238E+04  0.24916637587E+04 0.  0.
        3    1    3    3  502    0 -0.42393052829E+03 -0.24756199938E+03  0.17321631089E+04  0.18003869258E+04  0.10100000352E+00 0. -1.
       -3    1    3    3    0  502  0.42393052829E+03  0.24756199938E+03 -0.73460959100E+03  0.88354699804E+03  0.10100000352E+00 0.  1.
</event>
<event>
 5   0  0.1526824E-05  0.2502974E+04  0.7818609E-02  0.8401927E-01
        2   -1    0    0  501    0  0.00000000000E+00  0.00000000000E+00  0.17024089003E+04  0.17024089003E+04  0.25500000920E-02 0. -1.
       -2   -1    0    0    0  501  0.00000000000E+00  0.00000000000E+00 -0.92000178935E+03  0.92000178935E+03  0.25500000920E-02 0.  1.
    10030    2    1    2    0    0  0.00000000000E+00  0.00000000000E+00  0.78240711096E+03  0.26224106897E+04  0.25029736191E+04 0.  0.
        2    1    3    3  502    0 -0.90414927068E+02 -0.93598233550E+03  0.12564318497E+04  0.15693497967E+04  0.25500000920E-02 0. -1.
       -2    1    3    3    0  502  0.90414927068E+02  0.93598233550E+03 -0.47402473873E+03  0.10530608930E+04  0.25500000920E-02 0.  1.
</event>
<event>
 5   0  0.1526824E-05  0.2490042E+04  0.7818609E-02  0.8406542E-01
       -2   -1    0    0    0  501  0.00000000000E+00  0.00000000000E+00  0.93606706939E+03  0.93606706939E+03  0.25500000920E-02 0. -1.
        2   -1    0    0  501    0  0.00000000000E+00  0.00000000000E+00 -0.16559470258E+04  0.16559470258E+04  0.25500000920E-02 0.  1.
    10030    2    1    2    0    0  0.00000000000E+00  0.00000000000E+00 -0.71987995640E+03  0.25920140952E+04  0.24900421519E+04 0.  0.
        2    1    3    3  502    0 -0.11236092944E+04  0.36700753506E+03 -0.76695762967E+03  0.14090480414E+04  0.25500000920E-02 0.  1.
       -2    1    3    3    0  502  0.11236092944E+04 -0.36700753506E+03  0.47077673269E+02  0.11829660538E+04  0.25500000920E-02 0. -1.
</event>
<event>
 5   0  0.6346420E-06  0.2499266E+04  0.7818609E-02  0.8403247E-01
       -1   -1    0    0    0  501  0.00000000000E+00  0.00000000000E+00  0.93281779230E+03  0.93281779231E+03  0.50400001928E-02 0.  1.
        1   -1    0    0  501    0  0.00000000000E+00  0.00000000000E+00 -0.16740483167E+04  0.16740483167E+04  0.50400001928E-02 0. -1.
    10030    2    1    2    0    0  0.00000000000E+00  0.00000000000E+00 -0.74123052442E+03  0.26068661090E+04  0.24992655361E+04 0.  0.
        4    1    3    3  502    0  0.92787708382E+03  0.69831817086E+03  0.11074690742E+03  0.11665636034E+04  0.12699999809E+01 0.  1.
       -4    1    3    3    0  502 -0.92787708382E+03 -0.69831817086E+03 -0.85197743184E+03  0.14403025056E+04  0.12699999809E+01 0. -1.
</event>
<event>
 5   0  0.5164625E-06  0.2495929E+04  0.7818609E-02  0.8404437E-01
       -3   -1    0    0    0  501  0.00000000000E+00  0.00000000000E+00  0.20912764866E+04  0.20912764890E+04  0.10100000352E+00 0. -1.
        3   -1    0    0  501    0  0.00000000000E+00  0.00000000000E+00 -0.74471983467E+03  0.74471984152E+03  0.10100000352E+00 0.  1.
    10030    2    1    2    0    0  0.00000000000E+00  0.00000000000E+00  0.13465566519E+04  0.28359963306E+04  0.24959287590E+04 0.  0.
        1    1    3    3  502    0 -0.94700195472E+03 -0.25159773122E+03  0.15514311254E+04  0.18349530396E+04  0.50400001928E-02 0. -1.
       -1    1    3    3    0  502  0.94700195472E+03  0.25159773122E+03 -0.20487447342E+03  0.10010432910E+04  0.50400001928E-02 0.  1.
</event>
<event>
 5   0  0.1572732E-05  0.2507106E+04  0.7818609E-02  0.8400458E-01
        2   -1    0    0  501    0  0.00000000000E+00  0.00000000000E+00  0.14191863055E+04  0.14191863055E+04  0.25500000920E-02 0. -1.
       -2   -1    0    0    0  501  0.00000000000E+00  0.00000000000E+00 -0.11072511748E+04  0.11072511748E+04  0.25500000920E-02 0.  1.
    10030    2    1    2    0    0  0.00000000000E+00  0.00000000000E+00  0.31193513074E+03  0.25264374803E+04  0.25071064628E+04 0.  0.
        1    1    3    3  502    0 -0.81138162871E+03 -0.55392688287E+03 -0.62863750734E+03  0.11663448266E+04  0.50400001928E-02 0. -1.
       -1    1    3    3    0  502  0.81138162871E+03  0.55392688287E+03  0.94057263808E+03  0.13600926537E+04  0.50400001928E-02 0.  1.
</event>
<event>
 5   0  0.1501947E-05  0.2479717E+04  0.7818609E-02  0.8410247E-01
        2   -1    0    0  501    0  0.00000000000E+00  0.00000000000E+00  0.23924938782E+04  0.23924938782E+04  0.25500000920E-02 0.  1.
       -2   -1    0    0    0  501  0.00000000000E+00  0.00000000000E+00 -0.64253001736E+03  0.64253001736E+03  0.25500000920E-02 0. -1.
    10030    2    1    2    0    0  0.00000000000E+00  0.00000000000E+00  0.17499638608E+04  0.30350238956E+04  0.24797170267E+04 0.  0.
        3    1    3    3  502    0  0.76975085479E+02  0.88053253000E+03  0.19391665762E+04  0.21311099739E+04  0.10100000352E+00 0.  1.
       -3    1    3    3    0  502 -0.76975085479E+02 -0.88053253000E+03 -0.18920271536E+03  0.90391392172E+03  0.10100000352E+00 0. -1.
</event>
<event>
 5   0  0.6104486E-06  0.2501086E+04  0.7818609E-02  0.8402599E-01
       -1   -1    0    0    0  501  0.00000000000E+00  0.00000000000E+00  0.91320870602E+03  0.91320870604E+03  0.50400001928E-02 0. -1.
        1   -1    0    0  501    0  0.00000000000E+00  0.00000000000E+00 -0.17124870618E+04  0.17124870618E+04  0.50400001928E-02 0.  1.
    10030    2    1    2    0    0  0.00000000000E+00  0.00000000000E+00 -0.79927835575E+03  0.26256957678E+04  0.25010862391E+04 0.  0.
        2    1    3    3  502    0 -0.79425448989E+03 -0.95827232864E+03 -0.27221635270E+03  0.12740595721E+04  0.25500000920E-02 0. -1.
       -2    1    3    3    0  502  0.79425448989E+03  0.95827232864E+03 -0.52706200305E+03  0.13516361957E+04  0.25500000920E-02 0.  1.
</event>
<event>
 5   0  0.1501947E-05  0.2488878E+04  0.7818609E-02  0.8406959E-01
        2   -1    0    0  501    0  0.00000000000E+00  0.00000000000E+00  0.14892810221E+04  0.14892810221E+04  0.25500000920E-02 0. -1.
       -2   -1    0    0    0  501  0.00000000000E+00  0.00000000000E+00 -0.10398494050E+04  0.10398494050E+04  0.25500000920E-02 0.  1.
    10030    2    1    2    0    0  0.00000000000E+00  0.00000000000E+00  0.44943161707E+03  0.25291304271E+04  0.24888776464E+04 0.  0.
        3    1    3    3  502    0  0.68212127693E+03  0.10305570409E+04  0.37298908656E+03  0.12909136764E+04  0.10100000352E+00 0.  1.
       -3    1    3    3    0  502 -0.68212127693E+03 -0.10305570409E+04  0.76442530512E+02  0.12382167507E+04  0.10100000352E+00 0. -1.
</event>
<event>
 5   0  0.1526824E-05  0.2510837E+04  0.7818609E-02  0.8399135E-01
       -2   -1    0    0    0  501  0.00000000000E+00  0.00000000000E+00  0.13216859788E+04  0.13216859788E+04  0.25500000920E-02 0. -1.
        2   -1    0    0  501    0  0.00000000000E+00  0.00000000000E+00 -0.11924738359E+04  0.11924738359E+04  0.25500000920E-02 0.  1.
    10030    2    1    2    0    0  0.00000000000E+00  0.00000000000E+00  0.12921214289E+03  0.25141598147E+04  0.25108372699E+04 0.  0.
        2    1    3    3  502    0 -0.21472583470E+03 -0.10657782958E+04  0.69319898507E+03  0.12893856649E+04  0.25500000920E-02 0. -1.
       -2    1    3    3    0  502  0.21472583470E+03  0.10657782958E+04 -0.56398684219E+03  0.12247741498E+04  0.25500000920E-02 0.  1.
</event>
<event>
 5   0  0.1550483E-05  0.2497509E+04  0.7818609E-02  0.8403874E-01
       -2   -1    0    0    0  501  0.00000000000E+00  0.00000000000E+00  0.14432882010E+04  0.14432882010E+04  0.25500000920E-02 0.  1.
        2   -1    0    0  501    0  0.00000000000E+00  0.00000000000E+00 -0.10804407414E+04  0.10804407414E+04  0.25500000920E-02 0. -1.
    10030    2    1    2    0    0  0.00000000000E+00  0.00000000000E+00  0.36284745953E+03  0.25237289424E+04  0.24975086578E+04 0.  0.
        5    1    3    3  502    0  0.13673817502E+03  0.12017051156E+04  0.49544788152E+03  0.13070130859E+04  0.46999998093E+01 0.  1.
       -5    1    3    3    0  502 -0.13673817502E+03 -0.12017051156E+04 -0.13260042199E+03  0.12167158565E+04  0.46999998093E+01 0. -1.
</event>
<event>
 5   0  0.6477703E-06  0.2489308E+04  0.7818609E-02  0.8406804E-01
       -1   -1    0    0    0  501  0.00000000000E+00  0.00000000000E+00  0.72558657887E+03  0.72558657889E+03  0.50400001928E-02 0.  1.
        1   -1    0    0  501    0  0.00000000000E+00  0.00000000000E+00 -0.21350506220E+04  0.21350506220E+04  0.50400001928E-02 0. -1.
    10030    2    1    2    0    0  0.00000000000E+00  0.00000000000E+00 -0.14094640432E+04  0.28606372009E+04  0.24893083992E+04 0.  0.
        5    1    3    3  502    0 -0.38823007544E+03  0.93630864222E+03  0.12533554063E+03  0.10213361605E+04  0.46999998093E+01 0.  1.
       -5    1    3    3    0  502  0.38823007544E+03 -0.93630864222E+03 -0.15347995838E+04  0.18393010404E+04  0.46999998093E+01 0. -1.
</event>
<event>
 5   0  0.6477703E-06  0.2504728E+04  0.7818609E-02  0.8401303E-01
       -1   -1    0    0    0  501  0.00000000000E+00  0.00000000000E+00  0.17212046789E+04  0.17212046789E+04  0.50400001928E-02 0.  1.
        1   -1    0    0  501    0  0.00000000000E+00  0.00000000000E+00 -0.91123122001E+03  0.91123122003E+03  0.50400001928E-02 0. -1.
    10030    2    1    2    0    0  0.00000000000E+00  0.00000000000E+00  0.80997345887E+03  0.26324358989E+04  0.25047278810E+04 0.  0.
        5    1    3    3  502    0  0.71118321425E+03  0.10747544296E+03 -0.67249813216E+03  0.98468693646E+03  0.46999998093E+01 0. -1.
       -5    1    3    3    0  502 -0.71118321425E+03 -0.10747544296E+03  0.14824715910E+04  0.16477489625E+04  0.46999998093E+01 0.  1.
</event>
<event>
 5   0  0.1572732E-05  0.2503886E+04  0.7818609E-02  0.8401602E-01
        2   -1    0    0  501    0  0.00000000000E+00  0.00000000000E+00  0.68846882690E+03  0.68846882691E+03  0.25500000920E-02 0.  1.
       -2   -1    0    0    0  501  0.00000000000E+00  0.00000000000E+00 -0.22765905681E+04  0.22765905681E+04  0.25500000920E-02 0. -1.
    10030    2    1    2    0    0  0.00000000000E+00  0.00000000000E+00 -0.15881217412E+04  0.29650593950E+04  0.25038862896E+04 0.  0.
        1    1    3    3  502    0  0.72660025887E+03 -0.10478663619E+03  0.40683926754E+03  0.83931303156E+03  0.50400001928E-02 0.  1.
       -1    1    3    3    0  502 -0.72660025887E+03  0.10478663619E+03 -0.19949610088E+04  0.21257463635E+04  0.50400001928E-02 0. -1.
</event>
<event>
 5   0  0.6346420E-06  0.2460930E+04  0.7818609E-02  0.8417038E-01
        1   -1    0    0  501    0  0.00000000000E+00  0.00000000000E+00  0.10315356835E+04  0.10315356835E+04  0.50400001928E-02 0.  1.
       -1   -1    0    0    0  501  0.00000000000E+00  0.00000000000E+00 -0.14677578495E+04  0.14677578495E+04  0.50400001928E-02 0. -1.
    10030    2    1    2    0    0  0.00000000000E+00  0.00000000000E+00 -0.43622216603E+03  0.24992935330E+04  0.24609303903E+04 0.  0.
        4    1    3    3  502    0 -0.69733989922E+03  0.10008019335E+04 -0.53863204614E+02  0.12209792393E+04  0.12699999809E+01 0. -1.
       -4    1    3    3    0  502  0.69733989922E+03 -0.10008019335E+04 -0.38235896142E+03  0.12783142937E+04  0.12699999809E+01 0.  1.
</event>
<event>
 5   0  0.1526824E-05  0.2500387E+04  0.7818609E-02  0.8402848E-01
        2   -1    0    0  501    0  0.00000000000E+00  0.00000000000E+00  0.18041815042E+04  0.18041815042E+04  0.25500000920E-02 0.  1.
       -2   -1    0    0    0  501  0.00000000000E+00  0.00000000000E+00 -0.86631197849E+03  0.86631197849E+03  0.25500000920E-02 0. -1.
    10030    2    1    2    0    0  0.00000000000E+00  0.00000000000E+00  0.93786952571E+03  0.26704934827E+04  0.25003872088E+04 0.  0.
        2    1    3    3  502    0 -0.66230945306E+03 -0.10394303835E+04  0.24511971283E+03  0.12566435483E+04  0.25500000920E-02 0.  1.
       -2    1    3    3    0  502  0.66230945306E+03  0.10394303835E+04  0.69274981287E+03  0.14138499344E+04  0.25500000920E-02 0. -1.
</event>
<event>
 5   0  0.6290861E-06  0.2506252E+04  0.7818609E-02  0.8400762E-01
        1   -1    0    0  501    0  0.00000000000E+00  0.00000000000E+00  0.93105219421E+03  0.93105219422E+03  0.50400001928E-02 0. -1.
       -1   -1    0    0    0  501  0.00000000000E+00  0.00000000000E+00 -0.16866133429E+04  0.16866133429E+04  0.50400001928E-02 0.  1.
    10030    2    1    2    0    0  0.00000000000E+00  0.00000000000E+00 -0.75556114864E+03  0.26176655371E+04  0.25062522249E+04 0.  0.
        1    1    3    3  502    0 -0.51889145046E+03 -0.92469882093E+03 -0.10753076931E+04  0.15101665079E+04  0.50400001928E-02 0.  1.
       -1    1    3    3    0  502  0.51889145046E+03  0.92469882093E+03  0.31974654449E+03  0.11074990291E+04  0.50400001928E-02 0. -1.
</event>
<event>
 5   0  0.1468512E-05  0.2490637E+04  0.7818609E-02  0.8406329E-01
       -2   -1    0    0    0  501  0.00000000000E+00  0.00000000000E+00  0.10372228949E+04  0.10372228949E+04  0.25500000920E-02 0. -1.
        2   -1    0    0  501    0  0.00000000000E+00  0.00000000000E+00 -0.14951640237E+04  0.14951640237E+04  0.25500000920E-02 0.  1.
    10030    2    1    2    0    0  0.00000000000E+00  0.00000000000E+00 -0.45794112876E+03  0.25323869186E+04  0.24906371530E+04 0.  0.
        4    1    3    3  502    0  0.49621928222E+02 -0.87687179803E+03  0.66869342175E+03  0.11038654769E+04  0.12699999809E+01 0. -1.
       -4    1    3    3    0  502 -0.49621928222E+02  0.87687179803E+03 -0.11266345505E+04  0.14285214417E+04  0.12699999809E+01 0.  1.
</event>
<event>
 5   0  0.6346420E-06  0.2497209E+04  0.7818609E-02  0.8403981E-01
        1   -1    0    0  501    0  0.00000000000E+00  0.00000000000E+00  0.17852375518E+04  0.17852375519E+04  0.50400001928E-02 0. -1.
       -1   -1    0    0    0  501  0.00000000000E+00  0.00000000000E+00 -0.87328053457E+03  0.87328053459E+03  0.50400001928E-02 0.  1.
    10030    2    1    2    0    0  0.00000000000E+00  0.00000000000E+00  0.91195701727E+03  0.26585180864E+04  0.24972090050E+04 0.  0.
        4    1    3    3  502    0  0.23348128010E+03 -0.27071524117E+03  0.17295889515E+04  0.17661482961E+04  0.12699999809E+01 0. -1.
       -4    1    3    3    0  502 -0.23348128010E+03  0.27071524117E+03 -0.81763193420E+03  0.89236979032E+03  0.12699999809E+01 0.  1.
</event>
<event>
 5   0  0.1550483E-05  0.2495811E+04  0.7818609E-02  0.8404479E-01
       -2   -1    0    0    0  501  0.00000000000E+00  0.00000000000E+00  0.12375423473E+04  0.12375423473E+04  0.25500000920E-02 0. -1.
        2   -1    0    0  501    0  0.00000000000E+00  0.00000000000E+00 -0.12583556276E+04  0.12583556276E+04  0.25500000920E-02 0.  1.
    10030    2    1    2    0    0  0.00000000000E+00  0.00000000000E+00 -0.20813280228E+02  0.24958979749E+04  0.24958111925E+04 0.  0.
        5    1    3    3  502    0  0.54849711997E+03 -0.11208554576E+04 -0.14486743311E+01  0.12478742870E+04  0.46999998093E+01 0. -1.
       -5    1    3    3    0  502 -0.54849711997E+03  0.11208554576E+04 -0.19364605897E+02  0.12480236879E+04  0.46999998093E+01 0.  1.
</event>
<event>
 5   0  0.6346420E-06  0.2507044E+04  0.7818609E-02  0.8400480E-01
       -1   -1    0    0    0  501  0.00000000000E+00  0.00000000000E+00  0.10480530117E+04  0.10480530117E+04  0.50400001928E-02 0. -1.
        1   -1    0    0  501    0  0.00000000000E+00  0.00000000000E+00 -0.14992732822E+04  0.14992732822E+04  0.50400001928E-02 0.  1.
    10030    2    1    2    0    0  0.00000000000E+00  0.00000000000E+00 -0.45122027054E+03  0.25473262939E+04  0.25070443784E+04 0.  0.
        4    1    3    3  502    0  0.70912923591E+03 -0.93464486052E+03  0.22294767564E+03  0.11942079247E+04  0.12699999809E+01 0. -1.
       -4    1    3    3    0  502 -0.70912923591E+03  0.93464486052E+03 -0.67416794618E+03  0.13531183692E+04  0.12699999809E+01 0.  1.
</event>
<event>
 5   0  0.6477703E-06  0.2505742E+04  0.7818609E-02  0.8400943E-01
       -1   -1    0    0    0  501  0.00000000000E+00  0.00000000000E+00  0.12417508947E+04  0.12417508947E+04  0.50400001928E-02 0. -1.
        1   -1    0    0  501    0  0.00000000000E+00  0.00000000000E+00 -0.12640905680E+04  0.12640905680E+04  0.50400001928E-02 0.  1.
    10030    2    1    2    0    0  0.00000000000E+00  0.00000000000E+00 -0.22339673282E+02  0.25058414627E+04  0.25057418812E+04 0.  0.
        5    1    3    3  502    0 -0.11910070687E+04 -0.31472777049E+03 -0.23945964975E+03  0.12549559438E+04  0.46999998093E+01 0.  1.
       -5    1    3    3    0  502  0.11910070687E+04  0.31472777049E+03  0.21711997647E+03  0.12508855189E+04  0.46999998093E+01 0. -1.
</event>
<event>
 5   0  0.1572732E-05  0.2527497E+04  0.7818609E-02  0.8393255E-01
       -2   -1    0    0    0  501  0.00000000000E+00  0.00000000000E+00  0.67438365102E+03  0.67438365102E+03  0.25500000920E-02 0. -1.
        2   -1    0    0  501    0  0.00000000000E+00  0.00000000000E+00 -0.23681773439E+04  0.23681773439E+04  0.25500000920E-02 0.  1.
    10030    2    1    2    0    0  0.00000000000E+00  0.00000000000E+00 -0.16937936928E+04  0.30425609949E+04  0.25274968514E+04 0.  0.
        1    1    3    3  502    0  0.94776940859E+03  0.17125613357E+02  0.15918163055E+03  0.96119661361E+03  0.50400001928E-02 0. -1.
       -1    1    3    3    0  502 -0.94776940859E+03 -0.17125613357E+02 -0.18529753234E+04  0.20813643813E+04  0.50400001928E-02 0.  1.
</event>
<event>
 5   0  0.6105353E-06  0.2588888E+04  0.7818609E-02  0.8371985E-01
       -1   -1    0    0    0  501  0.00000000000E+00  0.00000000000E+00  0.13492508469E+04  0.13492508469E+04  0.50400001928E-02 0. -1.
        1   -1    0    0  501    0  0.00000000000E+00  0.00000000000E+00 -0.12418634388E+04  0.12418634388E+04  0.50400001928E-02 0.  1.
    10030    2    1    2    0    0  0.00000000000E+00  0.00000000000E+00  0.10738740810E+03  0.25911142857E+04  0.25888880212E+04 0.  0.
        3    1    3    3  502    0  0.11190073033E+03  0.41656367710E+03 -0.11678222053E+04  0.12449320399E+04  0.10100000352E+00 0.  1.
       -3    1    3    3    0  502 -0.11190073033E+03 -0.41656367710E+03  0.12752096134E+04  0.13461822458E+04  0.10100000352E+00 0. -1.
</event>
<event>
 5   0  0.1572732E-05  0.2508011E+04  0.7818609E-02  0.8400137E-01
        2   -1    0    0  501    0  0.00000000000E+00  0.00000000000E+00  0.28034705795E+04  0.28034705795E+04  0.25500000920E-02 0. -1.
       -2   -1    0    0    0  501  0.00000000000E+00  0.00000000000E+00 -0.56092248687E+03  0.56092248687E+03  0.25500000920E-02 0.  1.
    10030    2    1    2    0    0  0.00000000000E+00  0.00000000000E+00  0.22425480926E+04  0.33643930664E+04  0.25080109165E+04 0.  0.
        1    1    3    3  502    0 -0.85530611557E+03  0.87990563538E+03  0.77470173087E+03  0.14511875311E+04  0.50400001928E-02 0.  1.
       -1    1    3    3    0  502  0.85530611557E+03 -0.87990563538E+03  0.14678463618E+04  0.19132055353E+04  0.50400001928E-02 0. -1.
</event>
<event>
 5   0  0.6105353E-06  0.2477883E+04  0.7818609E-02  0.8410907E-01
       -1   -1    0    0    0  501  0.00000000000E+00  0.00000000000E+00  0.94171318853E+03  0.94171318854E+03  0.50400001928E-02 0.  1.
        1   -1    0    0  501    0  0.00000000000E+00  0.00000000000E+00 -0.16299825623E+04  0.16299825623E+04  0.50400001928E-02 0. -1.
    10030    2    1    2    0    0  0.00000000000E+00  0.00000000000E+00 -0.68826937381E+03  0.25716957509E+04  0.24778830288E+04 0.  0.
        3    1    3    3  502    0 -0.12326463234E+03 -0.89031727631E+03  0.54086058094E+03  0.10489943757E+04  0.10100000352E+00 0.  1.
       -3    1    3    3    0  502  0.12326463234E+03  0.89031727631E+03 -0.12291299547E+04  0.15227013752E+04  0.10100000352E+00 0. -1.
</event>
<event>
 5   0  0.6477703E-06  0.2483915E+04  0.7818609E-02  0.8408738E-01
        1   -1    0    0  501    0  0.00000000000E+00  0.00000000000E+00  0.73257167175E+03  0.73257167176E+03  0.50400001928E-02 0.  1.
       -1   -1    0    0    0  501  0.00000000000E+00  0.00000000000E+00 -0.21055396631E+04  0.21055396631E+04  0.50400001928E-02 0. -1.
    10030    2    1    2    0    0  0.00000000000E+00  0.00000000000E+00 -0.13729679913E+04  0.28381113349E+04  0.24839152248E+04 0.  0.
        5    1    3    3  502    0  0.60055670512E+02  0.30267172118E+02 -0.21034474875E+04  0.21045275498E+04  0.46999998093E+01 0. -1.
       -5    1    3    3    0  502 -0.60055670512E+02 -0.30267172118E+02  0.73047949619E+03  0.73358378501E+03  0.46999998093E+01 0.  1.
</event>
<event>
 5   0  0.1468512E-05  0.2499320E+04  0.7818609E-02  0.8403228E-01
        2   -1    0    0  501    0  0.00000000000E+00  0.00000000000E+00  0.11869213350E+04  0.11869213350E+04  0.25500000920E-02 0. -1.
       -2   -1    0    0    0  501  0.00000000000E+00  0.00000000000E+00 -0.13157147166E+04  0.13157147166E+04  0.25500000920E-02 0.  1.
    10030    2    1    2    0    0  0.00000000000E+00  0.00000000000E+00 -0.12879338159E+03  0.25026360515E+04  0.24993198017E+04 0.  0.
        4    1    3    3  502    0  0.36931334424E+03 -0.61326661620E+02 -0.12582432907E+04  0.13127570595E+04  0.12699999809E+01 0.  1.
       -4    1    3    3    0  502 -0.36931334424E+03  0.61326661620E+02  0.11294499091E+04  0.11898789921E+04  0.12699999809E+01 0. -1.
</event>
<event>
 5   0  0.1526824E-05  0.2497337E+04  0.7818609E-02  0.8403935E-01
       -2   -1    0    0    0  501  0.00000000000E+00  0.00000000000E+00  0.14949462029E+04  0.14949462029E+04  0.25500000920E-02 0. -1.
        2   -1    0    0  501    0  0.00000000000E+00  0.00000000000E+00 -0.10429628892E+04  0.10429628892E+04  0.25500000920E-02 0.  1.
    10030    2    1    2    0    0  0.00000000000E+00  0.00000000000E+00  0.45198331368E+03  0.25379090921E+04  0.24973373108E+04 0.  0.
        2    1    3    3  502    0 -0.11076706715E+04  0.38111873695E+03 -0.21345408735E+03  0.11906924269E+04  0.25500000920E-02 0.  1.
       -2    1    3    3    0  502  0.11076706715E+04 -0.38111873695E+03  0.66543740102E+03  0.13472166651E+04  0.25500000920E-02 0. -1.
</event>
<event>
 5   0  0.6346420E-06  0.2485589E+04  0.7818609E-02  0.8408137E-01
       -1   -1    0    0    0  501  0.00000000000E+00  0.00000000000E+00  0.13811836742E+04  0.13811836742E+04  0.50400001928E-02 0.  1.
        1   -1    0    0  501    0  0.00000000000E+00  0.00000000000E+00 -0.11182716677E+04  0.11182716678E+04  0.50400001928E-02 0. -1.
    10030    2    1    2    0    0  0.00000000000E+00  0.00000000000E+00  0.26291200644E+03  0.24994553419E+04  0.24855893231E+04 0.  0.
        4    1    3    3  502    0 -0.45705249390E+03 -0.11554726760E+04  0.15444993152E+03  0.12521463498E+04  0.12699999809E+01 0. -1.
       -4    1    3    3    0  502  0.45705249390E+03  0.11554726760E+04  0.10846207492E+03  0.12473089921E+04  0.12699999809E+01 0.  1.
</event>
<event>
 5   0  0.1550483E-05  0.2507656E+04  0.7818609E-02  0.8400263E-01
       -2   -1    0    0    0  501  0.00000000000E+00  0.00000000000E+00  0.70969374069E+03  0.70969374069E+03  0.25500000920E-02 0.  1.
        2   -1    0    0  501    0  0.00000000000E+00  0.00000000000E+00 -0.22151587283E+04  0.22151587283E+04  0.25500000920E-02 0. -1.
    10030    2    1    2    0    0  0.00000000000E+00  0.00000000000E+00 -0.15054649876E+04  0.29248524690E+04  0.25076557053E+04 0.  0.
        5    1    3    3  502    0  0.11366693858E+04  0.10877700233E+03 -0.14867881283E+03  0.11515108372E+04  0.46999998093E+01 0.  1.
       -5    1    3    3    0  502 -0.11366693858E+04 -0.10877700233E+03 -0.13567861748E+04  0.17733416317E+04  0.46999998093E+01 0. -1.
</event>
<event>
 5   0  0.6290861E-06  0.2500335E+04  0.7818609E-02  0.8402866E-01
        1   -1    0    0  501    0  0.00000000000E+00  0.00000000000E+00  0.13821323016E+04  0.13821323016E+04  0.50400001928E-02 0. -1.
       -1   -1    0    0    0  501  0.00000000000E+00  0.00000000000E+00 -0.11308029052E+04  0.11308029052E+04  0.50400001928E-02 0.  1.
    10030    2    1    2    0    0  0.00000000000E+00  0.00000000000E+00  0.25132939640E+03  0.25129352068E+04  0.25003353552E+04 0.  0.
        1    1    3    3  502    0  0.21582761809E+03  0.49019780512E+03 -0.10096488364E+04  0.11429200417E+04  0.50400001928E-02 0.  1.
       -1    1    3    3    0  502 -0.21582761809E+03 -0.49019780512E+03  0.12609782328E+04  0.13700151651E+04  0.50400001928E-02 0. -1.
</event>
<event>
 5   0  0.1468512E-05  0.2516067E+04  0.7818609E-02  0.8397284E-01
        2   -1    0    0  501    0  0.00000000000E+00  0.00000000000E+00  0.14724106942E+04  0.14724106942E+04  0.25500000920E-02 0. -1.
       -2   -1    0    0    0  501  0.00000000000E+00  0.00000000000E+00 -0.10748689719E+04  0.10748689719E+04  0.25500000920E-02 0.  1.
    10030    2    1    2    0    0  0.00000000000E+00  0.00000000000E+00  0.39754172232E+03  0.25472796660E+04  0.25160672241E+04 0.  0.
        4    1    3    3  502    0  0.73188704999E+03  0.29517033316E+03 -0.79310875087E+03  0.11188419384E+04  0.12699999809E+01 0.  1.
       -4    1    3    3    0  502 -0.73188704999E+03 -0.29517033316E+03  0.11906504732E+04  0.14284377276E+04  0.12699999809E+01 0. -1.
</event>
<event>
 5   0  0.6104486E-06  0.2499187E+04  0.7818609E-02  0.8403275E-01
        1   -1    0    0  501    0  0.00000000000E+00  0.00000000000E+00  0.13783654816E+04  0.13783654816E+04  0.50400001928E-02 0.  1.
       -1   -1    0    0    0  501  0.00000000000E+00  0.00000000000E+00 -0.11328520279E+04  0.11328520280E+04  0.50400001928E-02 0. -1.
    10030    2    1    2    0    0  0.00000000000E+00  0.00000000000E+00  0.24551345364E+03  0.25112175095E+04  0.24991871727E+04 0.  0.
        2    1    3    3  502    0  0.11788717218E+04  0.40481947213E+03  0.33634851281E+02  0.12468956029E+04  0.25500000920E-02 0. -1.
       -2    1    3    3    0  502 -0.11788717218E+04 -0.40481947213E+03  0.21187860236E+03  0.12643219066E+04  0.25500000920E-02 0.  1.
</event>
<event>
 5   0  0.6104486E-06  0.2492613E+04  0.7818609E-02  0.8405622E-01
        1   -1    0    0  501    0  0.00000000000E+00  0.00000000000E+00  0.16581741982E+04  0.16581741982E+04  0.50400001928E-02 0.  1.
       -1   -1    0    0    0  501  0.00000000000E+00  0.00000000000E+00 -0.93674131959E+03  0.93674131961E+03  0.50400001928E-02 0. -1.
    10030    2    1    2    0    0  0.00000000000E+00  0.00000000000E+00  0.72143287857E+03  0.25949155178E+04  0.24926133166E+04 0.  0.
        2    1    3    3  502    0 -0.64476111655E+03 -0.22307013083E+03 -0.72506761538E+03  0.99559039146E+03  0.25500000920E-02 0. -1.
       -2    1    3    3    0  502  0.64476111655E+03  0.22307013083E+03  0.14465004939E+04  0.15993251263E+04  0.25500000920E-02 0.  1.
</event>
<event>
 5   0  0.1526824E-05  0.2511486E+04  0.7818609E-02  0.8398905E-01
        2   -1    0    0  501    0  0.00000000000E+00  0.00000000000E+00  0.19433711811E+04  0.19433711811E+04  0.25500000920E-02 0.  1.
       -2   -1    0    0    0  501  0.00000000000E+00  0.00000000000E+00 -0.81141987320E+03  0.81141987320E+03  0.25500000920E-02 0. -1.
    10030    2    1    2    0    0  0.00000000000E+00  0.00000000000E+00  0.11319513079E+04  0.27547910543E+04  0.25114856140E+04 0.  0.
        2    1    3    3  502    0  0.62681370214E+03  0.42940751412E+02  0.17585745031E+04  0.18674377120E+04  0.25500000920E-02 0.  1.
       -2    1    3    3    0  502 -0.62681370214E+03 -0.42940751412E+02 -0.62662319519E+03  0.88735334229E+03  0.25500000920E-02 0. -1.
</event>
<event>
 5   0  0.6477703E-06  0.2454026E+04  0.7818609E-02  0.8419549E-01
       -1   -1    0    0    0  501  0.00000000000E+00  0.00000000000E+00  0.12153665417E+04  0.12153665417E+04  0.50400001928E-02 0. -1.
        1   -1    0    0  501    0  0.00000000000E+00  0.00000000000E+00 -0.12387714766E+04  0.12387714766E+04  0.50400001928E-02 0.  1.
    10030    2    1    2    0    0  0.00000000000E+00  0.00000000000E+00 -0.23404934891E+02  0.24541380183E+04  0.24540264101E+04 0.  0.
        5    1    3    3  502    0  0.12986724445E+03 -0.31954322997E+03  0.11658764311E+04  0.12158385252E+04  0.46999998093E+01 0. -1.
       -5    1    3    3    0  502 -0.12986724445E+03  0.31954322997E+03 -0.11892813659E+04  0.12382994930E+04  0.46999998093E+01 0.  1.
</event>
<event>
 5   0  0.6290861E-06  0.2497216E+04  0.7818609E-02  0.8403978E-01
        1   -1    0    0  501    0  0.00000000000E+00  0.00000000000E+00  0.63886266919E+03  0.63886266921E+03  0.50400001928E-02 0.  1.
       -1   -1    0    0    0  501  0.00000000000E+00  0.00000000000E+00 -0.24403089142E+04  0.24403089142E+04  0.50400001928E-02 0. -1.
    10030    2    1    2    0    0  0.00000000000E+00  0.00000000000E+00 -0.18014462450E+04  0.30791715834E+04  0.24972162635E+04 0.  0.
        1    1    3    3  502    0 -0.38140069459E+03  0.99090708154E+03 -0.17108407864E+04  0.20135390561E+04  0.50400001928E-02 0. -1.
       -1    1    3    3    0  502  0.38140069459E+03 -0.99090708154E+03 -0.90605458599E+02  0.10656325273E+04  0.50400001928E-02 0.  1.
</event>
<event>
 5   0  0.6477703E-06  0.2495038E+04  0.7818609E-02  0.8404755E-01
       -1   -1    0    0    0  501  0.00000000000E+00  0.00000000000E+00  0.19805151232E+04  0.19805151232E+04  0.50400001928E-02 0.  1.
        1   -1    0    0  501    0  0.00000000000E+00  0.00000000000E+00 -0.78580744133E+03  0.78580744135E+03  0.50400001928E-02 0. -1.
    10030    2    1    2    0    0  0.00000000000E+00  0.00000000000E+00  0.11947076819E+04  0.27663225646E+04  0.24950378927E+04 0.  0.
        5    1    3    3  502    0 -0.61756447165E+02  0.77318684641E+03 -0.48594352621E+03  0.91531139996E+03  0.46999998093E+01 0. -1.
       -5    1    3    3    0  502  0.61756447165E+02 -0.77318684641E+03  0.16806512081E+04  0.18510111646E+04  0.46999998093E+01 0.  1.
</event>
<event>
 5   0  0.1526824E-05  0.2531250E+04  0.7818609E-02  0.8391936E-01
       -2   -1    0    0    0  501  0.00000000000E+00  0.00000000000E+00  0.13178297410E+04  0.13178297410E+04  0.25500000920E-02 0. -1.
        2   -1    0    0  501    0  0.00000000000E+00  0.00000000000E+00 -0.12154881720E+04  0.12154881721E+04  0.25500000920E-02 0.  1.
    10030    2    1    2    0    0  0.00000000000E+00  0.00000000000E+00  0.10234156894E+03  0.25333179130E+04  0.25312498596E+04 0.  0.
        2    1    3    3  502    0 -0.35165616045E+02  0.12371318403E+04  0.31610323280E+03  0.12773617595E+04  0.25500000920E-02 0. -1.
       -2    1    3    3    0  502  0.35165616045E+02 -0.12371318403E+04 -0.21376166386E+03  0.12559561536E+04  0.25500000920E-02 0.  1.
</event>
<event>
 5   0  0.1526824E-05  0.2513120E+04  0.7818609E-02  0.8398326E-01
       -2   -1    0    0    0  501  0.00000000000E+00  0.00000000000E+00  0.11796686591E+04  0.11796686591E+04  0.25500000920E-02 0. -1.
        2   -1    0    0  501    0  0.00000000000E+00  0.00000000000E+00 -0.13384627280E+04  0.13384627281E+04  0.25500000920E-02 0.  1.
    10030    2    1    2    0    0  0.00000000000E+00  0.00000000000E+00 -0.15879406895E+03  0.25181313872E+04  0.25131196005E+04 0.  0.
        2    1    3    3  502    0 -0.60522585456E+03 -0.10544164223E+04 -0.39759955943E+03  0.12791316337E+04  0.25500000920E-02 0.  1.
       -2    1    3    3    0  502  0.60522585456E+03  0.10544164223E+04  0.23880549048E+03  0.12389997534E+04  0.25500000920E-02 0. -1.
</event>
<event>
 5   0  0.6290861E-06  0.2566329E+04  0.7818609E-02  0.8379729E-01
        1   -1    0    0  501    0  0.00000000000E+00  0.00000000000E+00  0.17780472085E+04  0.17780472085E+04  0.50400001928E-02 0.  1.
       -1   -1    0    0    0  501  0.00000000000E+00  0.00000000000E+00 -0.92602229801E+03  0.92602229802E+03  0.50400001928E-02 0. -1.
    10030    2    1    2    0    0  0.00000000000E+00  0.00000000000E+00  0.85202491049E+03  0.27040695065E+04  0.25663291777E+04 0.  0.
        1    1    3    3  502    0 -0.23546188732E+03 -0.76384484927E+03  0.14836862561E+04  0.16852970542E+04  0.50400001928E-02 0.  1.
       -1    1    3    3    0  502  0.23546188732E+03  0.76384484927E+03 -0.63166134562E+03  0.10187724524E+04  0.50400001928E-02 0. -1.
</event>
<event>
 5   0  0.1501947E-05  0.2483656E+04  0.7818609E-02  0.8408831E-01
       -2   -1    0    0    0  501  0.00000000000E+00  0.00000000000E+00  0.81543279951E+03  0.81543279952E+03  0.25500000920E-02 0. -1.
        2   -1    0    0  501    0  0.00000000000E+00  0.00000000000E+00 -0.18911887957E+04  0.18911887957E+04  0.25500000920E-02 0.  1.
    10030    2    1    2    0    0  0.00000000000E+00  0.00000000000E+00 -0.10757559962E+04  0.27066215952E+04  0.24836564771E+04 0.  0.
        3    1    3    3  502    0 -0.36375057090E+03 -0.10330743706E+04  0.99969952614E+02  0.10997959513E+04  0.10100000352E+00 0. -1.
       -3    1    3    3    0  502  0.36375057090E+03  0.10330743706E+04 -0.11757259488E+04  0.16068256439E+04  0.10100000352E+00 0.  1.
</event>
<event>
 5   0  0.1501947E-05  0.2413577E+04  0.7818609E-02  0.8434438E-01
        2   -1    0    0  501    0  0.00000000000E+00  0.00000000000E+00  0.13848670124E+04  0.13848670124E+04  0.25500000920E-02 0. -1.
       -2   -1    0    0    0  501  0.00000000000E+00  0.00000000000E+00 -0.10516089363E+04  0.10516089363E+04  0.25500000920E-02 0.  1.
    10030    2    1    2    0    0  0.00000000000E+00  0.00000000000E+00  0.33325807614E+03  0.24364759487E+04  0.24135770349E+04 0.  0.
        3    1    3    3  502    0 -0.73301199220E+03  0.95176349286E+03  0.28251446446E+03  0.12340886353E+04  0.10100000352E+00 0. -1.
       -3    1    3    3    0  502  0.73301199220E+03 -0.95176349286E+03  0.50743611679E+02  0.12023873134E+04  0.10100000352E+00 0.  1.
</event>
<event>
 5   0  0.1468512E-05  0.2503757E+04  0.7818609E-02  0.8401648E-01
       -2   -1    0    0    0  501  0.00000000000E+00  0.00000000000E+00  0.84331505363E+03  0.84331505363E+03  0.25500000920E-02 0. -1.
        2   -1    0    0  501    0  0.00000000000E+00  0.00000000000E+00 -0.18583803007E+04  0.18583803007E+04  0.25500000920E-02 0.  1.
    10030    2    1    2    0    0  0.00000000000E+00  0.00000000000E+00 -0.10150652471E+04  0.27016953543E+04  0.25037572430E+04 0.  0.
        4    1    3    3  502    0 -0.24085545566E+03 -0.52999794097E+03 -0.17034315940E+04  0.18001638749E+04  0.12699999809E+01 0.  1.
       -4    1    3    3    0  502  0.24085545566E+03  0.52999794097E+03  0.68836634695E+03  0.90153147947E+03  0.12699999809E+01 0. -1.
</event>
<event>
 5   0  0.6346420E-06  0.2492081E+04  0.7818609E-02  0.8405812E-01
       -1   -1    0    0    0  501  0.00000000000E+00  0.00000000000E+00  0.18637364191E+04  0.18637364191E+04  0.50400001928E-02 0.  1.
        1   -1    0    0  501    0  0.00000000000E+00  0.00000000000E+00 -0.83306676770E+03  0.83306676772E+03  0.50400001928E-02 0. -1.
    10030    2    1    2    0    0  0.00000000000E+00  0.00000000000E+00  0.10306696514E+04  0.26968031868E+04  0.24920809574E+04 0.  0.
        4    1    3    3  502    0 -0.51909024578E+00 -0.59241165321E+03  0.17015911137E+04  0.18017674011E+04  0.12699999809E+01 0.  1.
       -4    1    3    3    0  502  0.51909024578E+00  0.59241165321E+03 -0.67092146232E+03  0.89503578577E+03  0.12699999809E+01 0. -1.
</event>
<event>
 5   0  0.6346420E-06  0.2500939E+04  0.7818609E-02  0.8402651E-01
       -1   -1    0    0    0  501  0.00000000000E+00  0.00000000000E+00  0.16205570244E+04  0.16205570244E+04  0.50400001928E-02 0.  1.
        1   -1    0    0  501    0  0.00000000000E+00  0.00000000000E+00 -0.96489924353E+03  0.96489924354E+03  0.50400001928E-02 0. -1.
    10030    2    1    2    0    0  0.00000000000E+00  0.00000000000E+00  0.65565778090E+03  0.25854562680E+04  0.25009392212E+04 0.  0.
        4    1    3    3  502    0 -0.33246866457E+03  0.34184191888E+03  0.15228704479E+04  0.15957842349E+04  0.12699999809E+01 0.  1.
       -4    1    3    3    0  502  0.33246866457E+03 -0.34184191888E+03 -0.86721266697E+03  0.98967203309E+03  0.12699999809E+01 0. -1.
</event>
<event>
 5   0  0.1550483E-05  0.2626614E+04  0.7818609E-02  0.8359217E-01
        2   -1    0    0  501    0  0.00000000000E+00  0.00000000000E+00  0.22749866229E+04  0.22749866229E+04  0.25500000920E-02 0.  1.
       -2   -1    0    0    0  501  0.00000000000E+00  0.00000000000E+00 -0.75814761878E+03  0.75814761879E+03  0.25500000920E-02 0. -1.
    10030    2    1    2    0    0  0.00000000000E+00  0.00000000000E+00  0.15168390041E+04  0.30331342416E+04  0.26266143157E+04 0.  0.
        5    1    3    3  502    0 -0.25664882993E+03 -0.12764756177E+04  0.95674079756E+03  0.16157455457E+04  0.46999998093E+01 0. -1.
       -5    1    3    3    0  502  0.25664882993E+03  0.12764756177E+04  0.56009820651E+03  0.14173886960E+04  0.46999998093E+01 0.  1.
</event>
<event>
 5   0  0.6346420E-06  0.2506408E+04  0.7818609E-02  0.8400706E-01
       -1   -1    0    0    0  501  0.00000000000E+00  0.00000000000E+00  0.75666301627E+03  0.75666301629E+03  0.50400001928E-02 0.  1.
        1   -1    0    0  501    0  0.00000000000E+00  0.00000000000E+00 -0.20755876372E+04  0.20755876372E+04  0.50400001928E-02 0. -1.
    10030    2    1    2    0    0  0.00000000000E+00  0.00000000000E+00 -0.13189246209E+04  0.28322506534E+04  0.25064081089E+04 0.  0.
        4    1    3    3  502    0 -0.27161290746E+03 -0.13204315462E+03  0.71492605245E+03  0.77609911709E+03  0.12699999809E+01 0.  1.
       -4    1    3    3    0  502  0.27161290746E+03  0.13204315462E+03 -0.20338506733E+04  0.20561515364E+04  0.12699999809E+01 0. -1.
</event>
<event>
 5   0  0.1501947E-05  0.2492057E+04  0.7818609E-02  0.8405821E-01
        2   -1    0    0  501    0  0.00000000000E+00  0.00000000000E+00  0.12811559644E+04  0.12811559644E+04  0.25500000920E-02 0.  1.
       -2   -1    0    0    0  501  0.00000000000E+00  0.00000000000E+00 -0.12118642848E+04  0.12118642848E+04  0.25500000920E-02 0. -1.
    10030    2    1    2    0    0  0.00000000000E+00  0.00000000000E+00  0.69291679538E+02  0.24930202492E+04  0.24920571073E+04 0.  0.
        3    1    3    3  502    0  0.11270829840E+03 -0.12094541836E+04  0.31243024288E+03  0.12542309395E+04  0.10100000352E+00 0. -1.
       -3    1    3    3    0  502 -0.11270829840E+03  0.12094541836E+04 -0.24313856335E+03  0.12387893097E+04  0.10100000352E+00 0.  1.
</event>
<event>
 5   0  0.1501947E-05  0.2495761E+04  0.7818609E-02  0.8404497E-01
       -2   -1    0    0    0  501  0.00000000000E+00  0.00000000000E+00  0.13846010947E+04  0.13846010947E+04  0.25500000920E-02 0.  1.
        2   -1    0    0  501    0  0.00000000000E+00  0.00000000000E+00 -0.11246602037E+04  0.11246602037E+04  0.25500000920E-02 0. -1.
    10030    2    1    2    0    0  0.00000000000E+00  0.00000000000E+00  0.25994089093E+03  0.25092612984E+04  0.24957610055E+04 0.  0.
        3    1    3    3  502    0 -0.71474890406E+03 -0.10151521414E+04  0.25637191884E+03  0.12677249059E+04  0.10100000352E+00 0.  1.
       -3    1    3    3    0  502  0.71474890406E+03  0.10151521414E+04  0.35689720910E+01  0.12415363925E+04  0.10100000352E+00 0. -1.
</event>
<event>
 5   0  0.6346420E-06  0.2486171E+04  0.7818609E-02  0.8407929E-01
        1   -1    0    0  501    0  0.00000000000E+00  0.00000000000E+00  0.20515826932E+04  0.20515826932E+04  0.50400001928E-02 0. -1.
       -1   -1    0    0    0  501  0.00000000000E+00  0.00000000000E+00 -0.75320478435E+03  0.75320478436E+03  0.50400001928E-02 0.  1.
    10030    2    1    2    0    0  0.00000000000E+00  0.00000000000E+00  0.12983779088E+04  0.28047874775E+04  0.24861712733E+04 0.  0.
        4    1    3    3  502    0 -0.51706250464E+02  0.16679539098E+03  0.20376755675E+04  0.20451448775E+04  0.12699999809E+01 0. -1.
       -4    1    3    3    0  502  0.51706250464E+02 -0.16679539098E+03 -0.73929765866E+03  0.75964260003E+03  0.12699999809E+01 0.  1.
</event>
<event>
 5   0  0.6105353E-06  0.2533772E+04  0.7818609E-02  0.8391052E-01
        1   -1    0    0  501    0  0.00000000000E+00  0.00000000000E+00  0.11029305894E+04  0.11029305894E+04  0.50400001928E-02 0.  1.
       -1   -1    0    0    0  501  0.00000000000E+00  0.00000000000E+00 -0.14552137105E+04  0.14552137105E+04  0.50400001928E-02 0. -1.
    10030    2    1    2    0    0  0.00000000000E+00  0.00000000000E+00 -0.35228312116E+03  0.25581442999E+04  0.25337716673E+04 0.  0.
        3    1    3    3  502    0 -0.48713158349E+03  0.11651606972E+04 -0.27762247164E+03  0.12930471287E+04  0.10100000352E+00 0.  1.
       -3    1    3    3    0  502  0.48713158349E+03 -0.11651606972E+04 -0.74660649520E+02  0.12650971713E+04  0.10100000352E+00 0. -1.
</event>
<event>
 5   0  0.6346420E-06  0.2506195E+04  0.7818609E-02  0.8400782E-01
        1   -1    0    0  501    0  0.00000000000E+00  0.00000000000E+00  0.74707420238E+03  0.74707420240E+03  0.50400001928E-02 0.  1.
       -1   -1    0    0    0  501  0.00000000000E+00  0.00000000000E+00 -0.21018711850E+04  0.21018711850E+04  0.50400001928E-02 0. -1.
    10030    2    1    2    0    0  0.00000000000E+00  0.00000000000E+00 -0.13547969826E+04  0.28489453874E+04  0.25061953149E+04 0.  0.
        4    1    3    3  502    0 -0.96799230459E+03  0.73231920896E+03 -0.32344459117E+03  0.12561522766E+04  0.12699999809E+01 0.  1.
       -4    1    3    3    0  502  0.96799230459E+03 -0.73231920896E+03 -0.10313523914E+04  0.15927931108E+04  0.12699999809E+01 0. -1.
</event>
<event>
 5   0  0.1550483E-05  0.2510848E+04  0.7818609E-02  0.8399131E-01
       -2   -1    0    0    0  501  0.00000000000E+00  0.00000000000E+00  0.10807847913E+04  0.10807847913E+04  0.25500000920E-02 0. -1.
        2   -1    0    0  501    0  0.00000000000E+00  0.00000000000E+00 -0.14582825326E+04  0.14582825326E+04  0.25500000920E-02 0.  1.
    10030    2    1    2    0    0  0.00000000000E+00  0.00000000000E+00 -0.37749774133E+03  0.25390673240E+04  0.25108481298E+04 0.  0.
        5    1    3    3  502    0 -0.28004009218E+03  0.12115854840E+04 -0.36303921732E+03  0.12954464102E+04  0.46999998093E+01 0.  1.
       -5    1    3    3    0  502  0.28004009218E+03 -0.12115854840E+04 -0.14458524005E+02  0.12436209138E+04  0.46999998093E+01 0. -1.
</event>
<event>
 5   0  0.6346420E-06  0.2518632E+04  0.7818609E-02  0.8396378E-01
       -1   -1    0    0    0  501  0.00000000000E+00  0.00000000000E+00  0.13630807904E+04  0.13630807905E+04  0.50400001928E-02 0.  1.
        1   -1    0    0  501    0  0.00000000000E+00  0.00000000000E+00 -0.11634500783E+04  0.11634500783E+04  0.50400001928E-02 0. -1.
    10030    2    1    2    0    0  0.00000000000E+00  0.00000000000E+00  0.19963071213E+03  0.25265308688E+04  0.25186317336E+04 0.  0.
        4    1    3    3  502    0 -0.69895817756E+03  0.69470831420E+02 -0.94869294915E+03  0.11804188473E+04  0.12699999809E+01 0. -1.
       -4    1    3    3    0  502  0.69895817756E+03 -0.69470831420E+02  0.11483236613E+04  0.13461120215E+04  0.12699999809E+01 0.  1.
</event>
<event>
 5   0  0.6104486E-06  0.2467839E+04  0.7818609E-02  0.8414533E-01
        1   -1    0    0  501    0  0.00000000000E+00  0.00000000000E+00  0.14430780106E+04  0.14430780106E+04  0.50400001928E-02 0.  1.
       -1   -1    0    0    0  501  0.00000000000E+00  0.00000000000E+00 -0.10550763303E+04  0.10550763303E+04  0.50400001928E-02 0. -1.
    10030    2    1    2    0    0  0.00000000000E+00  0.00000000000E+00  0.38800168028E+03  0.24981543408E+04  0.24678390966E+04 0.  0.
        2    1    3    3  502    0 -0.51042794222E+03  0.10394708162E+04 -0.23728588491E+03  0.11820917279E+04  0.25500000920E-02 0. -1.
       -2    1    3    3    0  502  0.51042794222E+03 -0.10394708162E+04  0.62528756519E+03  0.13160626129E+04  0.25500000920E-02 0.  1.
</event>
<event>
 5   0  0.6477703E-06  0.2487834E+04  0.7818609E-02  0.8407333E-01
        1   -1    0    0  501    0  0.00000000000E+00  0.00000000000E+00  0.92721193705E+03  0.92721193707E+03  0.50400001928E-02 0. -1.
       -1   -1    0    0    0  501  0.00000000000E+00  0.00000000000E+00 -0.16687983373E+04  0.16687983373E+04  0.50400001928E-02 0.  1.
    10030    2    1    2    0    0  0.00000000000E+00  0.00000000000E+00 -0.74158640027E+03  0.25960102744E+04  0.24878341898E+04 0.  0.
        5    1    3    3  502    0  0.66329109666E+03  0.12656165123E+03 -0.14608872292E+04  0.16094056409E+04  0.46999998093E+01 0.  1.
       -5    1    3    3    0  502 -0.66329109666E+03 -0.12656165123E+03  0.71930082890E+03  0.98660463354E+03  0.46999998093E+01 0. -1.
</event>
<event>
 5   0  0.1526824E-05  0.2505092E+04  0.7818609E-02  0.8401174E-01
        2   -1    0    0  501    0  0.00000000000E+00  0.00000000000E+00  0.20458657167E+04  0.20458657167E+04  0.25500000920E-02 0. -1.
       -2   -1    0    0    0  501  0.00000000000E+00  0.00000000000E+00 -0.76684981081E+03  0.76684981081E+03  0.25500000920E-02 0.  1.
    10030    2    1    2    0    0  0.00000000000E+00  0.00000000000E+00  0.12790159059E+04  0.28127155275E+04  0.25050922041E+04 0.  0.
        2    1    3    3  502    0  0.11587102953E+04  0.47533517653E+03  0.65955107729E+03  0.14154719008E+04  0.25500000920E-02 0.  1.
       -2    1    3    3    0  502 -0.11587102953E+04 -0.47533517653E+03  0.61946482861E+03  0.13972436267E+04  0.25500000920E-02 0. -1.
</event>
<event>
 5   0  0.1468512E-05  0.2477490E+04  0.7818609E-02  0.8411049E-01
        2   -1    0    0  501    0  0.00000000000E+00  0.00000000000E+00  0.21844708252E+04  0.21844708252E+04  0.25500000920E-02 0. -1.
       -2   -1    0    0    0  501  0.00000000000E+00  0.00000000000E+00 -0.70245340848E+03  0.70245340848E+03  0.25500000920E-02 0.  1.
    10030    2    1    2    0    0  0.00000000000E+00  0.00000000000E+00  0.14820174168E+04  0.28869242337E+04  0.24774898401E+04 0.  0.
        4    1    3    3  502    0 -0.19828132232E+03 -0.95009981733E+03 -0.15592669034E+03  0.98301571266E+03  0.12699999809E+01 0.  1.
       -4    1    3    3    0  502  0.19828132232E+03  0.95009981733E+03  0.16379441071E+04  0.19039085211E+04  0.12699999809E+01 0. -1.
</event>
<event>
 5   0  0.1501947E-05  0.2509811E+04  0.7818609E-02  0.8399499E-01
        2   -1    0    0  501    0  0.00000000000E+00  0.00000000000E+00  0.16280728832E+04  0.16280728832E+04  0.25500000920E-02 0.  1.
       -2   -1    0    0    0  501  0.00000000000E+00  0.00000000000E+00 -0.96727074898E+03  0.96727074899E+03  0.25500000920E-02 0. -1.
    10030    2    1    2    0    0  0.00000000000E+00  0.00000000000E+00  0.66080213420E+03  0.25953436322E+04  0.25098105722E+04 0.  0.
        3    1    3    3  502    0  0.54924111734E+03 -0.10566949646E+04 -0.78704112167E+02  0.11935092797E+04  0.10100000352E+00 0. -1.
       -3    1    3    3    0  502 -0.54924111734E+03  0.10566949646E+04  0.73950624637E+03  0.14018343525E+04  0.10100000352E+00 0.  1.
</event>
<event>
 5   0  0.6290861E-06  0.2496165E+04  0.7818609E-02  0.8404353E-01
       -1   -1    0    0    0  501  0.00000000000E+00  0.00000000000E+00  0.22125363880E+04  0.22125363880E+04  0.50400001928E-02 0. -1.
        1   -1    0    0  501    0  0.00000000000E+00  0.00000000000E+00 -0.70403815027E+03  0.70403815029E+03  0.50400001928E-02 0.  1.
    10030    2    1    2    0    0  0.00000000000E+00  0.00000000000E+00  0.15084982378E+04  0.29165745383E+04  0.24961650795E+04 0.  0.
        1    1    3    3  502    0  0.27127332846E+03  0.26784986879E+03  0.21428426392E+04  0.21764896847E+04  0.50400001928E-02 0. -1.
       -1    1    3    3    0  502 -0.27127332846E+03 -0.26784986879E+03 -0.63434440146E+03  0.74008485367E+03  0.50400001928E-02 0.  1.
</event>
<event>
 5   0  0.6105353E-06  0.2491021E+04  0.7818609E-02  0.8406191E-01
       -1   -1    0    0    0  501  0.00000000000E+00  0.00000000000E+00  0.96729791500E+03  0.96729791501E+03  0.50400001928E-02 0.  1.
        1   -1    0    0  501    0  0.00000000000E+00  0.00000000000E+00 -0.16037417751E+04  0.16037417751E+04  0.50400001928E-02 0. -1.
    10030    2    1    2    0    0  0.00000000000E+00  0.00000000000E+00 -0.63644386008E+03  0.25710396901E+04  0.24910207348E+04 0.  0.
        3    1    3    3  502    0  0.58344155058E+03  0.78434428463E+03 -0.11148283539E+04  0.14827144933E+04  0.10100000352E+00 0. -1.
       -3    1    3    3    0  502 -0.58344155058E+03 -0.78434428463E+03  0.47838449386E+03  0.10883251968E+04  0.10100000352E+00 0.  1.
</event>
<event>
 5   0  0.6477703E-06  0.2508796E+04  0.7818609E-02  0.8399859E-01
        1   -1    0    0  501    0  0.00000000000E+00  0.00000000000E+00  0.12767959981E+04  0.12767959981E+04  0.50400001928E-02 0. -1.
       -1   -1    0    0    0  501  0.00000000000E+00  0.00000000000E+00 -0.12323928919E+04  0.12323928919E+04  0.50400001928E-02 0.  1.
    10030    2    1    2    0    0  0.00000000000E+00  0.00000000000E+00  0.44403106202E+02  0.25091888899E+04  0.25087959761E+04 0.  0.
        5    1    3    3  502    0 -0.49319123229E+03  0.39466199950E+03  0.11061131972E+04  0.12737755612E+04  0.46999998093E+01 0. -1.
       -5    1    3    3    0  502  0.49319123229E+03 -0.39466199950E+03 -0.10617100910E+04  0.12354133287E+04  0.46999998093E+01 0.  1.
</event>
<event>
 5   0  0.6477703E-06  0.2652947E+04  0.7818609E-02  0.8350435E-01
       -1   -1    0    0    0  501  0.00000000000E+00  0.00000000000E+00  0.19706301899E+04  0.19706301899E+04  0.50400001928E-02 0.  1.
        1   -1    0    0  501    0  0.00000000000E+00  0.00000000000E+00 -0.89287782345E+03  0.89287782346E+03  0.50400001928E-02 0. -1.
    10030    2    1    2    0    0  0.00000000000E+00  0.00000000000E+00  0.10777523665E+04  0.28635080134E+04  0.26529470366E+04 0.  0.
        5    1    3    3  502    0 -0.27133297012E+03 -0.10522060300E+04 -0.28226081950E+03  0.11226986998E+04  0.46999998093E+01 0.  1.
       -5    1    3    3    0  502  0.27133297012E+03  0.10522060300E+04  0.13600131860E+04  0.17408093136E+04  0.46999998093E+01 0. -1.
</event>
<event>
 5   0  0.1526824E-05  0.2510864E+04  0.7818609E-02  0.8399125E-01
        2   -1    0    0  501    0  0.00000000000E+00  0.00000000000E+00  0.23494618696E+04  0.23494618696E+04  0.25500000920E-02 0. -1.
       -2   -1    0    0    0  501  0.00000000000E+00  0.00000000000E+00 -0.67083856049E+03  0.67083856049E+03  0.25500000920E-02 0.  1.
    10030    2    1    2    0    0  0.00000000000E+00  0.00000000000E+00  0.16786233092E+04  0.30203004301E+04  0.25108640892E+04 0.  0.
        2    1    3    3  502    0 -0.47316461596E+03 -0.82035236184E+03 -0.15206973310E+03  0.95916002581E+03  0.25500000920E-02 0.  1.
       -2    1    3    3    0  502  0.47316461596E+03  0.82035236184E+03  0.18306930423E+04  0.20611404043E+04  0.25500000920E-02 0. -1.
</event>
<event>
 5   0  0.1526824E-05  0.2497015E+04  0.7818609E-02  0.8404050E-01
       -2   -1    0    0    0  501  0.00000000000E+00  0.00000000000E+00  0.10530650693E+04  0.10530650693E+04  0.25500000920E-02 0. -1.
        2   -1    0    0  501    0  0.00000000000E+00  0.00000000000E+00 -0.14802231360E+04  0.14802231360E+04  0.25500000920E-02 0.  1.
    10030    2    1    2    0    0  0.00000000000E+00  0.00000000000E+00 -0.42715806672E+03  0.25332882053E+04  0.24970152417E+04 0.  0.
        2    1    3    3  502    0  0.43908825602E+03 -0.11085212306E+04 -0.58930118285E+03  0.13299976314E+04  0.25500000920E-02 0.  1.
       -2    1    3    3    0  502 -0.43908825602E+03  0.11085212306E+04  0.16214311613E+03  0.12032905740E+04  0.25500000920E-02 0. -1.
</event>
<event>
 5   0  0.6105353E-06  0.2502408E+04  0.7818609E-02  0.8402128E-01
       -1   -1    0    0    0  501  0.00000000000E+00  0.00000000000E+00  0.17574733600E+04  0.17574733600E+04  0.50400001928E-02 0. -1.
        1   -1    0    0  501    0  0.00000000000E+00  0.00000000000E+00 -0.89077357601E+03  0.89077357603E+03  0.50400001928E-02 0.  1.
    10030    2    1    2    0    0  0.00000000000E+00  0.00000000000E+00  0.86669978398E+03  0.26482469360E+04  0.25024075045E+04 0.  0.
        3    1    3    3  502    0  0.16703691554E+03  0.11883704562E+04  0.58615553060E+02  0.12014830276E+04  0.10100000352E+00 0.  1.
       -3    1    3    3    0  502 -0.16703691554E+03 -0.11883704562E+04  0.80808423092E+03  0.14467639084E+04  0.10100000352E+00 0. -1.
</event>
<event>
 5   0  0.6290861E-06  0.2486707E+04  0.7818609E-02  0.8407737E-01
        1   -1    0    0  501    0  0.00000000000E+00  0.00000000000E+00  0.84856957349E+03  0.84856957350E+03  0.50400001928E-02 0.  1.
       -1   -1    0    0    0  501  0.00000000000E+00  0.00000000000E+00 -0.18218043638E+04  0.18218043638E+04  0.50400001928E-02 0. -1.
    10030    2    1    2    0    0  0.00000000000E+00  0.00000000000E+00 -0.97323479035E+03  0.26703739373E+04  0.24867068601E+04 0.  0.
        1    1    3    3  502    0  0.55905873423E+03 -0.24433237796E+03  0.67676597961E+03  0.91118448759E+03  0.50400001928E-02 0.  1.
       -1    1    3    3    0  502 -0.55905873423E+03  0.24433237796E+03 -0.16500007700E+04  0.17591894498E+04  0.50400001928E-02 0. -1.
</event>
<event>
 5   0  0.1572732E-05  0.2454962E+04  0.7818609E-02  0.8419209E-01
       -2   -1    0    0    0  501  0.00000000000E+00  0.00000000000E+00  0.15260624295E+04  0.15260624295E+04  0.25500000920E-02 0. -1.
        2   -1    0    0  501    0  0.00000000000E+00  0.00000000000E+00 -0.98731816269E+03  0.98731816269E+03  0.25500000920E-02 0.  1.
    10030    2    1    2    0    0  0.00000000000E+00  0.00000000000E+00  0.53874426680E+03  0.25133805922E+04  0.24549616323E+04 0.  0.
        1    1    3    3  502    0  0.33776833475E+03  0.11759983812E+04  0.36994162532E+03  0.12782474122E+04  0.50400001928E-02 0.  1.
       -1    1    3    3    0  502 -0.33776833475E+03 -0.11759983812E+04  0.16880264149E+03  0.12351331800E+04  0.50400001928E-02 0. -1.
</event>
<event>
 5   0  0.1550483E-05  0.2493935E+04  0.7818609E-02  0.8405149E-01
        2   -1    0    0  501    0  0.00000000000E+00  0.00000000000E+00  0.13963260805E+04  0.13963260805E+04  0.25500000920E-02 0. -1.
       -2   -1    0    0    0  501  0.00000000000E+00  0.00000000000E+00 -0.11135852485E+04  0.11135852485E+04  0.25500000920E-02 0.  1.
    10030    2    1    2    0    0  0.00000000000E+00  0.00000000000E+00  0.28274083200E+03  0.25099113289E+04  0.24939351437E+04 0.  0.
        5    1    3    3  502    0 -0.20877417731E+02  0.58357509530E+03  0.12502043739E+04  0.13798655098E+04  0.46999998093E+01 0. -1.
       -5    1    3    3    0  502  0.20877417731E+02 -0.58357509530E+03 -0.96746354194E+03  0.11300458192E+04  0.46999998093E+01 0.  1.
</event>
<event>
 5   0  0.6104486E-06  0.2513988E+04  0.7818609E-02  0.8398019E-01
       -1   -1    0    0    0  501  0.00000000000E+00  0.00000000000E+00  0.87632430457E+03  0.87632430458E+03  0.50400001928E-02 0. -1.
        1   -1    0    0  501    0  0.00000000000E+00  0.00000000000E+00 -0.18030248971E+04  0.18030248971E+04  0.50400001928E-02 0.  1.
    10030    2    1    2    0    0  0.00000000000E+00  0.00000000000E+00 -0.92670059248E+03  0.26793492016E+04  0.25139884956E+04 0.  0.
        2    1    3    3  502    0  0.10919095460E+04  0.51107792695E+02  0.19808049711E+03  0.11109069927E+04  0.25500000920E-02 0. -1.
       -2    1    3    3    0  502 -0.10919095460E+04 -0.51107792695E+02 -0.11247810896E+04  0.15684422089E+04  0.25500000920E-02 0.  1.
</event>
<event>
 5   0  0.6104486E-06  0.2475190E+04  0.7818609E-02  0.8411878E-01
       -1   -1    0    0    0  501  0.00000000000E+00  0.00000000000E+00  0.11665075691E+04  0.11665075691E+04  0.50400001928E-02 0.  1.
        1   -1    0    0  501    0  0.00000000000E+00  0.00000000000E+00 -0.13130141962E+04  0.13130141962E+04  0.50400001928E-02 0. -1.
    10030    2    1    2    0    0  0.00000000000E+00  0.00000000000E+00 -0.14650662707E+03  0.24795217654E+04  0.24751896883E+04 0.  0.
        2    1    3    3  502    0 -0.13783437146E+02 -0.88407694711E+03  0.79420623598E+03  0.11885056066E+04  0.25500000920E-02 0.  1.
       -2    1    3    3    0  502  0.13783437146E+02  0.88407694711E+03 -0.94071286306E+03  0.12910161588E+04  0.25500000920E-02 0. -1.
</event>
<event>
 5   0  0.6105353E-06  0.2457237E+04  0.7818609E-02  0.8418380E-01
        1   -1    0    0  501    0  0.00000000000E+00  0.00000000000E+00  0.10547490638E+04  0.10547490639E+04  0.50400001928E-02 0.  1.
       -1   -1    0    0    0  501  0.00000000000E+00  0.00000000000E+00 -0.14311494484E+04  0.14311494484E+04  0.50400001928E-02 0. -1.
    10030    2    1    2    0    0  0.00000000000E+00  0.00000000000E+00 -0.37640038456E+03  0.24858985123E+04  0.24572370996E+04 0.  0.
        3    1    3    3  502    0 -0.96270030959E+03  0.70940381866E+03 -0.47337081324E+03  0.12861281433E+04  0.10100000352E+00 0.  1.
       -3    1    3    3    0  502  0.96270030959E+03 -0.70940381866E+03  0.96970428681E+02  0.11997703690E+04  0.10100000352E+00 0. -1.
</event>
<event>
 5   0  0.1501947E-05  0.2499351E+04  0.7818609E-02  0.8403217E-01
        2   -1    0    0  501    0  0.00000000000E+00  0.00000000000E+00  0.11524960851E+04  0.11524960851E+04  0.25500000920E-02 0.  1.
       -2   -1    0    0    0  501  0.00000000000E+00  0.00000000000E+00 -0.13550489911E+04  0.13550489912E+04  0.25500000920E-02 0. -1.
    10030    2    1    2    0    0  0.00000000000E+00  0.00000000000E+00 -0.20255290601E+03  0.25075450763E+04  0.24993508417E+04 0.  0.
        3    1    3    3  502    0  0.57456939840E+03  0.10683170993E+04  0.20013692437E+03  0.12294251571E+04  0.10100000352E+00 0.  1.
       -3    1    3    3    0  502 -0.57456939840E+03 -0.10683170993E+04 -0.40268983038E+03  0.12781199192E+04  0.10100000352E+00 0. -1.
</event>
<event>
 5   0  0.6477703E-06  0.2501869E+04  0.7818609E-02  0.8402320E-01
       -1   -1    0    0    0  501  0.00000000000E+00  0.00000000000E+00  0.65218925912E+03  0.65218925914E+03  0.50400001928E-02 0. -1.
        1   -1    0    0  501    0  0.00000000000E+00  0.00000000000E+00 -0.23993596834E+04  0.23993596834E+04  0.50400001928E-02 0.  1.
    10030    2    1    2    0    0  0.00000000000E+00  0.00000000000E+00 -0.17471704242E+04  0.30515489425E+04  0.25018685931E+04 0.  0.
        5    1    3    3  502    0 -0.71929375394E+03 -0.11656346466E+03 -0.21137612785E+04  0.22358397479E+04  0.46999998093E+01 0.  1.
       -5    1    3    3    0  502  0.71929375394E+03  0.11656346466E+03  0.36659085426E+03  0.81570919461E+03  0.46999998093E+01 0. -1.
</event>
<event>
 5   0  0.6104486E-06  0.2489244E+04  0.7818609E-02  0.8406827E-01
        1   -1    0    0  501    0  0.00000000000E+00  0.00000000000E+00  0.14251111409E+04  0.14251111409E+04  0.50400001928E-02 0. -1.
       -1   -1    0    0    0  501  0.00000000000E+00  0.00000000000E+00 -0.10869916296E+04  0.10869916296E+04  0.50400001928E-02 0.  1.
    10030    2    1    2    0    0  0.00000000000E+00  0.00000000000E+00  0.33811951135E+03  0.25121027705E+04  0.24892439667E+04 0.  0.
        2    1    3    3  502    0  0.40191978379E+03  0.29898962615E+03 -0.98076672580E+03  0.11012890990E+04  0.25500000920E-02 0.  1.
       -2    1    3    3    0  502 -0.40191978379E+03 -0.29898962615E+03  0.13188862372E+04  0.14108136715E+04  0.25500000920E-02 0. -1.
</event>
<event>
 5   0  0.1501947E-05  0.2538013E+04  0.7818609E-02  0.8389567E-01
        2   -1    0    0  501    0  0.00000000000E+00  0.00000000000E+00  0.12447061969E+04  0.12447061969E+04  0.25500000920E-02 0. -1.
       -2   -1    0    0    0  501  0.00000000000E+00  0.00000000000E+00 -0.12937810645E+04  0.12937810645E+04  0.25500000920E-02 0.  1.
    10030    2    1    2    0    0  0.00000000000E+00  0.00000000000E+00 -0.49074867653E+02  0.25384872614E+04  0.25380128514E+04 0.  0.
        3    1    3    3  502    0 -0.12884629929E+03 -0.12401067378E+04 -0.26103714270E+03  0.12738157206E+04  0.10100000352E+00 0.  1.
       -3    1    3    3    0  502  0.12884629929E+03  0.12401067378E+04  0.21196227505E+03  0.12646715408E+04  0.10100000352E+00 0. -1.
</event>
<event>
 5   0  0.1550483E-05  0.2507651E+04  0.7818609E-02  0.8400265E-01
        2   -1    0    0  501    0  0.00000000000E+00  0.00000000000E+00  0.12940505863E+04  0.12940505863E+04  0.25500000920E-02 0.  1.
       -2   -1    0    0    0  501  0.00000000000E+00  0.00000000000E+00 -0.12148507174E+04  0.12148507174E+04  0.25500000920E-02 0. -1.
    10030    2    1    2    0    0  0.00000000000E+00  0.00000000000E+00  0.79199868960E+02  0.25089013037E+04  0.25076509192E+04 0.  0.
        5    1    3    3  502    0  0.79300593745E+03 -0.46253680612E+02  0.10101652765E+04  0.12850890224E+04  0.46999998093E+01 0.  1.
       -5    1    3    3    0  502 -0.79300593745E+03  0.46253680612E+02 -0.93096540750E+03  0.12238122813E+04  0.46999998093E+01 0. -1.
</event>
<event>
 5   0  0.1550483E-05  0.2500348E+04  0.7818609E-02  0.8402862E-01
       -2   -1    0    0    0  501  0.00000000000E+00  0.00000000000E+00  0.12249951967E+04  0.12249951967E+04  0.25500000920E-02 0.  1.
        2   -1    0    0  501    0  0.00000000000E+00  0.00000000000E+00 -0.12758701119E+04  0.12758701119E+04  0.25500000920E-02 0. -1.
    10030    2    1    2    0    0  0.00000000000E+00  0.00000000000E+00 -0.50874915204E+02  0.25008653086E+04  0.25003477828E+04 0.  0.
        5    1    3    3  502    0  0.17723597939E+03 -0.11045845964E+04 -0.58357889500E+03  0.12617868837E+04  0.46999998093E+01 0. -1.
       -5    1    3    3    0  502 -0.17723597939E+03  0.11045845964E+04  0.53270397980E+03  0.12390784249E+04  0.46999998093E+01 0.  1.
</event>
<event>
 5   0  0.1550483E-05  0.2536007E+04  0.7818609E-02  0.8390269E-01
        2   -1    0    0  501    0  0.00000000000E+00  0.00000000000E+00  0.86420523065E+03  0.86420523066E+03  0.25500000920E-02 0. -1.
       -2   -1    0    0    0  501  0.00000000000E+00  0.00000000000E+00 -0.18604757042E+04  0.18604757042E+04  0.25500000920E-02 0.  1.
    10030    2    1    2    0    0  0.00000000000E+00  0.00000000000E+00 -0.99627047358E+03  0.27246809349E+04  0.25360069677E+04 0.  0.
        5    1    3    3  502    0 -0.52907533775E+03 -0.11378477613E+04 -0.69387777725E+03  0.14339130729E+04  0.46999998093E+01 0.  1.
       -5    1    3    3    0  502  0.52907533775E+03  0.11378477613E+04 -0.30239269633E+03  0.12907678620E+04  0.46999998093E+01 0. -1.
</event>
<event>
 5   0  0.1526824E-05  0.2510663E+04  0.7818609E-02  0.8399196E-01
       -2   -1    0    0    0  501  0.00000000000E+00  0.00000000000E+00  0.10333851642E+04  0.10333851642E+04  0.25500000920E-02 0.  1.
        2   -1    0    0  501    0  0.00000000000E+00  0.00000000000E+00 -0.15249470944E+04  0.15249470944E+04  0.25500000920E-02 0. -1.
    10030    2    1    2    0    0  0.00000000000E+00  0.00000000000E+00 -0.49156193017E+03  0.25583322586E+04  0.25106634211E+04 0.  0.
        2    1    3    3  502    0 -0.96028056829E+03  0.20364486059E+03  0.55153789007E+03  0.11259680472E+04  0.25500000920E-02 0.  1.
       -2    1    3    3    0  502  0.96028056829E+03 -0.20364486059E+03 -0.10430998202E+04  0.14323642114E+04  0.25500000920E-02 0. -1.
</event>
<event>
 5   0  0.1468512E-05  0.2499343E+04  0.7818609E-02  0.8403220E-01
        2   -1    0    0  501    0  0.00000000000E+00  0.00000000000E+00  0.22917739567E+04  0.22917739567E+04  0.25500000920E-02 0. -1.
       -2   -1    0    0    0  501  0.00000000000E+00  0.00000000000E+00 -0.68142782249E+03  0.68142782249E+03  0.25500000920E-02 0.  1.
    10030    2    1    2    0    0  0.00000000000E+00  0.00000000000E+00  0.16103461343E+04  0.29732017792E+04  0.24993427432E+04 0.  0.
        4    1    3    3  502    0  0.72105089186E+03  0.82462438784E+03  0.89677195933E+02  0.10990738747E+04  0.12699999809E+01 0.  1.
       -4    1    3    3    0  502 -0.72105089186E+03 -0.82462438784E+03  0.15206689383E+04  0.18741279045E+04  0.12699999809E+01 0. -1.
</event>
<event>
 5   0  0.1501947E-05  0.2454824E+04  0.7818609E-02  0.8419259E-01
       -2   -1    0    0    0  501  0.00000000000E+00  0.00000000000E+00  0.13922101736E+04  0.13922101736E+04  0.25500000920E-02 0. -1.
        2   -1    0    0  501    0  0.00000000000E+00  0.00000000000E+00 -0.10821216298E+04  0.10821216298E+04  0.25500000920E-02 0.  1.
    10030    2    1    2    0    0  0.00000000000E+00  0.00000000000E+00  0.31008854378E+03  0.24743318034E+04  0.24548244272E+04 0.  0.
        3    1    3    3  502    0 -0.41381816833E+03  0.72635476272E+03 -0.75082102358E+03  0.11236409290E+04  0.10100000352E+00 0.  1.
       -3    1    3    3    0  502  0.41381816833E+03 -0.72635476272E+03  0.10609095674E+04  0.13506908744E+04  0.10100000352E+00 0. -1.
</event>
<event>
 5   0  0.1550483E-05  0.2423798E+04  0.7818609E-02  0.8430647E-01
       -2   -1    0    0    0  501  0.00000000000E+00  0.00000000000E+00  0.11123616344E+04  0.11123616344E+04  0.25500000920E-02 0.  1.
        2   -1    0    0  501    0  0.00000000000E+00  0.00000000000E+00 -0.13203434032E+04  0.13203434032E+04  0.25500000920E-02 0. -1.
    10030    2    1    2    0    0  0.00000000000E+00  0.00000000000E+00 -0.20798176871E+03  0.24327050376E+04  0.24237981318E+04 0.  0.
        5    1    3    3  502    0 -0.48113313474E+03  0.25745953176E+03 -0.11900498908E+04  0.13092040851E+04  0.46999998093E+01 0. -1.
       -5    1    3    3    0  502  0.48113313474E+03 -0.25745953176E+03  0.98206812210E+03  0.11235009525E+04  0.46999998093E+01 0.  1.
</event>
<event>
 5   0  0.1468512E-05  0.2497291E+04  0.7818609E-02  0.8403951E-01
        2   -1    0    0  501    0  0.00000000000E+00  0.00000000000E+00  0.18630741806E+04  0.18630741806E+04  0.25500000920E-02 0.  1.
       -2   -1    0    0    0  501  0.00000000000E+00  0.00000000000E+00 -0.83685120740E+03  0.83685120740E+03  0.25500000920E-02 0. -1.
    10030    2    1    2    0    0  0.00000000000E+00  0.00000000000E+00  0.10262229732E+04  0.26999253880E+04  0.24972912345E+04 0.  0.
        4    1    3    3  502    0 -0.35908382552E+03  0.10636790332E+04 -0.77829053082E+02  0.11253502805E+04  0.12699999809E+01 0. -1.
       -4    1    3    3    0  502  0.35908382552E+03 -0.10636790332E+04  0.11040520263E+04  0.15745751075E+04  0.12699999809E+01 0.  1.
</event>
<event>
 5   0  0.5164625E-06  0.2580106E+04  0.7818609E-02  0.8374990E-01
        3   -1    0    0  501    0  0.00000000000E+00  0.00000000000E+00  0.14921399993E+04  0.14921400027E+04  0.10100000352E+00 0. -1.
       -3   -1    0    0    0  501  0.00000000000E+00  0.00000000000E+00 -0.11153355569E+04  0.11153355615E+04  0.10100000352E+00 0.  1.
    10030    2    1    2    0    0  0.00000000000E+00  0.00000000000E+00  0.37680444237E+03  0.26074755642E+04  0.25801060502E+04 0.  0.
        5    1    3    3  502    0  0.95251732226E+02  0.12209143516E+04 -0.22149861394E+03  0.12445033035E+04  0.46999998093E+01 0.  1.
       -5    1    3    3    0  502 -0.95251732226E+02 -0.12209143516E+04  0.59830305631E+03  0.13629722607E+04  0.46999998093E+01 0. -1.
</event>
<event>
 5   0  0.1572732E-05  0.2484437E+04  0.7818609E-02  0.8408551E-01
       -2   -1    0    0    0  501  0.00000000000E+00  0.00000000000E+00  0.74118261778E+03  0.74118261778E+03  0.25500000920E-02 0. -1.
        2   -1    0    0  501    0  0.00000000000E+00  0.00000000000E+00 -0.20819514284E+04  0.20819514284E+04  0.25500000920E-02 0.  1.
    10030    2    1    2    0    0  0.00000000000E+00  0.00000000000E+00 -0.13407688106E+04  0.28231340462E+04  0.24844365235E+04 0.  0.
        1    1    3    3  502    0 -0.37733518979E+03 -0.10608451087E+04 -0.74129514256E+02  0.11283923853E+04  0.50400001928E-02 0. -1.
       -1    1    3    3    0  502  0.37733518979E+03  0.10608451087E+04 -0.12666392964E+04  0.16947416609E+04  0.50400001928E-02 0.  1.
</event>
<event>
 5   0  0.6104486E-06  0.2496950E+04  0.7818609E-02  0.8404073E-01
        1   -1    0    0  501    0  0.00000000000E+00  0.00000000000E+00  0.17968896512E+04  0.17968896512E+04  0.50400001928E-02 0. -1.
       -1   -1    0    0    0  501  0.00000000000E+00  0.00000000000E+00 -0.86743757612E+03  0.86743757613E+03  0.50400001928E-02 0.  1.
    10030    2    1    2    0    0  0.00000000000E+00  0.00000000000E+00  0.92945207507E+03  0.26643272273E+04  0.24969498222E+04 0.  0.
        2    1    3    3  502    0  0.38351154031E+03 -0.28472465375E+03 -0.76608611757E+03  0.90279409034E+03  0.25500000920E-02 0.  1.
       -2    1    3    3    0  502 -0.38351154031E+03  0.28472465375E+03  0.16955381926E+04  0.17615331370E+04  0.25500000920E-02 0. -1.
</event>
<event>
 5   0  0.1501947E-05  0.2499705E+04  0.7818609E-02  0.8403091E-01
        2   -1    0    0  501    0  0.00000000000E+00  0.00000000000E+00  0.18236404159E+04  0.18236404159E+04  0.25500000920E-02 0.  1.
       -2   -1    0    0    0  501  0.00000000000E+00  0.00000000000E+00 -0.85660043923E+03  0.85660043923E+03  0.25500000920E-02 0. -1.
    10030    2    1    2    0    0  0.00000000000E+00  0.00000000000E+00  0.96703997667E+03  0.26802408551E+04  0.24997049276E+04 0.  0.
        3    1    3    3  502    0 -0.13449065419E+03  0.47734938437E+03 -0.74658699837E+03  0.89629366123E+03  0.10100000352E+00 0. -1.
       -3    1    3    3    0  502  0.13449065419E+03 -0.47734938437E+03  0.17136269750E+04  0.17839471939E+04  0.10100000352E+00 0.  1.
</event>
<event>
 5   0  0.6346420E-06  0.2513397E+04  0.7818609E-02  0.8398228E-01
       -1   -1    0    0    0  501  0.00000000000E+00  0.00000000000E+00  0.79316281790E+03  0.79316281791E+03  0.50400001928E-02 0.  1.
        1   -1    0    0  501    0  0.00000000000E+00  0.00000000000E+00 -0.19911308333E+04  0.19911308333E+04  0.50400001928E-02 0. -1.
    10030    2    1    2    0    0  0.00000000000E+00  0.00000000000E+00 -0.11979680154E+04  0.27842936512E+04  0.25133968589E+04 0.  0.
        4    1    3    3  502    0  0.11696520748E+04  0.39257588052E+03 -0.86366612617E+03  0.15060287475E+04  0.12699999809E+01 0. -1.
       -4    1    3    3    0  502 -0.11696520748E+04 -0.39257588052E+03 -0.33430188926E+03  0.12782649037E+04  0.12699999809E+01 0.  1.
</event>
<event>
 5   0  0.6290861E-06  0.2594640E+04  0.7818609E-02  0.8370024E-01
        1   -1    0    0  501    0  0.00000000000E+00  0.00000000000E+00  0.16169515345E+04  0.16169515345E+04  0.50400001928E-02 0.  1.
       -1   -1    0    0    0  501  0.00000000000E+00  0.00000000000E+00 -0.10408715095E+04  0.10408715095E+04  0.50400001928E-02 0. -1.
    10030    2    1    2    0    0  0.00000000000E+00  0.00000000000E+00  0.57608002500E+03  0.26578230439E+04  0.25946396932E+04 0.  0.
        1    1    3    3  502    0  0.73062869422E+03  0.58671257624E+03 -0.63102013997E+03  0.11297063127E+04  0.50400001928E-02 0. -1.
       -1    1    3    3    0  502 -0.73062869422E+03 -0.58671257624E+03  0.12071001650E+04  0.15281167312E+04  0.50400001928E-02 0.  1.
</event>
<event>
 5   0  0.6477703E-06  0.2489793E+04  0.7818609E-02  0.8406631E-01
       -1   -1    0    0    0  501  0.00000000000E+00  0.00000000000E+00  0.12742468885E+04  0.12742468885E+04  0.50400001928E-02 0.  1.
        1   -1    0    0  501    0  0.00000000000E+00  0.00000000000E+00 -0.12162222943E+04  0.12162222944E+04  0.50400001928E-02 0. -1.
    10030    2    1    2    0    0  0.00000000000E+00  0.00000000000E+00  0.58024594151E+02  0.24904691829E+04  0.24897931435E+04 0.  0.
        5    1    3    3  502    0  0.11601065328E+04  0.13830165304E+03 -0.40095423983E+03  0.12352169474E+04  0.46999998093E+01 0. -1.
       -5    1    3    3    0  502 -0.11601065328E+04 -0.13830165304E+03  0.45897883398E+03  0.12552522355E+04  0.46999998093E+01 0.  1.
</event>
<event>
 5   0  0.1468512E-05  0.2500167E+04  0.7818609E-02  0.8402926E-01
       -2   -1    0    0    0  501  0.00000000000E+00  0.00000000000E+00  0.13325550168E+04  0.13325550168E+04  0.25500000920E-02 0. -1.
        2   -1    0    0  501    0  0.00000000000E+00  0.00000000000E+00 -0.11727160717E+04  0.11727160718E+04  0.25500000920E-02 0.  1.
    10030    2    1    2    0    0  0.00000000000E+00  0.00000000000E+00  0.15983894500E+03  0.25052710885E+04  0.25001669421E+04 0.  0.
        4    1    3    3  502    0  0.11701045502E+04 -0.37157481190E+03 -0.15613431486E+03  0.12375750630E+04  0.12699999809E+01 0.  1.
       -4    1    3    3    0  502 -0.11701045502E+04  0.37157481190E+03  0.31597325986E+03  0.12676960255E+04  0.12699999809E+01 0. -1.
</event>
<event>
 5   0  0.6104486E-06  0.2774033E+04  0.7818609E-02  0.8311376E-01
        1   -1    0    0  501    0  0.00000000000E+00  0.00000000000E+00  0.15671458392E+04  0.15671458392E+04  0.50400001928E-02 0.  1.
       -1   -1    0    0    0  501  0.00000000000E+00  0.00000000000E+00 -0.12275909959E+04  0.12275909959E+04  0.50400001928E-02 0. -1.
    10030    2    1    2    0    0  0.00000000000E+00  0.00000000000E+00  0.33955484337E+03  0.27947368351E+04  0.27740325315E+04 0.  0.
        2    1    3    3  502    0  0.94839804585E+03 -0.10118367543E+04  0.14633032407E+03  0.13945196429E+04  0.25500000920E-02 0. -1.
       -2    1    3    3    0  502 -0.94839804585E+03  0.10118367543E+04  0.19322451930E+03  0.14002171923E+04  0.25500000920E-02 0.  1.
</event>
<event>
 5   0  0.1526824E-05  0.2460492E+04  0.7818609E-02  0.8417197E-01
       -2   -1    0    0    0  501  0.00000000000E+00  0.00000000000E+00  0.93300250632E+03  0.93300250633E+03  0.25500000920E-02 0. -1.
        2   -1    0    0  501    0  0.00000000000E+00  0.00000000000E+00 -0.16221880162E+04  0.16221880162E+04  0.25500000920E-02 0.  1.
    10030    2    1    2    0    0  0.00000000000E+00  0.00000000000E+00 -0.68918550984E+03  0.25551905225E+04  0.24604922148E+04 0.  0.
        2    1    3    3  502    0 -0.19130447362E+02  0.32939687046E+03  0.88619559746E+03  0.94562725703E+03  0.25500000920E-02 0. -1.
       -2    1    3    3    0  502  0.19130447362E+02 -0.32939687046E+03 -0.15753811073E+04  0.16095632655E+04  0.25500000920E-02 0.  1.
</event>
<event>
 5   0  0.1572732E-05  0.2503300E+04  0.7818609E-02  0.8401811E-01
       -2   -1    0    0    0  501  0.00000000000E+00  0.00000000000E+00  0.10786447111E+04  0.10786447111E+04  0.25500000920E-02 0.  1.
        2   -1    0    0  501    0  0.00000000000E+00  0.00000000000E+00 -0.14524035987E+04  0.14524035987E+04  0.25500000920E-02 0. -1.
    10030    2    1    2    0    0  0.00000000000E+00  0.00000000000E+00 -0.37375888764E+03  0.25310483098E+04  0.25032997903E+04 0.  0.
        1    1    3    3  502    0 -0.66048533468E+03 -0.10159145447E+04  0.13013106080E+03  0.12187113409E+04  0.50400001928E-02 0.  1.
       -1    1    3    3    0  502  0.66048533468E+03  0.10159145447E+04 -0.50388994843E+03  0.13123369688E+04  0.50400001928E-02 0. -1.
</event>
<event>
 5   0  0.1550483E-05  0.2492448E+04  0.7818609E-02  0.8405681E-01
       -2   -1    0    0    0  501  0.00000000000E+00  0.00000000000E+00  0.13865014803E+04  0.13865014803E+04  0.25500000920E-02 0. -1.
        2   -1    0    0  501    0  0.00000000000E+00  0.00000000000E+00 -0.11201384962E+04  0.11201384962E+04  0.25500000920E-02 0.  1.
    10030    2    1    2    0    0  0.00000000000E+00  0.00000000000E+00  0.26636298405E+03  0.25066399765E+04  0.24924475385E+04 0.  0.
        5    1    3    3  502    0  0.29761067134E+03  0.35721394050E+03 -0.10296365786E+04  0.11297554979E+04  0.46999998093E+01 0.  1.
       -5    1    3    3    0  502 -0.29761067134E+03 -0.35721394050E+03  0.12959995627E+04  0.13768844786E+04  0.46999998093E+01 0. -1.
</event>
<event>
 5   0  0.6104486E-06  0.2501960E+04  0.7818609E-02  0.8402287E-01
        1   -1    0    0  501    0  0.00000000000E+00  0.00000000000E+00  0.16128845097E+04  0.16128845097E+04  0.50400001928E-02 0.  1.
       -1   -1    0    0    0  501  0.00000000000E+00  0.00000000000E+00 -0.97028123676E+03  0.97028123678E+03  0.50400001928E-02 0. -1.
    10030    2    1    2    0    0  0.00000000000E+00  0.00000000000E+00  0.64260327289E+03  0.25831657464E+04  0.25019604927E+04 0.  0.
        2    1    3    3  502    0 -0.64854821175E+03  0.73505723672E+03 -0.48111557610E+03  0.10919689198E+04  0.25500000920E-02 0. -1.
       -2    1    3    3    0  502  0.64854821175E+03 -0.73505723672E+03  0.11237188490E+04  0.14911968266E+04  0.25500000920E-02 0.  1.
</event>
<event>
 5   0  0.6346420E-06  0.2503420E+04  0.7818609E-02  0.8401768E-01
        1   -1    0    0  501    0  0.00000000000E+00  0.00000000000E+00  0.15729207443E+04  0.15729207443E+04  0.50400001928E-02 0.  1.
       -1   -1    0    0    0  501  0.00000000000E+00  0.00000000000E+00 -0.99609480744E+03  0.99609480745E+03  0.50400001928E-02 0. -1.
    10030    2    1    2    0    0  0.00000000000E+00  0.00000000000E+00  0.57682593685E+03  0.25690155517E+04  0.25034202092E+04 0.  0.
        4    1    3    3  502    0 -0.72201461502E+03  0.94912899297E+03 -0.10184843459E+03  0.11968816425E+04  0.12699999809E+01 0. -1.
       -4    1    3    3    0  502  0.72201461502E+03 -0.94912899297E+03  0.67867437144E+03  0.13721339093E+04  0.12699999809E+01 0.  1.
</event>
<event>
 5   0  0.1468512E-05  0.2498336E+04  0.7818609E-02  0.8403578E-01
       -2   -1    0    0    0  501  0.00000000000E+00  0.00000000000E+00  0.10437462920E+04  0.10437462920E+04  0.25500000920E-02 0.  1.
        2   -1    0    0  501    0  0.00000000000E+00  0.00000000000E+00 -0.14950197374E+04  0.14950197374E+04  0.25500000920E-02 0. -1.
    10030    2    1    2    0    0  0.00000000000E+00  0.00000000000E+00 -0.45127344536E+03  0.25387660295E+04  0.24983364925E+04 0.  0.
        4    1    3    3  502    0 -0.53202871963E+03 -0.10793194361E+04 -0.56637577578E+03  0.13299504261E+04  0.12699999809E+01 0.  1.
       -4    1    3    3    0  502  0.53202871963E+03  0.10793194361E+04  0.11510233041E+03  0.12088156034E+04  0.12699999809E+01 0. -1.
</event>
<event>
 5   0  0.1501947E-05  0.2492273E+04  0.7818609E-02  0.8405743E-01
        2   -1    0    0  501    0  0.00000000000E+00  0.00000000000E+00  0.13812013249E+04  0.13812013249E+04  0.25500000920E-02 0. -1.
       -2   -1    0    0    0  501  0.00000000000E+00  0.00000000000E+00 -0.11242796355E+04  0.11242796355E+04  0.25500000920E-02 0.  1.
    10030    2    1    2    0    0  0.00000000000E+00  0.00000000000E+00  0.25692168948E+03  0.25054809604E+04  0.24922732772E+04 0.  0.
        3    1    3    3  502    0  0.10882924893E+04  0.18150807293E+03  0.71078074905E+03  0.13124538111E+04  0.10100000352E+00 0. -1.
       -3    1    3    3    0  502 -0.10882924893E+04 -0.18150807293E+03 -0.45385905957E+03  0.11930271493E+04  0.10100000352E+00 0.  1.
</event>
<event>
 5   0  0.6290861E-06  0.2506101E+04  0.7818609E-02  0.8400815E-01
        1   -1    0    0  501    0  0.00000000000E+00  0.00000000000E+00  0.94118050372E+03  0.94118050374E+03  0.50400001928E-02 0. -1.
       -1   -1    0    0    0  501  0.00000000000E+00  0.00000000000E+00 -0.16682613261E+04  0.16682613261E+04  0.50400001928E-02 0.  1.
    10030    2    1    2    0    0  0.00000000000E+00  0.00000000000E+00 -0.72708082241E+03  0.26094418299E+04  0.25061005848E+04 0.  0.
        1    1    3    3  502    0 -0.81443908092E+03 -0.88638149631E+03 -0.72596209042E+03  0.14057041404E+04  0.50400001928E-02 0.  1.
       -1    1    3    3    0  502  0.81443908092E+03  0.88638149631E+03 -0.11187319987E+01  0.12037376895E+04  0.50400001928E-02 0. -1.
</event>
<event>
 5   0  0.6105353E-06  0.2510305E+04  0.7818609E-02  0.8399324E-01
        1   -1    0    0  501    0  0.00000000000E+00  0.00000000000E+00  0.12773964187E+04  0.12773964187E+04  0.50400001928E-02 0. -1.
       -1   -1    0    0    0  501  0.00000000000E+00  0.00000000000E+00 -0.12332959093E+04  0.12332959093E+04  0.50400001928E-02 0.  1.
    10030    2    1    2    0    0  0.00000000000E+00  0.00000000000E+00  0.44100509457E+02  0.25106923280E+04  0.25103049837E+04 0.  0.
        3    1    3    3  502    0 -0.47171647435E+03 -0.93962749561E+03  0.70771530200E+03  0.12673899248E+04  0.10100000352E+00 0. -1.
       -3    1    3    3    0  502  0.47171647435E+03  0.93962749561E+03 -0.66361479254E+03  0.12433024032E+04  0.10100000352E+00 0.  1.
</event>
<event>
 5   0  0.6104486E-06  0.2504445E+04  0.7818609E-02  0.8401404E-01
       -1   -1    0    0    0  501  0.00000000000E+00  0.00000000000E+00  0.12908701333E+04  0.12908701333E+04  0.50400001928E-02 0. -1.
        1   -1    0    0  501    0  0.00000000000E+00  0.00000000000E+00 -0.12147318810E+04  0.12147318810E+04  0.50400001928E-02 0.  1.
    10030    2    1    2    0    0  0.00000000000E+00  0.00000000000E+00  0.76138252251E+02  0.25056020143E+04  0.25044449327E+04 0.  0.
        2    1    3    3  502    0  0.73021066304E+03 -0.67190234514E+03  0.80222875034E+03  0.12760216854E+04  0.25500000920E-02 0. -1.
       -2    1    3    3    0  502 -0.73021066304E+03  0.67190234514E+03 -0.72609049808E+03  0.12295803289E+04  0.25500000920E-02 0.  1.
</event>
<event>
 5   0  0.6104486E-06  0.2315724E+04  0.7818609E-02  0.8471747E-01
        1   -1    0    0  501    0  0.00000000000E+00  0.00000000000E+00  0.31899880707E+04  0.31899880708E+04  0.50400001928E-02 0.  1.
       -1   -1    0    0    0  501  0.00000000000E+00  0.00000000000E+00 -0.42026642947E+03  0.42026642950E+03  0.50400001928E-02 0. -1.
    10030    2    1    2    0    0  0.00000000000E+00  0.00000000000E+00  0.27697216413E+04  0.36102545003E+04  0.23157244194E+04 0.  0.
        2    1    3    3  502    0  0.16990846524E+03  0.10751261388E+04  0.20003860474E+04  0.22773470178E+04  0.25500000920E-02 0.  1.
       -2    1    3    3    0  502 -0.16990846524E+03 -0.10751261388E+04  0.76933559390E+03  0.13329074825E+04  0.25500000920E-02 0. -1.
</event>
<event>
 5   0  0.1550483E-05  0.2503242E+04  0.7818609E-02  0.8401831E-01
        2   -1    0    0  501    0  0.00000000000E+00  0.00000000000E+00  0.17955757368E+04  0.17955757368E+04  0.25500000920E-02 0. -1.
       -2   -1    0    0    0  501  0.00000000000E+00  0.00000000000E+00 -0.87245307853E+03  0.87245307853E+03  0.25500000920E-02 0.  1.
    10030    2    1    2    0    0  0.00000000000E+00  0.00000000000E+00  0.92312265827E+03  0.26680288153E+04  0.25032423609E+04 0.  0.
        5    1    3    3  502    0 -0.32037264410E+03 -0.63299347059E+03 -0.63743941113E+03  0.95376645871E+03  0.46999998093E+01 0.  1.
       -5    1    3    3    0  502  0.32037264410E+03  0.63299347059E+03  0.15605620694E+04  0.17142623566E+04  0.46999998093E+01 0. -1.
</event>
<event>
 5   0  0.6477703E-06  0.2502830E+04  0.7818609E-02  0.8401978E-01
        1   -1    0    0  501    0  0.00000000000E+00  0.00000000000E+00  0.24631767087E+04  0.24631767087E+04  0.50400001928E-02 0. -1.
       -1   -1    0    0    0  501  0.00000000000E+00  0.00000000000E+00 -0.63578064142E+03  0.63578064144E+03  0.50400001928E-02 0.  1.
    10030    2    1    2    0    0  0.00000000000E+00  0.00000000000E+00  0.18273960673E+04  0.30989573502E+04  0.25028304520E+04 0.  0.
        5    1    3    3  502    0  0.42469227045E+03  0.40729543598E+03 -0.45378589640E+03  0.74309947283E+03  0.46999998093E+01 0.  1.
       -5    1    3    3    0  502 -0.42469227045E+03 -0.40729543598E+03  0.22811819637E+04  0.23558578773E+04  0.46999998093E+01 0. -1.
</event>
<event>
 5   0  0.6105353E-06  0.2503849E+04  0.7818609E-02  0.8401615E-01
        1   -1    0    0  501    0  0.00000000000E+00  0.00000000000E+00  0.15746458809E+04  0.15746458809E+04  0.50400001928E-02 0. -1.
       -1   -1    0    0    0  501  0.00000000000E+00  0.00000000000E+00 -0.99534469080E+03  0.99534469082E+03  0.50400001928E-02 0.  1.
    10030    2    1    2    0    0  0.00000000000E+00  0.00000000000E+00  0.57930119005E+03  0.25699905717E+04  0.25038493704E+04 0.  0.
        3    1    3    3  502    0  0.69451605903E+03 -0.10376708445E+04  0.19669296259E+03  0.12640417198E+04  0.10100000352E+00 0. -1.
       -3    1    3    3    0  502 -0.69451605903E+03  0.10376708445E+04  0.38260822746E+03  0.13059488519E+04  0.10100000352E+00 0.  1.
</event>
<event>
 5   0  0.6477703E-06  0.2500772E+04  0.7818609E-02  0.8402711E-01
       -1   -1    0    0    0  501  0.00000000000E+00  0.00000000000E+00  0.10412627497E+04  0.10412627497E+04  0.50400001928E-02 0. -1.
        1   -1    0    0  501    0  0.00000000000E+00  0.00000000000E+00 -0.15015084304E+04  0.15015084304E+04  0.50400001928E-02 0.  1.
    10030    2    1    2    0    0  0.00000000000E+00  0.00000000000E+00 -0.46024568068E+03  0.25427711802E+04  0.25007717185E+04 0.  0.
        5    1    3    3  502    0  0.18998565851E+03 -0.60214031787E+03 -0.13274958840E+04  0.14700118791E+04  0.46999998093E+01 0.  1.
       -5    1    3    3    0  502 -0.18998565851E+03  0.60214031787E+03  0.86725020328E+03  0.10727593010E+04  0.46999998093E+01 0. -1.
</event>
<event>
 5   0  0.6290861E-06  0.2499182E+04  0.7818609E-02  0.8403277E-01
       -1   -1    0    0    0  501  0.00000000000E+00  0.00000000000E+00  0.10170363489E+04  0.10170363490E+04  0.50400001928E-02 0.  1.
        1   -1    0    0  501    0  0.00000000000E+00  0.00000000000E+00 -0.15353215955E+04  0.15353215955E+04  0.50400001928E-02 0. -1.
    10030    2    1    2    0    0  0.00000000000E+00  0.00000000000E+00 -0.51828524654E+03  0.25523579445E+04  0.24991821622E+04 0.  0.
        1    1    3    3  502    0  0.92079257873E+03  0.50901127613E+03  0.42938795535E+03  0.11363650243E+04  0.50400001928E-02 0.  1.
       -1    1    3    3    0  502 -0.92079257873E+03 -0.50901127613E+03 -0.94767320189E+03  0.14159929201E+04  0.50400001928E-02 0. -1.
</event>
<event>
 5   0  0.1526824E-05  0.2476923E+04  0.7818609E-02  0.8411253E-01
       -2   -1    0    0    0  501  0.00000000000E+00  0.00000000000E+00  0.11535488700E+04  0.11535488700E+04  0.25500000920E-02 0. -1.
        2   -1    0    0  501    0  0.00000000000E+00  0.00000000000E+00 -0.13296241208E+04  0.13296241208E+04  0.25500000920E-02 0.  1.
    10030    2    1    2    0    0  0.00000000000E+00  0.00000000000E+00 -0.17607525084E+03  0.24831729908E+04  0.24769226084E+04 0.  0.
        2    1    3    3  502    0 -0.27430315173E+03 -0.97268161187E+03 -0.80568944293E+03  0.12924732939E+04  0.25500000920E-02 0.  1.
       -2    1    3    3    0  502  0.27430315173E+03  0.97268161187E+03  0.62961419208E+03  0.11906996968E+04  0.25500000920E-02 0. -1.
</event>
<event>
 5   0  0.1572732E-05  0.2495975E+04  0.7818609E-02  0.8404421E-01
        2   -1    0    0  501    0  0.00000000000E+00  0.00000000000E+00  0.12647573848E+04  0.12647573848E+04  0.25500000920E-02 0.  1.
       -2   -1    0    0    0  501  0.00000000000E+00  0.00000000000E+00 -0.12314399763E+04  0.12314399763E+04  0.25500000920E-02 0. -1.
    10030    2    1    2    0    0  0.00000000000E+00  0.00000000000E+00  0.33317408478E+02  0.24961973611E+04  0.24959750030E+04 0.  0.
        1    1    3    3  502    0 -0.18022645311E+03  0.89219912811E+03  0.87053330537E+03  0.12594955714E+04  0.50400001928E-02 0.  1.
       -1    1    3    3    0  502  0.18022645311E+03 -0.89219912811E+03 -0.83721589689E+03  0.12367017897E+04  0.50400001928E-02 0. -1.
</event>
<event>
 5   0  0.6477703E-06  0.2558573E+04  0.7818609E-02  0.8382411E-01
        1   -1    0    0  501    0  0.00000000000E+00  0.00000000000E+00  0.14044703547E+04  0.14044703547E+04  0.50400001928E-02 0.  1.
       -1   -1    0    0    0  501  0.00000000000E+00  0.00000000000E+00 -0.11652605739E+04  0.11652605739E+04  0.50400001928E-02 0. -1.
    10030    2    1    2    0    0  0.00000000000E+00  0.00000000000E+00  0.23920978081E+03  0.25697309285E+04  0.25585729862E+04 0.  0.
        5    1    3    3  502    0 -0.95998340931E+03 -0.38293119958E+03 -0.63757100009E+03  0.12143818674E+04  0.46999998093E+01 0. -1.
       -5    1    3    3    0  502  0.95998340931E+03  0.38293119958E+03  0.87678078090E+03  0.13553490611E+04  0.46999998093E+01 0.  1.
</event>
<event>
 5   0  0.6104486E-06  0.2527194E+04  0.7818609E-02  0.8393361E-01
        1   -1    0    0  501    0  0.00000000000E+00  0.00000000000E+00  0.13677537212E+04  0.13677537212E+04  0.50400001928E-02 0.  1.
       -1   -1    0    0    0  501  0.00000000000E+00  0.00000000000E+00 -0.11673718471E+04  0.11673718471E+04  0.50400001928E-02 0. -1.
    10030    2    1    2    0    0  0.00000000000E+00  0.00000000000E+00  0.20038187406E+03  0.25351255683E+04  0.25271938492E+04 0.  0.
        2    1    3    3  502    0 -0.86179624093E+03 -0.43684716485E+03  0.91708637933E+03  0.13321319880E+04  0.25500000920E-02 0.  1.
       -2    1    3    3    0  502  0.86179624093E+03  0.43684716485E+03 -0.71670450527E+03  0.12029935803E+04  0.25500000920E-02 0. -1.
</event>
<event>
 5   0  0.6105353E-06  0.2494373E+04  0.7818609E-02  0.8404993E-01
       -1   -1    0    0    0  501  0.00000000000E+00  0.00000000000E+00  0.17959745707E+04  0.17959745707E+04  0.50400001928E-02 0.  1.
        1   -1    0    0  501    0  0.00000000000E+00  0.00000000000E+00 -0.86608892977E+03  0.86608892978E+03  0.50400001928E-02 0. -1.
    10030    2    1    2    0    0  0.00000000000E+00  0.00000000000E+00  0.92988564097E+03  0.26620635005E+04  0.24943726216E+04 0.  0.
        3    1    3    3  502    0 -0.16311962263E+03 -0.90640426105E+03  0.13624914418E+04  0.16445545400E+04  0.10100000352E+00 0.  1.
       -3    1    3    3    0  502  0.16311962263E+03  0.90640426105E+03 -0.43260580082E+03  0.10175089606E+04  0.10100000352E+00 0. -1.
</event>
<event>
 5   0  0.1526824E-05  0.2558357E+04  0.7818609E-02  0.8382486E-01
       -2   -1    0    0    0  501  0.00000000000E+00  0.00000000000E+00  0.13732192563E+04  0.13732192563E+04  0.25500000920E-02 0. -1.
        2   -1    0    0  501    0  0.00000000000E+00  0.00000000000E+00 -0.11915777921E+04  0.11915777921E+04  0.25500000920E-02 0.  1.
    10030    2    1    2    0    0  0.00000000000E+00  0.00000000000E+00  0.18164146418E+03  0.25647970483E+04  0.25583569488E+04 0.  0.
        2    1    3    3  502    0 -0.76023302395E+03 -0.40327825797E+03 -0.85798122082E+03  0.12152034313E+04  0.25500000920E-02 0.  1.
       -2    1    3    3    0  502  0.76023302395E+03  0.40327825797E+03  0.10396226850E+04  0.13495936171E+04  0.25500000920E-02 0. -1.
</event>
<event>
 5   0  0.1572732E-05  0.2506234E+04  0.7818609E-02  0.8400768E-01
       -2   -1    0    0    0  501  0.00000000000E+00  0.00000000000E+00  0.14372098116E+04  0.14372098116E+04  0.25500000920E-02 0. -1.
        2   -1    0    0  501    0  0.00000000000E+00  0.00000000000E+00 -0.10926044207E+04  0.10926044207E+04  0.25500000920E-02 0.  1.
    10030    2    1    2    0    0  0.00000000000E+00  0.00000000000E+00  0.34460539091E+03  0.25298142323E+04  0.25062336632E+04 0.  0.
        1    1    3    3  502    0  0.21417309062E+03 -0.10970780199E+04  0.74406972542E+03  0.13427918866E+04  0.50400001928E-02 0. -1.
       -1    1    3    3    0  502 -0.21417309062E+03  0.10970780199E+04 -0.39946433452E+03  0.11870223457E+04  0.50400001928E-02 0.  1.
</event>
<event>
 5   0  0.6290861E-06  0.2372572E+04  0.7818609E-02  0.8449844E-01
       -1   -1    0    0    0  501  0.00000000000E+00  0.00000000000E+00  0.26339586041E+04  0.26339586041E+04  0.50400001928E-02 0.  1.
        1   -1    0    0  501    0  0.00000000000E+00  0.00000000000E+00 -0.53428100002E+03  0.53428100004E+03  0.50400001928E-02 0. -1.
    10030    2    1    2    0    0  0.00000000000E+00  0.00000000000E+00  0.20996776040E+04  0.31682396041E+04  0.23725716318E+04 0.  0.
        1    1    3    3  502    0 -0.80709384744E+03  0.28489227985E+03 -0.47036459428E+02  0.85719106286E+03  0.50400001928E-02 0. -1.
       -1    1    3    3    0  502  0.80709384744E+03 -0.28489227985E+03  0.21467140635E+04  0.23110485412E+04  0.50400001928E-02 0.  1.
</event>
<event>
 5   0  0.1526824E-05  0.2446055E+04  0.7818609E-02  0.8422460E-01
       -2   -1    0    0    0  501  0.00000000000E+00  0.00000000000E+00  0.10675911726E+04  0.10675911726E+04  0.25500000920E-02 0.  1.
        2   -1    0    0  501    0  0.00000000000E+00  0.00000000000E+00 -0.14010949374E+04  0.14010949374E+04  0.25500000920E-02 0. -1.
    10030    2    1    2    0    0  0.00000000000E+00  0.00000000000E+00 -0.33350376476E+03  0.24686861100E+04  0.24460552628E+04 0.  0.
        2    1    3    3  502    0 -0.81706428657E+03  0.87552663998E+03  0.83850975280E+02  0.12004882056E+04  0.25500000920E-02 0. -1.
       -2    1    3    3    0  502  0.81706428657E+03 -0.87552663998E+03 -0.41735474004E+03  0.12681979044E+04  0.25500000920E-02 0.  1.
</event>
<event>
 5   0  0.6346420E-06  0.2427552E+04  0.7818609E-02  0.8429260E-01
        1   -1    0    0  501    0  0.00000000000E+00  0.00000000000E+00  0.15486854504E+04  0.15486854504E+04  0.50400001928E-02 0.  1.
       -1   -1    0    0    0  501  0.00000000000E+00  0.00000000000E+00 -0.95129212863E+03  0.95129212864E+03  0.50400001928E-02 0. -1.
    10030    2    1    2    0    0  0.00000000000E+00  0.00000000000E+00  0.59739332175E+03  0.24999775790E+04  0.24275520828E+04 0.  0.
        4    1    3    3  502    0 -0.48443404752E+03 -0.11121454819E+04  0.25615131332E+03  0.12398221757E+04  0.12699999809E+01 0. -1.
       -4    1    3    3    0  502  0.48443404752E+03  0.11121454819E+04  0.34124200843E+03  0.12601554033E+04  0.12699999809E+01 0.  1.
</event>
<event>
 5   0  0.6105353E-06  0.2473295E+04  0.7818609E-02  0.8412562E-01
        1   -1    0    0  501    0  0.00000000000E+00  0.00000000000E+00  0.13617021610E+04  0.13617021610E+04  0.50400001928E-02 0.  1.
       -1   -1    0    0    0  501  0.00000000000E+00  0.00000000000E+00 -0.11230774367E+04  0.11230774367E+04  0.50400001928E-02 0. -1.
    10030    2    1    2    0    0  0.00000000000E+00  0.00000000000E+00  0.23862472433E+03  0.24847795978E+04  0.24732949461E+04 0.  0.
        3    1    3    3  502    0  0.40545012550E+03 -0.90848465976E+03 -0.61864786292E+03  0.11715201107E+04  0.10100000352E+00 0. -1.
       -3    1    3    3    0  502 -0.40545012550E+03  0.90848465976E+03  0.85727258725E+03  0.13132594871E+04  0.10100000352E+00 0.  1.
</event>
<event>
 5   0  0.1550483E-05  0.2488222E+04  0.7818609E-02  0.8407194E-01
       -2   -1    0    0    0  501  0.00000000000E+00  0.00000000000E+00  0.93174474762E+03  0.93174474763E+03  0.25500000920E-02 0. -1.
        2   -1    0    0  501    0  0.00000000000E+00  0.00000000000E+00 -0.16611969803E+04  0.16611969803E+04  0.25500000920E-02 0.  1.
    10030    2    1    2    0    0  0.00000000000E+00  0.00000000000E+00 -0.72945223271E+03  0.25929417280E+04  0.24882215024E+04 0.  0.
        5    1    3    3  502    0  0.60713813108E+03 -0.51647348564E+03  0.63068616842E+03  0.10164392282E+04  0.46999998093E+01 0. -1.
       -5    1    3    3    0  502 -0.60713813108E+03  0.51647348564E+03 -0.13601384011E+04  0.15765024998E+04  0.46999998093E+01 0.  1.
</event>
<event>
 5   0  0.1526824E-05  0.2493180E+04  0.7818609E-02  0.8405419E-01
        2   -1    0    0  501    0  0.00000000000E+00  0.00000000000E+00  0.13524311576E+04  0.13524311576E+04  0.25500000920E-02 0. -1.
       -2   -1    0    0    0  501  0.00000000000E+00  0.00000000000E+00 -0.11490316628E+04  0.11490316628E+04  0.25500000920E-02 0.  1.
    10030    2    1    2    0    0  0.00000000000E+00  0.00000000000E+00  0.20339949474E+03  0.25014628204E+04  0.24931796741E+04 0.  0.
        2    1    3    3  502    0  0.87660863473E+03 -0.83610697267E+03  0.39673222268E+03  0.12747211557E+04  0.25500000920E-02 0.  1.
       -2    1    3    3    0  502 -0.87660863473E+03  0.83610697267E+03 -0.19333272794E+03  0.12267416647E+04  0.25500000920E-02 0. -1.
</event>
<event>
 5   0  0.5164625E-06  0.2508045E+04  0.7818609E-02  0.8400125E-01
       -3   -1    0    0    0  501  0.00000000000E+00  0.00000000000E+00  0.14722215695E+04  0.14722215729E+04  0.10100000352E+00 0.  1.
        3   -1    0    0  501    0  0.00000000000E+00  0.00000000000E+00 -0.10681629088E+04  0.10681629136E+04  0.10100000352E+00 0. -1.
    10030    2    1    2    0    0  0.00000000000E+00  0.00000000000E+00  0.40405866063E+03  0.25403844865E+04  0.25080450431E+04 0.  0.
        3    1    3    3  502    0  0.85469950907E+03 -0.20224218348E+03  0.11086457190E+04  0.14143933300E+04  0.10100000352E+00 0.  1.
       -3    1    3    3    0  502 -0.85469950907E+03  0.20224218348E+03 -0.70458705833E+03  0.11259911565E+04  0.10100000352E+00 0. -1.
</event>
<event>
 5   0  0.6477703E-06  0.2507523E+04  0.7818609E-02  0.8400310E-01
        1   -1    0    0  501    0  0.00000000000E+00  0.00000000000E+00  0.18642055314E+04  0.18642055314E+04  0.50400001928E-02 0.  1.
       -1   -1    0    0    0  501  0.00000000000E+00  0.00000000000E+00 -0.84321089012E+03  0.84321089014E+03  0.50400001928E-02 0. -1.
    10030    2    1    2    0    0  0.00000000000E+00  0.00000000000E+00  0.10209946412E+04  0.27074164215E+04  0.25075234041E+04 0.  0.
        5    1    3    3  502    0 -0.74793366594E+03 -0.69015455489E+02  0.15943788502E+04  0.17624511085E+04  0.46999998093E+01 0.  1.
       -5    1    3    3    0  502  0.74793366594E+03  0.69015455489E+02 -0.57338420897E+03  0.94496531304E+03  0.46999998093E+01 0. -1.
</event>
<event>
 5   0  0.6104486E-06  0.2517952E+04  0.7818609E-02  0.8396618E-01
        1   -1    0    0  501    0  0.00000000000E+00  0.00000000000E+00  0.10060633617E+04  0.10060633617E+04  0.50400001928E-02 0. -1.
       -1   -1    0    0    0  501  0.00000000000E+00  0.00000000000E+00 -0.15754681385E+04  0.15754681385E+04  0.50400001928E-02 0.  1.
    10030    2    1    2    0    0  0.00000000000E+00  0.00000000000E+00 -0.56940477686E+03  0.25815315002E+04  0.25179521613E+04 0.  0.
        2    1    3    3  502    0 -0.55982562307E+03  0.11143551402E+04 -0.46177315268E+03  0.13298219999E+04  0.25500000920E-02 0.  1.
       -2    1    3    3    0  502  0.55982562307E+03 -0.11143551402E+04 -0.10763162418E+03  0.12517095004E+04  0.25500000920E-02 0. -1.
</event>
<event>
 5   0  0.6290861E-06  0.2492988E+04  0.7818609E-02  0.8405488E-01
        1   -1    0    0  501    0  0.00000000000E+00  0.00000000000E+00  0.12402434098E+04  0.12402434098E+04  0.50400001928E-02 0.  1.
       -1   -1    0    0    0  501  0.00000000000E+00  0.00000000000E+00 -0.12527760431E+04  0.12527760432E+04  0.50400001928E-02 0. -1.
    10030    2    1    2    0    0  0.00000000000E+00  0.00000000000E+00 -0.12532633353E+02  0.24930194530E+04  0.24929879514E+04 0.  0.
        1    1    3    3  502    0 -0.56247690424E+02 -0.12793251680E+02  0.12389079459E+04  0.12402501233E+04  0.50400001928E-02 0.  1.
       -1    1    3    3    0  502  0.56247690424E+02  0.12793251680E+02 -0.12514405792E+04  0.12527693297E+04  0.50400001928E-02 0. -1.
</event>
<event>
 5   0  0.1526824E-05  0.2489589E+04  0.7818609E-02  0.8406704E-01
        2   -1    0    0  501    0  0.00000000000E+00  0.00000000000E+00  0.14531456364E+04  0.14531456364E+04  0.25500000920E-02 0. -1.
       -2   -1    0    0    0  501  0.00000000000E+00  0.00000000000E+00 -0.10663165252E+04  0.10663165252E+04  0.25500000920E-02 0.  1.
    10030    2    1    2    0    0  0.00000000000E+00  0.00000000000E+00  0.38682911124E+03  0.25194621616E+04  0.24895888862E+04 0.  0.
        2    1    3    3  502    0  0.62501466252E+03 -0.34831419529E+03  0.12242375883E+04  0.14179999223E+04  0.25500000920E-02 0. -1.
       -2    1    3    3    0  502 -0.62501466252E+03  0.34831419529E+03 -0.83740847708E+03  0.11014622393E+04  0.25500000920E-02 0.  1.
</event>
<event>
 5   0  0.6290861E-06  0.2518502E+04  0.7818609E-02  0.8396423E-01
        1   -1    0    0  501    0  0.00000000000E+00  0.00000000000E+00  0.60488984303E+03  0.60488984305E+03  0.50400001928E-02 0.  1.
       -1   -1    0    0    0  501  0.00000000000E+00  0.00000000000E+00 -0.26214914884E+04  0.26214914884E+04  0.50400001928E-02 0. -1.
    10030    2    1    2    0    0  0.00000000000E+00  0.00000000000E+00 -0.20166016453E+04  0.32263813314E+04  0.25185023922E+04 0.  0.
        1    1    3    3  502    0 -0.90894736278E+03 -0.72678409900E+03 -0.39216922681E+03  0.12280867792E+04  0.50400001928E-02 0. -1.
       -1    1    3    3    0  502  0.90894736278E+03  0.72678409900E+03 -0.16244324185E+04  0.19982945522E+04  0.50400001928E-02 0.  1.
</event>
<event>
 5   0  0.1550483E-05  0.2501899E+04  0.7818609E-02  0.8402309E-01
        2   -1    0    0  501    0  0.00000000000E+00  0.00000000000E+00  0.10725077920E+04  0.10725077920E+04  0.25500000920E-02 0.  1.
       -2   -1    0    0    0  501  0.00000000000E+00  0.00000000000E+00 -0.14590797415E+04  0.14590797415E+04  0.25500000920E-02 0. -1.
    10030    2    1    2    0    0  0.00000000000E+00  0.00000000000E+00 -0.38657194949E+03  0.25315875335E+04  0.25018987924E+04 0.  0.
        5    1    3    3  502    0 -0.30452272637E+03 -0.52529756362E+03  0.91339285665E+03  0.10968045504E+04  0.46999998093E+01 0.  1.
       -5    1    3    3    0  502  0.30452272637E+03  0.52529756362E+03 -0.12999648061E+04  0.14347829830E+04  0.46999998093E+01 0. -1.
</event>
<event>
 5   0  0.6105353E-06  0.2490738E+04  0.7818609E-02  0.8406293E-01
        1   -1    0    0  501    0  0.00000000000E+00  0.00000000000E+00  0.15486495420E+04  0.15486495420E+04  0.50400001928E-02 0. -1.
       -1   -1    0    0    0  501  0.00000000000E+00  0.00000000000E+00 -0.10014817750E+04  0.10014817750E+04  0.50400001928E-02 0.  1.
    10030    2    1    2    0    0  0.00000000000E+00  0.00000000000E+00  0.54716776703E+03  0.25501313171E+04  0.24907382779E+04 0.  0.
        3    1    3    3  502    0  0.94147151686E+03 -0.10902364431E+03 -0.55357276709E+03  0.10975871677E+04  0.10100000352E+00 0.  1.
       -3    1    3    3    0  502 -0.94147151686E+03  0.10902364431E+03  0.11007405341E+04  0.14525441493E+04  0.10100000352E+00 0. -1.
</event>
<event>
 5   0  0.5164625E-06  0.2513729E+04  0.7818609E-02  0.8398111E-01
        3   -1    0    0  501    0  0.00000000000E+00  0.00000000000E+00  0.11756444070E+04  0.11756444113E+04  0.10100000352E+00 0.  1.
       -3   -1    0    0    0  501  0.00000000000E+00  0.00000000000E+00 -0.13436959818E+04  0.13436959856E+04  0.10100000352E+00 0. -1.
    10030    2    1    2    0    0  0.00000000000E+00  0.00000000000E+00 -0.16805157477E+03  0.25193403969E+04  0.25137292423E+04 0.  0.
        1    1    3    3  502    0 -0.31281479835E+03 -0.12149025262E+03  0.11299151989E+04  0.11786947595E+04  0.50400001928E-02 0.  1.
       -1    1    3    3    0  502  0.31281479835E+03  0.12149025262E+03 -0.12979667736E+04  0.13406456374E+04  0.50400001928E-02 0. -1.
</event>
<event>
 5   0  0.6477703E-06  0.2500586E+04  0.7818609E-02  0.8402777E-01
        1   -1    0    0  501    0  0.00000000000E+00  0.00000000000E+00  0.93293824868E+03  0.93293824869E+03  0.50400001928E-02 0.  1.
       -1   -1    0    0    0  501  0.00000000000E+00  0.00000000000E+00 -0.16756014905E+04  0.16756014905E+04  0.50400001928E-02 0. -1.
    10030    2    1    2    0    0  0.00000000000E+00  0.00000000000E+00 -0.74266324186E+03  0.26085397392E+04  0.25005861074E+04 0.  0.
        5    1    3    3  502    0  0.11709035550E+04  0.11132379795E+03  0.71005629994E+02  0.11783344231E+04  0.46999998093E+01 0.  1.
       -5    1    3    3    0  502 -0.11709035550E+04 -0.11132379795E+03 -0.81366887186E+03  0.14302053161E+04  0.46999998093E+01 0. -1.
</event>
<event>
 5   0  0.1526824E-05  0.2509516E+04  0.7818609E-02  0.8399603E-01
       -2   -1    0    0    0  501  0.00000000000E+00  0.00000000000E+00  0.15836727075E+04  0.15836727075E+04  0.25500000920E-02 0. -1.
        2   -1    0    0  501    0  0.00000000000E+00  0.00000000000E+00 -0.99415617943E+03  0.99415617944E+03  0.25500000920E-02 0.  1.
    10030    2    1    2    0    0  0.00000000000E+00  0.00000000000E+00  0.58951652804E+03  0.25778288869E+04  0.25095162947E+04 0.  0.
        2    1    3    3  502    0  0.18100258639E+02 -0.78588617826E+03 -0.70985866557E+03  0.10591713882E+04  0.25500000920E-02 0.  1.
       -2    1    3    3    0  502 -0.18100258639E+02  0.78588617826E+03  0.12993751936E+04  0.15186574987E+04  0.25500000920E-02 0. -1.
</event>
<event>
 5   0  0.5164625E-06  0.2482706E+04  0.7818609E-02  0.8409173E-01
        3   -1    0    0  501    0  0.00000000000E+00  0.00000000000E+00  0.74274297873E+03  0.74274298560E+03  0.10100000352E+00 0.  1.
       -3   -1    0    0    0  501  0.00000000000E+00  0.00000000000E+00 -0.20746838209E+04  0.20746838234E+04  0.10100000352E+00 0. -1.
    10030    2    1    2    0    0  0.00000000000E+00  0.00000000000E+00 -0.13319408422E+04  0.28174268090E+04  0.24827056646E+04 0.  0.
        3    1    3    3  502    0 -0.57928181169E+03 -0.65736873804E+03 -0.16638749463E+04  0.18804735899E+04  0.10100000352E+00 0. -1.
       -3    1    3    3    0  502  0.57928181169E+03  0.65736873804E+03  0.33193410412E+03  0.93695321910E+03  0.10100000352E+00 0.  1.
</event>
<event>
 5   0  0.6290861E-06  0.2505458E+04  0.7818609E-02  0.8401044E-01
        1   -1    0    0  501    0  0.00000000000E+00  0.00000000000E+00  0.13837031815E+04  0.13837031815E+04  0.50400001928E-02 0.  1.
       -1   -1    0    0    0  501  0.00000000000E+00  0.00000000000E+00 -0.11341523783E+04  0.11341523783E+04  0.50400001928E-02 0. -1.
    10030    2    1    2    0    0  0.00000000000E+00  0.00000000000E+00  0.24955080324E+03  0.25178555598E+04  0.25054582449E+04 0.  0.
        1    1    3    3  502    0 -0.11046209757E+04  0.54524707462E+03 -0.10405369532E+03  0.12362479702E+04  0.50400001928E-02 0. -1.
       -1    1    3    3    0  502  0.11046209757E+04 -0.54524707462E+03  0.35360449856E+03  0.12816075896E+04  0.50400001928E-02 0.  1.
</event>
<event>
 5   0  0.1526824E-05  0.2511412E+04  0.7818609E-02  0.8398931E-01
        2   -1    0    0  501    0  0.00000000000E+00  0.00000000000E+00  0.14591556363E+04  0.14591556363E+04  0.25500000920E-02 0.  1.
       -2   -1    0    0    0  501  0.00000000000E+00  0.00000000000E+00 -0.10806229007E+04  0.10806229007E+04  0.25500000920E-02 0. -1.
    10030    2    1    2    0    0  0.00000000000E+00  0.00000000000E+00  0.37853273564E+03  0.25397785370E+04  0.25114115523E+04 0.  0.
        2    1    3    3  502    0  0.21200043001E+03  0.49489460412E+03 -0.95797760694E+03  0.10989021553E+04  0.25500000920E-02 0. -1.
       -2    1    3    3    0  502 -0.21200043001E+03 -0.49489460412E+03  0.13365103426E+04  0.14408763817E+04  0.25500000920E-02 0.  1.
</event>
<event>
 5   0  0.6104486E-06  0.2532646E+04  0.7818609E-02  0.8391447E-01
       -1   -1    0    0    0  501  0.00000000000E+00  0.00000000000E+00  0.57220002258E+03  0.57220002260E+03  0.50400001928E-02 0. -1.
        1   -1    0    0  501    0  0.00000000000E+00  0.00000000000E+00 -0.28024709679E+04  0.28024709679E+04  0.50400001928E-02 0.  1.
    10030    2    1    2    0    0  0.00000000000E+00  0.00000000000E+00 -0.22302709453E+04  0.33746709905E+04  0.25326460085E+04 0.  0.
        2    1    3    3  502    0 -0.10903693034E+04 -0.60508370616E+03 -0.82156136080E+03  0.14933166372E+04  0.25500000920E-02 0. -1.
       -2    1    3    3    0  502  0.10903693034E+04  0.60508370616E+03 -0.14087095845E+04  0.18813543533E+04  0.25500000920E-02 0.  1.
</event>
<event>
 5   0  0.6104486E-06  0.2490673E+04  0.7818609E-02  0.8406316E-01
        1   -1    0    0  501    0  0.00000000000E+00  0.00000000000E+00  0.16585548198E+04  0.16585548198E+04  0.50400001928E-02 0.  1.
       -1   -1    0    0    0  501  0.00000000000E+00  0.00000000000E+00 -0.93506866507E+03  0.93506866509E+03  0.50400001928E-02 0. -1.
    10030    2    1    2    0    0  0.00000000000E+00  0.00000000000E+00  0.72348615469E+03  0.25936234849E+04  0.24906727134E+04 0.  0.
        2    1    3    3  502    0 -0.10809857223E+04  0.40499296505E+03  0.84829620944E+03  0.14325347788E+04  0.25500000920E-02 0.  1.
       -2    1    3    3    0  502  0.10809857223E+04 -0.40499296505E+03 -0.12481005474E+03  0.11610887061E+04  0.25500000920E-02 0. -1.
</event>
<event>
 5   0  0.6346420E-06  0.2595585E+04  0.7818609E-02  0.8369703E-01
        1   -1    0    0  501    0  0.00000000000E+00  0.00000000000E+00  0.11209337734E+04  0.11209337734E+04  0.50400001928E-02 0.  1.
       -1   -1    0    0    0  501  0.00000000000E+00  0.00000000000E+00 -0.15025552726E+04  0.15025552726E+04  0.50400001928E-02 0. -1.
    10030    2    1    2    0    0  0.00000000000E+00  0.00000000000E+00 -0.38162149920E+03  0.26234890461E+04  0.25955846752E+04 0.  0.
        4    1    3    3  502    0  0.28570384835E+02  0.72826396435E+03 -0.12761700277E+04  0.14696245171E+04  0.12699999809E+01 0. -1.
       -4    1    3    3    0  502 -0.28570384835E+02 -0.72826396435E+03  0.89454852849E+03  0.11538645290E+04  0.12699999809E+01 0.  1.
</event>
<event>
 5   0  0.6346420E-06  0.2617339E+04  0.7818609E-02  0.8362335E-01
        1   -1    0    0  501    0  0.00000000000E+00  0.00000000000E+00  0.10197162603E+04  0.10197162603E+04  0.50400001928E-02 0.  1.
       -1   -1    0    0    0  501  0.00000000000E+00  0.00000000000E+00 -0.16795026301E+04  0.16795026301E+04  0.50400001928E-02 0. -1.
    10030    2    1    2    0    0  0.00000000000E+00  0.00000000000E+00 -0.65978636979E+03  0.26992188903E+04  0.26173392146E+04 0.  0.
        4    1    3    3  502    0 -0.30406982182E+03 -0.58075029868E+03  0.83818518969E+03  0.10640889958E+04  0.12699999809E+01 0.  1.
       -4    1    3    3    0  502  0.30406982182E+03  0.58075029868E+03 -0.14979715595E+04  0.16351298945E+04  0.12699999809E+01 0. -1.
</event>
<event>
 5   0  0.6477703E-06  0.2488493E+04  0.7818609E-02  0.8407096E-01
       -1   -1    0    0    0  501  0.00000000000E+00  0.00000000000E+00  0.90505476388E+03  0.90505476389E+03  0.50400001928E-02 0.  1.
        1   -1    0    0  501    0  0.00000000000E+00  0.00000000000E+00 -0.17105590121E+04  0.17105590121E+04  0.50400001928E-02 0. -1.
    10030    2    1    2    0    0  0.00000000000E+00  0.00000000000E+00 -0.80550424824E+03  0.26156137760E+04  0.24884931849E+04 0.  0.
        5    1    3    3  502    0 -0.11614830169E+04  0.34011898874E+03 -0.70630195543E+03  0.14012880743E+04  0.46999998093E+01 0. -1.
       -5    1    3    3    0  502  0.11614830169E+04 -0.34011898874E+03 -0.99202292812E+02  0.12143257017E+04  0.46999998093E+01 0.  1.
</event>
<event>
 5   0  0.6105353E-06  0.2569349E+04  0.7818609E-02  0.8378688E-01
        1   -1    0    0  501    0  0.00000000000E+00  0.00000000000E+00  0.13575127614E+04  0.13575127614E+04  0.50400001928E-02 0.  1.
       -1   -1    0    0    0  501  0.00000000000E+00  0.00000000000E+00 -0.12157442932E+04  0.12157442932E+04  0.50400001928E-02 0. -1.
    10030    2    1    2    0    0  0.00000000000E+00  0.00000000000E+00  0.14176846816E+03  0.25732570546E+04  0.25693488612E+04 0.  0.
        3    1    3    3  502    0  0.28877604175E+03 -0.15635829561E+03  0.13147673166E+04  0.13551577863E+04  0.10100000352E+00 0.  1.
       -3    1    3    3    0  502 -0.28877604175E+03  0.15635829561E+03 -0.11729988484E+04  0.12180992683E+04  0.10100000352E+00 0. -1.
</event>
<event>
 5   0  0.1550483E-05  0.2519324E+04  0.7818609E-02  0.8396134E-01
        2   -1    0    0  501    0  0.00000000000E+00  0.00000000000E+00  0.21334600549E+04  0.21334600549E+04  0.25500000920E-02 0. -1.
       -2   -1    0    0    0  501  0.00000000000E+00  0.00000000000E+00 -0.74374398824E+03  0.74374398824E+03  0.25500000920E-02 0.  1.
    10030    2    1    2    0    0  0.00000000000E+00  0.00000000000E+00  0.13897160667E+04  0.28772040432E+04  0.25193237902E+04 0.  0.
        5    1    3    3  502    0 -0.11932371909E+04 -0.33565938854E+03  0.43886518556E+03  0.13149551171E+04  0.46999998093E+01 0. -1.
       -5    1    3    3    0  502  0.11932371909E+04  0.33565938854E+03  0.95085088113E+03  0.15622489261E+04  0.46999998093E+01 0.  1.
</event>
<event>
 5   0  0.6477703E-06  0.2494142E+04  0.7818609E-02  0.8405075E-01
       -1   -1    0    0    0  501  0.00000000000E+00  0.00000000000E+00  0.64283286476E+03  0.64283286478E+03  0.50400001928E-02 0. -1.
        1   -1    0    0  501    0  0.00000000000E+00  0.00000000000E+00 -0.24192702888E+04  0.24192702888E+04  0.50400001928E-02 0.  1.
    10030    2    1    2    0    0  0.00000000000E+00  0.00000000000E+00 -0.17764374241E+04  0.30621031536E+04  0.24941422978E+04 0.  0.
        5    1    3    3  502    0 -0.11770756853E+04 -0.64796183206E+01 -0.38259086854E+03  0.12377184725E+04  0.46999998093E+01 0. -1.
       -5    1    3    3    0  502  0.11770756853E+04  0.64796183206E+01 -0.13938465555E+04  0.18243846811E+04  0.46999998093E+01 0.  1.
</event>
<event>
 5   0  0.1572732E-05  0.2492890E+04  0.7818609E-02  0.8405523E-01
        2   -1    0    0  501    0  0.00000000000E+00  0.00000000000E+00  0.10052239069E+04  0.10052239070E+04  0.25500000920E-02 0.  1.
       -2   -1    0    0    0  501  0.00000000000E+00  0.00000000000E+00 -0.15455516165E+04  0.15455516165E+04  0.25500000920E-02 0. -1.
    10030    2    1    2    0    0  0.00000000000E+00  0.00000000000E+00 -0.54032770950E+03  0.25507755234E+04  0.24928902377E+04 0.  0.
        1    1    3    3  502    0 -0.73603352954E+03 -0.74707210493E+03 -0.95942498951E+03  0.14213931184E+04  0.50400001928E-02 0. -1.
       -1    1    3    3    0  502  0.73603352954E+03  0.74707210493E+03  0.41909728000E+03  0.11293824050E+04  0.50400001928E-02 0.  1.
</event>
<event>
 5   0  0.6105353E-06  0.2491617E+04  0.7818609E-02  0.8405978E-01
        1   -1    0    0  501    0  0.00000000000E+00  0.00000000000E+00  0.14204025471E+04  0.14204025471E+04  0.50400001928E-02 0.  1.
       -1   -1    0    0    0  501  0.00000000000E+00  0.00000000000E+00 -0.10926755144E+04  0.10926755144E+04  0.50400001928E-02 0. -1.
    10030    2    1    2    0    0  0.00000000000E+00  0.00000000000E+00  0.32772703277E+03  0.25130780615E+04  0.24916172128E+04 0.  0.
        3    1    3    3  502    0 -0.90107081503E+03 -0.76554229909E+03 -0.23201614252E+03  0.12049129122E+04  0.10100000352E+00 0. -1.
       -3    1    3    3    0  502  0.90107081503E+03  0.76554229909E+03  0.55974317529E+03  0.13081651493E+04  0.10100000352E+00 0.  1.
</event>
<event>
 5   0  0.6346420E-06  0.2499128E+04  0.7818609E-02  0.8403296E-01
       -1   -1    0    0    0  501  0.00000000000E+00  0.00000000000E+00  0.18706025750E+04  0.18706025750E+04  0.50400001928E-02 0.  1.
        1   -1    0    0  501    0  0.00000000000E+00  0.00000000000E+00 -0.83470943131E+03  0.83470943133E+03  0.50400001928E-02 0. -1.
    10030    2    1    2    0    0  0.00000000000E+00  0.00000000000E+00  0.10358931437E+04  0.27053120063E+04  0.24991275370E+04 0.  0.
        4    1    3    3  502    0  0.21691296304E+03  0.41621826013E+03  0.17715570630E+04  0.18326769802E+04  0.12699999809E+01 0.  1.
       -4    1    3    3    0  502 -0.21691296304E+03 -0.41621826013E+03 -0.73566391933E+03  0.87263502606E+03  0.12699999809E+01 0. -1.
</event>
<event>
 5   0  0.1572732E-05  0.2520736E+04  0.7818609E-02  0.8395635E-01
        2   -1    0    0  501    0  0.00000000000E+00  0.00000000000E+00  0.21654640363E+04  0.21654640363E+04  0.25500000920E-02 0.  1.
       -2   -1    0    0    0  501  0.00000000000E+00  0.00000000000E+00 -0.73357379938E+03  0.73357379939E+03  0.25500000920E-02 0. -1.
    10030    2    1    2    0    0  0.00000000000E+00  0.00000000000E+00  0.14318902369E+04  0.28990378357E+04  0.25207361469E+04 0.  0.
        1    1    3    3  502    0  0.11161696232E+04 -0.30605481346E+03  0.14203132310E+03  0.11660519171E+04  0.50400001928E-02 0. -1.
       -1    1    3    3    0  502 -0.11161696232E+04  0.30605481346E+03  0.12898589138E+04  0.17329859186E+04  0.50400001928E-02 0.  1.
</event>
<event>
 5   0  0.1501947E-05  0.2501038E+04  0.7818609E-02  0.8402616E-01
        2   -1    0    0  501    0  0.00000000000E+00  0.00000000000E+00  0.27318407920E+04  0.27318407920E+04  0.25500000920E-02 0. -1.
       -2   -1    0    0    0  501  0.00000000000E+00  0.00000000000E+00 -0.57243370172E+03  0.57243370172E+03  0.25500000920E-02 0.  1.
    10030    2    1    2    0    0  0.00000000000E+00  0.00000000000E+00  0.21594070902E+04  0.33042744937E+04  0.25010379742E+04 0.  0.
        3    1    3    3  502    0 -0.39310617386E+03  0.43051897214E+03 -0.38190849990E+03  0.69694559457E+03  0.10100000352E+00 0.  1.
       -3    1    3    3    0  502  0.39310617386E+03 -0.43051897214E+03  0.25413155901E+04  0.26073288991E+04  0.10100000352E+00 0. -1.
</event>
<event>
 5   0  0.1572732E-05  0.2499946E+04  0.7818609E-02  0.8403005E-01
        2   -1    0    0  501    0  0.00000000000E+00  0.00000000000E+00  0.16280600340E+04  0.16280600340E+04  0.25500000920E-02 0. -1.
       -2   -1    0    0    0  501  0.00000000000E+00  0.00000000000E+00 -0.95968941107E+03  0.95968941107E+03  0.25500000920E-02 0.  1.
    10030    2    1    2    0    0  0.00000000000E+00  0.00000000000E+00  0.66837062298E+03  0.25877494451E+04  0.24999455796E+04 0.  0.
        1    1    3    3  502    0 -0.26017962178E+03  0.86264589157E+02  0.15965665008E+04  0.16199258028E+04  0.50400001928E-02 0. -1.
       -1    1    3    3    0  502  0.26017962178E+03 -0.86264589157E+02 -0.92819587786E+03  0.96782364232E+03  0.50400001928E-02 0.  1.
</event>
<event>
 5   0  0.1501947E-05  0.2271145E+04  0.7818609E-02  0.8489386E-01
        2   -1    0    0  501    0  0.00000000000E+00  0.00000000000E+00  0.24388742647E+04  0.24388742647E+04  0.25500000920E-02 0. -1.
       -2   -1    0    0    0  501  0.00000000000E+00  0.00000000000E+00 -0.52873784579E+03  0.52873784579E+03  0.25500000920E-02 0.  1.
    10030    2    1    2    0    0  0.00000000000E+00  0.00000000000E+00  0.19101364190E+04  0.29676121105E+04  0.22711451956E+04 0.  0.
        3    1    3    3  502    0  0.18770637905E+03 -0.80387389854E+03 -0.63856153636E+02  0.82796409828E+03  0.10100000352E+00 0.  1.
       -3    1    3    3    0  502 -0.18770637905E+03  0.80387389854E+03  0.19739925726E+04  0.21396480122E+04  0.10100000352E+00 0. -1.
</event>
<event>
 5   0  0.1526824E-05  0.2497549E+04  0.7818609E-02  0.8403859E-01
       -2   -1    0    0    0  501  0.00000000000E+00  0.00000000000E+00  0.10280896789E+04  0.10280896789E+04  0.25500000920E-02 0. -1.
        2   -1    0    0  501    0  0.00000000000E+00  0.00000000000E+00 -0.15168307303E+04  0.15168307303E+04  0.25500000920E-02 0.  1.
    10030    2    1    2    0    0  0.00000000000E+00  0.00000000000E+00 -0.48874105140E+03  0.25449204093E+04  0.24975492136E+04 0.  0.
        2    1    3    3  502    0  0.30223673193E+03 -0.94263927357E+03  0.53133195400E+03  0.11234898698E+04  0.25500000920E-02 0. -1.
       -2    1    3    3    0  502 -0.30223673193E+03  0.94263927357E+03 -0.10200730054E+04  0.14214305395E+04  0.25500000920E-02 0.  1.
</event>
<event>
 5   0  0.1572732E-05  0.2480861E+04  0.7818609E-02  0.8409836E-01
       -2   -1    0    0    0  501  0.00000000000E+00  0.00000000000E+00  0.10899972928E+04  0.10899972928E+04  0.25500000920E-02 0. -1.
        2   -1    0    0  501    0  0.00000000000E+00  0.00000000000E+00 -0.14116252237E+04  0.14116252237E+04  0.25500000920E-02 0.  1.
    10030    2    1    2    0    0  0.00000000000E+00  0.00000000000E+00 -0.32162793088E+03  0.25016225166E+04  0.24808608767E+04 0.  0.
        1    1    3    3  502    0  0.90234883871E+03  0.71059800704E+03  0.31159867598E+03  0.11900742369E+04  0.50400001928E-02 0.  1.
       -1    1    3    3    0  502 -0.90234883871E+03 -0.71059800704E+03 -0.63322660686E+03  0.13115482797E+04  0.50400001928E-02 0. -1.
</event>
<event>
 5   0  0.6477703E-06  0.2535310E+04  0.7818609E-02  0.8390513E-01
       -1   -1    0    0    0  501  0.00000000000E+00  0.00000000000E+00  0.97932435643E+03  0.97932435644E+03  0.50400001928E-02 0.  1.
        1   -1    0    0  501    0  0.00000000000E+00  0.00000000000E+00 -0.16408759480E+04  0.16408759480E+04  0.50400001928E-02 0. -1.
    10030    2    1    2    0    0  0.00000000000E+00  0.00000000000E+00 -0.66155159154E+03  0.26202003044E+04  0.25353104597E+04 0.  0.
        5    1    3    3  502    0 -0.24731722228E+02 -0.25521926588E+03 -0.16137854033E+04  0.16340360919E+04  0.46999998093E+01 0. -1.
       -5    1    3    3    0  502  0.24731722228E+02  0.25521926588E+03  0.95223381177E+03  0.98616421251E+03  0.46999998093E+01 0.  1.
</event>
<event>
 5   0  0.6477703E-06  0.2508215E+04  0.7818609E-02  0.8400065E-01
        1   -1    0    0  501    0  0.00000000000E+00  0.00000000000E+00  0.23563006706E+04  0.23563006706E+04  0.50400001928E-02 0. -1.
       -1   -1    0    0    0  501  0.00000000000E+00  0.00000000000E+00 -0.66748083998E+03  0.66748084000E+03  0.50400001928E-02 0.  1.
    10030    2    1    2    0    0  0.00000000000E+00  0.00000000000E+00  0.16888198306E+04  0.30237815106E+04  0.25082149436E+04 0.  0.
        5    1    3    3  502    0  0.10081961657E+03  0.93075665308E+03  0.18503706319E+04  0.20737324099E+04  0.46999998093E+01 0.  1.
       -5    1    3    3    0  502 -0.10081961657E+03 -0.93075665308E+03 -0.16155080132E+03  0.95004910070E+03  0.46999998093E+01 0. -1.
</event>
<event>
 5   0  0.1526824E-05  0.2508624E+04  0.7818609E-02  0.8399920E-01
       -2   -1    0    0    0  501  0.00000000000E+00  0.00000000000E+00  0.23571309606E+04  0.23571309606E+04  0.25500000920E-02 0. -1.
        2   -1    0    0  501    0  0.00000000000E+00  0.00000000000E+00 -0.66746341666E+03  0.66746341666E+03  0.25500000920E-02 0.  1.
    10030    2    1    2    0    0  0.00000000000E+00  0.00000000000E+00  0.16896675439E+04  0.30245943772E+04  0.25086240726E+04 0.  0.
        2    1    3    3  502    0  0.35373978042E+02  0.84526091749E+03  0.19613607426E+04  0.21360368208E+04  0.25500000920E-02 0. -1.
       -2    1    3    3    0  502 -0.35373978042E+02 -0.84526091749E+03 -0.27169319870E+03  0.88855755648E+03  0.25500000920E-02 0.  1.
</event>
<event>
 5   0  0.6105353E-06  0.2501296E+04  0.7818609E-02  0.8402524E-01
        1   -1    0    0  501    0  0.00000000000E+00  0.00000000000E+00  0.14235068896E+04  0.14235068896E+04  0.50400001928E-02 0. -1.
       -1   -1    0    0    0  501  0.00000000000E+00  0.00000000000E+00 -0.10987792987E+04  0.10987792987E+04  0.50400001928E-02 0.  1.
    10030    2    1    2    0    0  0.00000000000E+00  0.00000000000E+00  0.32472759089E+03  0.25222861884E+04  0.25012955858E+04 0.  0.
        3    1    3    3  502    0 -0.10326107092E+02  0.78174011594E+03 -0.82199180894E+03  0.11344138493E+04  0.10100000352E+00 0.  1.
       -3    1    3    3    0  502  0.10326107092E+02 -0.78174011594E+03  0.11467193998E+04  0.13878723391E+04  0.10100000352E+00 0. -1.
</event>
<event>
 5   0  0.6477703E-06  0.2461042E+04  0.7818609E-02  0.8416997E-01
       -1   -1    0    0    0  501  0.00000000000E+00  0.00000000000E+00  0.75507540755E+03  0.75507540756E+03  0.50400001928E-02 0.  1.
        1   -1    0    0  501    0  0.00000000000E+00  0.00000000000E+00 -0.20053391031E+04  0.20053391031E+04  0.50400001928E-02 0. -1.
    10030    2    1    2    0    0  0.00000000000E+00  0.00000000000E+00 -0.12502636956E+04  0.27604145107E+04  0.24610422512E+04 0.  0.
        5    1    3    3  502    0  0.78201271279E+03  0.90061708169E+02 -0.16859639563E+04  0.18606857730E+04  0.46999998093E+01 0. -1.
       -5    1    3    3    0  502 -0.78201271279E+03 -0.90061708169E+02  0.43570026066E+03  0.89972873766E+03  0.46999998093E+01 0.  1.
</event>
<event>
 5   0  0.5164625E-06  0.2503805E+04  0.7818609E-02  0.8401631E-01
       -4   -1    0    0    0  501  0.00000000000E+00  0.00000000000E+00  0.20983254494E+04  0.20983258338E+04  0.12699999809E+01 0.  1.
        4   -1    0    0  501    0  0.00000000000E+00  0.00000000000E+00 -0.74690885388E+03  0.74690993359E+03  0.12699999809E+01 0. -1.
    10030    2    1    2    0    0  0.00000000000E+00  0.00000000000E+00  0.13514165956E+04  0.28452357674E+04  0.25038050557E+04 0.  0.
        4    1    3    3  502    0 -0.62550065404E+03  0.89998192247E+03  0.13632228589E+04  0.17491702904E+04  0.12699999809E+01 0.  1.
       -4    1    3    3    0  502  0.62550065404E+03 -0.89998192247E+03 -0.11806263350E+02  0.10960654769E+04  0.12699999809E+01 0. -1.
</event>
<event>
 5   0  0.1501947E-05  0.2491855E+04  0.7818609E-02  0.8405893E-01
       -2   -1    0    0    0  501  0.00000000000E+00  0.00000000000E+00  0.10728003854E+04  0.10728003854E+04  0.25500000920E-02 0.  1.
        2   -1    0    0  501    0  0.00000000000E+00  0.00000000000E+00 -0.14469937292E+04  0.14469937292E+04  0.25500000920E-02 0. -1.
    10030    2    1    2    0    0  0.00000000000E+00  0.00000000000E+00 -0.37419334384E+03  0.25197941146E+04  0.24918550763E+04 0.  0.
        3    1    3    3  502    0  0.48050005340E+02  0.57267771032E+03 -0.13049627039E+04  0.14259019011E+04  0.10100000352E+00 0. -1.
       -3    1    3    3    0  502 -0.48050005340E+02 -0.57267771032E+03  0.93076936003E+03  0.10938922135E+04  0.10100000352E+00 0.  1.
</event>
<event>
 5   0  0.6477703E-06  0.2799177E+04  0.7818609E-02  0.8303524E-01
        1   -1    0    0  501    0  0.00000000000E+00  0.00000000000E+00  0.15019278322E+04  0.15019278322E+04  0.50400001928E-02 0. -1.
       -1   -1    0    0    0  501  0.00000000000E+00  0.00000000000E+00 -0.13042225483E+04  0.13042225483E+04  0.50400001928E-02 0.  1.
    10030    2    1    2    0    0  0.00000000000E+00  0.00000000000E+00  0.19770528388E+03  0.28061503804E+04  0.27991771252E+04 0.  0.
        5    1    3    3  502    0  0.11662870108E+03  0.58221872764E+03  0.13693871811E+04  0.14925897770E+04  0.46999998093E+01 0. -1.
       -5    1    3    3    0  502 -0.11662870108E+03 -0.58221872764E+03 -0.11716818972E+04  0.13135606034E+04  0.46999998093E+01 0.  1.
</event>
<event>
 5   0  0.1526824E-05  0.2491846E+04  0.7818609E-02  0.8405896E-01
       -2   -1    0    0    0  501  0.00000000000E+00  0.00000000000E+00  0.99780378973E+03  0.99780378974E+03  0.25500000920E-02 0. -1.
        2   -1    0    0  501    0  0.00000000000E+00  0.00000000000E+00 -0.15557411323E+04  0.15557411323E+04  0.25500000920E-02 0.  1.
    10030    2    1    2    0    0  0.00000000000E+00  0.00000000000E+00 -0.55793734259E+03  0.25535449221E+04  0.24918462213E+04 0.  0.
        2    1    3    3  502    0  0.82088150046E+03 -0.86374492330E+03  0.93940814541E+02  0.11952935234E+04  0.25500000920E-02 0. -1.
       -2    1    3    3    0  502 -0.82088150046E+03  0.86374492330E+03 -0.65187815713E+03  0.13582513987E+04  0.25500000920E-02 0.  1.
</event>
<event>
 5   0  0.6290861E-06  0.2496862E+04  0.7818609E-02  0.8404104E-01
        1   -1    0    0  501    0  0.00000000000E+00  0.00000000000E+00  0.18549009347E+04  0.18549009347E+04  0.50400001928E-02 0.  1.
       -1   -1    0    0    0  501  0.00000000000E+00  0.00000000000E+00 -0.84024992975E+03  0.84024992976E+03  0.50400001928E-02 0. -1.
    10030    2    1    2    0    0  0.00000000000E+00  0.00000000000E+00  0.10146510049E+04  0.26951508644E+04  0.24968623351E+04 0.  0.
        1    1    3    3  502    0  0.71955952528E+03 -0.18809985111E+03  0.15896687991E+04  0.17550482487E+04  0.50400001928E-02 0.  1.
       -1    1    3    3    0  502 -0.71955952528E+03  0.18809985111E+03 -0.57501779420E+03  0.94010261572E+03  0.50400001928E-02 0. -1.
</event>
<event>
 5   0  0.1501947E-05  0.2545445E+04  0.7818609E-02  0.8386972E-01
        2   -1    0    0  501    0  0.00000000000E+00  0.00000000000E+00  0.11667501850E+04  0.11667501850E+04  0.25500000920E-02 0.  1.
       -2   -1    0    0    0  501  0.00000000000E+00  0.00000000000E+00 -0.13883204610E+04  0.13883204610E+04  0.25500000920E-02 0. -1.
    10030    2    1    2    0    0  0.00000000000E+00  0.00000000000E+00 -0.22157027599E+03  0.25550706460E+04  0.25454454657E+04 0.  0.
        3    1    3    3  502    0 -0.34104156044E+03  0.52672790603E+03  0.10006829970E+04  0.11811511773E+04  0.10100000352E+00 0.  1.
       -3    1    3    3    0  502  0.34104156044E+03 -0.52672790603E+03 -0.12222532730E+04  0.13739194687E+04  0.10100000352E+00 0. -1.
</event>
<event>
 5   0  0.6104486E-06  0.2502657E+04  0.7818609E-02  0.8402040E-01
       -1   -1    0    0    0  501  0.00000000000E+00  0.00000000000E+00  0.66958825733E+03  0.66958825735E+03  0.50400001928E-02 0.  1.
        1   -1    0    0  501    0  0.00000000000E+00  0.00000000000E+00 -0.23384854466E+04  0.23384854466E+04  0.50400001928E-02 0. -1.
    10030    2    1    2    0    0  0.00000000000E+00  0.00000000000E+00 -0.16688971893E+04  0.30080737040E+04  0.25026565046E+04 0.  0.
        2    1    3    3  502    0 -0.15796026961E+03 -0.50854315208E+03 -0.21954995851E+04  0.22591560399E+04  0.25500000920E-02 0. -1.
       -2    1    3    3    0  502  0.15796026961E+03  0.50854315208E+03  0.52660239582E+03  0.74891766409E+03  0.25500000920E-02 0.  1.
</event>
<event>
 5   0  0.6105353E-06  0.2341569E+04  0.7818609E-02  0.8461709E-01
        1   -1    0    0  501    0  0.00000000000E+00  0.00000000000E+00  0.90466907631E+03  0.90466907633E+03  0.50400001928E-02 0.  1.
       -1   -1    0    0    0  501  0.00000000000E+00  0.00000000000E+00 -0.15151801419E+04  0.15151801419E+04  0.50400001928E-02 0. -1.
    10030    2    1    2    0    0  0.00000000000E+00  0.00000000000E+00 -0.61051106557E+03  0.24198492182E+04  0.23415692340E+04 0.  0.
        3    1    3    3  502    0  0.37153233908E+03  0.86968019795E+03  0.40800375241E+03  0.10299742705E+04  0.10100000352E+00 0.  1.
       -3    1    3    3    0  502 -0.37153233908E+03 -0.86968019795E+03 -0.10185148180E+04  0.13898749477E+04  0.10100000352E+00 0. -1.
</event>
<event>
 5   0  0.6477703E-06  0.2501907E+04  0.7818609E-02  0.8402307E-01
       -1   -1    0    0    0  501  0.00000000000E+00  0.00000000000E+00  0.10519507936E+04  0.10519507936E+04  0.50400001928E-02 0. -1.
        1   -1    0    0  501    0  0.00000000000E+00  0.00000000000E+00 -0.14876019757E+04  0.14876019757E+04  0.50400001928E-02 0.  1.
    10030    2    1    2    0    0  0.00000000000E+00  0.00000000000E+00 -0.43565118211E+03  0.25395527694E+04  0.25019065362E+04 0.  0.
        5    1    3    3  502    0 -0.11873172945E+04 -0.37881700656E+03 -0.10832602436E+03  0.12509921262E+04  0.46999998093E+01 0. -1.
       -5    1    3    3    0  502  0.11873172945E+04  0.37881700656E+03 -0.32732515776E+03  0.12885606432E+04  0.46999998093E+01 0.  1.
</event>
<event>
 5   0  0.6104486E-06  0.2503153E+04  0.7818609E-02  0.8401863E-01
        1   -1    0    0  501    0  0.00000000000E+00  0.00000000000E+00  0.17051487265E+04  0.17051487266E+04  0.50400001928E-02 0.  1.
       -1   -1    0    0    0  501  0.00000000000E+00  0.00000000000E+00 -0.91865503988E+03  0.91865503990E+03  0.50400001928E-02 0. -1.
    10030    2    1    2    0    0  0.00000000000E+00  0.00000000000E+00  0.78649368666E+03  0.26238037664E+04  0.25031527891E+04 0.  0.
        2    1    3    3  502    0  0.30975051161E+03 -0.56150358664E+03 -0.73336627231E+03  0.97419594877E+03  0.25500000920E-02 0. -1.
       -2    1    3    3    0  502 -0.30975051161E+03  0.56150358664E+03  0.15198599590E+04  0.16496078177E+04  0.25500000920E-02 0.  1.
</event>
<event>
 5   0  0.1468512E-05  0.2476058E+04  0.7818609E-02  0.8411565E-01
        2   -1    0    0  501    0  0.00000000000E+00  0.00000000000E+00  0.16704742929E+04  0.16704742929E+04  0.25500000920E-02 0.  1.
       -2   -1    0    0    0  501  0.00000000000E+00  0.00000000000E+00 -0.91753295893E+03  0.91753295894E+03  0.25500000920E-02 0. -1.
    10030    2    1    2    0    0  0.00000000000E+00  0.00000000000E+00  0.75294133396E+03  0.25880072518E+04  0.24760575282E+04 0.  0.
        4    1    3    3  502    0 -0.58299563125E+03 -0.10890433866E+02 -0.76502006243E+03  0.96190426572E+03  0.12699999809E+01 0. -1.
       -4    1    3    3    0  502  0.58299563125E+03  0.10890433866E+02  0.15179613964E+04  0.16261029861E+04  0.12699999809E+01 0.  1.
</event>
<event>
 5   0  0.6346420E-06  0.2498046E+04  0.7818609E-02  0.8403682E-01
        1   -1    0    0  501    0  0.00000000000E+00  0.00000000000E+00  0.15916384747E+04  0.15916384747E+04  0.50400001928E-02 0.  1.
       -1   -1    0    0    0  501  0.00000000000E+00  0.00000000000E+00 -0.98015876753E+03  0.98015876754E+03  0.50400001928E-02 0. -1.
    10030    2    1    2    0    0  0.00000000000E+00  0.00000000000E+00  0.61147970721E+03  0.25717972423E+04  0.24980459610E+04 0.  0.
        4    1    3    3  502    0  0.11829341700E+04  0.45537815267E+02 -0.10432838622E+03  0.11883993303E+04  0.12699999809E+01 0.  1.
       -4    1    3    3    0  502 -0.11829341700E+04 -0.45537815267E+02  0.71580809343E+03  0.13833979120E+04  0.12699999809E+01 0. -1.
</event>
<event>
 5   0  0.6477703E-06  0.2502699E+04  0.7818609E-02  0.8402025E-01
        1   -1    0    0  501    0  0.00000000000E+00  0.00000000000E+00  0.10898195543E+04  0.10898195543E+04  0.50400001928E-02 0. -1.
       -1   -1    0    0    0  501  0.00000000000E+00  0.00000000000E+00 -0.14368209593E+04  0.14368209593E+04  0.50400001928E-02 0.  1.
    10030    2    1    2    0    0  0.00000000000E+00  0.00000000000E+00 -0.34700140504E+03  0.25266405137E+04  0.25026990051E+04 0.  0.
        5    1    3    3  502    0  0.81818947181E+03 -0.33079499297E+03 -0.10691141096E+04  0.13863211780E+04  0.46999998093E+01 0.  1.
       -5    1    3    3    0  502 -0.81818947181E+03  0.33079499297E+03  0.72211270459E+03  0.11403193357E+04  0.46999998093E+01 0. -1.
</event>
<event>
 5   0  0.6104486E-06  0.2504913E+04  0.7818609E-02  0.8401237E-01
       -1   -1    0    0    0  501  0.00000000000E+00  0.00000000000E+00  0.15822983353E+04  0.15822983353E+04  0.50400001928E-02 0.  1.
        1   -1    0    0  501    0  0.00000000000E+00  0.00000000000E+00 -0.99137247265E+03  0.99137247266E+03  0.50400001928E-02 0. -1.
    10030    2    1    2    0    0  0.00000000000E+00  0.00000000000E+00  0.59092586261E+03  0.25736708079E+04  0.25049127834E+04 0.  0.
        2    1    3    3  502    0  0.10688868288E+04  0.32021850027E+03 -0.28899955318E+03  0.11526403093E+04  0.25500000920E-02 0. -1.
       -2    1    3    3    0  502 -0.10688868288E+04 -0.32021850027E+03  0.87992541578E+03  0.14210304987E+04  0.25500000920E-02 0.  1.
</event>
<event>
 5   0  0.1572732E-05  0.2498016E+04  0.7818609E-02  0.8403693E-01
        2   -1    0    0  501    0  0.00000000000E+00  0.00000000000E+00  0.15580150932E+04  0.15580150932E+04  0.25500000920E-02 0. -1.
       -2   -1    0    0    0  501  0.00000000000E+00  0.00000000000E+00 -0.10012872647E+04  0.10012872647E+04  0.25500000920E-02 0.  1.
    10030    2    1    2    0    0  0.00000000000E+00  0.00000000000E+00  0.55672782855E+03  0.25593023579E+04  0.24980157494E+04 0.  0.
        1    1    3    3  502    0  0.34679559062E+03 -0.11473614164E+04 -0.81414292648E+02  0.12013882339E+04  0.50400001928E-02 0. -1.
       -1    1    3    3    0  502 -0.34679559062E+03  0.11473614164E+04  0.63814212120E+03  0.13579141241E+04  0.50400001928E-02 0.  1.
</event>
<event>
 5   0  0.1501947E-05  0.2501264E+04  0.7818609E-02  0.8402535E-01
        2   -1    0    0  501    0  0.00000000000E+00  0.00000000000E+00  0.13868591377E+04  0.13868591377E+04  0.25500000920E-02 0.  1.
       -2   -1    0    0    0  501  0.00000000000E+00  0.00000000000E+00 -0.11277859209E+04  0.11277859209E+04  0.25500000920E-02 0. -1.
    10030    2    1    2    0    0  0.00000000000E+00  0.00000000000E+00  0.25907321673E+03  0.25146450586E+04  0.25012638484E+04 0.  0.
        3    1    3    3  502    0 -0.21210844504E+03  0.24053644039E+03 -0.10857447547E+04  0.11321172440E+04  0.10100000352E+00 0. -1.
       -3    1    3    3    0  502  0.21210844504E+03 -0.24053644039E+03  0.13448179714E+04  0.13825278146E+04  0.10100000352E+00 0.  1.
</event>
<event>
 5   0  0.1501947E-05  0.2514507E+04  0.7818609E-02  0.8397835E-01
        2   -1    0    0  501    0  0.00000000000E+00  0.00000000000E+00  0.15115702273E+04  0.15115702273E+04  0.25500000920E-02 0. -1.
       -2   -1    0    0    0  501  0.00000000000E+00  0.00000000000E+00 -0.10457250149E+04  0.10457250149E+04  0.25500000920E-02 0.  1.
    10030    2    1    2    0    0  0.00000000000E+00  0.00000000000E+00  0.46584521235E+03  0.25572952422E+04  0.25145073462E+04 0.  0.
        3    1    3    3  502    0 -0.17146616254E+03  0.12666896049E+03  0.14930552398E+04  0.15081974770E+04  0.10100000352E+00 0. -1.
       -3    1    3    3    0  502  0.17146616254E+03 -0.12666896049E+03 -0.10272100274E+04  0.10490977652E+04  0.10100000352E+00 0.  1.
</event>
<event>
 5   0  0.6346420E-06  0.2499827E+04  0.7818609E-02  0.8403047E-01
        1   -1    0    0  501    0  0.00000000000E+00  0.00000000000E+00  0.13041462266E+04  0.13041462266E+04  0.50400001928E-02 0. -1.
       -1   -1    0    0    0  501  0.00000000000E+00  0.00000000000E+00 -0.11979356254E+04  0.11979356254E+04  0.50400001928E-02 0.  1.
    10030    2    1    2    0    0  0.00000000000E+00  0.00000000000E+00  0.10621060121E+03  0.25020818521E+04  0.24998265745E+04 0.  0.
        4    1    3    3  502    0 -0.64282039890E+03  0.32617990077E+03 -0.96892816636E+03  0.12076567382E+04  0.12699999809E+01 0.  1.
       -4    1    3    3    0  502  0.64282039890E+03 -0.32617990077E+03  0.10751387676E+04  0.12944251138E+04  0.12699999809E+01 0. -1.
</event>
<event>
 5   0  0.1572732E-05  0.2507181E+04  0.7818609E-02  0.8400432E-01
        2   -1    0    0  501    0  0.00000000000E+00  0.00000000000E+00  0.13905251009E+04  0.13905251009E+04  0.25500000920E-02 0. -1.
       -2   -1    0    0    0  501  0.00000000000E+00  0.00000000000E+00 -0.11301409017E+04  0.11301409017E+04  0.25500000920E-02 0.  1.
    10030    2    1    2    0    0  0.00000000000E+00  0.00000000000E+00  0.26038419926E+03  0.25206660026E+04  0.25071811194E+04 0.  0.
        1    1    3    3  502    0  0.63423560164E+03 -0.59088433467E+03 -0.78026692541E+03  0.11662828003E+04  0.50400001928E-02 0.  1.
       -1    1    3    3    0  502 -0.63423560164E+03  0.59088433467E+03  0.10406511247E+04  0.13543832023E+04  0.50400001928E-02 0. -1.
</event>
<event>
 5   0  0.6104486E-06  0.2502264E+04  0.7818609E-02  0.8402179E-01
       -1   -1    0    0    0  501  0.00000000000E+00  0.00000000000E+00  0.76813397846E+03  0.76813397848E+03  0.50400001928E-02 0.  1.
        1   -1    0    0  501    0  0.00000000000E+00  0.00000000000E+00 -0.20378363508E+04  0.20378363508E+04  0.50400001928E-02 0. -1.
    10030    2    1    2    0    0  0.00000000000E+00  0.00000000000E+00 -0.12697023724E+04  0.28059703293E+04  0.25022640497E+04 0.  0.
        2    1    3    3  502    0  0.23755957838E+03  0.81025403306E+02 -0.20093135425E+04  0.20249297719E+04  0.25500000920E-02 0. -1.
       -2    1    3    3    0  502 -0.23755957838E+03 -0.81025403306E+02  0.73961117013E+03  0.78104055737E+03  0.25500000920E-02 0.  1.
</event>
<event>
 5   0  0.6290861E-06  0.2509763E+04  0.7818609E-02  0.8399516E-01
       -1   -1    0    0    0  501  0.00000000000E+00  0.00000000000E+00  0.93338993989E+03  0.93338993991E+03  0.50400001928E-02 0. -1.
        1   -1    0    0  501    0  0.00000000000E+00  0.00000000000E+00 -0.16871060323E+04  0.16871060323E+04  0.50400001928E-02 0.  1.
    10030    2    1    2    0    0  0.00000000000E+00  0.00000000000E+00 -0.75371609239E+03  0.26204959722E+04  0.25097631746E+04 0.  0.
        1    1    3    3  502    0 -0.53272673039E+03  0.44433066678E+03 -0.14687010726E+04  0.16242876443E+04  0.50400001928E-02 0.  1.
       -1    1    3    3    0  502  0.53272673039E+03 -0.44433066678E+03  0.71498498018E+03  0.99620832793E+03  0.50400001928E-02 0. -1.
</event>
<event>
 5   0  0.6477703E-06  0.2488014E+04  0.7818609E-02  0.8407268E-01
        1   -1    0    0  501    0  0.00000000000E+00  0.00000000000E+00  0.23238922477E+04  0.23238922478E+04  0.50400001928E-02 0. -1.
       -1   -1    0    0    0  501  0.00000000000E+00  0.00000000000E+00 -0.66593163009E+03  0.66593163010E+03  0.50400001928E-02 0.  1.
    10030    2    1    2    0    0  0.00000000000E+00  0.00000000000E+00  0.16579606177E+04  0.29898238779E+04  0.24880139491E+04 0.  0.
        5    1    3    3  502    0 -0.11792912256E+04  0.13009979239E+03  0.37954545989E+03  0.12456847904E+04  0.46999998093E+01 0. -1.
       -5    1    3    3    0  502  0.11792912256E+04 -0.13009979239E+03  0.12784151578E+04  0.17441390875E+04  0.46999998093E+01 0.  1.
</event>
<event>
 5   0  0.1526824E-05  0.2500329E+04  0.7818609E-02  0.8402868E-01
        2   -1    0    0  501    0  0.00000000000E+00  0.00000000000E+00  0.94350030543E+03  0.94350030543E+03  0.25500000920E-02 0.  1.
       -2   -1    0    0    0  501  0.00000000000E+00  0.00000000000E+00 -0.16565034206E+04  0.16565034206E+04  0.25500000920E-02 0. -1.
    10030    2    1    2    0    0  0.00000000000E+00  0.00000000000E+00 -0.71300311513E+03  0.26000037260E+04  0.25003291649E+04 0.  0.
        2    1    3    3  502    0 -0.10918565477E+04 -0.36927004776E+03  0.14694798741E+03  0.11619401017E+04  0.25500000920E-02 0.  1.
       -2    1    3    3    0  502  0.10918565477E+04  0.36927004776E+03 -0.85995110254E+03  0.14380636243E+04  0.25500000920E-02 0. -1.
</event>
<event>
 5   0  0.1572732E-05  0.2494861E+04  0.7818609E-02  0.8404818E-01
        2   -1    0    0  501    0  0.00000000000E+00  0.00000000000E+00  0.20356455188E+04  0.20356455188E+04  0.25500000920E-02 0.  1.
       -2   -1    0    0    0  501  0.00000000000E+00  0.00000000000E+00 -0.76441769069E+03  0.76441769069E+03  0.25500000920E-02 0. -1.
    10030    2    1    2    0    0  0.00000000000E+00  0.00000000000E+00  0.12712278282E+04  0.28000632095E+04  0.24948614764E+04 0.  0.
        1    1    3    3  502    0 -0.81287379976E+03 -0.96078433025E+02  0.16920907148E+04  0.18796717444E+04  0.50400001928E-02 0.  1.
       -1    1    3    3    0  502  0.81287379976E+03  0.96078433025E+02 -0.42086288666E+03  0.92039146510E+03  0.50400001928E-02 0. -1.
</event>
<event>
 5   0  0.1550483E-05  0.2510755E+04  0.7818609E-02  0.8399164E-01
        2   -1    0    0  501    0  0.00000000000E+00  0.00000000000E+00  0.19612456137E+04  0.19612456137E+04  0.25500000920E-02 0. -1.
       -2   -1    0    0    0  501  0.00000000000E+00  0.00000000000E+00 -0.80355692997E+03  0.80355692998E+03  0.25500000920E-02 0.  1.
    10030    2    1    2    0    0  0.00000000000E+00  0.00000000000E+00  0.11576886837E+04  0.27648025437E+04  0.25107548700E+04 0.  0.
        5    1    3    3  502    0  0.88190685688E+03  0.37316702652E+03  0.14727296108E+04  0.17566923267E+04  0.46999998093E+01 0. -1.
       -5    1    3    3    0  502 -0.88190685688E+03 -0.37316702652E+03 -0.31504092711E+03  0.10081102170E+04  0.46999998093E+01 0.  1.
</event>
<event>
 5   0  0.5164625E-06  0.2529684E+04  0.7818609E-02  0.8392486E-01
        3   -1    0    0  501    0  0.00000000000E+00  0.00000000000E+00  0.15937491922E+04  0.15937491954E+04  0.10100000352E+00 0. -1.
       -3   -1    0    0    0  501  0.00000000000E+00  0.00000000000E+00 -0.10038123054E+04  0.10038123105E+04  0.10100000352E+00 0.  1.
    10030    2    1    2    0    0  0.00000000000E+00  0.00000000000E+00  0.58993688678E+03  0.25975615059E+04  0.25296838234E+04 0.  0.
        5    1    3    3  502    0 -0.58218740932E+03 -0.51224799034E+03 -0.73107450050E+03  0.10657542862E+04  0.46999998093E+01 0.  1.
       -5    1    3    3    0  502  0.58218740932E+03  0.51224799034E+03  0.13210113873E+04  0.15318072198E+04  0.46999998093E+01 0. -1.
</event>
<event>
 5   0  0.6104486E-06  0.2496491E+04  0.7818609E-02  0.8404237E-01
       -1   -1    0    0    0  501  0.00000000000E+00  0.00000000000E+00  0.17379324040E+04  0.17379324040E+04  0.50400001928E-02 0. -1.
        1   -1    0    0  501    0  0.00000000000E+00  0.00000000000E+00 -0.89653442330E+03  0.89653442332E+03  0.50400001928E-02 0.  1.
    10030    2    1    2    0    0  0.00000000000E+00  0.00000000000E+00  0.84139798073E+03  0.26344668274E+04  0.24964905172E+04 0.  0.
        2    1    3    3  502    0  0.12937583391E+03 -0.67719322758E+03  0.15187801008E+04  0.16679393779E+04  0.25500000920E-02 0. -1.
       -2    1    3    3    0  502 -0.12937583391E+03  0.67719322758E+03 -0.67738212007E+03  0.96652744942E+03  0.25500000920E-02 0.  1.
</event>
<event>
 5   0  0.1468512E-05  0.2485242E+04  0.7818609E-02  0.8408262E-01
        2   -1    0    0  501    0  0.00000000000E+00  0.00000000000E+00  0.10998623162E+04  0.10998623162E+04  0.25500000920E-02 0. -1.
       -2   -1    0    0    0  501  0.00000000000E+00  0.00000000000E+00 -0.14039094042E+04  0.14039094042E+04  0.25500000920E-02 0.  1.
    10030    2    1    2    0    0  0.00000000000E+00  0.00000000000E+00 -0.30404708798E+03  0.25037717204E+04  0.24852420800E+04 0.  0.
        4    1    3    3  502    0 -0.10386420863E+04  0.21745319603E+02 -0.83890987688E+03  0.13352983325E+04  0.12699999809E+01 0.  1.
       -4    1    3    3    0  502  0.10386420863E+04 -0.21745319603E+02  0.53486278890E+03  0.11684733879E+04  0.12699999809E+01 0. -1.
</event>
<event>
 5   0  0.1572732E-05  0.2525126E+04  0.7818609E-02  0.8394088E-01
       -2   -1    0    0    0  501  0.00000000000E+00  0.00000000000E+00  0.10898436854E+04  0.10898436854E+04  0.25500000920E-02 0. -1.
        2   -1    0    0  501    0  0.00000000000E+00  0.00000000000E+00 -0.14626555286E+04  0.14626555286E+04  0.25500000920E-02 0.  1.
    10030    2    1    2    0    0  0.00000000000E+00  0.00000000000E+00 -0.37281184322E+03  0.25524992140E+04  0.25251264457E+04 0.  0.
        1    1    3    3  502    0 -0.14731198932E+03 -0.98355237429E+03  0.59983657124E+03  0.11614129358E+04  0.50400001928E-02 0. -1.
       -1    1    3    3    0  502  0.14731198932E+03  0.98355237429E+03 -0.97264841446E+03  0.13910862782E+04  0.50400001928E-02 0.  1.
</event>
<event>
 5   0  0.6290861E-06  0.2504690E+04  0.7818609E-02  0.8401316E-01
       -1   -1    0    0    0  501  0.00000000000E+00  0.00000000000E+00  0.62745516475E+03  0.62745516477E+03  0.50400001928E-02 0.  1.
        1   -1    0    0  501    0  0.00000000000E+00  0.00000000000E+00 -0.24995706616E+04  0.24995706616E+04  0.50400001928E-02 0. -1.
    10030    2    1    2    0    0  0.00000000000E+00  0.00000000000E+00 -0.18721154969E+04  0.31270258264E+04  0.25046904171E+04 0.  0.
        1    1    3    3  502    0 -0.96681604913E+03 -0.41624697139E+03 -0.17831538248E+04  0.20706598892E+04  0.50400001928E-02 0. -1.
       -1    1    3    3    0  502  0.96681604913E+03  0.41624697139E+03 -0.88961672100E+02  0.10563659372E+04  0.50400001928E-02 0.  1.
</event>
<event>
 5   0  0.6477703E-06  0.2525321E+04  0.7818609E-02  0.8394020E-01
        1   -1    0    0  501    0  0.00000000000E+00  0.00000000000E+00  0.14055272066E+04  0.14055272066E+04  0.50400001928E-02 0. -1.
       -1   -1    0    0    0  501  0.00000000000E+00  0.00000000000E+00 -0.11343156703E+04  0.11343156703E+04  0.50400001928E-02 0.  1.
    10030    2    1    2    0    0  0.00000000000E+00  0.00000000000E+00  0.27121153626E+03  0.25398428769E+04  0.25253209978E+04 0.  0.
        5    1    3    3  502    0 -0.14703112247E+03 -0.90974827324E+03 -0.73250862857E+03  0.11772217517E+04  0.46999998093E+01 0.  1.
       -5    1    3    3    0  502  0.14703112247E+03  0.90974827324E+03  0.10037201648E+04  0.13626211252E+04  0.46999998093E+01 0. -1.
</event>
<event>
 5   0  0.1550483E-05  0.2535433E+04  0.7818609E-02  0.8390470E-01
        2   -1    0    0  501    0  0.00000000000E+00  0.00000000000E+00  0.13182967106E+04  0.13182967106E+04  0.25500000920E-02 0.  1.
       -2   -1    0    0    0  501  0.00000000000E+00  0.00000000000E+00 -0.12190772770E+04  0.12190772770E+04  0.25500000920E-02 0. -1.
    10030    2    1    2    0    0  0.00000000000E+00  0.00000000000E+00  0.99219433583E+02  0.25373739877E+04  0.25354333470E+04 0.  0.
        5    1    3    3  502    0 -0.84624770902E+03  0.15798726635E+03 -0.88168749077E+03  0.12322702961E+04  0.46999998093E+01 0. -1.
       -5    1    3    3    0  502  0.84624770902E+03 -0.15798726635E+03  0.98090692436E+03  0.13051036915E+04  0.46999998093E+01 0.  1.
</event>
<event>
 5   0  0.1550483E-05  0.2499085E+04  0.7818609E-02  0.8403312E-01
        2   -1    0    0  501    0  0.00000000000E+00  0.00000000000E+00  0.16014074416E+04  0.16014074416E+04  0.25500000920E-02 0. -1.
       -2   -1    0    0    0  501  0.00000000000E+00  0.00000000000E+00 -0.97498991945E+03  0.97498991945E+03  0.25500000920E-02 0.  1.
    10030    2    1    2    0    0  0.00000000000E+00  0.00000000000E+00  0.62641752217E+03  0.25763973611E+04  0.24990847225E+04 0.  0.
        5    1    3    3  502    0 -0.79868223378E+03 -0.86467173053E+03 -0.11902723603E+03  0.11831061174E+04  0.46999998093E+01 0.  1.
       -5    1    3    3    0  502  0.79868223378E+03  0.86467173053E+03  0.74544475820E+03  0.13932912437E+04  0.46999998093E+01 0. -1.
</event>
<event>
 5   0  0.1550483E-05  0.2297752E+04  0.7818609E-02  0.8478808E-01
       -2   -1    0    0    0  501  0.00000000000E+00  0.00000000000E+00  0.66096649558E+03  0.66096649559E+03  0.25500000920E-02 0.  1.
        2   -1    0    0  501    0  0.00000000000E+00  0.00000000000E+00 -0.19969488721E+04  0.19969488721E+04  0.25500000920E-02 0. -1.
    10030    2    1    2    0    0  0.00000000000E+00  0.00000000000E+00 -0.13359823765E+04  0.26579153677E+04  0.22977522041E+04 0.  0.
        5    1    3    3  502    0 -0.50481000127E+03  0.10241729693E+04 -0.52107626809E+03  0.12551119374E+04  0.46999998093E+01 0. -1.
       -5    1    3    3    0  502  0.50481000127E+03 -0.10241729693E+04 -0.81490610842E+03  0.14028034302E+04  0.46999998093E+01 0.  1.
</event>
<event>
 5   0  0.1468512E-05  0.2522847E+04  0.7818609E-02  0.8394891E-01
        2   -1    0    0  501    0  0.00000000000E+00  0.00000000000E+00  0.21248750591E+04  0.21248750592E+04  0.25500000920E-02 0. -1.
       -2   -1    0    0    0  501  0.00000000000E+00  0.00000000000E+00 -0.74883882658E+03  0.74883882659E+03  0.25500000920E-02 0.  1.
    10030    2    1    2    0    0  0.00000000000E+00  0.00000000000E+00  0.13760362326E+04  0.28737138857E+04  0.25228467618E+04 0.  0.
        4    1    3    3  502    0 -0.84402607272E+03  0.74727372492E+03  0.43267661410E+02  0.11281275348E+04  0.12699999809E+01 0.  1.
       -4    1    3    3    0  502  0.84402607272E+03 -0.74727372492E+03  0.13327685712E+04  0.17455863509E+04  0.12699999809E+01 0. -1.
</event>
<event>
 5   0  0.1468512E-05  0.2485598E+04  0.7818609E-02  0.8408135E-01
        2   -1    0    0  501    0  0.00000000000E+00  0.00000000000E+00  0.61375242212E+03  0.61375242213E+03  0.25500000920E-02 0. -1.
       -2   -1    0    0    0  501  0.00000000000E+00  0.00000000000E+00 -0.25165664472E+04  0.25165664472E+04  0.25500000920E-02 0.  1.
    10030    2    1    2    0    0  0.00000000000E+00  0.00000000000E+00 -0.19028140251E+04  0.31303188694E+04  0.24855975156E+04 0.  0.
        4    1    3    3  502    0  0.11449687477E+04 -0.31488063146E+02 -0.15587928897E+04  0.19343685836E+04  0.12699999809E+01 0.  1.
       -4    1    3    3    0  502 -0.11449687477E+04  0.31488063146E+02 -0.34402113539E+03  0.11959502857E+04  0.12699999809E+01 0. -1.
</event>
<event>
 5   0  0.6477703E-06  0.2504236E+04  0.7818609E-02  0.8401478E-01
        1   -1    0    0  501    0  0.00000000000E+00  0.00000000000E+00  0.15211674244E+04  0.15211674244E+04  0.50400001928E-02 0.  1.
       -1   -1    0    0    0  501  0.00000000000E+00  0.00000000000E+00 -0.10306553272E+04  0.10306553272E+04  0.50400001928E-02 0. -1.
    10030    2    1    2    0    0  0.00000000000E+00  0.00000000000E+00  0.49051209721E+03  0.25518227517E+04  0.25042358592E+04 0.  0.
        5    1    3    3  502    0  0.97807057853E+02  0.89974964153E+03  0.11269503804E+04  0.14453909118E+04  0.46999998093E+01 0.  1.
       -5    1    3    3    0  502 -0.97807057853E+02 -0.89974964153E+03 -0.63643828318E+03  0.11064318399E+04  0.46999998093E+01 0. -1.
</event>
<event>
 5   0  0.1501947E-05  0.2485576E+04  0.7818609E-02  0.8408142E-01
       -2   -1    0    0    0  501  0.00000000000E+00  0.00000000000E+00  0.10383893981E+04  0.10383893982E+04  0.25500000920E-02 0. -1.
        2   -1    0    0  501    0  0.00000000000E+00  0.00000000000E+00 -0.14874211870E+04  0.14874211870E+04  0.25500000920E-02 0.  1.
    10030    2    1    2    0    0  0.00000000000E+00  0.00000000000E+00 -0.44903178881E+03  0.25258105851E+04  0.24855763043E+04 0.  0.
        3    1    3    3  502    0  0.85517724184E+03  0.14809420993E+03 -0.11284440946E+04  0.14236032083E+04  0.10100000352E+00 0.  1.
       -3    1    3    3    0  502 -0.85517724184E+03 -0.14809420993E+03  0.67941230578E+03  0.11022073768E+04  0.10100000352E+00 0. -1.
</event>
<event>
 5   0  0.1526824E-05  0.2495900E+04  0.7818609E-02  0.8404447E-01
        2   -1    0    0  501    0  0.00000000000E+00  0.00000000000E+00  0.12489645384E+04  0.12489645384E+04  0.25500000920E-02 0.  1.
       -2   -1    0    0    0  501  0.00000000000E+00  0.00000000000E+00 -0.12469366622E+04  0.12469366623E+04  0.25500000920E-02 0. -1.
    10030    2    1    2    0    0  0.00000000000E+00  0.00000000000E+00  0.20278761664E+01  0.24959012007E+04  0.24959003769E+04 0.  0.
        2    1    3    3  502    0 -0.42045621567E+03  0.63456752677E+03 -0.98788491571E+03  0.12471471373E+04  0.25500000920E-02 0. -1.
       -2    1    3    3    0  502  0.42045621567E+03 -0.63456752677E+03  0.98991279187E+03  0.12487540634E+04  0.25500000920E-02 0.  1.
</event>
<event>
 5   0  0.6105353E-06  0.2479444E+04  0.7818609E-02  0.8410345E-01
       -1   -1    0    0    0  501  0.00000000000E+00  0.00000000000E+00  0.12747403990E+04  0.12747403990E+04  0.50400001928E-02 0.  1.
        1   -1    0    0  501    0  0.00000000000E+00  0.00000000000E+00 -0.12056657179E+04  0.12056657179E+04  0.50400001928E-02 0. -1.
    10030    2    1    2    0    0  0.00000000000E+00  0.00000000000E+00  0.69074681100E+02  0.24804061170E+04  0.24794441300E+04 0.  0.
        3    1    3    3  502    0 -0.13670097319E+03 -0.33678672523E+03  0.12202390849E+04  0.12732226392E+04  0.10100000352E+00 0.  1.
       -3    1    3    3    0  502  0.13670097319E+03  0.33678672523E+03 -0.11511644038E+04  0.12071834778E+04  0.10100000352E+00 0. -1.
</event>
<event>
 5   0  0.1550483E-05  0.2500932E+04  0.7818609E-02  0.8402653E-01
       -2   -1    0    0    0  501  0.00000000000E+00  0.00000000000E+00  0.97605489143E+03  0.97605489144E+03  0.25500000920E-02 0.  1.
        2   -1    0    0  501    0  0.00000000000E+00  0.00000000000E+00 -0.16020263292E+04  0.16020263292E+04  0.25500000920E-02 0. -1.
    10030    2    1    2    0    0  0.00000000000E+00  0.00000000000E+00 -0.62597143775E+03  0.25780812206E+04  0.25009323340E+04 0.  0.
        5    1    3    3  502    0  0.11201287430E+04  0.16503933267E+03  0.23415785989E+03  0.11561913231E+04  0.46999998093E+01 0.  1.
       -5    1    3    3    0  502 -0.11201287430E+04 -0.16503933267E+03 -0.86012929764E+03  0.14218898976E+04  0.46999998093E+01 0. -1.
</event>
<event>
 5   0  0.1526824E-05  0.2436274E+04  0.7818609E-02  0.8426047E-01
        2   -1    0    0  501    0  0.00000000000E+00  0.00000000000E+00  0.15200066844E+04  0.15200066844E+04  0.25500000920E-02 0.  1.
       -2   -1    0    0    0  501  0.00000000000E+00  0.00000000000E+00 -0.97621778689E+03  0.97621778690E+03  0.25500000920E-02 0. -1.
    10030    2    1    2    0    0  0.00000000000E+00  0.00000000000E+00  0.54378889750E+03  0.24962244713E+04  0.24362738446E+04 0.  0.
        2    1    3    3  502    0 -0.62718507669E+03 -0.92836803871E+03  0.76181246051E+03  0.13548382046E+04  0.25500000920E-02 0.  1.
       -2    1    3    3    0  502  0.62718507669E+03  0.92836803871E+03 -0.21802356300E+03  0.11413862667E+04  0.25500000920E-02 0. -1.
</event>
<event>
 5   0  0.6290861E-06  0.2499913E+04  0.7818609E-02  0.8403016E-01
        1   -1    0    0  501    0  0.00000000000E+00  0.00000000000E+00  0.17345908022E+04  0.17345908022E+04  0.50400001928E-02 0.  1.
       -1   -1    0    0    0  501  0.00000000000E+00  0.00000000000E+00 -0.90072622324E+03  0.90072622325E+03  0.50400001928E-02 0. -1.
    10030    2    1    2    0    0  0.00000000000E+00  0.00000000000E+00  0.83386457891E+03  0.26353170254E+04  0.24999131362E+04 0.  0.
        1    1    3    3  502    0  0.71406397040E+03 -0.34167797836E+03  0.14366741332E+04  0.16403242850E+04  0.50400001928E-02 0.  1.
       -1    1    3    3    0  502 -0.71406397040E+03  0.34167797836E+03 -0.60280955433E+03  0.99499274044E+03  0.50400001928E-02 0. -1.
</event>
<event>
 5   0  0.1550483E-05  0.2549317E+04  0.7818609E-02  0.8385624E-01
        2   -1    0    0  501    0  0.00000000000E+00  0.00000000000E+00  0.12500329931E+04  0.12500329931E+04  0.25500000920E-02 0. -1.
       -2   -1    0    0    0  501  0.00000000000E+00  0.00000000000E+00 -0.12997696086E+04  0.12997696086E+04  0.25500000920E-02 0.  1.
    10030    2    1    2    0    0  0.00000000000E+00  0.00000000000E+00 -0.49736615476E+02  0.25498026017E+04  0.25493174727E+04 0.  0.
        5    1    3    3  502    0 -0.75761561338E+03 -0.79759839711E+03  0.61913944748E+03  0.12623392437E+04  0.46999998093E+01 0. -1.
       -5    1    3    3    0  502  0.75761561338E+03  0.79759839711E+03 -0.66887606296E+03  0.12874633580E+04  0.46999998093E+01 0.  1.
</event>
<event>
 5   0  0.5164625E-06  0.2728028E+04  0.7818609E-02  0.8325968E-01
       -4   -1    0    0    0  501  0.00000000000E+00  0.00000000000E+00  0.19195816208E+04  0.19195820409E+04  0.12699999809E+01 0. -1.
        4   -1    0    0  501    0  0.00000000000E+00  0.00000000000E+00 -0.96923820118E+03  0.96923903322E+03  0.12699999809E+01 0.  1.
    10030    2    1    2    0    0  0.00000000000E+00  0.00000000000E+00  0.95034341959E+03  0.28888210741E+04  0.27280275994E+04 0.  0.
        4    1    3    3  502    0 -0.70847459043E+03 -0.10173981628E+04  0.10774633781E+04  0.16425480848E+04  0.12699999809E+01 0.  1.
       -4    1    3    3    0  502  0.70847459043E+03  0.10173981628E+04 -0.12711995850E+03  0.12462729893E+04  0.12699999809E+01 0. -1.
</event>
<event>
 5   0  0.1501947E-05  0.2509186E+04  0.7818609E-02  0.8399720E-01
        2   -1    0    0  501    0  0.00000000000E+00  0.00000000000E+00  0.19598888256E+04  0.19598888256E+04  0.25500000920E-02 0.  1.
       -2   -1    0    0    0  501  0.00000000000E+00  0.00000000000E+00 -0.80310880990E+03  0.80310880990E+03  0.25500000920E-02 0. -1.
    10030    2    1    2    0    0  0.00000000000E+00  0.00000000000E+00  0.11567800157E+04  0.27629976355E+04  0.25091863081E+04 0.  0.
        3    1    3    3  502    0 -0.16966335688E+02 -0.11567505040E+04  0.11129250163E+04  0.16052917764E+04  0.10100000352E+00 0.  1.
       -3    1    3    3    0  502  0.16966335688E+02  0.11567505040E+04  0.43854999362E+02  0.11577058591E+04  0.10100000352E+00 0. -1.
</event>
<event>
 5   0  0.6104486E-06  0.2484589E+04  0.7818609E-02  0.8408496E-01
       -1   -1    0    0    0  501  0.00000000000E+00  0.00000000000E+00  0.82471481159E+03  0.82471481161E+03  0.50400001928E-02 0.  1.
        1   -1    0    0  501    0  0.00000000000E+00  0.00000000000E+00 -0.18713089650E+04  0.18713089650E+04  0.50400001928E-02 0. -1.
    10030    2    1    2    0    0  0.00000000000E+00  0.00000000000E+00 -0.10465941534E+04  0.26960237766E+04  0.24845894796E+04 0.  0.
        2    1    3    3  502    0 -0.33377950058E+03 -0.61536064933E+03  0.59030072337E+03  0.91571416270E+03  0.25500000920E-02 0.  1.
       -2    1    3    3    0  502  0.33377950058E+03  0.61536064933E+03 -0.16368948768E+04  0.17803096139E+04  0.25500000920E-02 0. -1.
</event>
<event>
 5   0  0.6477703E-06  0.2486690E+04  0.7818609E-02  0.8407743E-01
       -1   -1    0    0    0  501  0.00000000000E+00  0.00000000000E+00  0.65677702911E+03  0.65677702913E+03  0.50400001928E-02 0. -1.
        1   -1    0    0  501    0  0.00000000000E+00  0.00000000000E+00 -0.23537780358E+04  0.23537780358E+04  0.50400001928E-02 0.  1.
    10030    2    1    2    0    0  0.00000000000E+00  0.00000000000E+00 -0.16970010067E+04  0.30105550649E+04  0.24866904476E+04 0.  0.
        5    1    3    3  502    0 -0.11103674858E+04 -0.22497394942E+03 -0.22838816945E+03  0.11557302788E+04  0.46999998093E+01 0. -1.
       -5    1    3    3    0  502  0.11103674858E+04  0.22497394942E+03 -0.14686128372E+04  0.18548247861E+04  0.46999998093E+01 0.  1.
</event>
<event>
 5   0  0.1526824E-05  0.2501736E+04  0.7818609E-02  0.8402367E-01
       -2   -1    0    0    0  501  0.00000000000E+00  0.00000000000E+00  0.56725650840E+03  0.56725650841E+03  0.25500000920E-02 0. -1.
        2   -1    0    0  501    0  0.00000000000E+00  0.00000000000E+00 -0.27583132235E+04  0.27583132235E+04  0.25500000920E-02 0.  1.
    10030    2    1    2    0    0  0.00000000000E+00  0.00000000000E+00 -0.21910567151E+04  0.33255697319E+04  0.25017362996E+04 0.  0.
        2    1    3    3  502    0 -0.17597915549E+03  0.11682503043E+04 -0.54922830446E+03  0.13028542386E+04  0.25500000920E-02 0. -1.
       -2    1    3    3    0  502  0.17597915549E+03 -0.11682503043E+04 -0.16418284106E+04  0.20227154932E+04  0.25500000920E-02 0.  1.
</event>
<event>
 5   0  0.1572732E-05  0.2504122E+04  0.7818609E-02  0.8401519E-01
       -2   -1    0    0    0  501  0.00000000000E+00  0.00000000000E+00  0.13098190154E+04  0.13098190154E+04  0.25500000920E-02 0. -1.
        2   -1    0    0  501    0  0.00000000000E+00  0.00000000000E+00 -0.11968499210E+04  0.11968499210E+04  0.25500000920E-02 0.  1.
    10030    2    1    2    0    0  0.00000000000E+00  0.00000000000E+00  0.11296909435E+03  0.25066689364E+04  0.25041220298E+04 0.  0.
        1    1    3    3  502    0 -0.80744061001E+03 -0.66544470352E+02 -0.89909009577E+03  0.12102691872E+04  0.50400001928E-02 0.  1.
       -1    1    3    3    0  502  0.80744061001E+03  0.66544470352E+02  0.10120591901E+04  0.12963997491E+04  0.50400001928E-02 0. -1.
</event>
<event>
 5   0  0.6346420E-06  0.2521585E+04  0.7818609E-02  0.8395336E-01
        1   -1    0    0  501    0  0.00000000000E+00  0.00000000000E+00  0.57845119029E+03  0.57845119032E+03  0.50400001928E-02 0.  1.
       -1   -1    0    0    0  501  0.00000000000E+00  0.00000000000E+00 -0.27480249483E+04  0.27480249483E+04  0.50400001928E-02 0. -1.
    10030    2    1    2    0    0  0.00000000000E+00  0.00000000000E+00 -0.21695737580E+04  0.33264761386E+04  0.25215854555E+04 0.  0.
        4    1    3    3  502    0  0.10648149589E+02  0.12519008545E+04 -0.88810851485E+03  0.15349617192E+04  0.12699999809E+01 0.  1.
       -4    1    3    3    0  502 -0.10648149589E+02 -0.12519008545E+04 -0.12814652431E+04  0.17915144193E+04  0.12699999809E+01 0. -1.
</event>
<event>
 5   0  0.6105353E-06  0.2510506E+04  0.7818609E-02  0.8399252E-01
        1   -1    0    0  501    0  0.00000000000E+00  0.00000000000E+00  0.24906794454E+04  0.24906794454E+04  0.50400001928E-02 0.  1.
       -1   -1    0    0    0  501  0.00000000000E+00  0.00000000000E+00 -0.63262277435E+03  0.63262277437E+03  0.50400001928E-02 0. -1.
    10030    2    1    2    0    0  0.00000000000E+00  0.00000000000E+00  0.18580566710E+04  0.31233022197E+04  0.25105063559E+04 0.  0.
        3    1    3    3  502    0 -0.49771114888E+03  0.43049077792E+02  0.23616757992E+04  0.24139350036E+04  0.10100000352E+00 0.  1.
       -3    1    3    3    0  502  0.49771114888E+03 -0.43049077792E+02 -0.50361912820E+03  0.70936721613E+03  0.10100000352E+00 0. -1.
</event>
<event>
 5   0  0.1526824E-05  0.2506727E+04  0.7818609E-02  0.8400593E-01
       -2   -1    0    0    0  501  0.00000000000E+00  0.00000000000E+00  0.95829517869E+03  0.95829517870E+03  0.25500000920E-02 0.  1.
        2   -1    0    0  501    0  0.00000000000E+00  0.00000000000E+00 -0.16392860445E+04  0.16392860445E+04  0.25500000920E-02 0. -1.
    10030    2    1    2    0    0  0.00000000000E+00  0.00000000000E+00 -0.68099086585E+03  0.25975812232E+04  0.25067268802E+04 0.  0.
        2    1    3    3  502    0 -0.12070891769E+04 -0.19368235164E+03 -0.62681175027E+03  0.13738522863E+04  0.25500000920E-02 0. -1.
       -2    1    3    3    0  502  0.12070891769E+04  0.19368235164E+03 -0.54179115582E+02  0.12237289369E+04  0.25500000920E-02 0.  1.
</event>
<event>
 5   0  0.6290861E-06  0.2489983E+04  0.7818609E-02  0.8406563E-01
       -1   -1    0    0    0  501  0.00000000000E+00  0.00000000000E+00  0.62866649747E+03  0.62866649749E+03  0.50400001928E-02 0.  1.
        1   -1    0    0  501    0  0.00000000000E+00  0.00000000000E+00 -0.24655431682E+04  0.24655431682E+04  0.50400001928E-02 0. -1.
    10030    2    1    2    0    0  0.00000000000E+00  0.00000000000E+00 -0.18368766707E+04  0.30942096657E+04  0.24899834441E+04 0.  0.
        1    1    3    3  502    0 -0.31111754972E+03  0.43710666233E+03 -0.23145122897E+04  0.23758837310E+04  0.50400001928E-02 0. -1.
       -1    1    3    3    0  502  0.31111754972E+03 -0.43710666233E+03  0.47763561894E+03  0.71832593472E+03  0.50400001928E-02 0.  1.
</event>
<event>
 5   0  0.6290861E-06  0.2506835E+04  0.7818609E-02  0.8400555E-01
       -1   -1    0    0    0  501  0.00000000000E+00  0.00000000000E+00  0.10278317309E+04  0.10278317309E+04  0.50400001928E-02 0.  1.
        1   -1    0    0  501    0  0.00000000000E+00  0.00000000000E+00 -0.15285141321E+04  0.15285141321E+04  0.50400001928E-02 0. -1.
    10030    2    1    2    0    0  0.00000000000E+00  0.00000000000E+00 -0.50068240118E+03  0.25563458631E+04  0.25068349177E+04 0.  0.
        1    1    3    3  502    0 -0.13803964932E+03 -0.12454279831E+04 -0.21958731036E+03  0.12721495167E+04  0.50400001928E-02 0. -1.
       -1    1    3    3    0  502  0.13803964932E+03  0.12454279831E+04 -0.28109509082E+03  0.12841963464E+04  0.50400001928E-02 0.  1.
</event>
<event>
 5   0  0.6104486E-06  0.2500169E+04  0.7818609E-02  0.8402925E-01
        1   -1    0    0  501    0  0.00000000000E+00  0.00000000000E+00  0.12981064280E+04  0.12981064280E+04  0.50400001928E-02 0. -1.
       -1   -1    0    0    0  501  0.00000000000E+00  0.00000000000E+00 -0.12038390766E+04  0.12038390766E+04  0.50400001928E-02 0.  1.
    10030    2    1    2    0    0  0.00000000000E+00  0.00000000000E+00  0.94267351401E+02  0.25019455046E+04  0.25001689892E+04 0.  0.
        2    1    3    3  502    0  0.11394731414E+04 -0.25413063880E+03 -0.40009530621E+03  0.12341222288E+04  0.25500000920E-02 0.  1.
       -2    1    3    3    0  502 -0.11394731414E+04  0.25413063880E+03  0.49436265761E+03  0.12678232758E+04  0.25500000920E-02 0. -1.
</event>
<event>
 5   0  0.1468512E-05  0.2503493E+04  0.7818609E-02  0.8401742E-01
        2   -1    0    0  501    0  0.00000000000E+00  0.00000000000E+00  0.70353024628E+03  0.70353024629E+03  0.25500000920E-02 0. -1.
       -2   -1    0    0    0  501  0.00000000000E+00  0.00000000000E+00 -0.22271518987E+04  0.22271518987E+04  0.25500000920E-02 0.  1.
    10030    2    1    2    0    0  0.00000000000E+00  0.00000000000E+00 -0.15236216525E+04  0.29306821450E+04  0.25034925395E+04 0.  0.
        4    1    3    3  502    0  0.66064232375E+03 -0.71324803806E+03  0.16120995061E+03  0.98547516702E+03  0.12699999809E+01 0. -1.
       -4    1    3    3    0  502 -0.66064232375E+03  0.71324803806E+03 -0.16848316031E+04  0.19452069780E+04  0.12699999809E+01 0.  1.
</event>
<event>
 5   0  0.5164625E-06  0.2500913E+04  0.7818609E-02  0.8402660E-01
        4   -1    0    0  501    0  0.00000000000E+00  0.00000000000E+00  0.13612710345E+04  0.13612716269E+04  0.12699999809E+01 0.  1.
       -4   -1    0    0    0  501  0.00000000000E+00  0.00000000000E+00 -0.11486617336E+04  0.11486624356E+04  0.12699999809E+01 0. -1.
    10030    2    1    2    0    0  0.00000000000E+00  0.00000000000E+00  0.21260930092E+03  0.25099340625E+04  0.25009130900E+04 0.  0.
        3    1    3    3  502    0  0.12605034671E+03 -0.47789941483E+03  0.12590840198E+04  0.13526156586E+04  0.10100000352E+00 0.  1.
       -3    1    3    3    0  502 -0.12605034671E+03  0.47789941483E+03 -0.10464747189E+04  0.11573184040E+04  0.10100000352E+00 0. -1.
</event>
<event>
 5   0  0.1468512E-05  0.2482063E+04  0.7818609E-02  0.8409404E-01
        2   -1    0    0  501    0  0.00000000000E+00  0.00000000000E+00  0.96322375979E+03  0.96322375979E+03  0.25500000920E-02 0.  1.
       -2   -1    0    0    0  501  0.00000000000E+00  0.00000000000E+00 -0.15989624709E+04  0.15989624709E+04  0.25500000920E-02 0. -1.
    10030    2    1    2    0    0  0.00000000000E+00  0.00000000000E+00 -0.63573871110E+03  0.25621862307E+04  0.24820625641E+04 0.  0.
        4    1    3    3  502    0 -0.64390400712E+03  0.24613659913E+03  0.74741342983E+03  0.10167713823E+04  0.12699999809E+01 0.  1.
       -4    1    3    3    0  502  0.64390400712E+03 -0.24613659913E+03 -0.13831521409E+04  0.15454148484E+04  0.12699999809E+01 0. -1.
</event>
<event>
 5   0  0.1572732E-05  0.2482508E+04  0.7818609E-02  0.8409244E-01
       -2   -1    0    0    0  501  0.00000000000E+00  0.00000000000E+00  0.15509958637E+04  0.15509958637E+04  0.25500000920E-02 0.  1.
        2   -1    0    0  501    0  0.00000000000E+00  0.00000000000E+00 -0.99336933945E+03  0.99336933946E+03  0.25500000920E-02 0. -1.
    10030    2    1    2    0    0  0.00000000000E+00  0.00000000000E+00  0.55762652429E+03  0.25443652032E+04  0.24825081967E+04 0.  0.
        1    1    3    3  502    0  0.51099190603E+03 -0.11199569823E+04  0.44182138385E+03  0.13079076823E+04  0.50400001928E-02 0.  1.
       -1    1    3    3    0  502 -0.51099190603E+03  0.11199569823E+04  0.11580514044E+03  0.12364575209E+04  0.50400001928E-02 0. -1.
</event>
<event>
 5   0  0.1550483E-05  0.2512949E+04  0.7818609E-02  0.8398387E-01
        2   -1    0    0  501    0  0.00000000000E+00  0.00000000000E+00  0.10633256113E+04  0.10633256113E+04  0.25500000920E-02 0.  1.
       -2   -1    0    0    0  501  0.00000000000E+00  0.00000000000E+00 -0.14847080611E+04  0.14847080611E+04  0.25500000920E-02 0. -1.
    10030    2    1    2    0    0  0.00000000000E+00  0.00000000000E+00 -0.42138244980E+03  0.25480336724E+04  0.25129489503E+04 0.  0.
        5    1    3    3  502    0  0.41968738649E+03  0.36648062864E+03 -0.13525850481E+04  0.14628581462E+04  0.46999998093E+01 0. -1.
       -5    1    3    3    0  502 -0.41968738649E+03 -0.36648062864E+03  0.93120259834E+03  0.10851755262E+04  0.46999998093E+01 0.  1.
</event>
<event>
 5   0  0.1501947E-05  0.2501624E+04  0.7818609E-02  0.8402407E-01
       -2   -1    0    0    0  501  0.00000000000E+00  0.00000000000E+00  0.31771502411E+04  0.31771502411E+04  0.25500000920E-02 0.  1.
        2   -1    0    0  501    0  0.00000000000E+00  0.00000000000E+00 -0.49243200616E+03  0.49243200617E+03  0.25500000920E-02 0. -1.
    10030    2    1    2    0    0  0.00000000000E+00  0.00000000000E+00  0.26847182350E+04  0.36695822473E+04  0.25016238463E+04 0.  0.
        3    1    3    3  502    0  0.59971262294E+03 -0.36726924246E+03  0.28597035628E+04  0.29449017648E+04  0.10100000352E+00 0.  1.
       -3    1    3    3    0  502 -0.59971262294E+03  0.36726924246E+03 -0.17498532789E+03  0.72468048252E+03  0.10100000352E+00 0. -1.
</event>
<event>
 5   0  0.1468512E-05  0.2507897E+04  0.7818609E-02  0.8400177E-01
       -2   -1    0    0    0  501  0.00000000000E+00  0.00000000000E+00  0.25998019489E+04  0.25998019489E+04  0.25500000920E-02 0.  1.
        2   -1    0    0  501    0  0.00000000000E+00  0.00000000000E+00 -0.60481037323E+03  0.60481037323E+03  0.25500000920E-02 0. -1.
    10030    2    1    2    0    0  0.00000000000E+00  0.00000000000E+00  0.19949915756E+04  0.32046123221E+04  0.25078972762E+04 0.  0.
        4    1    3    3  502    0 -0.12348547035E+04  0.18693287317E+03  0.85420145652E+03  0.15131000559E+04  0.12699999809E+01 0. -1.
       -4    1    3    3    0  502  0.12348547035E+04 -0.18693287317E+03  0.11407901191E+04  0.16915122662E+04  0.12699999809E+01 0.  1.
</event>
<event>
 5   0  0.6105353E-06  0.2512066E+04  0.7818609E-02  0.8398699E-01
        1   -1    0    0  501    0  0.00000000000E+00  0.00000000000E+00  0.78220675400E+03  0.78220675401E+03  0.50400001928E-02 0. -1.
       -1   -1    0    0    0  501  0.00000000000E+00  0.00000000000E+00 -0.20168824503E+04  0.20168824503E+04  0.50400001928E-02 0.  1.
    10030    2    1    2    0    0  0.00000000000E+00  0.00000000000E+00 -0.12346756963E+04  0.27990892044E+04  0.25120661414E+04 0.  0.
        3    1    3    3  502    0  0.70819365105E+03 -0.60905787644E+03 -0.15530021410E+04  0.18122652688E+04  0.10100000352E+00 0.  1.
       -3    1    3    3    0  502 -0.70819365105E+03  0.60905787644E+03  0.31832644468E+03  0.98682393557E+03  0.10100000352E+00 0. -1.
</event>
<event>
 5   0  0.6104486E-06  0.2630085E+04  0.7818609E-02  0.8358053E-01
        1   -1    0    0  501    0  0.00000000000E+00  0.00000000000E+00  0.14929449270E+04  0.14929449270E+04  0.50400001928E-02 0. -1.
       -1   -1    0    0    0  501  0.00000000000E+00  0.00000000000E+00 -0.11583391906E+04  0.11583391906E+04  0.50400001928E-02 0.  1.
    10030    2    1    2    0    0  0.00000000000E+00  0.00000000000E+00  0.33460573640E+03  0.26512841177E+04  0.26300848796E+04 0.  0.
        2    1    3    3  502    0 -0.47280479680E+01  0.35837783198E+03  0.14427599222E+04  0.14866113205E+04  0.25500000920E-02 0. -1.
       -2    1    3    3    0  502  0.47280479680E+01 -0.35837783198E+03 -0.11081541859E+04  0.11646727972E+04  0.25500000920E-02 0.  1.
</event>
<event>
 5   0  0.6477703E-06  0.2501092E+04  0.7818609E-02  0.8402597E-01
       -1   -1    0    0    0  501  0.00000000000E+00  0.00000000000E+00  0.62399288353E+03  0.62399288355E+03  0.50400001928E-02 0.  1.
        1   -1    0    0  501    0  0.00000000000E+00  0.00000000000E+00 -0.25062223897E+04  0.25062223897E+04  0.50400001928E-02 0. -1.
    10030    2    1    2    0    0  0.00000000000E+00  0.00000000000E+00 -0.18822295062E+04  0.31302152733E+04  0.25010917102E+04 0.  0.
        5    1    3    3  502    0  0.58321082483E+03 -0.62988377828E+03  0.19699821523E+03  0.88074901484E+03  0.46999998093E+01 0.  1.
       -5    1    3    3    0  502 -0.58321082483E+03  0.62988377828E+03 -0.20792277214E+04  0.22494662584E+04  0.46999998093E+01 0. -1.
</event>
<event>
 5   0  0.1468512E-05  0.2496952E+04  0.7818609E-02  0.8404072E-01
        2   -1    0    0  501    0  0.00000000000E+00  0.00000000000E+00  0.26558442565E+04  0.26558442565E+04  0.25500000920E-02 0.  1.
       -2   -1    0    0    0  501  0.00000000000E+00  0.00000000000E+00 -0.58689138517E+03  0.58689138518E+03  0.25500000920E-02 0. -1.
    10030    2    1    2    0    0  0.00000000000E+00  0.00000000000E+00  0.20689528713E+04  0.32427356417E+04  0.24969518333E+04 0.  0.
        4    1    3    3  502    0 -0.11821440879E+04  0.19056415780E+03  0.14934651412E+04  0.19142150045E+04  0.12699999809E+01 0.  1.
       -4    1    3    3    0  502  0.11821440879E+04 -0.19056415780E+03  0.57548773015E+03  0.13285206371E+04  0.12699999809E+01 0. -1.
</event>
<event>
 5   0  0.6290861E-06  0.2412243E+04  0.7818609E-02  0.8434934E-01
       -1   -1    0    0    0  501  0.00000000000E+00  0.00000000000E+00  0.67150684378E+03  0.67150684380E+03  0.50400001928E-02 0. -1.
        1   -1    0    0  501    0  0.00000000000E+00  0.00000000000E+00 -0.21663651535E+04  0.21663651535E+04  0.50400001928E-02 0.  1.
    10030    2    1    2    0    0  0.00000000000E+00  0.00000000000E+00 -0.14948583097E+04  0.28378719973E+04  0.24122429618E+04 0.  0.
        1    1    3    3  502    0  0.10861360226E+04  0.32002049226E+03 -0.25863848142E+03  0.11614639208E+04  0.50400001928E-02 0. -1.
       -1    1    3    3    0  502 -0.10861360226E+04 -0.32002049226E+03 -0.12362198283E+04  0.16764080765E+04  0.50400001928E-02 0.  1.
</event>
<event>
 5   0  0.6477703E-06  0.2528995E+04  0.7818609E-02  0.8392728E-01
       -1   -1    0    0    0  501  0.00000000000E+00  0.00000000000E+00  0.62769983099E+03  0.62769983101E+03  0.50400001928E-02 0.  1.
        1   -1    0    0  501    0  0.00000000000E+00  0.00000000000E+00 -0.25473223447E+04  0.25473223447E+04  0.50400001928E-02 0. -1.
    10030    2    1    2    0    0  0.00000000000E+00  0.00000000000E+00 -0.19196225137E+04  0.31750221757E+04  0.25289949033E+04 0.  0.
        5    1    3    3  502    0  0.10423251045E+04 -0.53689111680E+03 -0.15543134133E+04  0.19469478605E+04  0.46999998093E+01 0. -1.
       -5    1    3    3    0  502 -0.10423251045E+04  0.53689111680E+03 -0.36530910039E+03  0.12280743152E+04  0.46999998093E+01 0.  1.
</event>
<event>
 5   0  0.6290861E-06  0.2433683E+04  0.7818609E-02  0.8427000E-01
        1   -1    0    0  501    0  0.00000000000E+00  0.00000000000E+00  0.97408835945E+03  0.97408835947E+03  0.50400001928E-02 0. -1.
       -1   -1    0    0    0  501  0.00000000000E+00  0.00000000000E+00 -0.15200916623E+04  0.15200916623E+04  0.50400001928E-02 0.  1.
    10030    2    1    2    0    0  0.00000000000E+00  0.00000000000E+00 -0.54600330284E+03  0.24941800218E+04  0.24336832938E+04 0.  0.
        1    1    3    3  502    0  0.99887816001E+03  0.20250489978E+03 -0.95431092530E+03  0.13962360671E+04  0.50400001928E-02 0.  1.
       -1    1    3    3    0  502 -0.99887816001E+03 -0.20250489978E+03  0.40830762245E+03  0.10979439547E+04  0.50400001928E-02 0. -1.
</event>
<event>
 5   0  0.6104486E-06  0.2501327E+04  0.7818609E-02  0.8402513E-01
        1   -1    0    0  501    0  0.00000000000E+00  0.00000000000E+00  0.12927891799E+04  0.12927891799E+04  0.50400001928E-02 0.  1.
       -1   -1    0    0    0  501  0.00000000000E+00  0.00000000000E+00 -0.12099104823E+04  0.12099104823E+04  0.50400001928E-02 0. -1.
    10030    2    1    2    0    0  0.00000000000E+00  0.00000000000E+00  0.82878697621E+02  0.25026996622E+04  0.25013269920E+04 0.  0.
        2    1    3    3  502    0  0.78437243266E+02  0.11477875334E+04 -0.44933013948E+03  0.12350976469E+04  0.25500000920E-02 0. -1.
       -2    1    3    3    0  502 -0.78437243266E+02 -0.11477875334E+04  0.53220883710E+03  0.12676020154E+04  0.25500000920E-02 0.  1.
</event>
<event>
 5   0  0.1550483E-05  0.2493059E+04  0.7818609E-02  0.8405462E-01
       -2   -1    0    0    0  501  0.00000000000E+00  0.00000000000E+00  0.13336209225E+04  0.13336209225E+04  0.25500000920E-02 0.  1.
        2   -1    0    0  501    0  0.00000000000E+00  0.00000000000E+00 -0.11651254590E+04  0.11651254590E+04  0.25500000920E-02 0. -1.
    10030    2    1    2    0    0  0.00000000000E+00  0.00000000000E+00  0.16849546354E+03  0.24987463814E+04  0.24930589158E+04 0.  0.
        5    1    3    3  502    0  0.21401932594E+03 -0.98173967688E+02 -0.11426245219E+04  0.11666427421E+04  0.46999998093E+01 0. -1.
       -5    1    3    3    0  502 -0.21401932594E+03  0.98173967688E+02  0.13111199854E+04  0.13321036393E+04  0.46999998093E+01 0.  1.
</event>
<event>
 5   0  0.1468512E-05  0.2496865E+04  0.7818609E-02  0.8404103E-01
        2   -1    0    0  501    0  0.00000000000E+00  0.00000000000E+00  0.21662061384E+04  0.21662061384E+04  0.25500000920E-02 0.  1.
       -2   -1    0    0    0  501  0.00000000000E+00  0.00000000000E+00 -0.71949904789E+03  0.71949904790E+03  0.25500000920E-02 0. -1.
    10030    2    1    2    0    0  0.00000000000E+00  0.00000000000E+00  0.14467070905E+04  0.28857051863E+04  0.24968646372E+04 0.  0.
        4    1    3    3  502    0  0.11598923809E+03  0.22340333310E+03  0.21365722530E+04  0.21513496131E+04  0.12699999809E+01 0.  1.
       -4    1    3    3    0  502 -0.11598923809E+03 -0.22340333310E+03 -0.68986516248E+03  0.73435557321E+03  0.12699999809E+01 0. -1.
</event>
<event>
 5   0  0.6105353E-06  0.2489881E+04  0.7818609E-02  0.8406599E-01
       -1   -1    0    0    0  501  0.00000000000E+00  0.00000000000E+00  0.15196560953E+04  0.15196560953E+04  0.50400001928E-02 0. -1.
        1   -1    0    0  501    0  0.00000000000E+00  0.00000000000E+00 -0.10198866794E+04  0.10198866794E+04  0.50400001928E-02 0.  1.
    10030    2    1    2    0    0  0.00000000000E+00  0.00000000000E+00  0.49976941591E+03  0.25395427747E+04  0.24898811288E+04 0.  0.
        3    1    3    3  502    0 -0.25799461659E+03 -0.49112440973E+03 -0.88684549831E+03  0.10460685236E+04  0.10100000352E+00 0.  1.
       -3    1    3    3    0  502  0.25799461659E+03  0.49112440973E+03  0.13866149142E+04  0.14934742511E+04  0.10100000352E+00 0. -1.
</event>
<event>
 5   0  0.6104486E-06  0.2510607E+04  0.7818609E-02  0.8399217E-01
       -1   -1    0    0    0  501  0.00000000000E+00  0.00000000000E+00  0.10182866221E+04  0.10182866221E+04  0.50400001928E-02 0. -1.
        1   -1    0    0  501    0  0.00000000000E+00  0.00000000000E+00 -0.15474881441E+04  0.15474881441E+04  0.50400001928E-02 0.  1.
    10030    2    1    2    0    0  0.00000000000E+00  0.00000000000E+00 -0.52920152199E+03  0.25657747663E+04  0.25106066797E+04 0.  0.
        2    1    3    3  502    0  0.60303327148E+03 -0.95930741170E+03  0.28751745721E+03  0.11690107463E+04  0.25500000920E-02 0. -1.
       -2    1    3    3    0  502 -0.60303327148E+03  0.95930741170E+03 -0.81671897919E+03  0.13967640200E+04  0.25500000920E-02 0.  1.
</event>
<event>
 5   0  0.1468512E-05  0.2488612E+04  0.7818609E-02  0.8407054E-01
       -2   -1    0    0    0  501  0.00000000000E+00  0.00000000000E+00  0.96871311062E+03  0.96871311062E+03  0.25500000920E-02 0.  1.
        2   -1    0    0  501    0  0.00000000000E+00  0.00000000000E+00 -0.15983028982E+04  0.15983028982E+04  0.25500000920E-02 0. -1.
    10030    2    1    2    0    0  0.00000000000E+00  0.00000000000E+00 -0.62958978754E+03  0.25670160088E+04  0.24886116388E+04 0.  0.
        4    1    3    3  502    0  0.32139486222E+03  0.80739780809E+03 -0.12334193854E+04  0.15088110787E+04  0.12699999809E+01 0. -1.
       -4    1    3    3    0  502 -0.32139486222E+03 -0.80739780809E+03  0.60382959785E+03  0.10582049301E+04  0.12699999809E+01 0.  1.
</event>
<event>
 5   0  0.6290861E-06  0.2515054E+04  0.7818609E-02  0.8397642E-01
       -1   -1    0    0    0  501  0.00000000000E+00  0.00000000000E+00  0.12902690563E+04  0.12902690563E+04  0.50400001928E-02 0. -1.
        1   -1    0    0  501    0  0.00000000000E+00  0.00000000000E+00 -0.12256153549E+04  0.12256153549E+04  0.50400001928E-02 0.  1.
    10030    2    1    2    0    0  0.00000000000E+00  0.00000000000E+00  0.64653701390E+02  0.25158844112E+04  0.25150535321E+04 0.  0.
        1    1    3    3  502    0 -0.44470776526E+03 -0.62994225200E+03  0.10260237001E+04  0.12834784262E+04  0.50400001928E-02 0. -1.
       -1    1    3    3    0  502  0.44470776526E+03  0.62994225200E+03 -0.96136999874E+03  0.12324059850E+04  0.50400001928E-02 0.  1.
</event>
<event>
 5   0  0.1468512E-05  0.2507522E+04  0.7818609E-02  0.8400311E-01
        2   -1    0    0  501    0  0.00000000000E+00  0.00000000000E+00  0.11276162875E+04  0.11276162875E+04  0.25500000920E-02 0. -1.
       -2   -1    0    0    0  501  0.00000000000E+00  0.00000000000E+00 -0.13940174874E+04  0.13940174874E+04  0.25500000920E-02 0.  1.
    10030    2    1    2    0    0  0.00000000000E+00  0.00000000000E+00 -0.26640119989E+03  0.25216337750E+04  0.25075221426E+04 0.  0.
        4    1    3    3  502    0  0.75623013204E+03 -0.39634568210E+03  0.79008465977E+03  0.11632752446E+04  0.12699999809E+01 0. -1.
       -4    1    3    3    0  502 -0.75623013204E+03  0.39634568210E+03 -0.10564858597E+04  0.13583585303E+04  0.12699999809E+01 0.  1.
</event>
<event>
 5   0  0.6290861E-06  0.2503340E+04  0.7818609E-02  0.8401797E-01
        1   -1    0    0  501    0  0.00000000000E+00  0.00000000000E+00  0.22514057208E+04  0.22514057208E+04  0.50400001928E-02 0. -1.
       -1   -1    0    0    0  501  0.00000000000E+00  0.00000000000E+00 -0.69586633936E+03  0.69586633937E+03  0.50400001928E-02 0.  1.
    10030    2    1    2    0    0  0.00000000000E+00  0.00000000000E+00  0.15555393814E+04  0.29472720602E+04  0.25033397351E+04 0.  0.
        1    1    3    3  502    0  0.78803049261E+03  0.94332585975E+03  0.10559344129E+04  0.16204484624E+04  0.50400001928E-02 0. -1.
       -1    1    3    3    0  502 -0.78803049261E+03 -0.94332585975E+03  0.49960496855E+03  0.13268235978E+04  0.50400001928E-02 0.  1.
</event>
<event>
 5   0  0.6290861E-06  0.2486835E+04  0.7818609E-02  0.8407691E-01
       -1   -1    0    0    0  501  0.00000000000E+00  0.00000000000E+00  0.53960958220E+03  0.53960958222E+03  0.50400001928E-02 0.  1.
        1   -1    0    0  501    0  0.00000000000E+00  0.00000000000E+00 -0.28651958598E+04  0.28651958598E+04  0.50400001928E-02 0. -1.
    10030    2    1    2    0    0  0.00000000000E+00  0.00000000000E+00 -0.23255862776E+04  0.34048054420E+04  0.24868350495E+04 0.  0.
        1    1    3    3  502    0  0.11210802829E+04  0.53727953160E+03 -0.11962415980E+04  0.17252490419E+04  0.50400001928E-02 0. -1.
       -1    1    3    3    0  502 -0.11210802829E+04 -0.53727953160E+03 -0.11293446797E+04  0.16795564001E+04  0.50400001928E-02 0.  1.
</event>
<event>
 5   0  0.1501947E-05  0.2502109E+04  0.7818609E-02  0.8402235E-01
        2   -1    0    0  501    0  0.00000000000E+00  0.00000000000E+00  0.25301466245E+04  0.25301466245E+04  0.25500000920E-02 0. -1.
       -2   -1    0    0    0  501  0.00000000000E+00  0.00000000000E+00 -0.61859535579E+03  0.61859535580E+03  0.25500000920E-02 0.  1.
    10030    2    1    2    0    0  0.00000000000E+00  0.00000000000E+00  0.19115512687E+04  0.31487419803E+04  0.25021086718E+04 0.  0.
        3    1    3    3  502    0  0.69446332137E+03 -0.77284747249E+03  0.78867023555E+02  0.10420136938E+04  0.10100000352E+00 0.  1.
       -3    1    3    3    0  502 -0.69446332137E+03  0.77284747249E+03  0.18326842451E+04  0.21067282865E+04  0.10100000352E+00 0. -1.
</event>
<event>
 5   0  0.6477703E-06  0.2504213E+04  0.7818609E-02  0.8401486E-01
        1   -1    0    0  501    0  0.00000000000E+00  0.00000000000E+00  0.15619573313E+04  0.15619573313E+04  0.50400001928E-02 0.  1.
       -1   -1    0    0    0  501  0.00000000000E+00  0.00000000000E+00 -0.10037220400E+04  0.10037220400E+04  0.50400001928E-02 0. -1.
    10030    2    1    2    0    0  0.00000000000E+00  0.00000000000E+00  0.55823529127E+03  0.25656793712E+04  0.25042132488E+04 0.  0.
        5    1    3    3  502    0 -0.74807943476E+02 -0.10897440370E+04  0.90619499332E+03  0.14192778976E+04  0.46999998093E+01 0.  1.
       -5    1    3    3    0  502  0.74807943476E+02  0.10897440370E+04 -0.34795970204E+03  0.11464014737E+04  0.46999998093E+01 0. -1.
</event>
<event>
 5   0  0.1501947E-05  0.2494586E+04  0.7818609E-02  0.8404917E-01
        2   -1    0    0  501    0  0.00000000000E+00  0.00000000000E+00  0.62600711185E+03  0.62600711186E+03  0.25500000920E-02 0. -1.
       -2   -1    0    0    0  501  0.00000000000E+00  0.00000000000E+00 -0.24851796618E+04  0.24851796618E+04  0.25500000920E-02 0.  1.
    10030    2    1    2    0    0  0.00000000000E+00  0.00000000000E+00 -0.18591725500E+04  0.31111867737E+04  0.24945862523E+04 0.  0.
        3    1    3    3  502    0  0.10323293391E+04  0.67089567047E+03 -0.68035309582E+03  0.14066574602E+04  0.10100000352E+00 0.  1.
       -3    1    3    3    0  502 -0.10323293391E+04 -0.67089567047E+03 -0.11788194542E+04  0.17045293136E+04  0.10100000352E+00 0. -1.
</event>
<event>
 5   0  0.1468512E-05  0.2423230E+04  0.7818609E-02  0.8430857E-01
       -2   -1    0    0    0  501  0.00000000000E+00  0.00000000000E+00  0.16559725513E+04  0.16559725513E+04  0.25500000920E-02 0.  1.
        2   -1    0    0  501    0  0.00000000000E+00  0.00000000000E+00 -0.88649497516E+03  0.88649497516E+03  0.25500000920E-02 0. -1.
    10030    2    1    2    0    0  0.00000000000E+00  0.00000000000E+00  0.76947757616E+03  0.25424675265E+04  0.24232303611E+04 0.  0.
        4    1    3    3  502    0  0.38895806278E+03 -0.81327337104E+03  0.12340823041E+04  0.15282875046E+04  0.12699999809E+01 0.  1.
       -4    1    3    3    0  502 -0.38895806278E+03  0.81327337104E+03 -0.46460472791E+03  0.10141800219E+04  0.12699999809E+01 0. -1.
</event>
<event>
 5   0  0.1501947E-05  0.2468529E+04  0.7818609E-02  0.8414284E-01
       -2   -1    0    0    0  501  0.00000000000E+00  0.00000000000E+00  0.97340842509E+03  0.97340842510E+03  0.25500000920E-02 0. -1.
        2   -1    0    0  501    0  0.00000000000E+00  0.00000000000E+00 -0.15650258085E+04  0.15650258085E+04  0.25500000920E-02 0.  1.
    10030    2    1    2    0    0  0.00000000000E+00  0.00000000000E+00 -0.59161738344E+03  0.25384342336E+04  0.24685293659E+04 0.  0.
        3    1    3    3  502    0 -0.91314115545E+03 -0.52941091879E+02 -0.11479985561E+04  0.14678318105E+04  0.10100000352E+00 0.  1.
       -3    1    3    3    0  502  0.91314115545E+03  0.52941091879E+02  0.55638117262E+03  0.10706024231E+04  0.10100000352E+00 0. -1.
</event>
<event>
 5   0  0.1572732E-05  0.2502903E+04  0.7818609E-02  0.8401952E-01
       -2   -1    0    0    0  501  0.00000000000E+00  0.00000000000E+00  0.14811947390E+04  0.14811947390E+04  0.25500000920E-02 0. -1.
        2   -1    0    0  501    0  0.00000000000E+00  0.00000000000E+00 -0.10573427335E+04  0.10573427335E+04  0.25500000920E-02 0.  1.
    10030    2    1    2    0    0  0.00000000000E+00  0.00000000000E+00  0.42385200551E+03  0.25385374725E+04  0.25029027102E+04 0.  0.
        1    1    3    3  502    0 -0.47393226018E+03  0.11107279105E+04  0.54493307261E+03  0.13248699302E+04  0.50400001928E-02 0. -1.
       -1    1    3    3    0  502  0.47393226018E+03 -0.11107279105E+04 -0.12108106709E+03  0.12136675423E+04  0.50400001928E-02 0.  1.
</event>
<event>
 5   0  0.6104486E-06  0.2516500E+04  0.7818609E-02  0.8397131E-01
       -1   -1    0    0    0  501  0.00000000000E+00  0.00000000000E+00  0.86076408445E+03  0.86076408446E+03  0.50400001928E-02 0.  1.
        1   -1    0    0  501    0  0.00000000000E+00  0.00000000000E+00 -0.18392882341E+04  0.18392882341E+04  0.50400001928E-02 0. -1.
    10030    2    1    2    0    0  0.00000000000E+00  0.00000000000E+00 -0.97852414966E+03  0.27000523186E+04  0.25165001513E+04 0.  0.
        2    1    3    3  502    0 -0.11769563990E+04  0.31116217527E+03 -0.83049222971E+03  0.14736911508E+04  0.25500000920E-02 0. -1.
       -2    1    3    3    0  502  0.11769563990E+04 -0.31116217527E+03 -0.14803191995E+03  0.12263611677E+04  0.25500000920E-02 0.  1.
</event>
<event>
 5   0  0.6346420E-06  0.2394532E+04  0.7818609E-02  0.8441554E-01
        1   -1    0    0  501    0  0.00000000000E+00  0.00000000000E+00  0.15726375208E+04  0.15726375208E+04  0.50400001928E-02 0. -1.
       -1   -1    0    0    0  501  0.00000000000E+00  0.00000000000E+00 -0.91149155586E+03  0.91149155587E+03  0.50400001928E-02 0.  1.
    10030    2    1    2    0    0  0.00000000000E+00  0.00000000000E+00  0.66114596493E+03  0.24841290767E+04  0.23945319548E+04 0.  0.
        4    1    3    3  502    0 -0.84385987521E+03  0.34518856391E+02 -0.54979848500E+03  0.10077554403E+04  0.12699999809E+01 0.  1.
       -4    1    3    3    0  502  0.84385987521E+03 -0.34518856391E+02  0.12109444499E+04  0.14763736364E+04  0.12699999809E+01 0. -1.
</event>
<event>
 5   0  0.1550483E-05  0.2502659E+04  0.7818609E-02  0.8402039E-01
       -2   -1    0    0    0  501  0.00000000000E+00  0.00000000000E+00  0.72155457920E+03  0.72155457921E+03  0.25500000920E-02 0. -1.
        2   -1    0    0  501    0  0.00000000000E+00  0.00000000000E+00 -0.21700723181E+04  0.21700723181E+04  0.25500000920E-02 0.  1.
    10030    2    1    2    0    0  0.00000000000E+00  0.00000000000E+00 -0.14485177389E+04  0.28916268973E+04  0.25026590805E+04 0.  0.
        5    1    3    3  502    0  0.46125939954E+03  0.58153867729E+01  0.61971548655E+03  0.77256936689E+03  0.46999998093E+01 0. -1.
       -5    1    3    3    0  502 -0.46125939954E+03 -0.58153867729E+01 -0.20682332254E+04  0.21190575304E+04  0.46999998093E+01 0.  1.
</event>
<event>
 5   0  0.6290861E-06  0.2524243E+04  0.7818609E-02  0.8394399E-01
        1   -1    0    0  501    0  0.00000000000E+00  0.00000000000E+00  0.88420412471E+03  0.88420412473E+03  0.50400001928E-02 0. -1.
       -1   -1    0    0    0  501  0.00000000000E+00  0.00000000000E+00 -0.18015648157E+04  0.18015648158E+04  0.50400001928E-02 0.  1.
    10030    2    1    2    0    0  0.00000000000E+00  0.00000000000E+00 -0.91736069103E+03  0.26857689405E+04  0.25242432855E+04 0.  0.
        1    1    3    3  502    0  0.14737953040E+03 -0.40028180379E+03  0.80518754921E+03  0.91119330433E+03  0.50400001928E-02 0. -1.
       -1    1    3    3    0  502 -0.14737953040E+03  0.40028180379E+03 -0.17225482402E+04  0.17745756361E+04  0.50400001928E-02 0.  1.
</event>
<event>
 5   0  0.6346420E-06  0.2504588E+04  0.7818609E-02  0.8401353E-01
       -1   -1    0    0    0  501  0.00000000000E+00  0.00000000000E+00  0.12349232780E+04  0.12349232780E+04  0.50400001928E-02 0.  1.
        1   -1    0    0  501    0  0.00000000000E+00  0.00000000000E+00 -0.12699093763E+04  0.12699093764E+04  0.50400001928E-02 0. -1.
    10030    2    1    2    0    0  0.00000000000E+00  0.00000000000E+00 -0.34986098333E+02  0.25048326544E+04  0.25045883093E+04 0.  0.
        4    1    3    3  502    0  0.83210715384E+03  0.36246444034E+03 -0.88039600708E+03  0.12644688720E+04  0.12699999809E+01 0. -1.
       -4    1    3    3    0  502 -0.83210715384E+03 -0.36246444034E+03  0.84540990875E+03  0.12403637824E+04  0.12699999809E+01 0.  1.
</event>
<event>
 5   0  0.6477703E-06  0.2288203E+04  0.7818609E-02  0.8482587E-01
       -1   -1    0    0    0  501  0.00000000000E+00  0.00000000000E+00  0.15680448580E+04  0.15680448580E+04  0.50400001928E-02 0. -1.
        1   -1    0    0  501    0  0.00000000000E+00  0.00000000000E+00 -0.83477750357E+03  0.83477750359E+03  0.50400001928E-02 0.  1.
    10030    2    1    2    0    0  0.00000000000E+00  0.00000000000E+00  0.73326735443E+03  0.24028223616E+04  0.22882032882E+04 0.  0.
        5    1    3    3  502    0 -0.75140843917E+02 -0.30274467277E+03  0.15225194969E+04  0.15541519204E+04  0.46999998093E+01 0. -1.
       -5    1    3    3    0  502  0.75140843917E+02  0.30274467277E+03 -0.78925214248E+03  0.84867044117E+03  0.46999998093E+01 0.  1.
</event>
<event>
 5   0  0.1468512E-05  0.2490278E+04  0.7818609E-02  0.8406457E-01
       -2   -1    0    0    0  501  0.00000000000E+00  0.00000000000E+00  0.17248551333E+04  0.17248551333E+04  0.25500000920E-02 0.  1.
        2   -1    0    0  501    0  0.00000000000E+00  0.00000000000E+00 -0.89884145080E+03  0.89884145080E+03  0.25500000920E-02 0. -1.
    10030    2    1    2    0    0  0.00000000000E+00  0.00000000000E+00  0.82601368251E+03  0.26236965841E+04  0.24902781294E+04 0.  0.
        4    1    3    3  502    0  0.49840479893E+02  0.11326160191E+03 -0.89234644586E+03  0.90088626154E+03  0.12699999809E+01 0. -1.
       -4    1    3    3    0  502 -0.49840479893E+02 -0.11326160191E+03  0.17183601284E+04  0.17228103226E+04  0.12699999809E+01 0.  1.
</event>
<event>
 5   0  0.6290861E-06  0.2417606E+04  0.7818609E-02  0.8432942E-01
        1   -1    0    0  501    0  0.00000000000E+00  0.00000000000E+00  0.16153939568E+04  0.16153939568E+04  0.50400001928E-02 0.  1.
       -1   -1    0    0    0  501  0.00000000000E+00  0.00000000000E+00 -0.90454978958E+03  0.90454978959E+03  0.50400001928E-02 0. -1.
    10030    2    1    2    0    0  0.00000000000E+00  0.00000000000E+00  0.71084416721E+03  0.25199437464E+04  0.24176056450E+04 0.  0.
        1    1    3    3  502    0  0.85400017377E+03 -0.74868855964E+03 -0.76049061765E+02  0.11382593360E+04  0.50400001928E-02 0. -1.
       -1    1    3    3    0  502 -0.85400017377E+03  0.74868855964E+03  0.78689322897E+03  0.13816844104E+04  0.50400001928E-02 0.  1.
</event>
<event>
 5   0  0.1526824E-05  0.2495061E+04  0.7818609E-02  0.8404747E-01
       -2   -1    0    0    0  501  0.00000000000E+00  0.00000000000E+00  0.13239441634E+04  0.13239441634E+04  0.25500000920E-02 0.  1.
        2   -1    0    0  501    0  0.00000000000E+00  0.00000000000E+00 -0.11755271847E+04  0.11755271847E+04  0.25500000920E-02 0. -1.
    10030    2    1    2    0    0  0.00000000000E+00  0.00000000000E+00  0.14841697868E+03  0.24994713481E+04  0.24950610053E+04 0.  0.
        2    1    3    3  502    0 -0.81666252093E+02 -0.26600364967E+03  0.12924605031E+04  0.13220746842E+04  0.25500000920E-02 0.  1.
       -2    1    3    3    0  502  0.81666252093E+02  0.26600364967E+03 -0.11440435244E+04  0.11773966639E+04  0.25500000920E-02 0. -1.
</event>
<event>
 5   0  0.1550483E-05  0.2493427E+04  0.7818609E-02  0.8405331E-01
       -2   -1    0    0    0  501  0.00000000000E+00  0.00000000000E+00  0.20818312992E+04  0.20818312992E+04  0.25500000920E-02 0. -1.
        2   -1    0    0  501    0  0.00000000000E+00  0.00000000000E+00 -0.74659937596E+03  0.74659937596E+03  0.25500000920E-02 0.  1.
    10030    2    1    2    0    0  0.00000000000E+00  0.00000000000E+00  0.13352319232E+04  0.28284306752E+04  0.24934265169E+04 0.  0.
        5    1    3    3  502    0 -0.11026540471E+04  0.15673423382E+02  0.79514988347E+01  0.11028041168E+04  0.46999998093E+01 0. -1.
       -5    1    3    3    0  502  0.11026540471E+04 -0.15673423382E+02  0.13272804244E+04  0.17256265583E+04  0.46999998093E+01 0.  1.
</event>
<event>
 5   0  0.6105353E-06  0.2506923E+04  0.7818609E-02  0.8400523E-01
        1   -1    0    0  501    0  0.00000000000E+00  0.00000000000E+00  0.17242073207E+04  0.17242073207E+04  0.50400001928E-02 0.  1.
       -1   -1    0    0    0  501  0.00000000000E+00  0.00000000000E+00 -0.91123941331E+03  0.91123941332E+03  0.50400001928E-02 0. -1.
    10030    2    1    2    0    0  0.00000000000E+00  0.00000000000E+00  0.81296790737E+03  0.26354467340E+04  0.25069229484E+04 0.  0.
        3    1    3    3  502    0  0.11264072310E+03 -0.38541950119E+03  0.16547638057E+04  0.17027857726E+04  0.10100000352E+00 0.  1.
       -3    1    3    3    0  502 -0.11264072310E+03  0.38541950119E+03 -0.84179589831E+03  0.93266096145E+03  0.10100000352E+00 0. -1.
</event>
<event>
 5   0  0.6477703E-06  0.2446296E+04  0.7818609E-02  0.8422372E-01
        1   -1    0    0  501    0  0.00000000000E+00  0.00000000000E+00  0.58929602897E+03  0.58929602899E+03  0.50400001928E-02 0. -1.
       -1   -1    0    0    0  501  0.00000000000E+00  0.00000000000E+00 -0.25387768964E+04  0.25387768964E+04  0.50400001928E-02 0.  1.
    10030    2    1    2    0    0  0.00000000000E+00  0.00000000000E+00 -0.19494808674E+04  0.31280729254E+04  0.24462960929E+04 0.  0.
        5    1    3    3  502    0  0.23535603171E+03  0.11800520941E+04 -0.69414381035E+03  0.13891627428E+04  0.46999998093E+01 0. -1.
       -5    1    3    3    0  502 -0.23535603171E+03 -0.11800520941E+04 -0.12553370571E+04  0.17389101826E+04  0.46999998093E+01 0.  1.
</event>
<event>
 5   0  0.1526824E-05  0.2434713E+04  0.7818609E-02  0.8426621E-01
       -2   -1    0    0    0  501  0.00000000000E+00  0.00000000000E+00  0.11071381379E+04  0.11071381379E+04  0.25500000920E-02 0. -1.
        2   -1    0    0  501    0  0.00000000000E+00  0.00000000000E+00 -0.13385469937E+04  0.13385469937E+04  0.25500000920E-02 0.  1.
    10030    2    1    2    0    0  0.00000000000E+00  0.00000000000E+00 -0.23140885578E+03  0.24456851315E+04  0.24347126533E+04 0.  0.
        2    1    3    3  502    0  0.52614928587E+03  0.18511977618E+03 -0.12026410128E+04  0.13256876737E+04  0.25500000920E-02 0.  1.
       -2    1    3    3    0  502 -0.52614928587E+03 -0.18511977618E+03  0.97123215706E+03  0.11199974578E+04  0.25500000920E-02 0. -1.
</event>
<event>
 5   0  0.6346420E-06  0.2464460E+04  0.7818609E-02  0.8415757E-01
        1   -1    0    0  501    0  0.00000000000E+00  0.00000000000E+00  0.16382320550E+04  0.16382320550E+04  0.50400001928E-02 0.  1.
       -1   -1    0    0    0  501  0.00000000000E+00  0.00000000000E+00 -0.92684722217E+03  0.92684722218E+03  0.50400001928E-02 0. -1.
    10030    2    1    2    0    0  0.00000000000E+00  0.00000000000E+00  0.71138483286E+03  0.25650792772E+04  0.24644600459E+04 0.  0.
        4    1    3    3  502    0  0.72620862066E+03 -0.40651661858E+03  0.13015036840E+04  0.15448456798E+04  0.12699999809E+01 0.  1.
       -4    1    3    3    0  502 -0.72620862066E+03  0.40651661858E+03 -0.59011885118E+03  0.10202335974E+04  0.12699999809E+01 0. -1.
</event>
<event>
 5   0  0.1501947E-05  0.2505827E+04  0.7818609E-02  0.8400913E-01
        2   -1    0    0  501    0  0.00000000000E+00  0.00000000000E+00  0.25090222742E+04  0.25090222742E+04  0.25500000920E-02 0.  1.
       -2   -1    0    0    0  501  0.00000000000E+00  0.00000000000E+00 -0.62565880208E+03  0.62565880208E+03  0.25500000920E-02 0. -1.
    10030    2    1    2    0    0  0.00000000000E+00  0.00000000000E+00  0.18833634721E+04  0.31346810763E+04  0.25058267063E+04 0.  0.
        3    1    3    3  502    0 -0.28185898495E+03 -0.39140943883E+03 -0.50486259376E+03  0.69823497834E+03  0.10100000352E+00 0. -1.
       -3    1    3    3    0  502  0.28185898495E+03  0.39140943883E+03  0.23882260659E+04  0.24364460979E+04  0.10100000352E+00 0.  1.
</event>
<event>
 5   0  0.1550483E-05  0.2500453E+04  0.7818609E-02  0.8402824E-01
        2   -1    0    0  501    0  0.00000000000E+00  0.00000000000E+00  0.17316806709E+04  0.17316806709E+04  0.25500000920E-02 0.  1.
       -2   -1    0    0    0  501  0.00000000000E+00  0.00000000000E+00 -0.90262991216E+03  0.90262991216E+03  0.25500000920E-02 0. -1.
    10030    2    1    2    0    0  0.00000000000E+00  0.00000000000E+00  0.82905075874E+03  0.26343105831E+04  0.25004533764E+04 0.  0.
        5    1    3    3  502    0  0.67832857080E+03 -0.75552983699E+03 -0.35396890266E+03  0.10753004504E+04  0.46999998093E+01 0. -1.
       -5    1    3    3    0  502 -0.67832857080E+03  0.75552983699E+03  0.11830196614E+04  0.15590101327E+04  0.46999998093E+01 0.  1.
</event>
<event>
 5   0  0.1468512E-05  0.2504843E+04  0.7818609E-02  0.8401262E-01
        2   -1    0    0  501    0  0.00000000000E+00  0.00000000000E+00  0.81276562561E+03  0.81276562561E+03  0.25500000920E-02 0. -1.
       -2   -1    0    0    0  501  0.00000000000E+00  0.00000000000E+00 -0.19299033630E+04  0.19299033630E+04  0.25500000920E-02 0.  1.
    10030    2    1    2    0    0  0.00000000000E+00  0.00000000000E+00 -0.11171377374E+04  0.27426689886E+04  0.25048426012E+04 0.  0.
        4    1    3    3  502    0  0.14495067774E+03  0.61142312299E+03  0.62767257336E+03  0.88815730957E+03  0.12699999809E+01 0. -1.
       -4    1    3    3    0  502 -0.14495067774E+03 -0.61142312299E+03 -0.17448103107E+04  0.18545116790E+04  0.12699999809E+01 0.  1.
</event>
<event>
 5   0  0.6346420E-06  0.2507189E+04  0.7818609E-02  0.8400429E-01
        1   -1    0    0  501    0  0.00000000000E+00  0.00000000000E+00  0.18365453200E+04  0.18365453200E+04  0.50400001928E-02 0.  1.
       -1   -1    0    0    0  501  0.00000000000E+00  0.00000000000E+00 -0.85568227836E+03  0.85568227837E+03  0.50400001928E-02 0. -1.
    10030    2    1    2    0    0  0.00000000000E+00  0.00000000000E+00  0.98086304161E+03  0.26922275983E+04  0.25071890904E+04 0.  0.
        4    1    3    3  502    0 -0.49153963200E+03  0.90560912475E+03  0.12570988423E+04  0.16254347754E+04  0.12699999809E+01 0.  1.
       -4    1    3    3    0  502  0.49153963200E+03 -0.90560912475E+03 -0.27623580072E+03  0.10667928230E+04  0.12699999809E+01 0. -1.
</event>
<event>
 5   0  0.1572732E-05  0.2500791E+04  0.7818609E-02  0.8402704E-01
        2   -1    0    0  501    0  0.00000000000E+00  0.00000000000E+00  0.18272117767E+04  0.18272117767E+04  0.25500000920E-02 0. -1.
       -2   -1    0    0    0  501  0.00000000000E+00  0.00000000000E+00 -0.85566922981E+03  0.85566922982E+03  0.25500000920E-02 0.  1.
    10030    2    1    2    0    0  0.00000000000E+00  0.00000000000E+00  0.97154254687E+03  0.26828810065E+04  0.25007909898E+04 0.  0.
        1    1    3    3  502    0  0.12890017668E+03  0.57365221598E+03 -0.69811892344E+03  0.91272238482E+03  0.50400001928E-02 0.  1.
       -1    1    3    3    0  502 -0.12890017668E+03 -0.57365221598E+03  0.16696614703E+04  0.17701586217E+04  0.50400001928E-02 0. -1.
</event>
<event>
 5   0  0.6290861E-06  0.2497541E+04  0.7818609E-02  0.8403862E-01
       -1   -1    0    0    0  501  0.00000000000E+00  0.00000000000E+00  0.19176386771E+04  0.19176386771E+04  0.50400001928E-02 0.  1.
        1   -1    0    0  501    0  0.00000000000E+00  0.00000000000E+00 -0.81320207093E+03  0.81320207094E+03  0.50400001928E-02 0. -1.
    10030    2    1    2    0    0  0.00000000000E+00  0.00000000000E+00  0.11044366062E+04  0.27308407480E+04  0.24975409855E+04 0.  0.
        1    1    3    3  502    0 -0.94198847194E+03 -0.72607757142E+03  0.13600766000E+03  0.11970918948E+04  0.50400001928E-02 0. -1.
       -1    1    3    3    0  502  0.94198847194E+03  0.72607757142E+03  0.96842894616E+03  0.15337488532E+04  0.50400001928E-02 0.  1.
</event>
<event>
 5   0  0.1468512E-05  0.2495766E+04  0.7818609E-02  0.8404496E-01
       -2   -1    0    0    0  501  0.00000000000E+00  0.00000000000E+00  0.96191335927E+03  0.96191335928E+03  0.25500000920E-02 0.  1.
        2   -1    0    0  501    0  0.00000000000E+00  0.00000000000E+00 -0.16188689661E+04  0.16188689661E+04  0.25500000920E-02 0. -1.
    10030    2    1    2    0    0  0.00000000000E+00  0.00000000000E+00 -0.65695560684E+03  0.25807823254E+04  0.24957657626E+04 0.  0.
        4    1    3    3  502    0  0.39249077772E+03  0.85655240457E+02 -0.15501731548E+04  0.16013819824E+04  0.12699999809E+01 0. -1.
       -4    1    3    3    0  502 -0.39249077772E+03 -0.85655240457E+02  0.89321754800E+03  0.97940034295E+03  0.12699999809E+01 0.  1.
</event>
<event>
 5   0  0.6290861E-06  0.2494851E+04  0.7818609E-02  0.8404822E-01
        1   -1    0    0  501    0  0.00000000000E+00  0.00000000000E+00  0.17751791368E+04  0.17751791368E+04  0.50400001928E-02 0.  1.
       -1   -1    0    0    0  501  0.00000000000E+00  0.00000000000E+00 -0.87657076454E+03  0.87657076456E+03  0.50400001928E-02 0. -1.
    10030    2    1    2    0    0  0.00000000000E+00  0.00000000000E+00  0.89860837229E+03  0.26517499014E+04  0.24948508037E+04 0.  0.
        1    1    3    3  502    0  0.67495745181E+03 -0.79937515507E+03  0.11713666091E+04  0.15705629351E+04  0.50400001928E-02 0.  1.
       -1    1    3    3    0  502 -0.67495745181E+03  0.79937515507E+03 -0.27275823678E+03  0.10811869663E+04  0.50400001928E-02 0. -1.
</event>
<event>
 5   0  0.1550483E-05  0.2513355E+04  0.7818609E-02  0.8398243E-01
        2   -1    0    0  501    0  0.00000000000E+00  0.00000000000E+00  0.17615732906E+04  0.17615732906E+04  0.25500000920E-02 0. -1.
       -2   -1    0    0    0  501  0.00000000000E+00  0.00000000000E+00 -0.89649340558E+03  0.89649340558E+03  0.25500000920E-02 0.  1.
    10030    2    1    2    0    0  0.00000000000E+00  0.00000000000E+00  0.86507988505E+03  0.26580666962E+04  0.25133553975E+04 0.  0.
        5    1    3    3  502    0  0.68544626523E+03 -0.19599695328E+01  0.15464533132E+04  0.16915615164E+04  0.46999998093E+01 0. -1.
       -5    1    3    3    0  502 -0.68544626523E+03  0.19599695328E+01 -0.68137342813E+03  0.96650517979E+03  0.46999998093E+01 0.  1.
</event>
<event>
 5   0  0.1550483E-05  0.2503043E+04  0.7818609E-02  0.8401902E-01
        2   -1    0    0  501    0  0.00000000000E+00  0.00000000000E+00  0.15214801177E+04  0.15214801177E+04  0.25500000920E-02 0. -1.
       -2   -1    0    0    0  501  0.00000000000E+00  0.00000000000E+00 -0.10294624311E+04  0.10294624311E+04  0.25500000920E-02 0.  1.
    10030    2    1    2    0    0  0.00000000000E+00  0.00000000000E+00  0.49201768656E+03  0.25509425488E+04  0.25030434442E+04 0.  0.
        5    1    3    3  502    0 -0.55753973825E+03  0.12201510841E+03 -0.88910331737E+03  0.10565344506E+04  0.46999998093E+01 0.  1.
       -5    1    3    3    0  502  0.55753973825E+03 -0.12201510841E+03  0.13811210039E+04  0.14944080982E+04  0.46999998093E+01 0. -1.
</event>
<event>
 5   0  0.1526824E-05  0.2510772E+04  0.7818609E-02  0.8399158E-01
        2   -1    0    0  501    0  0.00000000000E+00  0.00000000000E+00  0.22496823786E+04  0.22496823786E+04  0.25500000920E-02 0.  1.
       -2   -1    0    0    0  501  0.00000000000E+00  0.00000000000E+00 -0.70054088078E+03  0.70054088078E+03  0.25500000920E-02 0. -1.
    10030    2    1    2    0    0  0.00000000000E+00  0.00000000000E+00  0.15491414978E+04  0.29502232594E+04  0.25107723712E+04 0.  0.
        2    1    3    3  502    0  0.10988499005E+04  0.44232744168E+03  0.28602289121E+03  0.12185785834E+04  0.25500000920E-02 0. -1.
       -2    1    3    3    0  502 -0.10988499005E+04 -0.44232744168E+03  0.12631186066E+04  0.17316446760E+04  0.25500000920E-02 0.  1.
</event>
<event>
 5   0  0.1526824E-05  0.2457876E+04  0.7818609E-02  0.8418148E-01
        2   -1    0    0  501    0  0.00000000000E+00  0.00000000000E+00  0.17187444848E+04  0.17187444848E+04  0.25500000920E-02 0. -1.
       -2   -1    0    0    0  501  0.00000000000E+00  0.00000000000E+00 -0.87871585684E+03  0.87871585684E+03  0.25500000920E-02 0.  1.
    10030    2    1    2    0    0  0.00000000000E+00  0.00000000000E+00  0.84002862800E+03  0.25974603417E+04  0.24578755320E+04 0.  0.
        2    1    3    3  502    0  0.10303388631E+04 -0.62272289185E+03  0.15920728495E+03  0.12143841782E+04  0.25500000920E-02 0.  1.
       -2    1    3    3    0  502 -0.10303388631E+04  0.62272289185E+03  0.68082134305E+03  0.13830761635E+04  0.25500000920E-02 0. -1.
</event>
<event>
 5   0  0.1572732E-05  0.2454869E+04  0.7818609E-02  0.8419242E-01
        2   -1    0    0  501    0  0.00000000000E+00  0.00000000000E+00  0.13472584284E+04  0.13472584284E+04  0.25500000920E-02 0.  1.
       -2   -1    0    0    0  501  0.00000000000E+00  0.00000000000E+00 -0.11182678564E+04  0.11182678564E+04  0.25500000920E-02 0. -1.
    10030    2    1    2    0    0  0.00000000000E+00  0.00000000000E+00  0.22899057199E+03  0.24655262848E+04  0.24548692794E+04 0.  0.
        1    1    3    3  502    0  0.40971220812E+03 -0.60958534742E+03 -0.87320540151E+03  0.11410285108E+04  0.50400001928E-02 0. -1.
       -1    1    3    3    0  502 -0.40971220812E+03  0.60958534742E+03  0.11021959735E+04  0.13244977740E+04  0.50400001928E-02 0.  1.
</event>
<event>
 5   0  0.6477703E-06  0.2511054E+04  0.7818609E-02  0.8399058E-01
       -1   -1    0    0    0  501  0.00000000000E+00  0.00000000000E+00  0.11912752976E+04  0.11912752976E+04  0.50400001928E-02 0. -1.
        1   -1    0    0  501    0  0.00000000000E+00  0.00000000000E+00 -0.13232443741E+04  0.13232443742E+04  0.50400001928E-02 0.  1.
    10030    2    1    2    0    0  0.00000000000E+00  0.00000000000E+00 -0.13196907653E+03  0.25145196718E+04  0.25110542293E+04 0.  0.
        5    1    3    3  502    0  0.11667561150E+04 -0.32837191262E+03 -0.39381732032E+03  0.12744654239E+04  0.46999998093E+01 0.  1.
       -5    1    3    3    0  502 -0.11667561150E+04  0.32837191262E+03  0.26184824379E+03  0.12400542479E+04  0.46999998093E+01 0. -1.
</event>
<event>
 5   0  0.6105353E-06  0.2475336E+04  0.7818609E-02  0.8411825E-01
        1   -1    0    0  501    0  0.00000000000E+00  0.00000000000E+00  0.13464583405E+04  0.13464583405E+04  0.50400001928E-02 0.  1.
       -1   -1    0    0    0  501  0.00000000000E+00  0.00000000000E+00 -0.11376672600E+04  0.11376672600E+04  0.50400001928E-02 0. -1.
    10030    2    1    2    0    0  0.00000000000E+00  0.00000000000E+00  0.20879108048E+03  0.24841256005E+04  0.24753355902E+04 0.  0.
        3    1    3    3  502    0  0.40398337470E+03  0.54779166357E+03 -0.93297885532E+03  0.11548713471E+04  0.10100000352E+00 0. -1.
       -3    1    3    3    0  502 -0.40398337470E+03 -0.54779166357E+03  0.11417699358E+04  0.13292542534E+04  0.10100000352E+00 0.  1.
</event>
<event>
 5   0  0.1501947E-05  0.2503812E+04  0.7818609E-02  0.8401629E-01
        2   -1    0    0  501    0  0.00000000000E+00  0.00000000000E+00  0.16380045848E+04  0.16380045848E+04  0.25500000920E-02 0.  1.
       -2   -1    0    0    0  501  0.00000000000E+00  0.00000000000E+00 -0.95681558449E+03  0.95681558449E+03  0.25500000920E-02 0. -1.
    10030    2    1    2    0    0  0.00000000000E+00  0.00000000000E+00  0.68118900032E+03  0.25948201693E+04  0.25038117455E+04 0.  0.
        3    1    3    3  502    0 -0.10902415251E+04 -0.52119856554E+03  0.16060897124E+01  0.12084192640E+04  0.10100000352E+00 0. -1.
       -3    1    3    3    0  502  0.10902415251E+04  0.52119856554E+03  0.67958291061E+03  0.13864009053E+04  0.10100000352E+00 0.  1.
</event>
<event>
 5   0  0.6290861E-06  0.2493298E+04  0.7818609E-02  0.8405377E-01
       -1   -1    0    0    0  501  0.00000000000E+00  0.00000000000E+00  0.73601135287E+03  0.73601135288E+03  0.50400001928E-02 0.  1.
        1   -1    0    0  501    0  0.00000000000E+00  0.00000000000E+00 -0.21115617095E+04  0.21115617095E+04  0.50400001928E-02 0. -1.
    10030    2    1    2    0    0  0.00000000000E+00  0.00000000000E+00 -0.13755503567E+04  0.28475730624E+04  0.24932977283E+04 0.  0.
        1    1    3    3  502    0 -0.10753988958E+04 -0.21017567295E+03 -0.13667930217E+04  0.17517932991E+04  0.50400001928E-02 0.  1.
       -1    1    3    3    0  502  0.10753988958E+04  0.21017567295E+03 -0.87573349566E+01  0.10957797633E+04  0.50400001928E-02 0. -1.
</event>
<event>
 5   0  0.1526824E-05  0.2567525E+04  0.7818609E-02  0.8379317E-01
       -2   -1    0    0    0  501  0.00000000000E+00  0.00000000000E+00  0.15335546986E+04  0.15335546986E+04  0.25500000920E-02 0.  1.
        2   -1    0    0  501    0  0.00000000000E+00  0.00000000000E+00 -0.10746575202E+04  0.10746575202E+04  0.25500000920E-02 0. -1.
    10030    2    1    2    0    0  0.00000000000E+00  0.00000000000E+00  0.45889717844E+03  0.26082122187E+04  0.25675249478E+04 0.  0.
        2    1    3    3  502    0 -0.72199814351E+03 -0.53478767568E+03  0.11609125556E+04  0.14679908512E+04  0.25500000920E-02 0.  1.
       -2    1    3    3    0  502  0.72199814351E+03  0.53478767568E+03 -0.70201537718E+03  0.11402213676E+04  0.25500000920E-02 0. -1.
</event>
<event>
 5   0  0.6346420E-06  0.2504226E+04  0.7818609E-02  0.8401482E-01
        1   -1    0    0  501    0  0.00000000000E+00  0.00000000000E+00  0.10222943562E+04  0.10222943562E+04  0.50400001928E-02 0.  1.
       -1   -1    0    0    0  501  0.00000000000E+00  0.00000000000E+00 -0.15335961639E+04  0.15335961639E+04  0.50400001928E-02 0. -1.
    10030    2    1    2    0    0  0.00000000000E+00  0.00000000000E+00 -0.51130180770E+03  0.25558905200E+04  0.25042257909E+04 0.  0.
        4    1    3    3  502    0  0.10733069161E+03 -0.12151517307E+04 -0.54373561886E+03  0.13355761462E+04  0.12699999809E+01 0. -1.
       -4    1    3    3    0  502 -0.10733069161E+03  0.12151517307E+04  0.32433811162E+02  0.12203143739E+04  0.12699999809E+01 0.  1.
</event>
<event>
 5   0  0.6290861E-06  0.2508780E+04  0.7818609E-02  0.8399864E-01
        1   -1    0    0  501    0  0.00000000000E+00  0.00000000000E+00  0.20103625499E+04  0.20103625499E+04  0.50400001928E-02 0.  1.
       -1   -1    0    0    0  501  0.00000000000E+00  0.00000000000E+00 -0.78269209350E+03  0.78269209352E+03  0.50400001928E-02 0. -1.
    10030    2    1    2    0    0  0.00000000000E+00  0.00000000000E+00  0.12276704564E+04  0.27930546434E+04  0.25087804790E+04 0.  0.
        1    1    3    3  502    0  0.54546636644E+03  0.77323372111E+03  0.15305924357E+04  0.17994824669E+04  0.50400001928E-02 0.  1.
       -1    1    3    3    0  502 -0.54546636644E+03 -0.77323372111E+03 -0.30292197932E+03  0.99357217652E+03  0.50400001928E-02 0. -1.
</event>
<event>
 5   0  0.6104486E-06  0.2505259E+04  0.7818609E-02  0.8401114E-01
       -1   -1    0    0    0  501  0.00000000000E+00  0.00000000000E+00  0.99912574968E+03  0.99912574969E+03  0.50400001928E-02 0. -1.
        1   -1    0    0  501    0  0.00000000000E+00  0.00000000000E+00 -0.15704542079E+04  0.15704542079E+04  0.50400001928E-02 0.  1.
    10030    2    1    2    0    0  0.00000000000E+00  0.00000000000E+00 -0.57132845825E+03  0.25695799576E+04  0.25052594579E+04 0.  0.
        2    1    3    3  502    0 -0.11307818501E+04 -0.53208457440E+03 -0.19803268265E+03  0.12653057062E+04  0.25500000920E-02 0.  1.
       -2    1    3    3    0  502  0.11307818501E+04  0.53208457440E+03 -0.37329577561E+03  0.13042742514E+04  0.25500000920E-02 0. -1.
</event>
<event>
 5   0  0.6105353E-06  0.2507971E+04  0.7818609E-02  0.8400151E-01
        1   -1    0    0  501    0  0.00000000000E+00  0.00000000000E+00  0.96992971975E+03  0.96992971976E+03  0.50400001928E-02 0.  1.
       -1   -1    0    0    0  501  0.00000000000E+00  0.00000000000E+00 -0.16212299489E+04  0.16212299489E+04  0.50400001928E-02 0. -1.
    10030    2    1    2    0    0  0.00000000000E+00  0.00000000000E+00 -0.65130022919E+03  0.25911596687E+04  0.25079705820E+04 0.  0.
        3    1    3    3  502    0  0.71566549047E+03  0.60696560029E+03 -0.11850430115E+04  0.15115923007E+04  0.10100000352E+00 0. -1.
       -3    1    3    3    0  502 -0.71566549047E+03 -0.60696560029E+03  0.53374278233E+03  0.10795673680E+04  0.10100000352E+00 0.  1.
</event>
<event>
 5   0  0.1468512E-05  0.2501348E+04  0.7818609E-02  0.8402505E-01
       -2   -1    0    0    0  501  0.00000000000E+00  0.00000000000E+00  0.11440689984E+04  0.11440689984E+04  0.25500000920E-02 0.  1.
        2   -1    0    0  501    0  0.00000000000E+00  0.00000000000E+00 -0.13672126441E+04  0.13672126441E+04  0.25500000920E-02 0. -1.
    10030    2    1    2    0    0  0.00000000000E+00  0.00000000000E+00 -0.22314364568E+03  0.25112816425E+04  0.25013481167E+04 0.  0.
        4    1    3    3  502    0 -0.56550687790E+03  0.98370252546E+03 -0.63969821450E+03  0.13025682731E+04  0.12699999809E+01 0. -1.
       -4    1    3    3    0  502  0.56550687790E+03 -0.98370252546E+03  0.41655456883E+03  0.12087133694E+04  0.12699999809E+01 0.  1.
</event>
<event>
 5   0  0.1468512E-05  0.2506303E+04  0.7818609E-02  0.8400744E-01
        2   -1    0    0  501    0  0.00000000000E+00  0.00000000000E+00  0.15505317918E+04  0.15505317918E+04  0.25500000920E-02 0.  1.
       -2   -1    0    0    0  501  0.00000000000E+00  0.00000000000E+00 -0.10128064755E+04  0.10128064755E+04  0.25500000920E-02 0. -1.
    10030    2    1    2    0    0  0.00000000000E+00  0.00000000000E+00  0.53772531632E+03  0.25633382673E+04  0.25063029659E+04 0.  0.
        4    1    3    3  502    0  0.64956518273E+03 -0.58667539559E+03 -0.64835348401E+03  0.10892597484E+04  0.12699999809E+01 0. -1.
       -4    1    3    3    0  502 -0.64956518273E+03  0.58667539559E+03  0.11860788003E+04  0.14740785189E+04  0.12699999809E+01 0.  1.
</event>
<event>
 5   0  0.6104486E-06  0.2503028E+04  0.7818609E-02  0.8401907E-01
        1   -1    0    0  501    0  0.00000000000E+00  0.00000000000E+00  0.10395209892E+04  0.10395209892E+04  0.50400001928E-02 0.  1.
       -1   -1    0    0    0  501  0.00000000000E+00  0.00000000000E+00 -0.15067399099E+04  0.15067399099E+04  0.50400001928E-02 0. -1.
    10030    2    1    2    0    0  0.00000000000E+00  0.00000000000E+00 -0.46721892076E+03  0.25462608991E+04  0.25030283751E+04 0.  0.
        2    1    3    3  502    0  0.61967052040E+03 -0.77074224974E+03 -0.10138330070E+04  0.14162953560E+04  0.25500000920E-02 0. -1.
       -2    1    3    3    0  502 -0.61967052040E+03  0.77074224974E+03  0.54661408624E+03  0.11299655431E+04  0.25500000920E-02 0.  1.
</event>
<event>
 5   0  0.1468512E-05  0.2387353E+04  0.7818609E-02  0.8444253E-01
       -2   -1    0    0    0  501  0.00000000000E+00  0.00000000000E+00  0.10454494978E+04  0.10454494978E+04  0.25500000920E-02 0.  1.
        2   -1    0    0  501    0  0.00000000000E+00  0.00000000000E+00 -0.13629199750E+04  0.13629199750E+04  0.25500000920E-02 0. -1.
    10030    2    1    2    0    0  0.00000000000E+00  0.00000000000E+00 -0.31747047715E+03  0.24083694728E+04  0.23873533492E+04 0.  0.
        4    1    3    3  502    0  0.70837494067E+03  0.74096298541E+03  0.45823771271E+03  0.11228555635E+04  0.12699999809E+01 0.  1.
       -4    1    3    3    0  502 -0.70837494067E+03 -0.74096298541E+03 -0.77570818986E+03  0.12855139093E+04  0.12699999809E+01 0. -1.
</event>
<event>
 5   0  0.1572732E-05  0.2464208E+04  0.7818609E-02  0.8415849E-01
       -2   -1    0    0    0  501  0.00000000000E+00  0.00000000000E+00  0.14326313644E+04  0.14326313644E+04  0.25500000920E-02 0. -1.
        2   -1    0    0  501    0  0.00000000000E+00  0.00000000000E+00 -0.10596445316E+04  0.10596445316E+04  0.25500000920E-02 0.  1.
    10030    2    1    2    0    0  0.00000000000E+00  0.00000000000E+00  0.37298683277E+03  0.24922758960E+04  0.24642077762E+04 0.  0.
        1    1    3    3  502    0  0.33055249596E+03 -0.11672598800E+04  0.40416428345E+03  0.12787139431E+04  0.50400001928E-02 0. -1.
       -1    1    3    3    0  502 -0.33055249596E+03  0.11672598800E+04 -0.31177450681E+02  0.12135619529E+04  0.50400001928E-02 0.  1.
</event>
<event>
 5   0  0.1468512E-05  0.2533836E+04  0.7818609E-02  0.8391029E-01
       -2   -1    0    0    0  501  0.00000000000E+00  0.00000000000E+00  0.75596707442E+03  0.75596707443E+03  0.25500000920E-02 0. -1.
        2   -1    0    0  501    0  0.00000000000E+00  0.00000000000E+00 -0.21232165313E+04  0.21232165313E+04  0.25500000920E-02 0.  1.
    10030    2    1    2    0    0  0.00000000000E+00  0.00000000000E+00 -0.13672494569E+04  0.28791836057E+04  0.25338364505E+04 0.  0.
        4    1    3    3  502    0 -0.48963973963E+03  0.32004674828E+03 -0.19605803663E+04  0.20459848439E+04  0.12699999809E+01 0.  1.
       -4    1    3    3    0  502  0.48963973963E+03 -0.32004674828E+03  0.59333090945E+03  0.83319876183E+03  0.12699999809E+01 0. -1.
</event>
<event>
 5   0  0.6477703E-06  0.2482120E+04  0.7818609E-02  0.8409383E-01
        1   -1    0    0  501    0  0.00000000000E+00  0.00000000000E+00  0.94090040536E+03  0.94090040538E+03  0.50400001928E-02 0. -1.
       -1   -1    0    0    0  501  0.00000000000E+00  0.00000000000E+00 -0.16369746472E+04  0.16369746472E+04  0.50400001928E-02 0.  1.
    10030    2    1    2    0    0  0.00000000000E+00  0.00000000000E+00 -0.69607424183E+03  0.25778750526E+04  0.24821201495E+04 0.  0.
        5    1    3    3  502    0  0.78469126853E+03 -0.22882673816E+03 -0.13179298192E+04  0.15508266058E+04  0.46999998093E+01 0. -1.
       -5    1    3    3    0  502 -0.78469126853E+03  0.22882673816E+03  0.62185557732E+03  0.10270484468E+04  0.46999998093E+01 0.  1.
</event>
<event>
 5   0  0.1550483E-05  0.2491325E+04  0.7818609E-02  0.8406082E-01
       -2   -1    0    0    0  501  0.00000000000E+00  0.00000000000E+00  0.10619090848E+04  0.10619090848E+04  0.25500000920E-02 0. -1.
        2   -1    0    0  501    0  0.00000000000E+00  0.00000000000E+00 -0.14612132568E+04  0.14612132568E+04  0.25500000920E-02 0.  1.
    10030    2    1    2    0    0  0.00000000000E+00  0.00000000000E+00 -0.39930417202E+03  0.25231223416E+04  0.24913254562E+04 0.  0.
        5    1    3    3  502    0  0.55399197421E+03 -0.11142781491E+04 -0.25631833863E+03  0.12705290558E+04  0.46999998093E+01 0. -1.
       -5    1    3    3    0  502 -0.55399197421E+03  0.11142781491E+04 -0.14298583338E+03  0.12525932858E+04  0.46999998093E+01 0.  1.
</event>
<event>
 5   0  0.6477703E-06  0.2509791E+04  0.7818609E-02  0.8399506E-01
       -1   -1    0    0    0  501  0.00000000000E+00  0.00000000000E+00  0.64845102053E+03  0.64845102055E+03  0.50400001928E-02 0.  1.
        1   -1    0    0  501    0  0.00000000000E+00  0.00000000000E+00 -0.24284985926E+04  0.24284985926E+04  0.50400001928E-02 0. -1.
    10030    2    1    2    0    0  0.00000000000E+00  0.00000000000E+00 -0.17800475721E+04  0.30769496132E+04  0.25097907409E+04 0.  0.
        5    1    3    3  502    0  0.11708512318E+04 -0.64247580914E+02 -0.14379140557E+04  0.18554350649E+04  0.46999998093E+01 0. -1.
       -5    1    3    3    0  502 -0.11708512318E+04  0.64247580914E+02 -0.34213351639E+03  0.12215145483E+04  0.46999998093E+01 0.  1.
</event>
<event>
 5   0  0.6105353E-06  0.2463540E+04  0.7818609E-02  0.8416091E-01
       -1   -1    0    0    0  501  0.00000000000E+00  0.00000000000E+00  0.55825444503E+03  0.55825444506E+03  0.50400001928E-02 0. -1.
        1   -1    0    0  501    0  0.00000000000E+00  0.00000000000E+00 -0.27178594349E+04  0.27178594349E+04  0.50400001928E-02 0.  1.
    10030    2    1    2    0    0  0.00000000000E+00  0.00000000000E+00 -0.21596049898E+04  0.32761138799E+04  0.24635398195E+04 0.  0.
        3    1    3    3  502    0  0.66872145799E+03 -0.90176351545E+03 -0.40578048305E+03  0.11937435390E+04  0.10100000352E+00 0. -1.
       -3    1    3    3    0  502 -0.66872145799E+03  0.90176351545E+03 -0.17538245068E+04  0.20823703410E+04  0.10100000352E+00 0.  1.
</event>
<event>
 5   0  0.1501947E-05  0.2456131E+04  0.7818609E-02  0.8418783E-01
        2   -1    0    0  501    0  0.00000000000E+00  0.00000000000E+00  0.19966416678E+04  0.19966416678E+04  0.25500000920E-02 0.  1.
       -2   -1    0    0    0  501  0.00000000000E+00  0.00000000000E+00 -0.75534079706E+03  0.75534079706E+03  0.25500000920E-02 0. -1.
    10030    2    1    2    0    0  0.00000000000E+00  0.00000000000E+00  0.12413008707E+04  0.27519824649E+04  0.24561310297E+04 0.  0.
        3    1    3    3  502    0  0.25051630519E+03  0.11613760186E+04  0.96887965601E+03  0.15330624494E+04  0.10100000352E+00 0. -1.
       -3    1    3    3    0  502 -0.25051630519E+03 -0.11613760186E+04  0.27242121473E+03  0.12189200155E+04  0.10100000352E+00 0.  1.
</event>
<event>
 5   0  0.6290861E-06  0.2515774E+04  0.7818609E-02  0.8397387E-01
       -1   -1    0    0    0  501  0.00000000000E+00  0.00000000000E+00  0.11126482361E+04  0.11126482361E+04  0.50400001928E-02 0.  1.
        1   -1    0    0  501    0  0.00000000000E+00  0.00000000000E+00 -0.14220845564E+04  0.14220845564E+04  0.50400001928E-02 0. -1.
    10030    2    1    2    0    0  0.00000000000E+00  0.00000000000E+00 -0.30943632032E+03  0.25347327925E+04  0.25157741340E+04 0.  0.
        1    1    3    3  502    0  0.60464009173E+03  0.92866794472E+03  0.44496979009E+03  0.11941574043E+04  0.50400001928E-02 0.  1.
       -1    1    3    3    0  502 -0.60464009173E+03 -0.92866794472E+03 -0.75440611041E+03  0.13405753882E+04  0.50400001928E-02 0. -1.
</event>
<event>
 5   0  0.6346420E-06  0.2515888E+04  0.7818609E-02  0.8397347E-01
       -1   -1    0    0    0  501  0.00000000000E+00  0.00000000000E+00  0.66560016312E+03  0.66560016314E+03  0.50400001928E-02 0.  1.
        1   -1    0    0  501    0  0.00000000000E+00  0.00000000000E+00 -0.23774388514E+04  0.23774388514E+04  0.50400001928E-02 0. -1.
    10030    2    1    2    0    0  0.00000000000E+00  0.00000000000E+00 -0.17118386883E+04  0.30430390146E+04  0.25158884612E+04 0.  0.
        4    1    3    3  502    0 -0.28516970498E+03 -0.23757151566E+03 -0.23097002971E+04  0.23393330377E+04  0.12699999809E+01 0. -1.
       -4    1    3    3    0  502  0.28516970498E+03  0.23757151566E+03  0.59786160884E+03  0.70370597689E+03  0.12699999809E+01 0.  1.
</event>
<event>
 5   0  0.6477703E-06  0.2483228E+04  0.7818609E-02  0.8408985E-01
       -1   -1    0    0    0  501  0.00000000000E+00  0.00000000000E+00  0.11766615612E+04  0.11766615612E+04  0.50400001928E-02 0. -1.
        1   -1    0    0  501    0  0.00000000000E+00  0.00000000000E+00 -0.13101518231E+04  0.13101518231E+04  0.50400001928E-02 0.  1.
    10030    2    1    2    0    0  0.00000000000E+00  0.00000000000E+00 -0.13349026183E+03  0.24868133843E+04  0.24832279715E+04 0.  0.
        5    1    3    3  502    0 -0.10252258951E+04  0.56392841787E+03  0.34916138896E+03  0.12210811447E+04  0.46999998093E+01 0. -1.
       -5    1    3    3    0  502  0.10252258951E+04 -0.56392841787E+03 -0.48265165079E+03  0.12657322396E+04  0.46999998093E+01 0.  1.
</event>
<event>
 5   0  0.6290861E-06  0.2494871E+04  0.7818609E-02  0.8404815E-01
       -1   -1    0    0    0  501  0.00000000000E+00  0.00000000000E+00  0.10140638420E+04  0.10140638420E+04  0.50400001928E-02 0. -1.
        1   -1    0    0  501    0  0.00000000000E+00  0.00000000000E+00 -0.15345140169E+04  0.15345140169E+04  0.50400001928E-02 0.  1.
    10030    2    1    2    0    0  0.00000000000E+00  0.00000000000E+00 -0.52045017488E+03  0.25485778589E+04  0.24948708821E+04 0.  0.
        1    1    3    3  502    0 -0.87506886295E+03 -0.76336940968E+03  0.20523354310E+03  0.11792366929E+04  0.50400001928E-02 0. -1.
       -1    1    3    3    0  502  0.87506886295E+03  0.76336940968E+03 -0.72568371797E+03  0.13693411661E+04  0.50400001928E-02 0.  1.
</event>
<event>
 5   0  0.6290861E-06  0.2505562E+04  0.7818609E-02  0.8401007E-01
        1   -1    0    0  501    0  0.00000000000E+00  0.00000000000E+00  0.22032573823E+04  0.22032573823E+04  0.50400001928E-02 0.  1.
       -1   -1    0    0    0  501  0.00000000000E+00  0.00000000000E+00 -0.71233659226E+03  0.71233659228E+03  0.50400001928E-02 0. -1.
    10030    2    1    2    0    0  0.00000000000E+00  0.00000000000E+00  0.14909207901E+04  0.29155939746E+04  0.25055624962E+04 0.  0.
        1    1    3    3  502    0  0.28942542269E+03  0.98471864526E+03 -0.90443446748E+02  0.10303484375E+04  0.50400001928E-02 0. -1.
       -1    1    3    3    0  502 -0.28942542269E+03 -0.98471864526E+03  0.15813642368E+04  0.18852455371E+04  0.50400001928E-02 0.  1.
</event>
<event>
 5   0  0.1468512E-05  0.2505063E+04  0.7818609E-02  0.8401184E-01
        2   -1    0    0  501    0  0.00000000000E+00  0.00000000000E+00  0.28490977881E+04  0.28490977881E+04  0.25500000920E-02 0.  1.
       -2   -1    0    0    0  501  0.00000000000E+00  0.00000000000E+00 -0.55064298679E+03  0.55064298679E+03  0.25500000920E-02 0. -1.
    10030    2    1    2    0    0  0.00000000000E+00  0.00000000000E+00  0.22984548014E+04  0.33997407749E+04  0.25050634449E+04 0.  0.
        4    1    3    3  502    0 -0.64812774781E+03 -0.70850329723E+03  0.22406876365E+04  0.24377713586E+04  0.12699999809E+01 0. -1.
       -4    1    3    3    0  502  0.64812774781E+03  0.70850329723E+03  0.57767164840E+02  0.96196941630E+03  0.12699999809E+01 0.  1.
</event>
<event>
 5   0  0.6346420E-06  0.2483997E+04  0.7818609E-02  0.8408709E-01
        1   -1    0    0  501    0  0.00000000000E+00  0.00000000000E+00  0.14099153728E+04  0.14099153728E+04  0.50400001928E-02 0. -1.
       -1   -1    0    0    0  501  0.00000000000E+00  0.00000000000E+00 -0.10940797489E+04  0.10940797489E+04  0.50400001928E-02 0.  1.
    10030    2    1    2    0    0  0.00000000000E+00  0.00000000000E+00  0.31583562393E+03  0.25039951217E+04  0.24839966643E+04 0.  0.
        4    1    3    3  502    0  0.26281107220E+03 -0.57302649929E+03  0.12366402630E+04  0.13880597183E+04  0.12699999809E+01 0. -1.
       -4    1    3    3    0  502 -0.26281107220E+03  0.57302649929E+03 -0.92080463902E+03  0.11159354035E+04  0.12699999809E+01 0.  1.
</event>
<event>
 5   0  0.6290861E-06  0.2493450E+04  0.7818609E-02  0.8405323E-01
       -1   -1    0    0    0  501  0.00000000000E+00  0.00000000000E+00  0.51425749545E+03  0.51425749548E+03  0.50400001928E-02 0. -1.
        1   -1    0    0  501    0  0.00000000000E+00  0.00000000000E+00 -0.30224607404E+04  0.30224607404E+04  0.50400001928E-02 0.  1.
    10030    2    1    2    0    0  0.00000000000E+00  0.00000000000E+00 -0.25082032449E+04  0.35367182359E+04  0.24934498916E+04 0.  0.
        1    1    3    3  502    0 -0.61450923724E+03 -0.10342042373E+04 -0.78986291417E+03  0.14391259258E+04  0.50400001928E-02 0. -1.
       -1    1    3    3    0  502  0.61450923724E+03  0.10342042373E+04 -0.17183403308E+04  0.20975923101E+04  0.50400001928E-02 0.  1.
</event>
<event>
 5   0  0.6105353E-06  0.2489791E+04  0.7818609E-02  0.8406632E-01
        1   -1    0    0  501    0  0.00000000000E+00  0.00000000000E+00  0.14122460451E+04  0.14122460451E+04  0.50400001928E-02 0.  1.
       -1   -1    0    0    0  501  0.00000000000E+00  0.00000000000E+00 -0.10973760690E+04  0.10973760690E+04  0.50400001928E-02 0. -1.
    10030    2    1    2    0    0  0.00000000000E+00  0.00000000000E+00  0.31486997609E+03  0.25096221141E+04  0.24897911667E+04 0.  0.
        3    1    3    3  502    0 -0.50665274557E+03  0.92505804882E+03 -0.50914585593E+03  0.11711784284E+04  0.10100000352E+00 0. -1.
       -3    1    3    3    0  502  0.50665274557E+03 -0.92505804882E+03  0.82401583201E+03  0.13384436857E+04  0.10100000352E+00 0.  1.
</event>
<event>
 5   0  0.6105353E-06  0.2500686E+04  0.7818609E-02  0.8402741E-01
       -1   -1    0    0    0  501  0.00000000000E+00  0.00000000000E+00  0.15127072876E+04  0.15127072876E+04  0.50400001928E-02 0. -1.
        1   -1    0    0  501    0  0.00000000000E+00  0.00000000000E+00 -0.10334829830E+04  0.10334829830E+04  0.50400001928E-02 0.  1.
    10030    2    1    2    0    0  0.00000000000E+00  0.00000000000E+00  0.47922430457E+03  0.25461902707E+04  0.25006856980E+04 0.  0.
        3    1    3    3  502    0 -0.37359950524E+03 -0.63559968376E+03  0.12678365449E+04  0.14666196041E+04  0.10100000352E+00 0. -1.
       -3    1    3    3    0  502  0.37359950524E+03  0.63559968376E+03 -0.78861224033E+03  0.10795706666E+04  0.10100000352E+00 0.  1.
</event>
<event>
 5   0  0.1468512E-05  0.2504612E+04  0.7818609E-02  0.8401344E-01
       -2   -1    0    0    0  501  0.00000000000E+00  0.00000000000E+00  0.10166056809E+04  0.10166056809E+04  0.25500000920E-02 0. -1.
        2   -1    0    0  501    0  0.00000000000E+00  0.00000000000E+00 -0.15426537489E+04  0.15426537489E+04  0.25500000920E-02 0.  1.
    10030    2    1    2    0    0  0.00000000000E+00  0.00000000000E+00 -0.52604806808E+03  0.25592594298E+04  0.25046121974E+04 0.  0.
        4    1    3    3  502    0 -0.49533647079E+03 -0.32665919001E+03 -0.13899026172E+04  0.15112562139E+04  0.12699999809E+01 0.  1.
       -4    1    3    3    0  502  0.49533647079E+03  0.32665919001E+03  0.86385454913E+03  0.10480032160E+04  0.12699999809E+01 0. -1.
</event>
<event>
 5   0  0.6104486E-06  0.2487468E+04  0.7818609E-02  0.8407464E-01
        1   -1    0    0  501    0  0.00000000000E+00  0.00000000000E+00  0.23135194850E+04  0.23135194850E+04  0.50400001928E-02 0. -1.
       -1   -1    0    0    0  501  0.00000000000E+00  0.00000000000E+00 -0.66862383393E+03  0.66862383395E+03  0.50400001928E-02 0.  1.
    10030    2    1    2    0    0  0.00000000000E+00  0.00000000000E+00  0.16448956511E+04  0.29821433189E+04  0.24874680042E+04 0.  0.
        2    1    3    3  502    0  0.89484953951E+03 -0.37517492140E+03 -0.11033106879E+03  0.97656790074E+03  0.25500000920E-02 0.  1.
       -2    1    3    3    0  502 -0.89484953951E+03  0.37517492140E+03  0.17552267199E+04  0.20055754182E+04  0.25500000920E-02 0. -1.
</event>
<event>
 5   0  0.6346420E-06  0.2487796E+04  0.7818609E-02  0.8407346E-01
       -1   -1    0    0    0  501  0.00000000000E+00  0.00000000000E+00  0.65490084950E+03  0.65490084952E+03  0.50400001928E-02 0.  1.
        1   -1    0    0  501    0  0.00000000000E+00  0.00000000000E+00 -0.23626201902E+04  0.23626201902E+04  0.50400001928E-02 0. -1.
    10030    2    1    2    0    0  0.00000000000E+00  0.00000000000E+00 -0.17077193407E+04  0.30175210397E+04  0.24877957872E+04 0.  0.
        4    1    3    3  502    0 -0.55738507788E+03 -0.10443134883E+04 -0.39038157445E+03  0.12464622631E+04  0.12699999809E+01 0.  1.
       -4    1    3    3    0  502  0.55738507788E+03  0.10443134883E+04 -0.13173377663E+04  0.17710587766E+04  0.12699999809E+01 0. -1.
</event>
<event>
 5   0  0.1468512E-05  0.2502896E+04  0.7818609E-02  0.8401955E-01
       -2   -1    0    0    0  501  0.00000000000E+00  0.00000000000E+00  0.11518398780E+04  0.11518398780E+04  0.25500000920E-02 0.  1.
        2   -1    0    0  501    0  0.00000000000E+00  0.00000000000E+00 -0.13596700604E+04  0.13596700604E+04  0.25500000920E-02 0. -1.
    10030    2    1    2    0    0  0.00000000000E+00  0.00000000000E+00 -0.20783018248E+03  0.25115099384E+04  0.25028960797E+04 0.  0.
        4    1    3    3  502    0 -0.66162512204E+03 -0.10525045990E+04  0.40129811217E+02  0.12438350966E+04  0.12699999809E+01 0.  1.
       -4    1    3    3    0  502  0.66162512204E+03  0.10525045990E+04 -0.24795999369E+03  0.12676748417E+04  0.12699999809E+01 0. -1.
</event>
<event>
 5   0  0.1550483E-05  0.2493336E+04  0.7818609E-02  0.8405363E-01
       -2   -1    0    0    0  501  0.00000000000E+00  0.00000000000E+00  0.74626627014E+03  0.74626627015E+03  0.25500000920E-02 0.  1.
        2   -1    0    0  501    0  0.00000000000E+00  0.00000000000E+00 -0.20826092101E+04  0.20826092101E+04  0.25500000920E-02 0. -1.
    10030    2    1    2    0    0  0.00000000000E+00  0.00000000000E+00 -0.13363429400E+04  0.28288754803E+04  0.24933359239E+04 0.  0.
        5    1    3    3  502    0  0.39693662734E+03  0.58520626953E+02 -0.20073422409E+04  0.20470535685E+04  0.46999998093E+01 0. -1.
       -5    1    3    3    0  502 -0.39693662734E+03 -0.58520626953E+02  0.67099930096E+03  0.78182191181E+03  0.46999998093E+01 0.  1.
</event>
<event>
 5   0  0.6346420E-06  0.2502784E+04  0.7818609E-02  0.8401995E-01
        1   -1    0    0  501    0  0.00000000000E+00  0.00000000000E+00  0.11877761782E+04  0.11877761782E+04  0.50400001928E-02 0. -1.
       -1   -1    0    0    0  501  0.00000000000E+00  0.00000000000E+00 -0.13184145431E+04  0.13184145431E+04  0.50400001928E-02 0.  1.
    10030    2    1    2    0    0  0.00000000000E+00  0.00000000000E+00 -0.13063836485E+03  0.25061907213E+04  0.25027835602E+04 0.  0.
        4    1    3    3  502    0 -0.78920999379E+03 -0.23063713267E+03  0.87932812902E+03  0.12038544234E+04  0.12699999809E+01 0. -1.
       -4    1    3    3    0  502  0.78920999379E+03  0.23063713267E+03 -0.10099664939E+04  0.13023362979E+04  0.12699999809E+01 0.  1.
</event>
<event>
 5   0  0.1468512E-05  0.2497284E+04  0.7818609E-02  0.8403954E-01
       -2   -1    0    0    0  501  0.00000000000E+00  0.00000000000E+00  0.31168204162E+04  0.31168204162E+04  0.25500000920E-02 0. -1.
        2   -1    0    0  501    0  0.00000000000E+00  0.00000000000E+00 -0.50022335055E+03  0.50022335055E+03  0.25500000920E-02 0.  1.
    10030    2    1    2    0    0  0.00000000000E+00  0.00000000000E+00  0.26165970656E+04  0.36170437667E+04  0.24972836055E+04 0.  0.
        4    1    3    3  502    0  0.20639336072E+02 -0.12109129076E+04  0.86810031258E+03  0.14900791313E+04  0.12699999809E+01 0. -1.
       -4    1    3    3    0  502 -0.20639336072E+02  0.12109129076E+04  0.17484967530E+04  0.21269646354E+04  0.12699999809E+01 0.  1.
</event>
<event>
 5   0  0.1501947E-05  0.2496800E+04  0.7818609E-02  0.8404127E-01
       -2   -1    0    0    0  501  0.00000000000E+00  0.00000000000E+00  0.11826911224E+04  0.11826911224E+04  0.25500000920E-02 0.  1.
        2   -1    0    0  501    0  0.00000000000E+00  0.00000000000E+00 -0.13177591416E+04  0.13177591416E+04  0.25500000920E-02 0. -1.
    10030    2    1    2    0    0  0.00000000000E+00  0.00000000000E+00 -0.13506801922E+03  0.25004502639E+04  0.24967995820E+04 0.  0.
        3    1    3    3  502    0 -0.66619924732E+03 -0.75050076560E+03  0.67613453816E+03  0.12100540319E+04  0.10100000352E+00 0.  1.
       -3    1    3    3    0  502  0.66619924732E+03  0.75050076560E+03 -0.81120255738E+03  0.12903962320E+04  0.10100000352E+00 0. -1.
</event>
<event>
 5   0  0.6477703E-06  0.2494795E+04  0.7818609E-02  0.8404842E-01
       -1   -1    0    0    0  501  0.00000000000E+00  0.00000000000E+00  0.77666677569E+03  0.77666677570E+03  0.50400001928E-02 0.  1.
        1   -1    0    0  501    0  0.00000000000E+00  0.00000000000E+00 -0.20034332342E+04  0.20034332342E+04  0.50400001928E-02 0. -1.
    10030    2    1    2    0    0  0.00000000000E+00  0.00000000000E+00 -0.12267664585E+04  0.27801000099E+04  0.24947946050E+04 0.  0.
        5    1    3    3  502    0 -0.34695079088E+03 -0.90494852319E+03 -0.14884727379E+04  0.17761981484E+04  0.46999998093E+01 0. -1.
       -5    1    3    3    0  502  0.34695079088E+03  0.90494852319E+03  0.26170627937E+03  0.10039018615E+04  0.46999998093E+01 0.  1.
</event>
<event>
 5   0  0.1526824E-05  0.2505955E+04  0.7818609E-02  0.8400867E-01
       -2   -1    0    0    0  501  0.00000000000E+00  0.00000000000E+00  0.12448624754E+04  0.12448624754E+04  0.25500000920E-02 0. -1.
        2   -1    0    0  501    0  0.00000000000E+00  0.00000000000E+00 -0.12611450174E+04  0.12611450174E+04  0.25500000920E-02 0.  1.
    10030    2    1    2    0    0  0.00000000000E+00  0.00000000000E+00 -0.16282542019E+02  0.25060074929E+04  0.25059545952E+04 0.  0.
        2    1    3    3  502    0 -0.10470513142E+04 -0.58649852272E+03  0.35194290006E+03  0.12506641343E+04  0.25500000920E-02 0.  1.
       -2    1    3    3    0  502  0.10470513142E+04  0.58649852272E+03 -0.36822544207E+03  0.12553433586E+04  0.25500000920E-02 0. -1.
</event>
<event>
 5   0  0.5164625E-06  0.2503349E+04  0.7818609E-02  0.8401793E-01
       -3   -1    0    0    0  501  0.00000000000E+00  0.00000000000E+00  0.85210423615E+03  0.85210424214E+03  0.10100000352E+00 0. -1.
        3   -1    0    0  501    0  0.00000000000E+00  0.00000000000E+00 -0.18386119145E+04  0.18386119172E+04  0.10100000352E+00 0.  1.
    10030    2    1    2    0    0  0.00000000000E+00  0.00000000000E+00 -0.98650767831E+03  0.26907161594E+04  0.25033489671E+04 0.  0.
        4    1    3    3  502    0  0.85387098334E+03  0.74865888572E+03  0.72550172091E+02  0.11379151654E+04  0.12699999809E+01 0. -1.
       -4    1    3    3    0  502 -0.85387098334E+03 -0.74865888572E+03 -0.10590578504E+04  0.15528009939E+04  0.12699999809E+01 0.  1.
</event>
<event>
 5   0  0.1526824E-05  0.2499065E+04  0.7818609E-02  0.8403319E-01
       -2   -1    0    0    0  501  0.00000000000E+00  0.00000000000E+00  0.75254838218E+03  0.75254838218E+03  0.25500000920E-02 0. -1.
        2   -1    0    0  501    0  0.00000000000E+00  0.00000000000E+00 -0.20747251472E+04  0.20747251472E+04  0.25500000920E-02 0.  1.
    10030    2    1    2    0    0  0.00000000000E+00  0.00000000000E+00 -0.13221767650E+04  0.28272735294E+04  0.24990646674E+04 0.  0.
        2    1    3    3  502    0 -0.10399212554E+04 -0.69159366799E+03 -0.61593369376E+03  0.13925201378E+04  0.25500000920E-02 0.  1.
       -2    1    3    3    0  502  0.10399212554E+04  0.69159366799E+03 -0.70624307128E+03  0.14347533916E+04  0.25500000920E-02 0. -1.
</event>
<event>
 5   0  0.6105353E-06  0.2503884E+04  0.7818609E-02  0.8401603E-01
        1   -1    0    0  501    0  0.00000000000E+00  0.00000000000E+00  0.18828414827E+04  0.18828414827E+04  0.50400001928E-02 0.  1.
       -1   -1    0    0    0  501  0.00000000000E+00  0.00000000000E+00 -0.83244334222E+03  0.83244334223E+03  0.50400001928E-02 0. -1.
    10030    2    1    2    0    0  0.00000000000E+00  0.00000000000E+00  0.10503981404E+04  0.27152848249E+04  0.25038840682E+04 0.  0.
        3    1    3    3  502    0 -0.11253418605E+04  0.41254262287E+03  0.13304165520E+03  0.12059377310E+04  0.10100000352E+00 0.  1.
       -3    1    3    3    0  502  0.11253418605E+04 -0.41254262287E+03  0.91735648525E+03  0.15093470939E+04  0.10100000352E+00 0. -1.
</event>
<event>
 5   0  0.1501947E-05  0.2495212E+04  0.7818609E-02  0.8404693E-01
        2   -1    0    0  501    0  0.00000000000E+00  0.00000000000E+00  0.25444186369E+04  0.25444186369E+04  0.25500000920E-02 0.  1.
       -2   -1    0    0    0  501  0.00000000000E+00  0.00000000000E+00 -0.61173948295E+03  0.61173948295E+03  0.25500000920E-02 0. -1.
    10030    2    1    2    0    0  0.00000000000E+00  0.00000000000E+00  0.19326791539E+04  0.31561581198E+04  0.24952124890E+04 0.  0.
        3    1    3    3  502    0 -0.29948609915E+03  0.25906612970E+03  0.24628194958E+04  0.24944512547E+04  0.10100000352E+00 0.  1.
       -3    1    3    3    0  502  0.29948609915E+03 -0.25906612970E+03 -0.53014034183E+03  0.66170686514E+03  0.10100000352E+00 0. -1.
</event>
<event>
 5   0  0.6346420E-06  0.2424340E+04  0.7818609E-02  0.8430447E-01
       -1   -1    0    0    0  501  0.00000000000E+00  0.00000000000E+00  0.57945620301E+03  0.57945620303E+03  0.50400001928E-02 0.  1.
        1   -1    0    0  501    0  0.00000000000E+00  0.00000000000E+00 -0.25357507267E+04  0.25357507267E+04  0.50400001928E-02 0. -1.
    10030    2    1    2    0    0  0.00000000000E+00  0.00000000000E+00 -0.19562945237E+04  0.31152069298E+04  0.24243403127E+04 0.  0.
        4    1    3    3  502    0  0.90137780868E+03 -0.71334540963E+03 -0.48379027467E+03  0.12471560729E+04  0.12699999809E+01 0.  1.
       -4    1    3    3    0  502 -0.90137780868E+03  0.71334540963E+03 -0.14725042491E+04  0.18680508569E+04  0.12699999809E+01 0. -1.
</event>
<event>
 5   0  0.6290861E-06  0.2386761E+04  0.7818609E-02  0.8444477E-01
        1   -1    0    0  501    0  0.00000000000E+00  0.00000000000E+00  0.17590079772E+04  0.17590079772E+04  0.50400001928E-02 0.  1.
       -1   -1    0    0    0  501  0.00000000000E+00  0.00000000000E+00 -0.80963635335E+03  0.80963635337E+03  0.50400001928E-02 0. -1.
    10030    2    1    2    0    0  0.00000000000E+00  0.00000000000E+00  0.94937162389E+03  0.25686443306E+04  0.23867608211E+04 0.  0.
        1    1    3    3  502    0  0.57505083347E+03  0.12499341130E+03 -0.64262559939E+03  0.87136357220E+03  0.50400001928E-02 0. -1.
       -1    1    3    3    0  502 -0.57505083347E+03 -0.12499341130E+03  0.15919972233E+04  0.16972807584E+04  0.50400001928E-02 0.  1.
</event>
<event>
 5   0  0.1526824E-05  0.2495637E+04  0.7818609E-02  0.8404542E-01
        2   -1    0    0  501    0  0.00000000000E+00  0.00000000000E+00  0.20238747515E+04  0.20238747515E+04  0.25500000920E-02 0.  1.
       -2   -1    0    0    0  501  0.00000000000E+00  0.00000000000E+00 -0.76934135461E+03  0.76934135462E+03  0.25500000920E-02 0. -1.
    10030    2    1    2    0    0  0.00000000000E+00  0.00000000000E+00  0.12545333969E+04  0.27932161061E+04  0.24956366265E+04 0.  0.
        2    1    3    3  502    0  0.30195106273E+01 -0.23434256301E+03  0.19990206573E+04  0.20127118876E+04  0.25500000920E-02 0.  1.
       -2    1    3    3    0  502 -0.30195106273E+01  0.23434256301E+03 -0.74448726037E+03  0.78050421853E+03  0.25500000920E-02 0. -1.
</event>
<event>
 5   0  0.6105353E-06  0.2494141E+04  0.7818609E-02  0.8405076E-01
        1   -1    0    0  501    0  0.00000000000E+00  0.00000000000E+00  0.14308087734E+04  0.14308087735E+04  0.50400001928E-02 0. -1.
       -1   -1    0    0    0  501  0.00000000000E+00  0.00000000000E+00 -0.10869269224E+04  0.10869269224E+04  0.50400001928E-02 0.  1.
    10030    2    1    2    0    0  0.00000000000E+00  0.00000000000E+00  0.34388185104E+03  0.25177356959E+04  0.24941407953E+04 0.  0.
        3    1    3    3  502    0 -0.56235472847E+02  0.41420751958E+02  0.14288328896E+04  0.14305388998E+04  0.10100000352E+00 0. -1.
       -3    1    3    3    0  502  0.56235472847E+02 -0.41420751958E+02 -0.10849510386E+04  0.10871967961E+04  0.10100000352E+00 0.  1.
</event>
<event>
 5   0  0.1468512E-05  0.2513634E+04  0.7818609E-02  0.8398145E-01
        2   -1    0    0  501    0  0.00000000000E+00  0.00000000000E+00  0.14683267945E+04  0.14683267945E+04  0.25500000920E-02 0. -1.
       -2   -1    0    0    0  501  0.00000000000E+00  0.00000000000E+00 -0.10757743970E+04  0.10757743970E+04  0.25500000920E-02 0.  1.
    10030    2    1    2    0    0  0.00000000000E+00  0.00000000000E+00  0.39255239752E+03  0.25441011916E+04  0.25136335230E+04 0.  0.
        4    1    3    3  502    0 -0.90185254534E+03  0.52523773100E+03  0.90503125655E+03  0.13814108280E+04  0.12699999809E+01 0. -1.
       -4    1    3    3    0  502  0.90185254534E+03 -0.52523773100E+03 -0.51247885903E+03  0.11626903635E+04  0.12699999809E+01 0.  1.
</event>
<event>
 5   0  0.1501947E-05  0.2517076E+04  0.7818609E-02  0.8396927E-01
        2   -1    0    0  501    0  0.00000000000E+00  0.00000000000E+00  0.14195003780E+04  0.14195003780E+04  0.25500000920E-02 0.  1.
       -2   -1    0    0    0  501  0.00000000000E+00  0.00000000000E+00 -0.11158279591E+04  0.11158279592E+04  0.25500000920E-02 0. -1.
    10030    2    1    2    0    0  0.00000000000E+00  0.00000000000E+00  0.30367241884E+03  0.25353283371E+04  0.25170762482E+04 0.  0.
        3    1    3    3  502    0  0.96030041086E+03  0.36491978034E+03 -0.58046726829E+03  0.11799515180E+04  0.10100000352E+00 0. -1.
       -3    1    3    3    0  502 -0.96030041086E+03 -0.36491978034E+03  0.88413968713E+03  0.13553768191E+04  0.10100000352E+00 0.  1.
</event>
<event>
 5   0  0.1550483E-05  0.2502113E+04  0.7818609E-02  0.8402233E-01
       -2   -1    0    0    0  501  0.00000000000E+00  0.00000000000E+00  0.91214163561E+03  0.91214163561E+03  0.25500000920E-02 0. -1.
        2   -1    0    0  501    0  0.00000000000E+00  0.00000000000E+00 -0.17158984990E+04  0.17158984990E+04  0.25500000920E-02 0.  1.
    10030    2    1    2    0    0  0.00000000000E+00  0.00000000000E+00 -0.80375686343E+03  0.26280401346E+04  0.25021130777E+04 0.  0.
        5    1    3    3  502    0  0.89599386045E+03 -0.65060498489E+02 -0.13163775649E+04  0.15937094622E+04  0.46999998093E+01 0.  1.
       -5    1    3    3    0  502 -0.89599386045E+03  0.65060498489E+02  0.51262070148E+03  0.10343306725E+04  0.46999998093E+01 0. -1.
</event>
<event>
 5   0  0.6346420E-06  0.2535854E+04  0.7818609E-02  0.8390322E-01
       -1   -1    0    0    0  501  0.00000000000E+00  0.00000000000E+00  0.24650637929E+04  0.24650637929E+04  0.50400001928E-02 0.  1.
        1   -1    0    0  501    0  0.00000000000E+00  0.00000000000E+00 -0.65216952994E+03  0.65216952995E+03  0.50400001928E-02 0. -1.
    10030    2    1    2    0    0  0.00000000000E+00  0.00000000000E+00  0.18128942630E+04  0.31172333229E+04  0.25358544872E+04 0.  0.
        4    1    3    3  502    0 -0.45379235383E+03  0.69790847737E+03  0.20820717846E+04  0.22423265311E+04  0.12699999809E+01 0.  1.
       -4    1    3    3    0  502  0.45379235383E+03 -0.69790847737E+03 -0.26917752161E+03  0.87490679173E+03  0.12699999809E+01 0. -1.
</event>
<event>
 5   0  0.6105353E-06  0.2493470E+04  0.7818609E-02  0.8405316E-01
        1   -1    0    0  501    0  0.00000000000E+00  0.00000000000E+00  0.92190110311E+03  0.92190110313E+03  0.50400001928E-02 0.  1.
       -1   -1    0    0    0  501  0.00000000000E+00  0.00000000000E+00 -0.16860250153E+04  0.16860250153E+04  0.50400001928E-02 0. -1.
    10030    2    1    2    0    0  0.00000000000E+00  0.00000000000E+00 -0.76412391217E+03  0.26079261184E+04  0.24934701294E+04 0.  0.
        3    1    3    3  502    0 -0.72324345722E+03 -0.38864925459E+03  0.59920342181E+03  0.10164517167E+04  0.10100000352E+00 0.  1.
       -3    1    3    3    0  502  0.72324345722E+03  0.38864925459E+03 -0.13633273340E+04  0.15914744017E+04  0.10100000352E+00 0. -1.
</event>
<event>
 5   0  0.6477703E-06  0.2291569E+04  0.7818609E-02  0.8481253E-01
       -1   -1    0    0    0  501  0.00000000000E+00  0.00000000000E+00  0.42863781292E+03  0.42863781295E+03  0.50400001928E-02 0.  1.
        1   -1    0    0  501    0  0.00000000000E+00  0.00000000000E+00 -0.30627769927E+04  0.30627769927E+04  0.50400001928E-02 0. -1.
    10030    2    1    2    0    0  0.00000000000E+00  0.00000000000E+00 -0.26341391798E+04  0.34914148056E+04  0.22915689225E+04 0.  0.
        5    1    3    3  502    0  0.92258347337E+03  0.60950348782E+03 -0.17745155196E+04  0.20908328930E+04  0.46999998093E+01 0. -1.
       -5    1    3    3    0  502 -0.92258347337E+03 -0.60950348782E+03 -0.85962366015E+03  0.14005819127E+04  0.46999998093E+01 0.  1.
</event>
<event>
 5   0  0.1468512E-05  0.2496574E+04  0.7818609E-02  0.8404207E-01
       -2   -1    0    0    0  501  0.00000000000E+00  0.00000000000E+00  0.21068683227E+04  0.21068683227E+04  0.25500000920E-02 0. -1.
        2   -1    0    0  501    0  0.00000000000E+00  0.00000000000E+00 -0.73959058276E+03  0.73959058277E+03  0.25500000920E-02 0.  1.
    10030    2    1    2    0    0  0.00000000000E+00  0.00000000000E+00  0.13672777399E+04  0.28464589055E+04  0.24965736285E+04 0.  0.
        4    1    3    3  502    0  0.90307276464E+03  0.13704526416E+03 -0.28642155768E+03  0.95726733167E+03  0.12699999809E+01 0.  1.
       -4    1    3    3    0  502 -0.90307276464E+03 -0.13704526416E+03  0.16536992976E+04  0.18891915738E+04  0.12699999809E+01 0. -1.
</event>
<event>
 5   0  0.1572732E-05  0.2492557E+04  0.7818609E-02  0.8405642E-01
       -2   -1    0    0    0  501  0.00000000000E+00  0.00000000000E+00  0.10051032322E+04  0.10051032322E+04  0.25500000920E-02 0. -1.
        2   -1    0    0  501    0  0.00000000000E+00  0.00000000000E+00 -0.15453240737E+04  0.15453240737E+04  0.25500000920E-02 0.  1.
    10030    2    1    2    0    0  0.00000000000E+00  0.00000000000E+00 -0.54022084149E+03  0.25504273060E+04  0.24925570977E+04 0.  0.
        1    1    3    3  502    0 -0.25781261787E+03  0.24259044598E+03  0.95257751845E+03  0.10162290092E+04  0.50400001928E-02 0. -1.
       -1    1    3    3    0  502  0.25781261787E+03 -0.24259044598E+03 -0.14927983599E+04  0.15341982968E+04  0.50400001928E-02 0.  1.
</event>
<event>
 5   0  0.1550483E-05  0.2502797E+04  0.7818609E-02  0.8401990E-01
       -2   -1    0    0    0  501  0.00000000000E+00  0.00000000000E+00  0.18483748527E+04  0.18483748527E+04  0.25500000920E-02 0.  1.
        2   -1    0    0  501    0  0.00000000000E+00  0.00000000000E+00 -0.84722977040E+03  0.84722977040E+03  0.25500000920E-02 0. -1.
    10030    2    1    2    0    0  0.00000000000E+00  0.00000000000E+00  0.10011450823E+04  0.26956046231E+04  0.25027969970E+04 0.  0.
        5    1    3    3  502    0 -0.64322619136E+03 -0.10680467397E+04  0.38501125090E+03  0.13048829544E+04  0.46999998093E+01 0. -1.
       -5    1    3    3    0  502  0.64322619136E+03  0.10680467397E+04  0.61613383137E+03  0.13907216686E+04  0.46999998093E+01 0.  1.
</event>
<event>
 5   0  0.1468512E-05  0.2340935E+04  0.7818609E-02  0.8461954E-01
        2   -1    0    0  501    0  0.00000000000E+00  0.00000000000E+00  0.17262593910E+04  0.17262593910E+04  0.25500000920E-02 0. -1.
       -2   -1    0    0    0  501  0.00000000000E+00  0.00000000000E+00 -0.79362013364E+03  0.79362013364E+03  0.25500000920E-02 0.  1.
    10030    2    1    2    0    0  0.00000000000E+00  0.00000000000E+00  0.93263925736E+03  0.25198795246E+04  0.23409350342E+04 0.  0.
        4    1    3    3  502    0 -0.80331599488E+03 -0.76099558796E+03  0.87700951731E+03  0.14119412802E+04  0.12699999809E+01 0. -1.
       -4    1    3    3    0  502  0.80331599488E+03  0.76099558796E+03  0.55629740052E+02  0.11079382444E+04  0.12699999809E+01 0.  1.
</event>
<event>
 5   0  0.1526824E-05  0.2492195E+04  0.7818609E-02  0.8405771E-01
        2   -1    0    0  501    0  0.00000000000E+00  0.00000000000E+00  0.11648533542E+04  0.11648533542E+04  0.25500000920E-02 0.  1.
       -2   -1    0    0    0  501  0.00000000000E+00  0.00000000000E+00 -0.13330084587E+04  0.13330084587E+04  0.25500000920E-02 0. -1.
    10030    2    1    2    0    0  0.00000000000E+00  0.00000000000E+00 -0.16815510448E+03  0.24978618129E+04  0.24921953169E+04 0.  0.
        2    1    3    3  502    0 -0.21416730468E+03 -0.21000309208E+02 -0.13142437763E+04  0.13317452274E+04  0.25500000920E-02 0. -1.
       -2    1    3    3    0  502  0.21416730468E+03  0.21000309208E+02  0.11460886718E+04  0.11661165855E+04  0.25500000920E-02 0.  1.
</event>
<event>
 5   0  0.1550483E-05  0.2496477E+04  0.7818609E-02  0.8404242E-01
       -2   -1    0    0    0  501  0.00000000000E+00  0.00000000000E+00  0.78685272142E+03  0.78685272143E+03  0.25500000920E-02 0. -1.
        2   -1    0    0  501    0  0.00000000000E+00  0.00000000000E+00 -0.19801667235E+04  0.19801667235E+04  0.25500000920E-02 0.  1.
    10030    2    1    2    0    0  0.00000000000E+00  0.00000000000E+00 -0.11933140021E+04  0.27670194449E+04  0.24964771781E+04 0.  0.
        5    1    3    3  502    0 -0.95090934088E+03 -0.45907666383E+03 -0.13344495656E+04  0.17016925959E+04  0.46999998093E+01 0.  1.
       -5    1    3    3    0  502  0.95090934088E+03  0.45907666383E+03  0.14113556357E+03  0.10653268490E+04  0.46999998093E+01 0. -1.
</event>
<event>
 5   0  0.1550483E-05  0.2490109E+04  0.7818609E-02  0.8406518E-01
       -2   -1    0    0    0  501  0.00000000000E+00  0.00000000000E+00  0.75545640781E+03  0.75545640781E+03  0.25500000920E-02 0. -1.
        2   -1    0    0  501    0  0.00000000000E+00  0.00000000000E+00 -0.20519532808E+04  0.20519532808E+04  0.25500000920E-02 0.  1.
    10030    2    1    2    0    0  0.00000000000E+00  0.00000000000E+00 -0.12964968730E+04  0.28074096886E+04  0.24901094390E+04 0.  0.
        5    1    3    3  502    0 -0.15817729316E+03 -0.11177684553E+04 -0.56256467157E+02  0.11303155559E+04  0.46999998093E+01 0. -1.
       -5    1    3    3    0  502  0.15817729316E+03  0.11177684553E+04 -0.12402404058E+04  0.16770941327E+04  0.46999998093E+01 0.  1.
</event>
<event>
 5   0  0.6104486E-06  0.2307653E+04  0.7818609E-02  0.8474910E-01
        1   -1    0    0  501    0  0.00000000000E+00  0.00000000000E+00  0.71490983696E+03  0.71490983698E+03  0.50400001928E-02 0. -1.
       -1   -1    0    0    0  501  0.00000000000E+00  0.00000000000E+00 -0.18622145039E+04  0.18622145039E+04  0.50400001928E-02 0.  1.
    10030    2    1    2    0    0  0.00000000000E+00  0.00000000000E+00 -0.11473046669E+04  0.25771243409E+04  0.23076528919E+04 0.  0.
        2    1    3    3  502    0  0.54829861641E+01 -0.45168296038E+03 -0.17593622714E+04  0.18164259308E+04  0.25500000920E-02 0.  1.
       -2    1    3    3    0  502 -0.54829861641E+01  0.45168296038E+03  0.61205760452E+03  0.76069841008E+03  0.25500000920E-02 0. -1.
</event>
<event>
 5   0  0.6104486E-06  0.2483589E+04  0.7818609E-02  0.8408855E-01
        1   -1    0    0  501    0  0.00000000000E+00  0.00000000000E+00  0.24119520214E+04  0.24119520214E+04  0.50400001928E-02 0.  1.
       -1   -1    0    0    0  501  0.00000000000E+00  0.00000000000E+00 -0.63933856926E+03  0.63933856928E+03  0.50400001928E-02 0. -1.
    10030    2    1    2    0    0  0.00000000000E+00  0.00000000000E+00  0.17726134522E+04  0.30512905907E+04  0.24835893014E+04 0.  0.
        2    1    3    3  502    0 -0.81822256642E+03  0.52949579434E+02 -0.25948065829E+03  0.86001281281E+03  0.25500000920E-02 0. -1.
       -2    1    3    3    0  502  0.81822256642E+03 -0.52949579434E+02  0.20320941105E+04  0.21912777779E+04  0.25500000920E-02 0.  1.
</event>
<event>
 5   0  0.6104486E-06  0.2503719E+04  0.7818609E-02  0.8401662E-01
       -1   -1    0    0    0  501  0.00000000000E+00  0.00000000000E+00  0.78852488344E+03  0.78852488346E+03  0.50400001928E-02 0. -1.
        1   -1    0    0  501    0  0.00000000000E+00  0.00000000000E+00 -0.19874484887E+04  0.19874484887E+04  0.50400001928E-02 0.  1.
    10030    2    1    2    0    0  0.00000000000E+00  0.00000000000E+00 -0.11989236053E+04  0.27759733722E+04  0.25037193037E+04 0.  0.
        2    1    3    3  502    0  0.66536012520E+03  0.35860423652E+03 -0.17058994579E+04  0.18658494192E+04  0.25500000920E-02 0.  1.
       -2    1    3    3    0  502 -0.66536012520E+03 -0.35860423652E+03  0.50697585262E+03  0.91012395298E+03  0.25500000920E-02 0. -1.
</event>
<event>
 5   0  0.6477703E-06  0.2498902E+04  0.7818609E-02  0.8403377E-01
        1   -1    0    0  501    0  0.00000000000E+00  0.00000000000E+00  0.11137382851E+04  0.11137382851E+04  0.50400001928E-02 0. -1.
       -1   -1    0    0    0  501  0.00000000000E+00  0.00000000000E+00 -0.14017012589E+04  0.14017012589E+04  0.50400001928E-02 0.  1.
    10030    2    1    2    0    0  0.00000000000E+00  0.00000000000E+00 -0.28796297381E+03  0.25154395440E+04  0.24989024441E+04 0.  0.
        5    1    3    3  502    0  0.92125732938E+03  0.59424950739E+03  0.45936702049E+03  0.11886495251E+04  0.46999998093E+01 0. -1.
       -5    1    3    3    0  502 -0.92125732938E+03 -0.59424950739E+03 -0.74732999431E+03  0.13267900189E+04  0.46999998093E+01 0.  1.
</event>
<event>
 5   0  0.1501947E-05  0.2333317E+04  0.7818609E-02  0.8464899E-01
       -2   -1    0    0    0  501  0.00000000000E+00  0.00000000000E+00  0.63847864700E+03  0.63847864700E+03  0.25500000920E-02 0.  1.
        2   -1    0    0  501    0  0.00000000000E+00  0.00000000000E+00 -0.21317732744E+04  0.21317732744E+04  0.25500000920E-02 0. -1.
    10030    2    1    2    0    0  0.00000000000E+00  0.00000000000E+00 -0.14932946274E+04  0.27702519214E+04  0.23333167088E+04 0.  0.
        3    1    3    3  502    0 -0.10990324224E+04 -0.37986311387E+03 -0.63449400512E+03  0.13246701112E+04  0.10100000352E+00 0. -1.
       -3    1    3    3    0  502  0.10990324224E+04  0.37986311387E+03 -0.85880062226E+03  0.14455818102E+04  0.10100000352E+00 0.  1.
</event>
<event>
 5   0  0.6105353E-06  0.2500946E+04  0.7818609E-02  0.8402649E-01
        1   -1    0    0  501    0  0.00000000000E+00  0.00000000000E+00  0.17327133087E+04  0.17327133087E+04  0.50400001928E-02 0. -1.
       -1   -1    0    0    0  501  0.00000000000E+00  0.00000000000E+00 -0.90244754263E+03  0.90244754265E+03  0.50400001928E-02 0.  1.
    10030    2    1    2    0    0  0.00000000000E+00  0.00000000000E+00  0.83026576606E+03  0.26351608513E+04  0.25009461150E+04 0.  0.
        3    1    3    3  502    0  0.87244475466E+03 -0.59288474385E+03  0.11227465497E+04  0.15405297772E+04  0.10100000352E+00 0. -1.
       -3    1    3    3    0  502 -0.87244475466E+03  0.59288474385E+03 -0.29248078365E+03  0.10946310741E+04  0.10100000352E+00 0.  1.
</event>
<event>
 5   0  0.6104486E-06  0.2504093E+04  0.7818609E-02  0.8401529E-01
        1   -1    0    0  501    0  0.00000000000E+00  0.00000000000E+00  0.13682382757E+04  0.13682382757E+04  0.50400001928E-02 0. -1.
       -1   -1    0    0    0  501  0.00000000000E+00  0.00000000000E+00 -0.11457213616E+04  0.11457213616E+04  0.50400001928E-02 0.  1.
    10030    2    1    2    0    0  0.00000000000E+00  0.00000000000E+00  0.22251691411E+03  0.25139596373E+04  0.25040925064E+04 0.  0.
        2    1    3    3  502    0  0.42852386725E+03 -0.10271266354E+04  0.68710207044E+03  0.13079491906E+04  0.25500000920E-02 0.  1.
       -2    1    3    3    0  502 -0.42852386725E+03  0.10271266354E+04 -0.46458515634E+03  0.12060104467E+04  0.25500000920E-02 0. -1.
</event>
<event>
 5   0  0.6477703E-06  0.2496858E+04  0.7818609E-02  0.8404106E-01
        1   -1    0    0  501    0  0.00000000000E+00  0.00000000000E+00  0.13056952779E+04  0.13056952779E+04  0.50400001928E-02 0. -1.
       -1   -1    0    0    0  501  0.00000000000E+00  0.00000000000E+00 -0.11936744820E+04  0.11936744820E+04  0.50400001928E-02 0.  1.
    10030    2    1    2    0    0  0.00000000000E+00  0.00000000000E+00  0.11202079592E+03  0.24993697599E+04  0.24968581333E+04 0.  0.
        5    1    3    3  502    0  0.60116838504E+03 -0.62790841389E+03 -0.84092700929E+03  0.12094844887E+04  0.46999998093E+01 0.  1.
       -5    1    3    3    0  502 -0.60116838504E+03  0.62790841389E+03  0.95294780521E+03  0.12898852712E+04  0.46999998093E+01 0. -1.
</event>
<event>
 5   0  0.1526824E-05  0.2521123E+04  0.7818609E-02  0.8395499E-01
        2   -1    0    0  501    0  0.00000000000E+00  0.00000000000E+00  0.10614948950E+04  0.10614948950E+04  0.25500000920E-02 0. -1.
       -2   -1    0    0    0  501  0.00000000000E+00  0.00000000000E+00 -0.14969599178E+04  0.14969599178E+04  0.25500000920E-02 0.  1.
    10030    2    1    2    0    0  0.00000000000E+00  0.00000000000E+00 -0.43546502283E+03  0.25584548129E+04  0.25211230123E+04 0.  0.
        2    1    3    3  502    0 -0.20751503171E+03 -0.90340264647E+03  0.64921049505E+03  0.11316682804E+04  0.25500000920E-02 0. -1.
       -2    1    3    3    0  502  0.20751503171E+03  0.90340264647E+03 -0.10846755179E+04  0.14267865324E+04  0.25500000920E-02 0.  1.
</event>
<event>
 5   0  0.1468512E-05  0.2202419E+04  0.7818609E-02  0.8517422E-01
       -2   -1    0    0    0  501  0.00000000000E+00  0.00000000000E+00  0.72634466389E+03  0.72634466389E+03  0.25500000920E-02 0. -1.
        2   -1    0    0  501    0  0.00000000000E+00  0.00000000000E+00 -0.16695419530E+04  0.16695419530E+04  0.25500000920E-02 0.  1.
    10030    2    1    2    0    0  0.00000000000E+00  0.00000000000E+00 -0.94319728910E+03  0.23958866169E+04  0.22024194775E+04 0.  0.
        4    1    3    3  502    0 -0.86830637587E+03 -0.66778779213E+03 -0.34869270891E+03  0.11495584874E+04  0.12699999809E+01 0. -1.
       -4    1    3    3    0  502  0.86830637587E+03  0.66778779213E+03 -0.59450458019E+03  0.12463281295E+04  0.12699999809E+01 0.  1.
</event>
<event>
 5   0  0.6105353E-06  0.2481665E+04  0.7818609E-02  0.8409547E-01
        1   -1    0    0  501    0  0.00000000000E+00  0.00000000000E+00  0.10753702646E+04  0.10753702646E+04  0.50400001928E-02 0.  1.
       -1   -1    0    0    0  501  0.00000000000E+00  0.00000000000E+00 -0.14317540017E+04  0.14317540017E+04  0.50400001928E-02 0. -1.
    10030    2    1    2    0    0  0.00000000000E+00  0.00000000000E+00 -0.35638373710E+03  0.25071242663E+04  0.24816653116E+04 0.  0.
        3    1    3    3  502    0 -0.17694669454E+03 -0.95740581035E+03 -0.95532301660E+03  0.13640300930E+04  0.10100000352E+00 0. -1.
       -3    1    3    3    0  502  0.17694669454E+03  0.95740581035E+03  0.59893927950E+03  0.11430941733E+04  0.10100000352E+00 0.  1.
</event>
<event>
 5   0  0.1526824E-05  0.2481615E+04  0.7818609E-02  0.8409565E-01
        2   -1    0    0  501    0  0.00000000000E+00  0.00000000000E+00  0.21648375143E+04  0.21648375143E+04  0.25500000920E-02 0.  1.
       -2   -1    0    0    0  501  0.00000000000E+00  0.00000000000E+00 -0.71118662794E+03  0.71118662794E+03  0.25500000920E-02 0. -1.
    10030    2    1    2    0    0  0.00000000000E+00  0.00000000000E+00  0.14536508864E+04  0.28760241422E+04  0.24816151932E+04 0.  0.
        2    1    3    3  502    0 -0.50843978521E+03 -0.97719213870E+03  0.13887249818E+04  0.17725610191E+04  0.25500000920E-02 0. -1.
       -2    1    3    3    0  502  0.50843978521E+03  0.97719213870E+03  0.64925904511E+02  0.11034631232E+04  0.25500000920E-02 0.  1.
</event>
<event>
 5   0  0.6477703E-06  0.2484754E+04  0.7818609E-02  0.8408437E-01
        1   -1    0    0  501    0  0.00000000000E+00  0.00000000000E+00  0.10500828748E+04  0.10500828748E+04  0.50400001928E-02 0.  1.
       -1   -1    0    0    0  501  0.00000000000E+00  0.00000000000E+00 -0.14698842793E+04  0.14698842793E+04  0.50400001928E-02 0. -1.
    10030    2    1    2    0    0  0.00000000000E+00  0.00000000000E+00 -0.41980140452E+03  0.25199671541E+04  0.24847537581E+04 0.  0.
        5    1    3    3  502    0  0.83350761991E+03 -0.48463320243E+03  0.58470397616E+03  0.11276103596E+04  0.46999998093E+01 0.  1.
       -5    1    3    3    0  502 -0.83350761991E+03  0.48463320243E+03 -0.10045053807E+04  0.13923567945E+04  0.46999998093E+01 0. -1.
</event>
<event>
 5   0  0.6346420E-06  0.2493025E+04  0.7818609E-02  0.8405475E-01
        1   -1    0    0  501    0  0.00000000000E+00  0.00000000000E+00  0.29325042323E+04  0.29325042323E+04  0.50400001928E-02 0.  1.
       -1   -1    0    0    0  501  0.00000000000E+00  0.00000000000E+00 -0.52985220403E+03  0.52985220405E+03  0.50400001928E-02 0. -1.
    10030    2    1    2    0    0  0.00000000000E+00  0.00000000000E+00  0.24026520283E+04  0.34623564364E+04  0.24930253355E+04 0.  0.
        4    1    3    3  502    0 -0.39041240278E+03  0.45896458837E+03 -0.31415412724E+03  0.67953275579E+03  0.12699999809E+01 0. -1.
       -4    1    3    3    0  502  0.39041240278E+03 -0.45896458837E+03  0.27168061555E+04  0.27828236806E+04  0.12699999809E+01 0.  1.
</event>
<event>
 5   0  0.6104486E-06  0.2483829E+04  0.7818609E-02  0.8408769E-01
        1   -1    0    0  501    0  0.00000000000E+00  0.00000000000E+00  0.15141921633E+04  0.15141921633E+04  0.50400001928E-02 0.  1.
       -1   -1    0    0    0  501  0.00000000000E+00  0.00000000000E+00 -0.10185970509E+04  0.10185970509E+04  0.50400001928E-02 0. -1.
    10030    2    1    2    0    0  0.00000000000E+00  0.00000000000E+00  0.49559511244E+03  0.25327892142E+04  0.24838290376E+04 0.  0.
        2    1    3    3  502    0 -0.27766795784E+03  0.79009396872E+03  0.11829368386E+04  0.14493748785E+04  0.25500000920E-02 0.  1.
       -2    1    3    3    0  502  0.27766795784E+03 -0.79009396872E+03 -0.68734172619E+03  0.10834143357E+04  0.25500000920E-02 0. -1.
</event>
<event>
 5   0  0.6477703E-06  0.2492424E+04  0.7818609E-02  0.8405690E-01
       -1   -1    0    0    0  501  0.00000000000E+00  0.00000000000E+00  0.19828835465E+04  0.19828835465E+04  0.50400001928E-02 0.  1.
        1   -1    0    0  501    0  0.00000000000E+00  0.00000000000E+00 -0.78322490400E+03  0.78322490402E+03  0.50400001928E-02 0. -1.
    10030    2    1    2    0    0  0.00000000000E+00  0.00000000000E+00  0.11996586425E+04  0.27661084505E+04  0.24924235397E+04 0.  0.
        5    1    3    3  502    0 -0.10478565285E+04 -0.10713545573E+03 -0.13928895106E+03  0.10624993233E+04  0.46999998093E+01 0. -1.
       -5    1    3    3    0  502  0.10478565285E+04  0.10713545573E+03  0.13389475935E+04  0.17036091272E+04  0.46999998093E+01 0.  1.
</event>
<event>
 5   0  0.6290861E-06  0.2499121E+04  0.7818609E-02  0.8403299E-01
        1   -1    0    0  501    0  0.00000000000E+00  0.00000000000E+00  0.11413342851E+04  0.11413342851E+04  0.50400001928E-02 0.  1.
       -1   -1    0    0    0  501  0.00000000000E+00  0.00000000000E+00 -0.13680491223E+04  0.13680491223E+04  0.50400001928E-02 0. -1.
    10030    2    1    2    0    0  0.00000000000E+00  0.00000000000E+00 -0.22671483719E+03  0.25093834074E+04  0.24991209391E+04 0.  0.
        1    1    3    3  502    0 -0.73580145454E+03 -0.44119440998E+02  0.89977107375E+03  0.11631587556E+04  0.50400001928E-02 0.  1.
       -1    1    3    3    0  502  0.73580145454E+03  0.44119440998E+02 -0.11264859109E+04  0.13462246518E+04  0.50400001928E-02 0. -1.
</event>
<event>
 5   0  0.1501947E-05  0.2477985E+04  0.7818609E-02  0.8410871E-01
       -2   -1    0    0    0  501  0.00000000000E+00  0.00000000000E+00  0.82615916024E+03  0.82615916024E+03  0.25500000920E-02 0.  1.
        2   -1    0    0  501    0  0.00000000000E+00  0.00000000000E+00 -0.18581188155E+04  0.18581188155E+04  0.25500000920E-02 0. -1.
    10030    2    1    2    0    0  0.00000000000E+00  0.00000000000E+00 -0.10319596553E+04  0.26842779758E+04  0.24779845684E+04 0.  0.
        3    1    3    3  502    0 -0.64350835249E+03 -0.61943579298E+03 -0.14461244257E+04  0.16997292626E+04  0.10100000352E+00 0. -1.
       -3    1    3    3    0  502  0.64350835249E+03  0.61943579298E+03  0.41416477040E+03  0.98454871317E+03  0.10100000352E+00 0.  1.
</event>
<event>
 5   0  0.1501947E-05  0.2493007E+04  0.7818609E-02  0.8405481E-01
       -2   -1    0    0    0  501  0.00000000000E+00  0.00000000000E+00  0.10093597857E+04  0.10093597857E+04  0.25500000920E-02 0. -1.
        2   -1    0    0  501    0  0.00000000000E+00  0.00000000000E+00 -0.15393631028E+04  0.15393631028E+04  0.25500000920E-02 0.  1.
    10030    2    1    2    0    0  0.00000000000E+00  0.00000000000E+00 -0.53000331718E+03  0.25487228885E+04  0.24930071894E+04 0.  0.
        3    1    3    3  502    0 -0.86803131866E+03  0.39086407356E+03  0.55766717945E+03  0.11032886238E+04  0.10100000352E+00 0. -1.
       -3    1    3    3    0  502  0.86803131866E+03 -0.39086407356E+03 -0.10876704966E+04  0.14454342647E+04  0.10100000352E+00 0.  1.
</event>
<event>
 5   0  0.6477703E-06  0.2502782E+04  0.7818609E-02  0.8401995E-01
       -1   -1    0    0    0  501  0.00000000000E+00  0.00000000000E+00  0.68408605359E+03  0.68408605361E+03  0.50400001928E-02 0. -1.
        1   -1    0    0  501    0  0.00000000000E+00  0.00000000000E+00 -0.22891554092E+04  0.22891554092E+04  0.50400001928E-02 0.  1.
    10030    2    1    2    0    0  0.00000000000E+00  0.00000000000E+00 -0.16050693556E+04  0.29732414628E+04  0.25027818842E+04 0.  0.
        5    1    3    3  502    0 -0.99099217000E+03  0.68217482381E+03 -0.12115314749E+04  0.17074128312E+04  0.46999998093E+01 0.  1.
       -5    1    3    3    0  502  0.99099217000E+03 -0.68217482381E+03 -0.39353788070E+03  0.12658286317E+04  0.46999998093E+01 0. -1.
</event>
<event>
 5   0  0.6105353E-06  0.2495251E+04  0.7818609E-02  0.8404679E-01
       -1   -1    0    0    0  501  0.00000000000E+00  0.00000000000E+00  0.74156936938E+03  0.74156936940E+03  0.50400001928E-02 0.  1.
        1   -1    0    0  501    0  0.00000000000E+00  0.00000000000E+00 -0.20990209175E+04  0.20990209175E+04  0.50400001928E-02 0. -1.
    10030    2    1    2    0    0  0.00000000000E+00  0.00000000000E+00 -0.13574515481E+04  0.28405902869E+04  0.24952511843E+04 0.  0.
        3    1    3    3  502    0 -0.53830364445E+03  0.65946346270E+03  0.35959524972E+03  0.92410585221E+03  0.10100000352E+00 0.  1.
       -3    1    3    3    0  502  0.53830364445E+03 -0.65946346270E+03 -0.17170467978E+04  0.19164844347E+04  0.10100000352E+00 0. -1.
</event>
<event>
 5   0  0.6105353E-06  0.2498712E+04  0.7818609E-02  0.8403445E-01
        1   -1    0    0  501    0  0.00000000000E+00  0.00000000000E+00  0.13530668547E+04  0.13530668547E+04  0.50400001928E-02 0. -1.
       -1   -1    0    0    0  501  0.00000000000E+00  0.00000000000E+00 -0.11535944412E+04  0.11535944412E+04  0.50400001928E-02 0.  1.
    10030    2    1    2    0    0  0.00000000000E+00  0.00000000000E+00  0.19947241356E+03  0.25066612959E+04  0.24987119899E+04 0.  0.
        3    1    3    3  502    0 -0.15416869189E+03 -0.28703081896E+03  0.13096975777E+04  0.13496156608E+04  0.10100000352E+00 0. -1.
       -3    1    3    3    0  502  0.15416869189E+03  0.28703081896E+03 -0.11102251641E+04  0.11570456352E+04  0.10100000352E+00 0.  1.
</event>
<event>
 5   0  0.1526824E-05  0.2495576E+04  0.7818609E-02  0.8404563E-01
       -2   -1    0    0    0  501  0.00000000000E+00  0.00000000000E+00  0.94532432737E+03  0.94532432737E+03  0.25500000920E-02 0.  1.
        2   -1    0    0  501    0  0.00000000000E+00  0.00000000000E+00 -0.16470266989E+04  0.16470266989E+04  0.25500000920E-02 0. -1.
    10030    2    1    2    0    0  0.00000000000E+00  0.00000000000E+00 -0.70170237152E+03  0.25923510263E+04  0.24955756100E+04 0.  0.
        2    1    3    3  502    0 -0.86920082696E+03 -0.88045670172E+03 -0.51918568249E+03  0.13417406061E+04  0.25500000920E-02 0. -1.
       -2    1    3    3    0  502  0.86920082696E+03  0.88045670172E+03 -0.18251668903E+03  0.12506104201E+04  0.25500000920E-02 0.  1.
</event>
<event>
 5   0  0.1526824E-05  0.2502692E+04  0.7818609E-02  0.8402027E-01
       -2   -1    0    0    0  501  0.00000000000E+00  0.00000000000E+00  0.14056112496E+04  0.14056112496E+04  0.25500000920E-02 0. -1.
        2   -1    0    0  501    0  0.00000000000E+00  0.00000000000E+00 -0.11140108839E+04  0.11140108839E+04  0.25500000920E-02 0.  1.
    10030    2    1    2    0    0  0.00000000000E+00  0.00000000000E+00  0.29160036574E+03  0.25196221335E+04  0.25026915356E+04 0.  0.
        2    1    3    3  502    0  0.48243637906E+02  0.11055370180E+04 -0.44238382267E+03  0.11917394822E+04  0.25500000920E-02 0.  1.
       -2    1    3    3    0  502 -0.48243637906E+02 -0.11055370180E+04  0.73398418840E+03  0.13278826513E+04  0.25500000920E-02 0. -1.
</event>
<event>
 5   0  0.6346420E-06  0.2532001E+04  0.7818609E-02  0.8391673E-01
       -1   -1    0    0    0  501  0.00000000000E+00  0.00000000000E+00  0.12572905567E+04  0.12572905567E+04  0.50400001928E-02 0.  1.
        1   -1    0    0  501    0  0.00000000000E+00  0.00000000000E+00 -0.12747702967E+04  0.12747702967E+04  0.50400001928E-02 0. -1.
    10030    2    1    2    0    0  0.00000000000E+00  0.00000000000E+00 -0.17479740027E+02  0.25320608534E+04  0.25320005181E+04 0.  0.
        4    1    3    3  502    0  0.95354266985E+03  0.11710684265E+03  0.81577805309E+03  0.12603384786E+04  0.12699999809E+01 0.  1.
       -4    1    3    3    0  502 -0.95354266985E+03 -0.11710684265E+03 -0.83325779312E+03  0.12717223748E+04  0.12699999809E+01 0. -1.
</event>
<event>
 5   0  0.1572732E-05  0.2508552E+04  0.7818609E-02  0.8399945E-01
        2   -1    0    0  501    0  0.00000000000E+00  0.00000000000E+00  0.25147920381E+04  0.25147920381E+04  0.25500000920E-02 0. -1.
       -2   -1    0    0    0  501  0.00000000000E+00  0.00000000000E+00 -0.62558172058E+03  0.62558172059E+03  0.25500000920E-02 0.  1.
    10030    2    1    2    0    0  0.00000000000E+00  0.00000000000E+00  0.18892103176E+04  0.31403737587E+04  0.25085517177E+04 0.  0.
        1    1    3    3  502    0 -0.95609877079E+03 -0.80240477247E+03  0.79011412947E+03  0.14772469719E+04  0.50400001928E-02 0. -1.
       -1    1    3    3    0  502  0.95609877079E+03  0.80240477247E+03  0.10990961881E+04  0.16631267868E+04  0.50400001928E-02 0.  1.
</event>
<event>
 5   0  0.1550483E-05  0.2510742E+04  0.7818609E-02  0.8399169E-01
       -2   -1    0    0    0  501  0.00000000000E+00  0.00000000000E+00  0.25265770135E+04  0.25265770135E+04  0.25500000920E-02 0.  1.
        2   -1    0    0  501    0  0.00000000000E+00  0.00000000000E+00 -0.62375146017E+03  0.62375146018E+03  0.25500000920E-02 0. -1.
    10030    2    1    2    0    0  0.00000000000E+00  0.00000000000E+00  0.19028255533E+04  0.31503284736E+04  0.25107418039E+04 0.  0.
        5    1    3    3  502    0  0.88487586481E+03 -0.40606980736E+02  0.20675531587E+04  0.22493226485E+04  0.46999998093E+01 0.  1.
       -5    1    3    3    0  502 -0.88487586481E+03  0.40606980736E+02 -0.16472760538E+03  0.90100582517E+03  0.46999998093E+01 0. -1.
</event>
<event>
 5   0  0.1550483E-05  0.2532749E+04  0.7818609E-02  0.8391411E-01
        2   -1    0    0  501    0  0.00000000000E+00  0.00000000000E+00  0.13261277492E+04  0.13261277492E+04  0.25500000920E-02 0.  1.
       -2   -1    0    0    0  501  0.00000000000E+00  0.00000000000E+00 -0.12093132777E+04  0.12093132777E+04  0.25500000920E-02 0. -1.
    10030    2    1    2    0    0  0.00000000000E+00  0.00000000000E+00  0.11681447152E+03  0.25354410269E+04  0.25327486216E+04 0.  0.
        5    1    3    3  502    0 -0.48806309952E+03 -0.10331676040E+04  0.60491882015E+03  0.12928997471E+04  0.46999998093E+01 0.  1.
       -5    1    3    3    0  502  0.48806309952E+03  0.10331676040E+04 -0.48810434863E+03  0.12425412799E+04  0.46999998093E+01 0. -1.
</event>
<event>
 5   0  0.1526824E-05  0.2508285E+04  0.7818609E-02  0.8400040E-01
        2   -1    0    0  501    0  0.00000000000E+00  0.00000000000E+00  0.29752312425E+04  0.29752312425E+04  0.25500000920E-02 0.  1.
       -2   -1    0    0    0  501  0.00000000000E+00  0.00000000000E+00 -0.52865589535E+03  0.52865589535E+03  0.25500000920E-02 0. -1.
    10030    2    1    2    0    0  0.00000000000E+00  0.00000000000E+00  0.24465753471E+04  0.35038871378E+04  0.25082851005E+04 0.  0.
        2    1    3    3  502    0  0.15668394484E+03  0.69617502365E+03  0.26639939351E+04  0.27579110226E+04  0.25500000920E-02 0.  1.
       -2    1    3    3    0  502 -0.15668394484E+03 -0.69617502365E+03 -0.21741858798E+03  0.74597611525E+03  0.25500000920E-02 0. -1.
</event>
<event>
 5   0  0.6477703E-06  0.2503650E+04  0.7818609E-02  0.8401686E-01
       -1   -1    0    0    0  501  0.00000000000E+00  0.00000000000E+00  0.17055118064E+04  0.17055118064E+04  0.50400001928E-02 0. -1.
        1   -1    0    0  501    0  0.00000000000E+00  0.00000000000E+00 -0.91882442008E+03  0.91882442009E+03  0.50400001928E-02 0.  1.
    10030    2    1    2    0    0  0.00000000000E+00  0.00000000000E+00  0.78668738629E+03  0.26243362265E+04  0.25036500526E+04 0.  0.
        5    1    3    3  502    0 -0.41758332645E+03  0.66728617391E+03  0.14136060972E+04  0.16180083314E+04  0.46999998093E+01 0. -1.
       -5    1    3    3    0  502  0.41758332645E+03 -0.66728617391E+03 -0.62691871087E+03  0.10063278951E+04  0.46999998093E+01 0.  1.
</event>
<event>
 5   0  0.1501947E-05  0.2501369E+04  0.7818609E-02  0.8402498E-01
       -2   -1    0    0    0  501  0.00000000000E+00  0.00000000000E+00  0.17622772178E+04  0.17622772178E+04  0.25500000920E-02 0. -1.
        2   -1    0    0  501    0  0.00000000000E+00  0.00000000000E+00 -0.88760796582E+03  0.88760796582E+03  0.25500000920E-02 0.  1.
    10030    2    1    2    0    0  0.00000000000E+00  0.00000000000E+00  0.87466925198E+03  0.26498851836E+04  0.25013686626E+04 0.  0.
        3    1    3    3  502    0  0.43240393859E+03 -0.32629495594E+03 -0.75688108795E+03  0.93075805443E+03  0.10100000352E+00 0.  1.
       -3    1    3    3    0  502 -0.43240393859E+03  0.32629495594E+03  0.16315503399E+04  0.17191271292E+04  0.10100000352E+00 0. -1.
</event>
<event>
 5   0  0.6105353E-06  0.2523331E+04  0.7818609E-02  0.8394721E-01
       -1   -1    0    0    0  501  0.00000000000E+00  0.00000000000E+00  0.12794410787E+04  0.12794410788E+04  0.50400001928E-02 0. -1.
        1   -1    0    0  501    0  0.00000000000E+00  0.00000000000E+00 -0.12441368319E+04  0.12441368319E+04  0.50400001928E-02 0.  1.
    10030    2    1    2    0    0  0.00000000000E+00  0.00000000000E+00  0.35304246885E+02  0.25235779106E+04  0.25233309496E+04 0.  0.
        3    1    3    3  502    0  0.86028858392E+03  0.85445181834E+03  0.36642025419E+03  0.12666681374E+04  0.10100000352E+00 0. -1.
       -3    1    3    3    0  502 -0.86028858392E+03 -0.85445181834E+03 -0.33111600730E+03  0.12569097732E+04  0.10100000352E+00 0.  1.
</event>
<event>
 5   0  0.1468512E-05  0.2677111E+04  0.7818609E-02  0.8342470E-01
        2   -1    0    0  501    0  0.00000000000E+00  0.00000000000E+00  0.10332211822E+04  0.10332211822E+04  0.25500000920E-02 0.  1.
       -2   -1    0    0    0  501  0.00000000000E+00  0.00000000000E+00 -0.17341211811E+04  0.17341211811E+04  0.25500000920E-02 0. -1.
    10030    2    1    2    0    0  0.00000000000E+00  0.00000000000E+00 -0.70089999888E+03  0.27673423634E+04  0.26771109330E+04 0.  0.
        4    1    3    3  502    0  0.12920728193E+04  0.34763467827E+03 -0.38950002304E+03  0.13935615956E+04  0.12699999809E+01 0.  1.
       -4    1    3    3    0  502 -0.12920728193E+04 -0.34763467827E+03 -0.31139997584E+03  0.13737807677E+04  0.12699999809E+01 0. -1.
</event>
<event>
 5   0  0.6104486E-06  0.2527534E+04  0.7818609E-02  0.8393241E-01
       -1   -1    0    0    0  501  0.00000000000E+00  0.00000000000E+00  0.95040906275E+03  0.95040906276E+03  0.50400001928E-02 0. -1.
        1   -1    0    0  501    0  0.00000000000E+00  0.00000000000E+00 -0.16804423688E+04  0.16804423688E+04  0.50400001928E-02 0.  1.
    10030    2    1    2    0    0  0.00000000000E+00  0.00000000000E+00 -0.73003330606E+03  0.26308514316E+04  0.25275344957E+04 0.  0.
        2    1    3    3  502    0  0.10733224085E+04  0.65912302943E+03 -0.47240110017E+03  0.13452237584E+04  0.25500000920E-02 0.  1.
       -2    1    3    3    0  502 -0.10733224085E+04 -0.65912302943E+03 -0.25763220590E+03  0.12856276732E+04  0.25500000920E-02 0. -1.
</event>
<event>
 5   0  0.6290861E-06  0.2527267E+04  0.7818609E-02  0.8393335E-01
        1   -1    0    0  501    0  0.00000000000E+00  0.00000000000E+00  0.12426589544E+04  0.12426589544E+04  0.50400001928E-02 0.  1.
       -1   -1    0    0    0  501  0.00000000000E+00  0.00000000000E+00 -0.12849624809E+04  0.12849624809E+04  0.50400001928E-02 0. -1.
    10030    2    1    2    0    0  0.00000000000E+00  0.00000000000E+00 -0.42303526489E+02  0.25276214353E+04  0.25272674041E+04 0.  0.
        1    1    3    3  502    0 -0.38848048677E+03  0.49648469676E+03 -0.11164563037E+04  0.12821422779E+04  0.50400001928E-02 0. -1.
       -1    1    3    3    0  502  0.38848048677E+03 -0.49648469676E+03  0.10741527772E+04  0.12454791574E+04  0.50400001928E-02 0.  1.
</event>
<event>
 5   0  0.1550483E-05  0.2522683E+04  0.7818609E-02  0.8394949E-01
        2   -1    0    0  501    0  0.00000000000E+00  0.00000000000E+00  0.14441243783E+04  0.14441243783E+04  0.25500000920E-02 0.  1.
       -2   -1    0    0    0  501  0.00000000000E+00  0.00000000000E+00 -0.11016930961E+04  0.11016930961E+04  0.25500000920E-02 0. -1.
    10030    2    1    2    0    0  0.00000000000E+00  0.00000000000E+00  0.34243128216E+03  0.25458174744E+04  0.25226825860E+04 0.  0.
        5    1    3    3  502    0  0.38845104028E+03 -0.11929392956E+04  0.30264591777E+03  0.12905870816E+04  0.46999998093E+01 0.  1.
       -5    1    3    3    0  502 -0.38845104028E+03  0.11929392956E+04  0.39785364391E+02  0.12552303928E+04  0.46999998093E+01 0. -1.
</event>
<event>
 5   0  0.6477703E-06  0.2411575E+04  0.7818609E-02  0.8435183E-01
        1   -1    0    0  501    0  0.00000000000E+00  0.00000000000E+00  0.18597008071E+04  0.18597008071E+04  0.50400001928E-02 0.  1.
       -1   -1    0    0    0  501  0.00000000000E+00  0.00000000000E+00 -0.78180525289E+03  0.78180525291E+03  0.50400001928E-02 0. -1.
    10030    2    1    2    0    0  0.00000000000E+00  0.00000000000E+00  0.10778955542E+04  0.26415060600E+04  0.24115753024E+04 0.  0.
        5    1    3    3  502    0 -0.10601226849E+04 -0.50158339598E+03  0.23214223523E+03  0.11955576596E+04  0.46999998093E+01 0. -1.
       -5    1    3    3    0  502  0.10601226849E+04  0.50158339598E+03  0.84575331900E+03  0.14459484004E+04  0.46999998093E+01 0.  1.
</event>
<event>
 5   0  0.1501947E-05  0.2533175E+04  0.7818609E-02  0.8391261E-01
       -2   -1    0    0    0  501  0.00000000000E+00  0.00000000000E+00  0.82809202786E+03  0.82809202786E+03  0.25500000920E-02 0.  1.
        2   -1    0    0  501    0  0.00000000000E+00  0.00000000000E+00 -0.19372767187E+04  0.19372767187E+04  0.25500000920E-02 0. -1.
    10030    2    1    2    0    0  0.00000000000E+00  0.00000000000E+00 -0.11091846909E+04  0.27653687466E+04  0.25331746142E+04 0.  0.
        3    1    3    3  502    0 -0.35519443184E+03 -0.33917014009E+03 -0.18291011773E+04  0.18938876935E+04  0.10100000352E+00 0. -1.
       -3    1    3    3    0  502  0.35519443184E+03  0.33917014009E+03  0.71991648644E+03  0.87148105315E+03  0.10100000352E+00 0.  1.
</event>
<event>
 5   0  0.1572732E-05  0.2506183E+04  0.7818609E-02  0.8400786E-01
        2   -1    0    0  501    0  0.00000000000E+00  0.00000000000E+00  0.16458023026E+04  0.16458023026E+04  0.25500000920E-02 0. -1.
       -2   -1    0    0    0  501  0.00000000000E+00  0.00000000000E+00 -0.95408693978E+03  0.95408693978E+03  0.25500000920E-02 0.  1.
    10030    2    1    2    0    0  0.00000000000E+00  0.00000000000E+00  0.69171536280E+03  0.25998892424E+04  0.25061831396E+04 0.  0.
        1    1    3    3  502    0  0.80986706821E+02  0.80442258255E+03  0.13390381397E+04  0.15641859472E+04  0.50400001928E-02 0. -1.
       -1    1    3    3    0  502 -0.80986706821E+02 -0.80442258255E+03 -0.64732277689E+03  0.10357032951E+04  0.50400001928E-02 0.  1.
</event>
<event>
 5   0  0.6104486E-06  0.2540312E+04  0.7818609E-02  0.8388763E-01
        1   -1    0    0  501    0  0.00000000000E+00  0.00000000000E+00  0.17902363761E+04  0.17902363761E+04  0.50400001928E-02 0.  1.
       -1   -1    0    0    0  501  0.00000000000E+00  0.00000000000E+00 -0.90116374819E+03  0.90116374820E+03  0.50400001928E-02 0. -1.
    10030    2    1    2    0    0  0.00000000000E+00  0.00000000000E+00  0.88907262794E+03  0.26914001243E+04  0.25403118886E+04 0.  0.
        2    1    3    3  502    0 -0.17699313371E+03 -0.46321390014E+02 -0.88713046276E+03  0.90579948030E+03  0.25500000920E-02 0. -1.
       -2    1    3    3    0  502  0.17699313371E+03  0.46321390014E+02  0.17762030907E+04  0.17856006440E+04  0.25500000920E-02 0.  1.
</event>
<event>
 5   0  0.6104486E-06  0.2512579E+04  0.7818609E-02  0.8398518E-01
       -1   -1    0    0    0  501  0.00000000000E+00  0.00000000000E+00  0.11106219895E+04  0.11106219895E+04  0.50400001928E-02 0.  1.
        1   -1    0    0  501    0  0.00000000000E+00  0.00000000000E+00 -0.14210629516E+04  0.14210629516E+04  0.50400001928E-02 0. -1.
    10030    2    1    2    0    0  0.00000000000E+00  0.00000000000E+00 -0.31044096207E+03  0.25316849411E+04  0.25125793619E+04 0.  0.
        2    1    3    3  502    0 -0.96627960935E+03 -0.61052058250E+03 -0.68056020089E+03  0.13302608211E+04  0.25500000920E-02 0. -1.
       -2    1    3    3    0  502  0.96627960935E+03  0.61052058250E+03  0.37011923882E+03  0.12014241200E+04  0.25500000920E-02 0.  1.
</event>
<event>
 5   0  0.1501947E-05  0.2535876E+04  0.7818609E-02  0.8390315E-01
       -2   -1    0    0    0  501  0.00000000000E+00  0.00000000000E+00  0.56564572767E+03  0.56564572768E+03  0.25500000920E-02 0.  1.
        2   -1    0    0  501    0  0.00000000000E+00  0.00000000000E+00 -0.28421791720E+04  0.28421791720E+04  0.25500000920E-02 0. -1.
    10030    2    1    2    0    0  0.00000000000E+00  0.00000000000E+00 -0.22765334443E+04  0.34078248996E+04  0.25358757903E+04 0.  0.
        3    1    3    3  502    0  0.61376263213E+03  0.41549270557E+03 -0.25207483986E+04  0.26274533785E+04  0.10100000352E+00 0. -1.
       -3    1    3    3    0  502 -0.61376263213E+03 -0.41549270557E+03  0.24421495427E+03  0.78037152118E+03  0.10100000352E+00 0.  1.
</event>
<event>
 5   0  0.1501947E-05  0.2509915E+04  0.7818609E-02  0.8399462E-01
        2   -1    0    0  501    0  0.00000000000E+00  0.00000000000E+00  0.17055702571E+04  0.17055702571E+04  0.25500000920E-02 0.  1.
       -2   -1    0    0    0  501  0.00000000000E+00  0.00000000000E+00 -0.92339719958E+03  0.92339719959E+03  0.25500000920E-02 0. -1.
    10030    2    1    2    0    0  0.00000000000E+00  0.00000000000E+00  0.78217305749E+03  0.26289674567E+04  0.25099153763E+04 0.  0.
        3    1    3    3  502    0 -0.86384476215E+03  0.42620497903E+03  0.12336290094E+04  0.15651578196E+04  0.10100000352E+00 0.  1.
       -3    1    3    3    0  502  0.86384476215E+03 -0.42620497903E+03 -0.45145595189E+03  0.10638096371E+04  0.10100000352E+00 0. -1.
</event>
<event>
 5   0  0.6346420E-06  0.2496292E+04  0.7818609E-02  0.8404308E-01
       -1   -1    0    0    0  501  0.00000000000E+00  0.00000000000E+00  0.66368030642E+03  0.66368030644E+03  0.50400001928E-02 0. -1.
        1   -1    0    0  501    0  0.00000000000E+00  0.00000000000E+00 -0.23473166233E+04  0.23473166233E+04  0.50400001928E-02 0.  1.
    10030    2    1    2    0    0  0.00000000000E+00  0.00000000000E+00 -0.16836363169E+04  0.30109969297E+04  0.24962915021E+04 0.  0.
        4    1    3    3  502    0 -0.44519484118E+03 -0.10382483810E+04 -0.20161966557E+03  0.11475235291E+04  0.12699999809E+01 0. -1.
       -4    1    3    3    0  502  0.44519484118E+03  0.10382483810E+04 -0.14820166513E+04  0.18634734007E+04  0.12699999809E+01 0.  1.
</event>
<event>
 5   0  0.6346420E-06  0.2493291E+04  0.7818609E-02  0.8405379E-01
       -1   -1    0    0    0  501  0.00000000000E+00  0.00000000000E+00  0.61695890460E+03  0.61695890462E+03  0.50400001928E-02 0.  1.
        1   -1    0    0  501    0  0.00000000000E+00  0.00000000000E+00 -0.25190093044E+04  0.25190093044E+04  0.50400001928E-02 0. -1.
    10030    2    1    2    0    0  0.00000000000E+00  0.00000000000E+00 -0.19020503998E+04  0.31359682090E+04  0.24932911753E+04 0.  0.
        4    1    3    3  502    0 -0.11135161444E+03  0.84336697266E+03  0.19516612095E+03  0.87278775214E+03  0.12699999809E+01 0.  1.
       -4    1    3    3    0  502  0.11135161444E+03 -0.84336697266E+03 -0.20972165207E+04  0.22631804569E+04  0.12699999809E+01 0. -1.
</event>
<event>
 5   0  0.6290861E-06  0.2464597E+04  0.7818609E-02  0.8415708E-01
       -1   -1    0    0    0  501  0.00000000000E+00  0.00000000000E+00  0.78021061320E+03  0.78021061321E+03  0.50400001928E-02 0. -1.
        1   -1    0    0  501    0  0.00000000000E+00  0.00000000000E+00 -0.19463452461E+04  0.19463452461E+04  0.50400001928E-02 0.  1.
    10030    2    1    2    0    0  0.00000000000E+00  0.00000000000E+00 -0.11661346329E+04  0.27265558593E+04  0.24645966956E+04 0.  0.
        1    1    3    3  502    0 -0.66355421349E+03 -0.76614388777E+03  0.19234455636E+03  0.10316380564E+04  0.50400001928E-02 0. -1.
       -1    1    3    3    0  502  0.66355421349E+03  0.76614388777E+03 -0.13584791893E+04  0.16949178029E+04  0.50400001928E-02 0.  1.
</event>
<event>
 5   0  0.6290861E-06  0.2504997E+04  0.7818609E-02  0.8401208E-01
        1   -1    0    0  501    0  0.00000000000E+00  0.00000000000E+00  0.15947173616E+04  0.15947173616E+04  0.50400001928E-02 0.  1.
       -1   -1    0    0    0  501  0.00000000000E+00  0.00000000000E+00 -0.98371784147E+03  0.98371784148E+03  0.50400001928E-02 0. -1.
    10030    2    1    2    0    0  0.00000000000E+00  0.00000000000E+00  0.61099952017E+03  0.25784352031E+04  0.25049965435E+04 0.  0.
        1    1    3    3  502    0  0.18442637733E+03 -0.98322077653E+02  0.15766421682E+04  0.15904341691E+04  0.50400001928E-02 0.  1.
       -1    1    3    3    0  502 -0.18442637733E+03  0.98322077653E+02 -0.96564264802E+03  0.98800103406E+03  0.50400001928E-02 0. -1.
</event>
<event>
 5   0  0.6104486E-06  0.2503054E+04  0.7818609E-02  0.8401898E-01
       -1   -1    0    0    0  501  0.00000000000E+00  0.00000000000E+00  0.95002569411E+03  0.95002569413E+03  0.50400001928E-02 0.  1.
        1   -1    0    0  501    0  0.00000000000E+00  0.00000000000E+00 -0.16487130846E+04  0.16487130846E+04  0.50400001928E-02 0. -1.
    10030    2    1    2    0    0  0.00000000000E+00  0.00000000000E+00 -0.69868739053E+03  0.25987387788E+04  0.25030539688E+04 0.  0.
        2    1    3    3  502    0  0.22283497729E+03  0.10986203164E+04  0.22843490136E+03  0.11440299519E+04  0.25500000920E-02 0.  1.
       -2    1    3    3    0  502 -0.22283497729E+03 -0.10986203164E+04 -0.92712229189E+03  0.14547088268E+04  0.25500000920E-02 0. -1.
</event>
<event>
 5   0  0.6477703E-06  0.2462063E+04  0.7818609E-02  0.8416627E-01
        1   -1    0    0  501    0  0.00000000000E+00  0.00000000000E+00  0.15359595446E+04  0.15359595446E+04  0.50400001928E-02 0.  1.
       -1   -1    0    0    0  501  0.00000000000E+00  0.00000000000E+00 -0.98663958716E+03  0.98663958717E+03  0.50400001928E-02 0. -1.
    10030    2    1    2    0    0  0.00000000000E+00  0.00000000000E+00  0.54931995747E+03  0.25225991318E+04  0.24620629489E+04 0.  0.
        5    1    3    3  502    0 -0.44337513290E+03 -0.16485300238E+03  0.14391155480E+04  0.15148708431E+04  0.46999998093E+01 0.  1.
       -5    1    3    3    0  502  0.44337513290E+03  0.16485300238E+03 -0.88979559054E+03  0.10077282887E+04  0.46999998093E+01 0. -1.
</event>
<event>
 5   0  0.6104486E-06  0.2543978E+04  0.7818609E-02  0.8387483E-01
        1   -1    0    0  501    0  0.00000000000E+00  0.00000000000E+00  0.24994796780E+04  0.24994796780E+04  0.50400001928E-02 0. -1.
       -1   -1    0    0    0  501  0.00000000000E+00  0.00000000000E+00 -0.64731720496E+03  0.64731720498E+03  0.50400001928E-02 0.  1.
    10030    2    1    2    0    0  0.00000000000E+00  0.00000000000E+00  0.18521624730E+04  0.31467968829E+04  0.25439781438E+04 0.  0.
        2    1    3    3  502    0  0.10194915499E+04 -0.56095726093E+02  0.18644159698E+04  0.21256896902E+04  0.25500000920E-02 0. -1.
       -2    1    3    3    0  502 -0.10194915499E+04  0.56095726093E+02 -0.12253496794E+02  0.10211071927E+04  0.25500000920E-02 0.  1.
</event>
<event>
 5   0  0.1572732E-05  0.2448848E+04  0.7818609E-02  0.8421439E-01
        2   -1    0    0  501    0  0.00000000000E+00  0.00000000000E+00  0.21831786174E+04  0.21831786174E+04  0.25500000920E-02 0. -1.
       -2   -1    0    0    0  501  0.00000000000E+00  0.00000000000E+00 -0.68671172925E+03  0.68671172925E+03  0.25500000920E-02 0.  1.
    10030    2    1    2    0    0  0.00000000000E+00  0.00000000000E+00  0.14964668881E+04  0.28698903466E+04  0.24488481893E+04 0.  0.
        1    1    3    3  502    0 -0.49241547178E+03  0.63514175976E+03 -0.33435541579E+03  0.87044333298E+03  0.50400001928E-02 0.  1.
       -1    1    3    3    0  502  0.49241547178E+03 -0.63514175976E+03  0.18308223039E+04  0.19994470136E+04  0.50400001928E-02 0. -1.
</event>
<event>
 5   0  0.1572732E-05  0.2409249E+04  0.7818609E-02  0.8436049E-01
       -2   -1    0    0    0  501  0.00000000000E+00  0.00000000000E+00  0.10160394412E+04  0.10160394412E+04  0.25500000920E-02 0.  1.
        2   -1    0    0  501    0  0.00000000000E+00  0.00000000000E+00 -0.14282119987E+04  0.14282119987E+04  0.25500000920E-02 0. -1.
    10030    2    1    2    0    0  0.00000000000E+00  0.00000000000E+00 -0.41217255751E+03  0.24442514400E+04  0.24092486141E+04 0.  0.
        1    1    3    3  502    0  0.77611291098E+03 -0.46143429609E+03  0.60289883033E+03  0.10857070783E+04  0.50400001928E-02 0.  1.
       -1    1    3    3    0  502 -0.77611291098E+03  0.46143429609E+03 -0.10150713878E+04  0.13585443617E+04  0.50400001928E-02 0. -1.
</event>
<event>
 5   0  0.1526824E-05  0.2501211E+04  0.7818609E-02  0.8402554E-01
       -2   -1    0    0    0  501  0.00000000000E+00  0.00000000000E+00  0.96579005139E+03  0.96579005139E+03  0.25500000920E-02 0.  1.
        2   -1    0    0  501    0  0.00000000000E+00  0.00000000000E+00 -0.16194147775E+04  0.16194147775E+04  0.25500000920E-02 0. -1.
    10030    2    1    2    0    0  0.00000000000E+00  0.00000000000E+00 -0.65362472614E+03  0.25852048289E+04  0.25012114514E+04 0.  0.
        2    1    3    3  502    0  0.10312963465E+04  0.49636965587E+03 -0.84778202501E+03  0.14243206632E+04  0.25500000920E-02 0.  1.
       -2    1    3    3    0  502 -0.10312963465E+04 -0.49636965587E+03  0.19415729888E+03  0.11608841658E+04  0.25500000920E-02 0. -1.
</event>
<event>
 5   0  0.6346420E-06  0.2492732E+04  0.7818609E-02  0.8405579E-01
        1   -1    0    0  501    0  0.00000000000E+00  0.00000000000E+00  0.18326620076E+04  0.18326620076E+04  0.50400001928E-02 0.  1.
       -1   -1    0    0    0  501  0.00000000000E+00  0.00000000000E+00 -0.84763518695E+03  0.84763518696E+03  0.50400001928E-02 0. -1.
    10030    2    1    2    0    0  0.00000000000E+00  0.00000000000E+00  0.98502682064E+03  0.26802971946E+04  0.24927324794E+04 0.  0.
        4    1    3    3  502    0  0.94756153955E+03 -0.77539909069E+03  0.24193164897E+03  0.12480581544E+04  0.12699999809E+01 0.  1.
       -4    1    3    3    0  502 -0.94756153955E+03  0.77539909069E+03  0.74309517167E+03  0.14322390402E+04  0.12699999809E+01 0. -1.
</event>
<event>
 5   0  0.6346420E-06  0.2506055E+04  0.7818609E-02  0.8400832E-01
        1   -1    0    0  501    0  0.00000000000E+00  0.00000000000E+00  0.19919661656E+04  0.19919661656E+04  0.50400001928E-02 0.  1.
       -1   -1    0    0    0  501  0.00000000000E+00  0.00000000000E+00 -0.78820522880E+03  0.78820522882E+03  0.50400001928E-02 0. -1.
    10030    2    1    2    0    0  0.00000000000E+00  0.00000000000E+00  0.12037609368E+04  0.27801713945E+04  0.25060551848E+04 0.  0.
        4    1    3    3  502    0 -0.12394397359E+04  0.18472772462E+01  0.80602555442E+03  0.14784766074E+04  0.12699999809E+01 0.  1.
       -4    1    3    3    0  502  0.12394397359E+04 -0.18472772462E+01  0.39773538240E+03  0.13016947871E+04  0.12699999809E+01 0. -1.
</event>
<event>
 5   0  0.6290861E-06  0.2498191E+04  0.7818609E-02  0.8403630E-01
       -1   -1    0    0    0  501  0.00000000000E+00  0.00000000000E+00  0.14309058919E+04  0.14309058920E+04  0.50400001928E-02 0.  1.
        1   -1    0    0  501    0  0.00000000000E+00  0.00000000000E+00 -0.10903861577E+04  0.10903861577E+04  0.50400001928E-02 0. -1.
    10030    2    1    2    0    0  0.00000000000E+00  0.00000000000E+00  0.34051973426E+03  0.25212920497E+04  0.24981913278E+04 0.  0.
        1    1    3    3  502    0 -0.11395367532E+04  0.30086667108E+03  0.58781891143E+03  0.13170405606E+04  0.50400001928E-02 0. -1.
       -1    1    3    3    0  502  0.11395367532E+04 -0.30086667108E+03 -0.24729917718E+03  0.12042514890E+04  0.50400001928E-02 0.  1.
</event>
<event>
 5   0  0.6104486E-06  0.2491391E+04  0.7818609E-02  0.8406059E-01
        1   -1    0    0  501    0  0.00000000000E+00  0.00000000000E+00  0.11058062050E+04  0.11058062050E+04  0.50400001928E-02 0.  1.
       -1   -1    0    0    0  501  0.00000000000E+00  0.00000000000E+00 -0.14032815565E+04  0.14032815565E+04  0.50400001928E-02 0. -1.
    10030    2    1    2    0    0  0.00000000000E+00  0.00000000000E+00 -0.29747535151E+03  0.25090877616E+04  0.24913911396E+04 0.  0.
        2    1    3    3  502    0  0.11673372086E+04 -0.27570121214E+03  0.18990983931E+03  0.12143941140E+04  0.25500000920E-02 0.  1.
       -2    1    3    3    0  502 -0.11673372086E+04  0.27570121214E+03 -0.48738519081E+03  0.12946936476E+04  0.25500000920E-02 0. -1.
</event>
<event>
 5   0  0.6104486E-06  0.2501595E+04  0.7818609E-02  0.8402417E-01
       -1   -1    0    0    0  501  0.00000000000E+00  0.00000000000E+00  0.70189666433E+03  0.70189666434E+03  0.50400001928E-02 0. -1.
        1   -1    0    0  501    0  0.00000000000E+00  0.00000000000E+00 -0.22289530426E+04  0.22289530426E+04  0.50400001928E-02 0.  1.
    10030    2    1    2    0    0  0.00000000000E+00  0.00000000000E+00 -0.15270563783E+04  0.29308497069E+04  0.25015952555E+04 0.  0.
        2    1    3    3  502    0  0.72160806143E+03 -0.61300707310E+03  0.19402819913E+03  0.96651063526E+03  0.25500000920E-02 0. -1.
       -2    1    3    3    0  502 -0.72160806143E+03  0.61300707310E+03 -0.17210845774E+04  0.19643390717E+04  0.25500000920E-02 0.  1.
</event>
<event>
 5   0  0.1501947E-05  0.2276621E+04  0.7818609E-02  0.8487196E-01
       -2   -1    0    0    0  501  0.00000000000E+00  0.00000000000E+00  0.88831461863E+03  0.88831461863E+03  0.25500000920E-02 0. -1.
        2   -1    0    0  501    0  0.00000000000E+00  0.00000000000E+00 -0.14586625821E+04  0.14586625821E+04  0.25500000920E-02 0.  1.
    10030    2    1    2    0    0  0.00000000000E+00  0.00000000000E+00 -0.57034796343E+03  0.23469772007E+04  0.22766214400E+04 0.  0.
        3    1    3    3  502    0  0.30271315184E+03  0.10049103773E+04  0.16920917359E+03  0.10630672008E+04  0.10100000352E+00 0. -1.
       -3    1    3    3    0  502 -0.30271315184E+03 -0.10049103773E+04 -0.73955713702E+03  0.12839099999E+04  0.10100000352E+00 0.  1.
</event>
<event>
 5   0  0.1572732E-05  0.2235878E+04  0.7818609E-02  0.8503642E-01
        2   -1    0    0  501    0  0.00000000000E+00  0.00000000000E+00  0.11678314373E+04  0.11678314373E+04  0.25500000920E-02 0. -1.
       -2   -1    0    0    0  501  0.00000000000E+00  0.00000000000E+00 -0.10701777872E+04  0.10701777872E+04  0.25500000920E-02 0.  1.
    10030    2    1    2    0    0  0.00000000000E+00  0.00000000000E+00  0.97653650066E+02  0.22380092245E+04  0.22358776920E+04 0.  0.
        1    1    3    3  502    0 -0.63885533431E+03  0.46318710374E+03 -0.74383015446E+03  0.10844176916E+04  0.50400001928E-02 0.  1.
       -1    1    3    3    0  502  0.63885533431E+03 -0.46318710374E+03  0.84148380453E+03  0.11535915328E+04  0.50400001928E-02 0. -1.
</event>
<event>
 5   0  0.1501947E-05  0.2491265E+04  0.7818609E-02  0.8406104E-01
        2   -1    0    0  501    0  0.00000000000E+00  0.00000000000E+00  0.23915039522E+04  0.23915039522E+04  0.25500000920E-02 0. -1.
       -2   -1    0    0    0  501  0.00000000000E+00  0.00000000000E+00 -0.64879691383E+03  0.64879691383E+03  0.25500000920E-02 0.  1.
    10030    2    1    2    0    0  0.00000000000E+00  0.00000000000E+00  0.17427070384E+04  0.30403008660E+04  0.24912650470E+04 0.  0.
        3    1    3    3  502    0  0.38513585276E+03  0.11456911460E+04  0.12388139537E+04  0.17307795496E+04  0.10100000352E+00 0. -1.
       -3    1    3    3    0  502 -0.38513585276E+03 -0.11456911460E+04  0.50389308463E+03  0.13095213164E+04  0.10100000352E+00 0.  1.
</event>
<event>
 5   0  0.6290861E-06  0.2493283E+04  0.7818609E-02  0.8405382E-01
       -1   -1    0    0    0  501  0.00000000000E+00  0.00000000000E+00  0.97233966274E+03  0.97233966275E+03  0.50400001928E-02 0. -1.
        1   -1    0    0  501    0  0.00000000000E+00  0.00000000000E+00 -0.15983254192E+04  0.15983254192E+04  0.50400001928E-02 0.  1.
    10030    2    1    2    0    0  0.00000000000E+00  0.00000000000E+00 -0.62598575648E+03  0.25706650820E+04  0.24932831360E+04 0.  0.
        1    1    3    3  502    0 -0.10704050948E+04 -0.68802805324E+02  0.34203106406E+03  0.11258268703E+04  0.50400001928E-02 0. -1.
       -1    1    3    3    0  502  0.10704050948E+04  0.68802805324E+02 -0.96801682054E+03  0.14448382117E+04  0.50400001928E-02 0.  1.
</event>
<event>
 5   0  0.1526824E-05  0.2489513E+04  0.7818609E-02  0.8406731E-01
       -2   -1    0    0    0  501  0.00000000000E+00  0.00000000000E+00  0.76416573850E+03  0.76416573851E+03  0.25500000920E-02 0.  1.
        2   -1    0    0  501    0  0.00000000000E+00  0.00000000000E+00 -0.20275952278E+04  0.20275952278E+04  0.25500000920E-02 0. -1.
    10030    2    1    2    0    0  0.00000000000E+00  0.00000000000E+00 -0.12634294893E+04  0.27917609663E+04  0.24895130485E+04 0.  0.
        2    1    3    3  502    0 -0.16931012128E+03  0.55494015131E+03  0.60325807757E+03  0.83698554161E+03  0.25500000920E-02 0.  1.
       -2    1    3    3    0  502  0.16931012128E+03 -0.55494015131E+03 -0.18666875668E+04  0.19547754247E+04  0.25500000920E-02 0. -1.
</event>
<event>
 5   0  0.1526824E-05  0.2511179E+04  0.7818609E-02  0.8399014E-01
        2   -1    0    0  501    0  0.00000000000E+00  0.00000000000E+00  0.90110387334E+03  0.90110387334E+03  0.25500000920E-02 0. -1.
       -2   -1    0    0    0  501  0.00000000000E+00  0.00000000000E+00 -0.17495260644E+04  0.17495260644E+04  0.25500000920E-02 0.  1.
    10030    2    1    2    0    0  0.00000000000E+00  0.00000000000E+00 -0.84842219110E+03  0.26506299378E+04  0.25111787775E+04 0.  0.
        2    1    3    3  502    0 -0.35234214887E+03  0.76651139814E+03  0.55738840495E+03  0.10111214305E+04  0.25500000920E-02 0. -1.
       -2    1    3    3    0  502  0.35234214887E+03 -0.76651139814E+03 -0.14058105960E+04  0.16395085072E+04  0.25500000920E-02 0.  1.
</event>
<event>
 5   0  0.6290861E-06  0.2485820E+04  0.7818609E-02  0.8408055E-01
        1   -1    0    0  501    0  0.00000000000E+00  0.00000000000E+00  0.12371287416E+04  0.12371287416E+04  0.50400001928E-02 0.  1.
       -1   -1    0    0    0  501  0.00000000000E+00  0.00000000000E+00 -0.12487180310E+04  0.12487180310E+04  0.50400001928E-02 0. -1.
    10030    2    1    2    0    0  0.00000000000E+00  0.00000000000E+00 -0.11589289364E+02  0.24858467726E+04  0.24858197572E+04 0.  0.
        1    1    3    3  502    0 -0.87387404547E+03 -0.44450785603E+03 -0.76972826053E+03  0.12464849283E+04  0.50400001928E-02 0. -1.
       -1    1    3    3    0  502  0.87387404547E+03  0.44450785603E+03  0.75813897117E+03  0.12393618443E+04  0.50400001928E-02 0.  1.
</event>
<event>
 5   0  0.6346420E-06  0.2497877E+04  0.7818609E-02  0.8403742E-01
        1   -1    0    0  501    0  0.00000000000E+00  0.00000000000E+00  0.25107505116E+04  0.25107505116E+04  0.50400001928E-02 0. -1.
       -1   -1    0    0    0  501  0.00000000000E+00  0.00000000000E+00 -0.62126713763E+03  0.62126713765E+03  0.50400001928E-02 0.  1.
    10030    2    1    2    0    0  0.00000000000E+00  0.00000000000E+00  0.18894833740E+04  0.31320176493E+04  0.24978765251E+04 0.  0.
        4    1    3    3  502    0 -0.10189947223E+04  0.52961589934E+03  0.32919146721E+03  0.11946597339E+04  0.12699999809E+01 0.  1.
       -4    1    3    3    0  502  0.10189947223E+04 -0.52961589934E+03  0.15602919068E+04  0.19373579154E+04  0.12699999809E+01 0. -1.
</event>
<event>
 5   0  0.6477703E-06  0.2504332E+04  0.7818609E-02  0.8401444E-01
       -1   -1    0    0    0  501  0.00000000000E+00  0.00000000000E+00  0.10780518689E+04  0.10780518689E+04  0.50400001928E-02 0.  1.
        1   -1    0    0  501    0  0.00000000000E+00  0.00000000000E+00 -0.14544004502E+04  0.14544004502E+04  0.50400001928E-02 0. -1.
    10030    2    1    2    0    0  0.00000000000E+00  0.00000000000E+00 -0.37634858131E+03  0.25324523191E+04  0.25043315464E+04 0.  0.
        5    1    3    3  502    0 -0.12223169814E+04  0.26653003894E+03 -0.13466538665E+03  0.12582741835E+04  0.46999998093E+01 0.  1.
       -5    1    3    3    0  502  0.12223169814E+04 -0.26653003894E+03 -0.24168319466E+03  0.12741781356E+04  0.46999998093E+01 0. -1.
</event>
<event>
 5   0  0.1468512E-05  0.2504994E+04  0.7818609E-02  0.8401208E-01
       -2   -1    0    0    0  501  0.00000000000E+00  0.00000000000E+00  0.11610444159E+04  0.11610444159E+04  0.25500000920E-02 0. -1.
        2   -1    0    0  501    0  0.00000000000E+00  0.00000000000E+00 -0.13511534163E+04  0.13511534163E+04  0.25500000920E-02 0.  1.
    10030    2    1    2    0    0  0.00000000000E+00  0.00000000000E+00 -0.19010900040E+03  0.25121978323E+04  0.25049943147E+04 0.  0.
        4    1    3    3  502    0 -0.11285466089E+04 -0.54089196737E+03 -0.44253650997E+02  0.12522545936E+04  0.12699999809E+01 0. -1.
       -4    1    3    3    0  502  0.11285466089E+04  0.54089196737E+03 -0.14585534940E+03  0.12599432386E+04  0.12699999809E+01 0.  1.
</event>
<event>
 5   0  0.6477703E-06  0.2497814E+04  0.7818609E-02  0.8403765E-01
        1   -1    0    0  501    0  0.00000000000E+00  0.00000000000E+00  0.12276496896E+04  0.12276496896E+04  0.50400001928E-02 0. -1.
       -1   -1    0    0    0  501  0.00000000000E+00  0.00000000000E+00 -0.12705326928E+04  0.12705326929E+04  0.50400001928E-02 0.  1.
    10030    2    1    2    0    0  0.00000000000E+00  0.00000000000E+00 -0.42883003241E+02  0.24981823825E+04  0.24978142974E+04 0.  0.
        5    1    3    3  502    0  0.47239396080E+03  0.67841996854E+03  0.91482532269E+03  0.12330195331E+04  0.46999998093E+01 0. -1.
       -5    1    3    3    0  502 -0.47239396080E+03 -0.67841996854E+03 -0.95770832593E+03  0.12651628494E+04  0.46999998093E+01 0.  1.
</event>
<event>
 5   0  0.1572732E-05  0.2493005E+04  0.7818609E-02  0.8405482E-01
       -2   -1    0    0    0  501  0.00000000000E+00  0.00000000000E+00  0.11110027672E+04  0.11110027672E+04  0.25500000920E-02 0.  1.
        2   -1    0    0  501    0  0.00000000000E+00  0.00000000000E+00 -0.13985275990E+04  0.13985275990E+04  0.25500000920E-02 0. -1.
    10030    2    1    2    0    0  0.00000000000E+00  0.00000000000E+00 -0.28752483182E+03  0.25095303663E+04  0.24930046391E+04 0.  0.
        1    1    3    3  502    0 -0.30234002680E+03 -0.25153192156E+03 -0.13344346630E+04  0.13911842686E+04  0.50400001928E-02 0. -1.
       -1    1    3    3    0  502  0.30234002680E+03  0.25153192156E+03  0.10469098312E+04  0.11183460976E+04  0.50400001928E-02 0.  1.
</event>
<event>
 5   0  0.6477703E-06  0.2630683E+04  0.7818609E-02  0.8357853E-01
        1   -1    0    0  501    0  0.00000000000E+00  0.00000000000E+00  0.12670297399E+04  0.12670297399E+04  0.50400001928E-02 0. -1.
       -1   -1    0    0    0  501  0.00000000000E+00  0.00000000000E+00 -0.13654952374E+04  0.13654952374E+04  0.50400001928E-02 0.  1.
    10030    2    1    2    0    0  0.00000000000E+00  0.00000000000E+00 -0.98465497458E+02  0.26325249773E+04  0.26306828585E+04 0.  0.
        5    1    3    3  502    0  0.58029271815E+01 -0.40822495453E+03 -0.13004761359E+04  0.13630632991E+04  0.46999998093E+01 0.  1.
       -5    1    3    3    0  502 -0.58029271815E+01  0.40822495453E+03  0.12020106384E+04  0.12694616782E+04  0.46999998093E+01 0. -1.
</event>
<event>
 5   0  0.6105353E-06  0.2500592E+04  0.7818609E-02  0.8402775E-01
       -1   -1    0    0    0  501  0.00000000000E+00  0.00000000000E+00  0.11361341284E+04  0.11361341284E+04  0.50400001928E-02 0. -1.
        1   -1    0    0  501    0  0.00000000000E+00  0.00000000000E+00 -0.13759291320E+04  0.13759291320E+04  0.50400001928E-02 0.  1.
    10030    2    1    2    0    0  0.00000000000E+00  0.00000000000E+00 -0.23979500363E+03  0.25120632604E+04  0.25005919660E+04 0.  0.
        3    1    3    3  502    0 -0.12245130444E+04  0.25196662010E+03 -0.10190833171E+03  0.12543144310E+04  0.10100000352E+00 0.  1.
       -3    1    3    3    0  502  0.12245130444E+04 -0.25196662010E+03 -0.13788667191E+03  0.12577488294E+04  0.10100000352E+00 0. -1.
</event>
<event>
 5   0  0.6105353E-06  0.2387937E+04  0.7818609E-02  0.8444034E-01
       -1   -1    0    0    0  501  0.00000000000E+00  0.00000000000E+00  0.15691921689E+04  0.15691921689E+04  0.50400001928E-02 0. -1.
        1   -1    0    0  501    0  0.00000000000E+00  0.00000000000E+00 -0.90846802939E+03  0.90846802941E+03  0.50400001928E-02 0.  1.
    10030    2    1    2    0    0  0.00000000000E+00  0.00000000000E+00  0.66072413951E+03  0.24776601983E+04  0.23879371160E+04 0.  0.
        3    1    3    3  502    0  0.33415479663E+03 -0.99018202189E+03  0.92950216768E+03  0.13986043595E+04  0.10100000352E+00 0. -1.
       -3    1    3    3    0  502 -0.33415479663E+03  0.99018202189E+03 -0.26877802817E+03  0.10790558388E+04  0.10100000352E+00 0.  1.
</event>
<event>
 5   0  0.6477703E-06  0.2500014E+04  0.7818609E-02  0.8402980E-01
        1   -1    0    0  501    0  0.00000000000E+00  0.00000000000E+00  0.97543779329E+03  0.97543779330E+03  0.50400001928E-02 0.  1.
       -1   -1    0    0    0  501  0.00000000000E+00  0.00000000000E+00 -0.16018631575E+04  0.16018631575E+04  0.50400001928E-02 0. -1.
    10030    2    1    2    0    0  0.00000000000E+00  0.00000000000E+00 -0.62642536420E+03  0.25773009508E+04  0.25000142908E+04 0.  0.
        5    1    3    3  502    0  0.61090040098E+03 -0.68679642104E+03 -0.11865178321E+04  0.15009114830E+04  0.46999998093E+01 0. -1.
       -5    1    3    3    0  502 -0.61090040098E+03  0.68679642104E+03  0.56009246788E+03  0.10763894678E+04  0.46999998093E+01 0.  1.
</event>
<event>
 5   0  0.1468512E-05  0.2519058E+04  0.7818609E-02  0.8396227E-01
       -2   -1    0    0    0  501  0.00000000000E+00  0.00000000000E+00  0.91674198338E+03  0.91674198339E+03  0.25500000920E-02 0. -1.
        2   -1    0    0  501    0  0.00000000000E+00  0.00000000000E+00 -0.17304900013E+04  0.17304900013E+04  0.25500000920E-02 0.  1.
    10030    2    1    2    0    0  0.00000000000E+00  0.00000000000E+00 -0.81374801787E+03  0.26472319846E+04  0.25190576301E+04 0.  0.
        4    1    3    3  502    0 -0.43836174104E+03 -0.41916589276E+03 -0.15669210589E+04  0.16802095939E+04  0.12699999809E+01 0.  1.
       -4    1    3    3    0  502  0.43836174104E+03  0.41916589276E+03  0.75317304101E+03  0.96702239078E+03  0.12699999809E+01 0. -1.
</event>
<event>
 5   0  0.1501947E-05  0.2492281E+04  0.7818609E-02  0.8405741E-01
       -2   -1    0    0    0  501  0.00000000000E+00  0.00000000000E+00  0.81152149019E+03  0.81152149019E+03  0.25500000920E-02 0.  1.
        2   -1    0    0  501    0  0.00000000000E+00  0.00000000000E+00 -0.19135247082E+04  0.19135247082E+04  0.25500000920E-02 0. -1.
    10030    2    1    2    0    0  0.00000000000E+00  0.00000000000E+00 -0.11020032180E+04  0.27250461984E+04  0.24922812223E+04 0.  0.
        3    1    3    3  502    0  0.66964294205E+01  0.54434984761E+03  0.67462703539E+03  0.86688133319E+03  0.10100000352E+00 0.  1.
       -3    1    3    3    0  502 -0.66964294205E+01 -0.54434984761E+03 -0.17766302534E+04  0.18581648652E+04  0.10100000352E+00 0. -1.
</event>
<event>
 5   0  0.1526824E-05  0.2497916E+04  0.7818609E-02  0.8403728E-01
       -2   -1    0    0    0  501  0.00000000000E+00  0.00000000000E+00  0.70397446177E+03  0.70397446178E+03  0.25500000920E-02 0.  1.
        2   -1    0    0  501    0  0.00000000000E+00  0.00000000000E+00 -0.22158416201E+04  0.22158416201E+04  0.25500000920E-02 0. -1.
    10030    2    1    2    0    0  0.00000000000E+00  0.00000000000E+00 -0.15118671583E+04  0.29198160819E+04  0.24979158608E+04 0.  0.
        2    1    3    3  502    0  0.88698836182E+03 -0.87852897849E+03 -0.79863274380E+03  0.14820174694E+04  0.25500000920E-02 0. -1.
       -2    1    3    3    0  502 -0.88698836182E+03  0.87852897849E+03 -0.71323441452E+03  0.14377986125E+04  0.25500000920E-02 0.  1.
</event>
<event>
 5   0  0.1572732E-05  0.2430880E+04  0.7818609E-02  0.8428032E-01
       -2   -1    0    0    0  501  0.00000000000E+00  0.00000000000E+00  0.12950737289E+04  0.12950737289E+04  0.25500000920E-02 0.  1.
        2   -1    0    0  501    0  0.00000000000E+00  0.00000000000E+00 -0.11407027289E+04  0.11407027289E+04  0.25500000920E-02 0. -1.
    10030    2    1    2    0    0  0.00000000000E+00  0.00000000000E+00  0.15437100005E+03  0.24357764578E+04  0.24308797886E+04 0.  0.
        1    1    3    3  502    0  0.19240950792E+03  0.90565461151E+03  0.86621212671E+03  0.12678939792E+04  0.50400001928E-02 0.  1.
       -1    1    3    3    0  502 -0.19240950792E+03 -0.90565461151E+03 -0.71184112665E+03  0.11678824786E+04  0.50400001928E-02 0. -1.
</event>
<event>
 5   0  0.1550483E-05  0.2486109E+04  0.7818609E-02  0.8407951E-01
        2   -1    0    0  501    0  0.00000000000E+00  0.00000000000E+00  0.13593965698E+04  0.13593965698E+04  0.25500000920E-02 0.  1.
       -2   -1    0    0    0  501  0.00000000000E+00  0.00000000000E+00 -0.11366698308E+04  0.11366698308E+04  0.25500000920E-02 0. -1.
    10030    2    1    2    0    0  0.00000000000E+00  0.00000000000E+00  0.22272673902E+03  0.24960664006E+04  0.24861094658E+04 0.  0.
        5    1    3    3  502    0 -0.16299315051E+03  0.38684924480E+03  0.12860680751E+04  0.13528533879E+04  0.46999998093E+01 0.  1.
       -5    1    3    3    0  502  0.16299315051E+03 -0.38684924480E+03 -0.10633413361E+04  0.11432130127E+04  0.46999998093E+01 0. -1.
</event>
<event>
 5   0  0.1501947E-05  0.2533789E+04  0.7818609E-02  0.8391046E-01
        2   -1    0    0  501    0  0.00000000000E+00  0.00000000000E+00  0.18121032063E+04  0.18121032063E+04  0.25500000920E-02 0. -1.
       -2   -1    0    0    0  501  0.00000000000E+00  0.00000000000E+00 -0.88572299453E+03  0.88572299453E+03  0.25500000920E-02 0.  1.
    10030    2    1    2    0    0  0.00000000000E+00  0.00000000000E+00  0.92638021182E+03  0.26978262009E+04  0.25337888454E+04 0.  0.
        3    1    3    3  502    0  0.72424487448E+03  0.70113936192E+03 -0.35388554715E+03  0.10683454655E+04  0.10100000352E+00 0.  1.
       -3    1    3    3    0  502 -0.72424487448E+03 -0.70113936192E+03  0.12802657590E+04  0.16294807353E+04  0.10100000352E+00 0. -1.
</event>
<event>
 5   0  0.6290861E-06  0.2489204E+04  0.7818609E-02  0.8406842E-01
        1   -1    0    0  501    0  0.00000000000E+00  0.00000000000E+00  0.24035216932E+04  0.24035216932E+04  0.50400001928E-02 0.  1.
       -1   -1    0    0    0  501  0.00000000000E+00  0.00000000000E+00 -0.64448533336E+03  0.64448533338E+03  0.50400001928E-02 0. -1.
    10030    2    1    2    0    0  0.00000000000E+00  0.00000000000E+00  0.17590363598E+04  0.30480070266E+04  0.24892042742E+04 0.  0.
        1    1    3    3  502    0  0.11450278728E+04 -0.38482223264E+03  0.12465744018E+04  0.17358354529E+04  0.50400001928E-02 0. -1.
       -1    1    3    3    0  502 -0.11450278728E+04  0.38482223264E+03  0.51246195804E+03  0.13121715737E+04  0.50400001928E-02 0.  1.
</event>
<event>
 5   0  0.6105353E-06  0.2441336E+04  0.7818609E-02  0.8424188E-01
       -1   -1    0    0    0  501  0.00000000000E+00  0.00000000000E+00  0.14990270239E+04  0.14990270239E+04  0.50400001928E-02 0. -1.
        1   -1    0    0  501    0  0.00000000000E+00  0.00000000000E+00 -0.99399829137E+03  0.99399829138E+03  0.50400001928E-02 0.  1.
    10030    2    1    2    0    0  0.00000000000E+00  0.00000000000E+00  0.50502873255E+03  0.24930253153E+04  0.24413359462E+04 0.  0.
        3    1    3    3  502    0 -0.40232319724E+03 -0.59071504597E+03 -0.75799359481E+03  0.10418073337E+04  0.10100000352E+00 0.  1.
       -3    1    3    3    0  502  0.40232319724E+03  0.59071504597E+03  0.12630223274E+04  0.14512179816E+04  0.10100000352E+00 0. -1.
</event>
<event>
 5   0  0.6477703E-06  0.2516500E+04  0.7818609E-02  0.8397131E-01
        1   -1    0    0  501    0  0.00000000000E+00  0.00000000000E+00  0.19069618865E+04  0.19069618865E+04  0.50400001928E-02 0.  1.
       -1   -1    0    0    0  501  0.00000000000E+00  0.00000000000E+00 -0.83021778245E+03  0.83021778247E+03  0.50400001928E-02 0. -1.
    10030    2    1    2    0    0  0.00000000000E+00  0.00000000000E+00  0.10767441040E+04  0.27371796690E+04  0.25165004817E+04 0.  0.
        5    1    3    3  502    0 -0.78279757554E+02 -0.38037326366E+03 -0.76339233357E+03  0.85650539117E+03  0.46999998093E+01 0. -1.
       -5    1    3    3    0  502  0.78279757554E+02  0.38037326366E+03  0.18401364376E+04  0.18806742778E+04  0.46999998093E+01 0.  1.
</event>
<event>
 5   0  0.6105353E-06  0.2505421E+04  0.7818609E-02  0.8401057E-01
       -1   -1    0    0    0  501  0.00000000000E+00  0.00000000000E+00  0.11782221256E+04  0.11782221256E+04  0.50400001928E-02 0.  1.
        1   -1    0    0  501    0  0.00000000000E+00  0.00000000000E+00 -0.13319076894E+04  0.13319076894E+04  0.50400001928E-02 0. -1.
    10030    2    1    2    0    0  0.00000000000E+00  0.00000000000E+00 -0.15368556385E+03  0.25101298150E+04  0.25054206105E+04 0.  0.
        3    1    3    3  502    0  0.30092406159E+03  0.97903733103E+03 -0.79945688653E+03  0.12993077811E+04  0.10100000352E+00 0. -1.
       -3    1    3    3    0  502 -0.30092406159E+03 -0.97903733103E+03  0.64577132268E+03  0.12108220339E+04  0.10100000352E+00 0.  1.
</event>
<event>
 5   0  0.1526824E-05  0.2494566E+04  0.7818609E-02  0.8404924E-01
       -2   -1    0    0    0  501  0.00000000000E+00  0.00000000000E+00  0.10123755196E+04  0.10123755196E+04  0.25500000920E-02 0. -1.
        2   -1    0    0  501    0  0.00000000000E+00  0.00000000000E+00 -0.15366977556E+04  0.15366977556E+04  0.25500000920E-02 0.  1.
    10030    2    1    2    0    0  0.00000000000E+00  0.00000000000E+00 -0.52432223602E+03  0.25490732753E+04  0.24945662460E+04 0.  0.
        2    1    3    3  502    0 -0.37649994138E+03 -0.11396673475E+04  0.84547916695E+02  0.12032216001E+04  0.25500000920E-02 0.  1.
       -2    1    3    3    0  502  0.37649994138E+03  0.11396673475E+04 -0.60887015271E+03  0.13458516752E+04  0.25500000920E-02 0. -1.
</event>
<event>
 5   0  0.1501947E-05  0.2504521E+04  0.7818609E-02  0.8401377E-01
       -2   -1    0    0    0  501  0.00000000000E+00  0.00000000000E+00  0.12889985508E+04  0.12889985508E+04  0.25500000920E-02 0. -1.
        2   -1    0    0  501    0  0.00000000000E+00  0.00000000000E+00 -0.12165697078E+04  0.12165697078E+04  0.25500000920E-02 0.  1.
    10030    2    1    2    0    0  0.00000000000E+00  0.00000000000E+00  0.72428843005E+02  0.25055682587E+04  0.25045211841E+04 0.  0.
        3    1    3    3  502    0  0.47282218480E+02  0.69624437644E+02 -0.12137371656E+04  0.12166515886E+04  0.10100000352E+00 0.  1.
       -3    1    3    3    0  502 -0.47282218480E+02 -0.69624437644E+02  0.12861660086E+04  0.12889166701E+04  0.10100000352E+00 0. -1.
</event>
<event>
 5   0  0.6105353E-06  0.2482925E+04  0.7818609E-02  0.8409094E-01
        1   -1    0    0  501    0  0.00000000000E+00  0.00000000000E+00  0.80135225344E+03  0.80135225346E+03  0.50400001928E-02 0. -1.
       -1   -1    0    0    0  501  0.00000000000E+00  0.00000000000E+00 -0.19232850649E+04  0.19232850649E+04  0.50400001928E-02 0.  1.
    10030    2    1    2    0    0  0.00000000000E+00  0.00000000000E+00 -0.11219328115E+04  0.27246373184E+04  0.24829247438E+04 0.  0.
        3    1    3    3  502    0 -0.41552192177E+03 -0.32536909103E+03  0.67212748331E+03  0.85456355931E+03  0.10100000352E+00 0. -1.
       -3    1    3    3    0  502  0.41552192177E+03  0.32536909103E+03 -0.17940602948E+04  0.18700737591E+04  0.10100000352E+00 0.  1.
</event>
<event>
 5   0  0.6104486E-06  0.2510277E+04  0.7818609E-02  0.8399334E-01
       -1   -1    0    0    0  501  0.00000000000E+00  0.00000000000E+00  0.19475768173E+04  0.19475768173E+04  0.50400001928E-02 0. -1.
        1   -1    0    0  501    0  0.00000000000E+00  0.00000000000E+00 -0.80888829022E+03  0.80888829023E+03  0.50400001928E-02 0.  1.
    10030    2    1    2    0    0  0.00000000000E+00  0.00000000000E+00  0.11386885271E+04  0.27564651076E+04  0.25102765440E+04 0.  0.
        2    1    3    3  502    0 -0.78621120679E+03  0.50385034525E+03  0.14902720651E+04  0.17586654201E+04  0.25500000920E-02 0. -1.
       -2    1    3    3    0  502  0.78621120679E+03 -0.50385034525E+03 -0.35158353794E+03  0.99779968744E+03  0.25500000920E-02 0.  1.
</event>
<event>
 5   0  0.1526824E-05  0.2441173E+04  0.7818609E-02  0.8424248E-01
        2   -1    0    0  501    0  0.00000000000E+00  0.00000000000E+00  0.13840901159E+04  0.13840901159E+04  0.25500000920E-02 0. -1.
       -2   -1    0    0    0  501  0.00000000000E+00  0.00000000000E+00 -0.10763980749E+04  0.10763980749E+04  0.25500000920E-02 0.  1.
    10030    2    1    2    0    0  0.00000000000E+00  0.00000000000E+00  0.30769204093E+03  0.24604881908E+04  0.24411734361E+04 0.  0.
        2    1    3    3  502    0 -0.10068948981E+03  0.62661464089E+03  0.12047110530E+04  0.13616581814E+04  0.25500000920E-02 0. -1.
       -2    1    3    3    0  502  0.10068948981E+03 -0.62661464089E+03 -0.89701901211E+03  0.10988300094E+04  0.25500000920E-02 0.  1.
</event>
<event>
 5   0  0.6346420E-06  0.2489618E+04  0.7818609E-02  0.8406694E-01
        1   -1    0    0  501    0  0.00000000000E+00  0.00000000000E+00  0.16609392598E+04  0.16609392598E+04  0.50400001928E-02 0. -1.
       -1   -1    0    0    0  501  0.00000000000E+00  0.00000000000E+00 -0.93293552087E+03  0.93293552088E+03  0.50400001928E-02 0.  1.
    10030    2    1    2    0    0  0.00000000000E+00  0.00000000000E+00  0.72800373894E+03  0.25938747807E+04  0.24896178289E+04 0.  0.
        4    1    3    3  502    0 -0.44909276683E+03  0.16027300221E+02  0.15734795517E+04  0.16363925874E+04  0.12699999809E+01 0. -1.
       -4    1    3    3    0  502  0.44909276683E+03 -0.16027300221E+02 -0.84547581278E+03  0.95748219329E+03  0.12699999809E+01 0.  1.
</event>
<event>
 5   0  0.1572732E-05  0.2490977E+04  0.7818609E-02  0.8406207E-01
       -2   -1    0    0    0  501  0.00000000000E+00  0.00000000000E+00  0.90978928153E+03  0.90978928153E+03  0.25500000920E-02 0. -1.
        2   -1    0    0  501    0  0.00000000000E+00  0.00000000000E+00 -0.17050562392E+04  0.17050562392E+04  0.25500000920E-02 0.  1.
    10030    2    1    2    0    0  0.00000000000E+00  0.00000000000E+00 -0.79526695764E+03  0.26148455207E+04  0.24909772306E+04 0.  0.
        1    1    3    3  502    0  0.34141186164E+03  0.37695838327E+03 -0.15910866039E+04  0.16703940443E+04  0.50400001928E-02 0.  1.
       -1    1    3    3    0  502 -0.34141186164E+03 -0.37695838327E+03  0.79581964625E+03  0.94445147645E+03  0.50400001928E-02 0. -1.
</event>
<event>
 5   0  0.6346420E-06  0.2517759E+04  0.7818609E-02  0.8396686E-01
       -1   -1    0    0    0  501  0.00000000000E+00  0.00000000000E+00  0.10725522573E+04  0.10725522573E+04  0.50400001928E-02 0. -1.
        1   -1    0    0  501    0  0.00000000000E+00  0.00000000000E+00 -0.14775762071E+04  0.14775762071E+04  0.50400001928E-02 0.  1.
    10030    2    1    2    0    0  0.00000000000E+00  0.00000000000E+00 -0.40502394983E+03  0.25501284644E+04  0.25177590800E+04 0.  0.
        4    1    3    3  502    0  0.32382658840E+03  0.87997086576E+03  0.64826553770E+03  0.11399395616E+04  0.12699999809E+01 0. -1.
       -4    1    3    3    0  502 -0.32382658840E+03 -0.87997086576E+03 -0.10532894875E+04  0.14101889027E+04  0.12699999809E+01 0.  1.
</event>
<event>
 5   0  0.6105353E-06  0.2501930E+04  0.7818609E-02  0.8402298E-01
       -1   -1    0    0    0  501  0.00000000000E+00  0.00000000000E+00  0.85370255458E+03  0.85370255460E+03  0.50400001928E-02 0. -1.
        1   -1    0    0  501    0  0.00000000000E+00  0.00000000000E+00 -0.18330892018E+04  0.18330892018E+04  0.50400001928E-02 0.  1.
    10030    2    1    2    0    0  0.00000000000E+00  0.00000000000E+00 -0.97938664723E+03  0.26867917564E+04  0.25019296028E+04 0.  0.
        3    1    3    3  502    0 -0.37307252946E+03 -0.60945530237E+03  0.61296205040E+03  0.94145704271E+03  0.10100000352E+00 0. -1.
       -3    1    3    3    0  502  0.37307252946E+03  0.60945530237E+03 -0.15923486976E+04  0.17453347137E+04  0.10100000352E+00 0.  1.
</event>
<event>
 5   0  0.6104486E-06  0.2516558E+04  0.7818609E-02  0.8397110E-01
        1   -1    0    0  501    0  0.00000000000E+00  0.00000000000E+00  0.85693511809E+03  0.85693511810E+03  0.50400001928E-02 0. -1.
       -1   -1    0    0    0  501  0.00000000000E+00  0.00000000000E+00 -0.18475914343E+04  0.18475914343E+04  0.50400001928E-02 0.  1.
    10030    2    1    2    0    0  0.00000000000E+00  0.00000000000E+00 -0.99065631618E+03  0.27045265524E+04  0.25165579540E+04 0.  0.
        2    1    3    3  502    0 -0.56299414974E+03 -0.20898500624E+03 -0.16836432999E+04  0.17875379455E+04  0.25500000920E-02 0.  1.
       -2    1    3    3    0  502  0.56299414974E+03  0.20898500624E+03  0.69298698371E+03  0.91698860684E+03  0.25500000920E-02 0. -1.
</event>
<event>
 5   0  0.1572732E-05  0.2532375E+04  0.7818609E-02  0.8391542E-01
        2   -1    0    0  501    0  0.00000000000E+00  0.00000000000E+00  0.11039852135E+04  0.11039852135E+04  0.25500000920E-02 0. -1.
       -2   -1    0    0    0  501  0.00000000000E+00  0.00000000000E+00 -0.14522209266E+04  0.14522209266E+04  0.25500000920E-02 0.  1.
    10030    2    1    2    0    0  0.00000000000E+00  0.00000000000E+00 -0.34823571318E+03  0.25562061401E+04  0.25323747192E+04 0.  0.
        1    1    3    3  502    0 -0.30031951574E+03 -0.12149354216E+04 -0.36820456673E+03  0.13045437873E+04  0.50400001928E-02 0.  1.
       -1    1    3    3    0  502  0.30031951574E+03  0.12149354216E+04  0.19968853556E+02  0.12516623527E+04  0.50400001928E-02 0. -1.
</event>
<event>
 5   0  0.1550483E-05  0.2518330E+04  0.7818609E-02  0.8396484E-01
       -2   -1    0    0    0  501  0.00000000000E+00  0.00000000000E+00  0.10486689737E+04  0.10486689737E+04  0.25500000920E-02 0. -1.
        2   -1    0    0  501    0  0.00000000000E+00  0.00000000000E+00 -0.15119128749E+04  0.15119128749E+04  0.25500000920E-02 0.  1.
    10030    2    1    2    0    0  0.00000000000E+00  0.00000000000E+00 -0.46324390123E+03  0.25605818486E+04  0.25183297026E+04 0.  0.
        5    1    3    3  502    0 -0.84326428184E+02  0.85214681374E+03 -0.11702620549E+04  0.14501036190E+04  0.46999998093E+01 0.  1.
       -5    1    3    3    0  502  0.84326428184E+02 -0.85214681374E+03  0.70701815371E+03  0.11104782296E+04  0.46999998093E+01 0. -1.
</event>
<event>
 5   0  0.6477703E-06  0.2495950E+04  0.7818609E-02  0.8404430E-01
       -1   -1    0    0    0  501  0.00000000000E+00  0.00000000000E+00  0.83815268142E+03  0.83815268144E+03  0.50400001928E-02 0. -1.
        1   -1    0    0  501    0  0.00000000000E+00  0.00000000000E+00 -0.18581836412E+04  0.18581836412E+04  0.50400001928E-02 0.  1.
    10030    2    1    2    0    0  0.00000000000E+00  0.00000000000E+00 -0.10200309598E+04  0.26963363227E+04  0.24959500007E+04 0.  0.
        5    1    3    3  502    0 -0.31857396317E+03  0.12304211324E+03  0.78668192372E+03  0.85762420135E+03  0.46999998093E+01 0. -1.
       -5    1    3    3    0  502  0.31857396317E+03 -0.12304211324E+03 -0.18067128835E+04  0.18387121213E+04  0.46999998093E+01 0.  1.
</event>
<event>
 5   0  0.1468512E-05  0.2486389E+04  0.7818609E-02  0.8407851E-01
        2   -1    0    0  501    0  0.00000000000E+00  0.00000000000E+00  0.15728305781E+04  0.15728305781E+04  0.25500000920E-02 0. -1.
       -2   -1    0    0    0  501  0.00000000000E+00  0.00000000000E+00 -0.98264380934E+03  0.98264380934E+03  0.25500000920E-02 0.  1.
    10030    2    1    2    0    0  0.00000000000E+00  0.00000000000E+00  0.59018676873E+03  0.25554743874E+04  0.24863887312E+04 0.  0.
        4    1    3    3  502    0 -0.25319709112E+02 -0.56145387861E+03 -0.84461793831E+03  0.10145208820E+04  0.12699999809E+01 0.  1.
       -4    1    3    3    0  502  0.25319709112E+02  0.56145387861E+03  0.14348047070E+04  0.15409535054E+04  0.12699999809E+01 0. -1.
</event>
<event>
 5   0  0.6290861E-06  0.2493227E+04  0.7818609E-02  0.8405402E-01
       -1   -1    0    0    0  501  0.00000000000E+00  0.00000000000E+00  0.13918630999E+04  0.13918630999E+04  0.50400001928E-02 0.  1.
        1   -1    0    0  501    0  0.00000000000E+00  0.00000000000E+00 -0.11165216860E+04  0.11165216860E+04  0.50400001928E-02 0. -1.
    10030    2    1    2    0    0  0.00000000000E+00  0.00000000000E+00  0.27534141389E+03  0.25083847859E+04  0.24932270935E+04 0.  0.
        1    1    3    3  502    0  0.10445994159E+04 -0.33620098412E+03  0.73272767440E+03  0.13195108511E+04  0.50400001928E-02 0.  1.
       -1    1    3    3    0  502 -0.10445994159E+04  0.33620098412E+03 -0.45738626051E+03  0.11888739347E+04  0.50400001928E-02 0. -1.
</event>
<event>
 5   0  0.6477703E-06  0.2491807E+04  0.7818609E-02  0.8405910E-01
        1   -1    0    0  501    0  0.00000000000E+00  0.00000000000E+00  0.13367516353E+04  0.13367516353E+04  0.50400001928E-02 0.  1.
       -1   -1    0    0    0  501  0.00000000000E+00  0.00000000000E+00 -0.11612294084E+04  0.11612294085E+04  0.50400001928E-02 0. -1.
    10030    2    1    2    0    0  0.00000000000E+00  0.00000000000E+00  0.17552222684E+03  0.24979810437E+04  0.24918068229E+04 0.  0.
        5    1    3    3  502    0  0.37853871005E+03  0.11173513388E+04 -0.31384061981E+03  0.12207717207E+04  0.46999998093E+01 0. -1.
       -5    1    3    3    0  502 -0.37853871005E+03 -0.11173513388E+04  0.48936284665E+03  0.12772093231E+04  0.46999998093E+01 0.  1.
</event>
<event>
 5   0  0.6104486E-06  0.2451488E+04  0.7818609E-02  0.8420475E-01
       -1   -1    0    0    0  501  0.00000000000E+00  0.00000000000E+00  0.14695311553E+04  0.14695311553E+04  0.50400001928E-02 0. -1.
        1   -1    0    0  501    0  0.00000000000E+00  0.00000000000E+00 -0.10223997732E+04  0.10223997732E+04  0.50400001928E-02 0.  1.
    10030    2    1    2    0    0  0.00000000000E+00  0.00000000000E+00  0.44713138209E+03  0.24919309285E+04  0.24514879726E+04 0.  0.
        2    1    3    3  502    0  0.55453989161E+03  0.10232266308E+04  0.61454217937E+03  0.13161190370E+04  0.25500000920E-02 0.  1.
       -2    1    3    3    0  502 -0.55453989161E+03 -0.10232266308E+04 -0.16741079728E+03  0.11758118916E+04  0.25500000920E-02 0. -1.
</event>
<event>
 5   0  0.6104486E-06  0.2490739E+04  0.7818609E-02  0.8406292E-01
        1   -1    0    0  501    0  0.00000000000E+00  0.00000000000E+00  0.15499060211E+04  0.15499060211E+04  0.50400001928E-02 0.  1.
       -1   -1    0    0    0  501  0.00000000000E+00  0.00000000000E+00 -0.10006704400E+04  0.10006704401E+04  0.50400001928E-02 0. -1.
    10030    2    1    2    0    0  0.00000000000E+00  0.00000000000E+00  0.54923558104E+03  0.25505764612E+04  0.24907389588E+04 0.  0.
        2    1    3    3  502    0  0.10581623655E+04 -0.58977994841E+03 -0.21105661189E+02  0.12116077865E+04  0.25500000920E-02 0. -1.
       -2    1    3    3    0  502 -0.10581623655E+04  0.58977994841E+03  0.57034124223E+03  0.13389686747E+04  0.25500000920E-02 0.  1.
</event>
<event>
 5   0  0.6477703E-06  0.2492566E+04  0.7818609E-02  0.8405639E-01
       -1   -1    0    0    0  501  0.00000000000E+00  0.00000000000E+00  0.11995193078E+04  0.11995193078E+04  0.50400001928E-02 0. -1.
        1   -1    0    0  501    0  0.00000000000E+00  0.00000000000E+00 -0.12948699746E+04  0.12948699746E+04  0.50400001928E-02 0.  1.
    10030    2    1    2    0    0  0.00000000000E+00  0.00000000000E+00 -0.95350666742E+02  0.24943892824E+04  0.24925661762E+04 0.  0.
        5    1    3    3  502    0  0.49456384223E+03 -0.62874807351E+01 -0.11924379445E+04  0.12909544020E+04  0.46999998093E+01 0.  1.
       -5    1    3    3    0  502 -0.49456384223E+03  0.62874807351E+01  0.10970872778E+04  0.12034348805E+04  0.46999998093E+01 0. -1.
</event>
<event>
 5   0  0.6477703E-06  0.2509157E+04  0.7818609E-02  0.8399731E-01
        1   -1    0    0  501    0  0.00000000000E+00  0.00000000000E+00  0.14211283512E+04  0.14211283512E+04  0.50400001928E-02 0. -1.
       -1   -1    0    0    0  501  0.00000000000E+00  0.00000000000E+00 -0.11075471932E+04  0.11075471932E+04  0.50400001928E-02 0.  1.
    10030    2    1    2    0    0  0.00000000000E+00  0.00000000000E+00  0.31358115801E+03  0.25286755443E+04  0.25091566045E+04 0.  0.
        5    1    3    3  502    0  0.17358057149E+03  0.95446015254E+03 -0.64489766889E+03  0.11649203797E+04  0.46999998093E+01 0.  1.
       -5    1    3    3    0  502 -0.17358057149E+03 -0.95446015254E+03  0.95847882690E+03  0.13637551647E+04  0.46999998093E+01 0. -1.
</event>
<event>
 5   0  0.6104486E-06  0.2453827E+04  0.7818609E-02  0.8419622E-01
        1   -1    0    0  501    0  0.00000000000E+00  0.00000000000E+00  0.13827399481E+04  0.13827399481E+04  0.50400001928E-02 0.  1.
       -1   -1    0    0    0  501  0.00000000000E+00  0.00000000000E+00 -0.10886480565E+04  0.10886480565E+04  0.50400001928E-02 0. -1.
    10030    2    1    2    0    0  0.00000000000E+00  0.00000000000E+00  0.29409189164E+03  0.24713880046E+04  0.24538273429E+04 0.  0.
        2    1    3    3  502    0 -0.96763801054E+03 -0.62847655954E+03  0.56717754677E+03  0.12856891051E+04  0.25500000920E-02 0.  1.
       -2    1    3    3    0  502  0.96763801054E+03  0.62847655954E+03 -0.27308565512E+03  0.11856988995E+04  0.25500000920E-02 0. -1.
</event>
<event>
 5   0  0.6104486E-06  0.2498855E+04  0.7818609E-02  0.8403393E-01
        1   -1    0    0  501    0  0.00000000000E+00  0.00000000000E+00  0.14039765490E+04  0.14039765490E+04  0.50400001928E-02 0. -1.
       -1   -1    0    0    0  501  0.00000000000E+00  0.00000000000E+00 -0.11118913445E+04  0.11118913445E+04  0.50400001928E-02 0.  1.
    10030    2    1    2    0    0  0.00000000000E+00  0.00000000000E+00  0.29208520450E+03  0.25158678935E+04  0.24988552360E+04 0.  0.
        2    1    3    3  502    0 -0.99624012421E+02  0.16026939009E+03  0.13895457374E+04  0.14023011723E+04  0.25500000920E-02 0. -1.
       -2    1    3    3    0  502  0.99624012421E+02 -0.16026939009E+03 -0.10974605329E+04  0.11135667212E+04  0.25500000920E-02 0.  1.
</event>
<event>
 5   0  0.6104486E-06  0.2516621E+04  0.7818609E-02  0.8397088E-01
       -1   -1    0    0    0  501  0.00000000000E+00  0.00000000000E+00  0.13562875849E+04  0.13562875849E+04  0.50400001928E-02 0. -1.
        1   -1    0    0  501    0  0.00000000000E+00  0.00000000000E+00 -0.11674107544E+04  0.11674107545E+04  0.50400001928E-02 0.  1.
    10030    2    1    2    0    0  0.00000000000E+00  0.00000000000E+00  0.18887683043E+03  0.25236983393E+04  0.25166205218E+04 0.  0.
        2    1    3    3  502    0 -0.84995203516E+03  0.44852436565E+03 -0.72009726550E+03  0.12008882714E+04  0.25500000920E-02 0.  1.
       -2    1    3    3    0  502  0.84995203516E+03 -0.44852436565E+03  0.90897409594E+03  0.13228100679E+04  0.25500000920E-02 0. -1.
</event>
<event>
 5   0  0.1572732E-05  0.2472451E+04  0.7818609E-02  0.8412866E-01
       -2   -1    0    0    0  501  0.00000000000E+00  0.00000000000E+00  0.19372373067E+04  0.19372373067E+04  0.25500000920E-02 0. -1.
        2   -1    0    0  501    0  0.00000000000E+00  0.00000000000E+00 -0.78888311742E+03  0.78888311743E+03  0.25500000920E-02 0.  1.
    10030    2    1    2    0    0  0.00000000000E+00  0.00000000000E+00  0.11483541892E+04  0.27261204241E+04  0.24724512579E+04 0.  0.
        1    1    3    3  502    0  0.69254140073E+03  0.85957160049E+03  0.11878568503E+04  0.16215673976E+04  0.50400001928E-02 0. -1.
       -1    1    3    3    0  502 -0.69254140073E+03 -0.85957160049E+03 -0.39502661068E+02  0.11045530265E+04  0.50400001928E-02 0.  1.
</event>
<event>
 5   0  0.6477703E-06  0.2484432E+04  0.7818609E-02  0.8408553E-01
        1   -1    0    0  501    0  0.00000000000E+00  0.00000000000E+00  0.24073649934E+04  0.24073649934E+04  0.50400001928E-02 0.  1.
       -1   -1    0    0    0  501  0.00000000000E+00  0.00000000000E+00 -0.64099146287E+03  0.64099146289E+03  0.50400001928E-02 0. -1.
    10030    2    1    2    0    0  0.00000000000E+00  0.00000000000E+00  0.17663735306E+04  0.30483564563E+04  0.24844318536E+04 0.  0.
        5    1    3    3  502    0 -0.31315661684E+03  0.69950367511E+03 -0.31631470654E+03  0.82912576955E+03  0.46999998093E+01 0. -1.
       -5    1    3    3    0  502  0.31315661684E+03 -0.69950367511E+03  0.20826882371E+04  0.22192306868E+04  0.46999998093E+01 0.  1.
</event>
<event>
 5   0  0.6104486E-06  0.2513833E+04  0.7818609E-02  0.8398074E-01
       -1   -1    0    0    0  501  0.00000000000E+00  0.00000000000E+00  0.91791506622E+03  0.91791506624E+03  0.50400001928E-02 0.  1.
        1   -1    0    0  501    0  0.00000000000E+00  0.00000000000E+00 -0.17211164524E+04  0.17211164525E+04  0.50400001928E-02 0. -1.
    10030    2    1    2    0    0  0.00000000000E+00  0.00000000000E+00 -0.80320138622E+03  0.26390315187E+04  0.25138327092E+04 0.  0.
        2    1    3    3  502    0  0.48819868129E+03 -0.10255056148E+04 -0.96678047655E+03  0.14915308271E+04  0.25500000920E-02 0. -1.
       -2    1    3    3    0  502 -0.48819868129E+03  0.10255056148E+04  0.16357909033E+03  0.11475006916E+04  0.25500000920E-02 0.  1.
</event>
<event>
 5   0  0.6290861E-06  0.2478561E+04  0.7818609E-02  0.8410663E-01
       -1   -1    0    0    0  501  0.00000000000E+00  0.00000000000E+00  0.11227033982E+04  0.11227033982E+04  0.50400001928E-02 0. -1.
        1   -1    0    0  501    0  0.00000000000E+00  0.00000000000E+00 -0.13679621334E+04  0.13679621334E+04  0.50400001928E-02 0.  1.
    10030    2    1    2    0    0  0.00000000000E+00  0.00000000000E+00 -0.24525873522E+03  0.24906655315E+04  0.24785606595E+04 0.  0.
        1    1    3    3  502    0  0.11684674102E+03  0.67080125128E+03  0.91789290642E+03  0.11428713258E+04  0.50400001928E-02 0. -1.
       -1    1    3    3    0  502 -0.11684674102E+03 -0.67080125128E+03 -0.11631516416E+04  0.13477942058E+04  0.50400001928E-02 0.  1.
</event>
<event>
 5   0  0.1550483E-05  0.2405930E+04  0.7818609E-02  0.8437287E-01
        2   -1    0    0  501    0  0.00000000000E+00  0.00000000000E+00  0.16037815738E+04  0.16037815738E+04  0.25500000920E-02 0. -1.
       -2   -1    0    0    0  501  0.00000000000E+00  0.00000000000E+00 -0.90232042815E+03  0.90232042815E+03  0.25500000920E-02 0.  1.
    10030    2    1    2    0    0  0.00000000000E+00  0.00000000000E+00  0.70146114570E+03  0.25061020020E+04  0.24059300708E+04 0.  0.
        5    1    3    3  502    0  0.13119400518E+03 -0.76442207288E+03  0.13085537512E+04  0.15211469299E+04  0.46999998093E+01 0. -1.
       -5    1    3    3    0  502 -0.13119400518E+03  0.76442207288E+03 -0.60709260548E+03  0.98495507214E+03  0.46999998093E+01 0.  1.
</event>
<event>
 5   0  0.1550483E-05  0.2497676E+04  0.7818609E-02  0.8403814E-01
       -2   -1    0    0    0  501  0.00000000000E+00  0.00000000000E+00  0.95712416894E+03  0.95712416894E+03  0.25500000920E-02 0. -1.
        2   -1    0    0  501    0  0.00000000000E+00  0.00000000000E+00 -0.16294607547E+04  0.16294607547E+04  0.25500000920E-02 0.  1.
    10030    2    1    2    0    0  0.00000000000E+00  0.00000000000E+00 -0.67233658579E+03  0.25865849237E+04  0.24976759363E+04 0.  0.
        5    1    3    3  502    0 -0.75721054728E+03  0.42562711695E+02  0.69131626600E+03  0.10262161892E+04  0.46999998093E+01 0. -1.
       -5    1    3    3    0  502  0.75721054728E+03 -0.42562711695E+02 -0.13636528518E+04  0.15603687345E+04  0.46999998093E+01 0.  1.
</event>
<event>
 5   0  0.1468512E-05  0.2490218E+04  0.7818609E-02  0.8406479E-01
        2   -1    0    0  501    0  0.00000000000E+00  0.00000000000E+00  0.23227943747E+04  0.23227943747E+04  0.25500000920E-02 0.  1.
       -2   -1    0    0    0  501  0.00000000000E+00  0.00000000000E+00 -0.66742708033E+03  0.66742708033E+03  0.25500000920E-02 0. -1.
    10030    2    1    2    0    0  0.00000000000E+00  0.00000000000E+00  0.16553672944E+04  0.29902214550E+04  0.24902175549E+04 0.  0.
        4    1    3    3  502    0  0.54745952572E+03  0.35947214511E+03  0.20992499184E+04  0.21990416068E+04  0.12699999809E+01 0.  1.
       -4    1    3    3    0  502 -0.54745952572E+03 -0.35947214511E+03 -0.44388262407E+03  0.79117984824E+03  0.12699999809E+01 0. -1.
</event>
<event>
 5   0  0.6477703E-06  0.2579036E+04  0.7818609E-02  0.8375357E-01
       -1   -1    0    0    0  501  0.00000000000E+00  0.00000000000E+00  0.13445949561E+04  0.13445949561E+04  0.50400001928E-02 0. -1.
        1   -1    0    0  501    0  0.00000000000E+00  0.00000000000E+00 -0.12366970181E+04  0.12366970181E+04  0.50400001928E-02 0.  1.
    10030    2    1    2    0    0  0.00000000000E+00  0.00000000000E+00  0.10789793804E+03  0.25812919742E+04  0.25790359228E+04 0.  0.
        5    1    3    3  502    0  0.32226427349E+03 -0.30989359313E+03 -0.11566322016E+04  0.12400437254E+04  0.46999998093E+01 0.  1.
       -5    1    3    3    0  502 -0.32226427349E+03  0.30989359313E+03  0.12645301396E+04  0.13412482489E+04  0.46999998093E+01 0. -1.
</event>
<event>
 5   0  0.1526824E-05  0.2517124E+04  0.7818609E-02  0.8396910E-01
       -2   -1    0    0    0  501  0.00000000000E+00  0.00000000000E+00  0.12207249888E+04  0.12207249888E+04  0.25500000920E-02 0. -1.
        2   -1    0    0  501    0  0.00000000000E+00  0.00000000000E+00 -0.12975718900E+04  0.12975718900E+04  0.25500000920E-02 0.  1.
    10030    2    1    2    0    0  0.00000000000E+00  0.00000000000E+00 -0.76846901178E+02  0.25182968788E+04  0.25171240978E+04 0.  0.
        2    1    3    3  502    0  0.96597051743E+03 -0.14266229195E+03  0.75600373242E+03  0.12349061558E+04  0.25500000920E-02 0.  1.
       -2    1    3    3    0  502 -0.96597051743E+03  0.14266229195E+03 -0.83285063360E+03  0.12833907230E+04  0.25500000920E-02 0. -1.
</event>
<event>
 5   0  0.6104486E-06  0.2512946E+04  0.7818609E-02  0.8398388E-01
        1   -1    0    0  501    0  0.00000000000E+00  0.00000000000E+00  0.13252224819E+04  0.13252224819E+04  0.50400001928E-02 0. -1.
       -1   -1    0    0    0  501  0.00000000000E+00  0.00000000000E+00 -0.11912899658E+04  0.11912899658E+04  0.50400001928E-02 0.  1.
    10030    2    1    2    0    0  0.00000000000E+00  0.00000000000E+00  0.13393251615E+03  0.25165124477E+04  0.25129458769E+04 0.  0.
        2    1    3    3  502    0  0.80692136790E+03  0.51137282570E+03  0.88427408817E+03  0.13017545559E+04  0.25500000920E-02 0. -1.
       -2    1    3    3    0  502 -0.80692136790E+03 -0.51137282570E+03 -0.75034157203E+03  0.12147578917E+04  0.25500000920E-02 0.  1.
</event>
<event>
 5   0  0.1526824E-05  0.2503946E+04  0.7818609E-02  0.8401581E-01
       -2   -1    0    0    0  501  0.00000000000E+00  0.00000000000E+00  0.82205366033E+03  0.82205366033E+03  0.25500000920E-02 0.  1.
        2   -1    0    0  501    0  0.00000000000E+00  0.00000000000E+00 -0.19067322174E+04  0.19067322174E+04  0.25500000920E-02 0. -1.
    10030    2    1    2    0    0  0.00000000000E+00  0.00000000000E+00 -0.10846785571E+04  0.27287858778E+04  0.25039458450E+04 0.  0.
        2    1    3    3  502    0  0.12142974019E+04  0.38961584326E+02 -0.21286792791E+03  0.12334297467E+04  0.25500000920E-02 0.  1.
       -2    1    3    3    0  502 -0.12142974019E+04 -0.38961584326E+02 -0.87181062919E+03  0.14953561310E+04  0.25500000920E-02 0. -1.
</event>
<event>
 5   0  0.6477703E-06  0.2387362E+04  0.7818609E-02  0.8444250E-01
        1   -1    0    0  501    0  0.00000000000E+00  0.00000000000E+00  0.16248798395E+04  0.16248798395E+04  0.50400001928E-02 0.  1.
       -1   -1    0    0    0  501  0.00000000000E+00  0.00000000000E+00 -0.87691054742E+03  0.87691054744E+03  0.50400001928E-02 0. -1.
    10030    2    1    2    0    0  0.00000000000E+00  0.00000000000E+00  0.74796929210E+03  0.25017903870E+04  0.23873619496E+04 0.  0.
        5    1    3    3  502    0  0.11553181162E+04  0.29785119573E+03  0.41286973414E+03  0.12625208085E+04  0.46999998093E+01 0.  1.
       -5    1    3    3    0  502 -0.11553181162E+04 -0.29785119573E+03  0.33509955796E+03  0.12392695785E+04  0.46999998093E+01 0. -1.
</event>
<event>
 5   0  0.1468512E-05  0.2489833E+04  0.7818609E-02  0.8406617E-01
        2   -1    0    0  501    0  0.00000000000E+00  0.00000000000E+00  0.66862425019E+03  0.66862425020E+03  0.25500000920E-02 0.  1.
       -2   -1    0    0    0  501  0.00000000000E+00  0.00000000000E+00 -0.23179186918E+04  0.23179186918E+04  0.25500000920E-02 0. -1.
    10030    2    1    2    0    0  0.00000000000E+00  0.00000000000E+00 -0.16492944416E+04  0.29865429420E+04  0.24898326428E+04 0.  0.
        4    1    3    3  502    0 -0.10315501290E+04  0.59921249942E+03 -0.39774858040E+03  0.12575201128E+04  0.12699999809E+01 0.  1.
       -4    1    3    3    0  502  0.10315501290E+04 -0.59921249942E+03 -0.12515458612E+04  0.17290228291E+04  0.12699999809E+01 0. -1.
</event>
<event>
 5   0  0.6290861E-06  0.2489088E+04  0.7818609E-02  0.8406883E-01
        1   -1    0    0  501    0  0.00000000000E+00  0.00000000000E+00  0.18675902245E+04  0.18675902245E+04  0.50400001928E-02 0. -1.
       -1   -1    0    0    0  501  0.00000000000E+00  0.00000000000E+00 -0.82935217073E+03  0.82935217074E+03  0.50400001928E-02 0.  1.
    10030    2    1    2    0    0  0.00000000000E+00  0.00000000000E+00  0.10382380538E+04  0.26969423953E+04  0.24890881919E+04 0.  0.
        1    1    3    3  502    0 -0.88925105097E+03  0.70949877775E+03  0.10659774353E+04  0.15589944964E+04  0.50400001928E-02 0.  1.
       -1    1    3    3    0  502  0.88925105097E+03 -0.70949877775E+03 -0.27739381447E+02  0.11379478989E+04  0.50400001928E-02 0. -1.
</event>
<event>
 5   0  0.6477703E-06  0.2462145E+04  0.7818609E-02  0.8416597E-01
        1   -1    0    0  501    0  0.00000000000E+00  0.00000000000E+00  0.17836535488E+04  0.17836535488E+04  0.50400001928E-02 0.  1.
       -1   -1    0    0    0  501  0.00000000000E+00  0.00000000000E+00 -0.84968265804E+03  0.84968265805E+03  0.50400001928E-02 0. -1.
    10030    2    1    2    0    0  0.00000000000E+00  0.00000000000E+00  0.93397089073E+03  0.26333362068E+04  0.24621449903E+04 0.  0.
        5    1    3    3  502    0 -0.10099772821E+04 -0.70375680372E+03  0.45225662010E+03  0.13114442000E+04  0.46999998093E+01 0.  1.
       -5    1    3    3    0  502  0.10099772821E+04  0.70375680372E+03  0.48171427063E+03  0.13218920068E+04  0.46999998093E+01 0. -1.
</event>
<event>
 5   0  0.6290861E-06  0.2498020E+04  0.7818609E-02  0.8403691E-01
       -1   -1    0    0    0  501  0.00000000000E+00  0.00000000000E+00  0.12599252139E+04  0.12599252139E+04  0.50400001928E-02 0.  1.
        1   -1    0    0  501    0  0.00000000000E+00  0.00000000000E+00 -0.12381893249E+04  0.12381893249E+04  0.50400001928E-02 0. -1.
    10030    2    1    2    0    0  0.00000000000E+00  0.00000000000E+00  0.21735889005E+02  0.24981145388E+04  0.24980199759E+04 0.  0.
        1    1    3    3  502    0 -0.10608610194E+04 -0.62509080276E+03  0.22030685357E+03  0.12508795801E+04  0.50400001928E-02 0. -1.
       -1    1    3    3    0  502  0.10608610194E+04  0.62509080276E+03 -0.19857096457E+03  0.12472349587E+04  0.50400001928E-02 0.  1.
</event>
<event>
 5   0  0.1526824E-05  0.2492959E+04  0.7818609E-02  0.8405498E-01
       -2   -1    0    0    0  501  0.00000000000E+00  0.00000000000E+00  0.63291227627E+03  0.63291227627E+03  0.25500000920E-02 0.  1.
        2   -1    0    0  501    0  0.00000000000E+00  0.00000000000E+00 -0.24548608278E+04  0.24548608278E+04  0.25500000920E-02 0. -1.
    10030    2    1    2    0    0  0.00000000000E+00  0.00000000000E+00 -0.18219485515E+04  0.30877731040E+04  0.24929593293E+04 0.  0.
        2    1    3    3  502    0 -0.70538475193E+03 -0.73607868869E+03 -0.22689970110E+02  0.10197520870E+04  0.25500000920E-02 0.  1.
       -2    1    3    3    0  502  0.70538475193E+03  0.73607868869E+03 -0.17992585814E+04  0.20680210170E+04  0.25500000920E-02 0. -1.
</event>
<event>
 5   0  0.1501947E-05  0.2536896E+04  0.7818609E-02  0.8389958E-01
        2   -1    0    0  501    0  0.00000000000E+00  0.00000000000E+00  0.13723014947E+04  0.13723014948E+04  0.25500000920E-02 0. -1.
       -2   -1    0    0    0  501  0.00000000000E+00  0.00000000000E+00 -0.11724539369E+04  0.11724539369E+04  0.25500000920E-02 0.  1.
    10030    2    1    2    0    0  0.00000000000E+00  0.00000000000E+00  0.19984755788E+03  0.25447554316E+04  0.25368959696E+04 0.  0.
        3    1    3    3  502    0 -0.33263933464E+03 -0.11707838054E+04  0.45820905515E+03  0.13005149728E+04  0.10100000352E+00 0.  1.
       -3    1    3    3    0  502  0.33263933464E+03  0.11707838054E+04 -0.25836149727E+03  0.12442404589E+04  0.10100000352E+00 0. -1.
</event>
<event>
 5   0  0.6477703E-06  0.2488898E+04  0.7818609E-02  0.8406951E-01
       -1   -1    0    0    0  501  0.00000000000E+00  0.00000000000E+00  0.81791381960E+03  0.81791381961E+03  0.50400001928E-02 0.  1.
        1   -1    0    0  501    0  0.00000000000E+00  0.00000000000E+00 -0.18934188154E+04  0.18934188154E+04  0.50400001928E-02 0. -1.
    10030    2    1    2    0    0  0.00000000000E+00  0.00000000000E+00 -0.10755049958E+04  0.27113326351E+04  0.24888980819E+04 0.  0.
        5    1    3    3  502    0 -0.85577439209E+03  0.88572936993E+03 -0.34359681429E+03  0.12786505338E+04  0.46999998093E+01 0.  1.
       -5    1    3    3    0  502  0.85577439209E+03 -0.88572936993E+03 -0.73190818156E+03  0.14326821012E+04  0.46999998093E+01 0. -1.
</event>
<event>
 5   0  0.1550483E-05  0.2243577E+04  0.7818609E-02  0.8500506E-01
       -2   -1    0    0    0  501  0.00000000000E+00  0.00000000000E+00  0.11208317661E+04  0.11208317661E+04  0.25500000920E-02 0. -1.
        2   -1    0    0  501    0  0.00000000000E+00  0.00000000000E+00 -0.11227460475E+04  0.11227460475E+04  0.25500000920E-02 0.  1.
    10030    2    1    2    0    0  0.00000000000E+00  0.00000000000E+00 -0.19142814795E+01  0.22435778136E+04  0.22435769969E+04 0.  0.
        5    1    3    3  502    0  0.55987860141E+02  0.57538528381E+03 -0.96230263160E+03  0.11226091529E+04  0.46999998093E+01 0.  1.
       -5    1    3    3    0  502 -0.55987860141E+02 -0.57538528381E+03  0.96038835012E+03  0.11209686607E+04  0.46999998093E+01 0. -1.
</event>
<event>
 5   0  0.1550483E-05  0.2510706E+04  0.7818609E-02  0.8399181E-01
       -2   -1    0    0    0  501  0.00000000000E+00  0.00000000000E+00  0.91429866261E+03  0.91429866261E+03  0.25500000920E-02 0.  1.
        2   -1    0    0  501    0  0.00000000000E+00  0.00000000000E+00 -0.17236281514E+04  0.17236281514E+04  0.25500000920E-02 0. -1.
    10030    2    1    2    0    0  0.00000000000E+00  0.00000000000E+00 -0.80932948884E+03  0.26379268141E+04  0.25107058081E+04 0.  0.
        5    1    3    3  502    0  0.11351319091E+04  0.53601499382E+03 -0.39706649237E+03  0.13166322243E+04  0.46999998093E+01 0. -1.
       -5    1    3    3    0  502 -0.11351319091E+04 -0.53601499382E+03 -0.41226299646E+03  0.13212945898E+04  0.46999998093E+01 0.  1.
</event>
<event>
 5   0  0.1550483E-05  0.2485798E+04  0.7818609E-02  0.8408062E-01
       -2   -1    0    0    0  501  0.00000000000E+00  0.00000000000E+00  0.59625430482E+03  0.59625430482E+03  0.25500000920E-02 0.  1.
        2   -1    0    0  501    0  0.00000000000E+00  0.00000000000E+00 -0.25908380229E+04  0.25908380229E+04  0.25500000920E-02 0. -1.
    10030    2    1    2    0    0  0.00000000000E+00  0.00000000000E+00 -0.19945837180E+04  0.31870923277E+04  0.24857983218E+04 0.  0.
        5    1    3    3  502    0  0.17407360741E+03  0.12254324335E+04 -0.11422903296E+04  0.16842908172E+04  0.46999998093E+01 0. -1.
       -5    1    3    3    0  502 -0.17407360741E+03 -0.12254324335E+04 -0.85229338849E+03  0.15028015105E+04  0.46999998093E+01 0.  1.
</event>
<event>
 5   0  0.6290861E-06  0.2388187E+04  0.7818609E-02  0.8443939E-01
       -1   -1    0    0    0  501  0.00000000000E+00  0.00000000000E+00  0.12593993521E+04  0.12593993521E+04  0.50400001928E-02 0. -1.
        1   -1    0    0  501    0  0.00000000000E+00  0.00000000000E+00 -0.11321740429E+04  0.11321740429E+04  0.50400001928E-02 0.  1.
    10030    2    1    2    0    0  0.00000000000E+00  0.00000000000E+00  0.12722530922E+03  0.23915733951E+04  0.23881869744E+04 0.  0.
        1    1    3    3  502    0 -0.19679050896E+03 -0.28086969630E+02 -0.11154879770E+04  0.11330616970E+04  0.50400001928E-02 0.  1.
       -1    1    3    3    0  502  0.19679050896E+03  0.28086969630E+02  0.12427132863E+04  0.12585116981E+04  0.50400001928E-02 0. -1.
</event>
<event>
 5   0  0.1468512E-05  0.2502227E+04  0.7818609E-02  0.8402193E-01
        2   -1    0    0  501    0  0.00000000000E+00  0.00000000000E+00  0.12946008748E+04  0.12946008748E+04  0.25500000920E-02 0.  1.
       -2   -1    0    0    0  501  0.00000000000E+00  0.00000000000E+00 -0.12090865569E+04  0.12090865569E+04  0.25500000920E-02 0. -1.
    10030    2    1    2    0    0  0.00000000000E+00  0.00000000000E+00  0.85514317838E+02  0.25036874317E+04  0.25022266198E+04 0.  0.
        4    1    3    3  502    0  0.11183268299E+04 -0.52743350537E+03  0.23376622310E+03  0.12583676971E+04  0.12699999809E+01 0.  1.
       -4    1    3    3    0  502 -0.11183268299E+04  0.52743350537E+03 -0.14825190526E+03  0.12453197346E+04  0.12699999809E+01 0. -1.
</event>
<event>
 5   0  0.6290861E-06  0.2497231E+04  0.7818609E-02  0.8403973E-01
       -1   -1    0    0    0  501  0.00000000000E+00  0.00000000000E+00  0.12731060295E+04  0.12731060295E+04  0.50400001928E-02 0. -1.
        1   -1    0    0  501    0  0.00000000000E+00  0.00000000000E+00 -0.12245961765E+04  0.12245961765E+04  0.50400001928E-02 0.  1.
    10030    2    1    2    0    0  0.00000000000E+00  0.00000000000E+00  0.48509853050E+02  0.24977022060E+04  0.24972310874E+04 0.  0.
        1    1    3    3  502    0  0.10210392967E+04  0.64775527549E+01 -0.69454439441E+03  0.12348907320E+04  0.50400001928E-02 0.  1.
       -1    1    3    3    0  502 -0.10210392967E+04 -0.64775527549E+01  0.74305424746E+03  0.12628114740E+04  0.50400001928E-02 0. -1.
</event>
<event>
 5   0  0.6105353E-06  0.2211166E+04  0.7818609E-02  0.8513795E-01
        1   -1    0    0  501    0  0.00000000000E+00  0.00000000000E+00  0.11127887412E+04  0.11127887412E+04  0.50400001928E-02 0.  1.
       -1   -1    0    0    0  501  0.00000000000E+00  0.00000000000E+00 -0.10984240379E+04  0.10984240379E+04  0.50400001928E-02 0. -1.
    10030    2    1    2    0    0  0.00000000000E+00  0.00000000000E+00  0.14364703259E+02  0.22112127791E+04  0.22111661199E+04 0.  0.
        3    1    3    3  502    0  0.73902428577E+03 -0.64642166248E+03  0.51542140224E+03  0.11089080633E+04  0.10100000352E+00 0.  1.
       -3    1    3    3    0  502 -0.73902428577E+03  0.64642166248E+03 -0.50105669898E+03  0.11023047158E+04  0.10100000352E+00 0. -1.
</event>
<event>
 5   0  0.6104486E-06  0.2518899E+04  0.7818609E-02  0.8396283E-01
        1   -1    0    0  501    0  0.00000000000E+00  0.00000000000E+00  0.12071166204E+04  0.12071166204E+04  0.50400001928E-02 0. -1.
       -1   -1    0    0    0  501  0.00000000000E+00  0.00000000000E+00 -0.13140514254E+04  0.13140514254E+04  0.50400001928E-02 0.  1.
    10030    2    1    2    0    0  0.00000000000E+00  0.00000000000E+00 -0.10693480499E+03  0.25211680458E+04  0.25188992164E+04 0.  0.
        2    1    3    3  502    0 -0.12102823217E+04 -0.34703195213E+03 -0.85100323996E+02  0.12619257265E+04  0.25500000920E-02 0.  1.
       -2    1    3    3    0  502  0.12102823217E+04  0.34703195213E+03 -0.21834480998E+02  0.12592423193E+04  0.25500000920E-02 0. -1.
</event>
<event>
 5   0  0.1468512E-05  0.2513010E+04  0.7818609E-02  0.8398365E-01
       -2   -1    0    0    0  501  0.00000000000E+00  0.00000000000E+00  0.12052537041E+04  0.12052537041E+04  0.25500000920E-02 0.  1.
        2   -1    0    0  501    0  0.00000000000E+00  0.00000000000E+00 -0.13099356781E+04  0.13099356781E+04  0.25500000920E-02 0. -1.
    10030    2    1    2    0    0  0.00000000000E+00  0.00000000000E+00 -0.10468197392E+03  0.25151893822E+04  0.25130100105E+04 0.  0.
        4    1    3    3  502    0  0.12181737858E+04 -0.63499201813E+02  0.24929006856E+03  0.12450408315E+04  0.12699999809E+01 0.  1.
       -4    1    3    3    0  502 -0.12181737858E+04  0.63499201813E+02 -0.35397204248E+03  0.12701485507E+04  0.12699999809E+01 0. -1.
</event>
<event>
 5   0  0.6346420E-06  0.2519260E+04  0.7818609E-02  0.8396156E-01
        1   -1    0    0  501    0  0.00000000000E+00  0.00000000000E+00  0.13893980768E+04  0.13893980768E+04  0.50400001928E-02 0.  1.
       -1   -1    0    0    0  501  0.00000000000E+00  0.00000000000E+00 -0.11419824606E+04  0.11419824606E+04  0.50400001928E-02 0. -1.
    10030    2    1    2    0    0  0.00000000000E+00  0.00000000000E+00  0.24741561615E+03  0.25313805374E+04  0.25192603950E+04 0.  0.
        4    1    3    3  502    0 -0.12482289501E+04 -0.46651726980E+02 -0.39600181799E+02  0.12497286437E+04  0.12699999809E+01 0. -1.
       -4    1    3    3    0  502  0.12482289501E+04  0.46651726980E+02  0.28701579795E+03  0.12816518937E+04  0.12699999809E+01 0.  1.
</event>
<event>
 5   0  0.6105353E-06  0.2510944E+04  0.7818609E-02  0.8399097E-01
        1   -1    0    0  501    0  0.00000000000E+00  0.00000000000E+00  0.10967586528E+04  0.10967586528E+04  0.50400001928E-02 0.  1.
       -1   -1    0    0    0  501  0.00000000000E+00  0.00000000000E+00 -0.14371526034E+04  0.14371526034E+04  0.50400001928E-02 0. -1.
    10030    2    1    2    0    0  0.00000000000E+00  0.00000000000E+00 -0.34039395067E+03  0.25339112562E+04  0.25109436897E+04 0.  0.
        3    1    3    3  502    0 -0.35311223444E+03 -0.43211206697E+03 -0.13051174575E+04  0.14194156109E+04  0.10100000352E+00 0. -1.
       -3    1    3    3    0  502  0.35311223444E+03  0.43211206697E+03  0.96472350682E+03  0.11144956453E+04  0.10100000352E+00 0.  1.
</event>
<event>
 5   0  0.1572732E-05  0.2503118E+04  0.7818609E-02  0.8401876E-01
       -2   -1    0    0    0  501  0.00000000000E+00  0.00000000000E+00  0.26353863831E+04  0.26353863831E+04  0.25500000920E-02 0. -1.
        2   -1    0    0  501    0  0.00000000000E+00  0.00000000000E+00 -0.59437191956E+03  0.59437191956E+03  0.25500000920E-02 0.  1.
    10030    2    1    2    0    0  0.00000000000E+00  0.00000000000E+00  0.20410144635E+04  0.32297583026E+04  0.25031177865E+04 0.  0.
        1    1    3    3  502    0 -0.98423098200E+03  0.64009252144E+03  0.15799217104E+04  0.19683957105E+04  0.50400001928E-02 0. -1.
       -1    1    3    3    0  502  0.98423098200E+03 -0.64009252144E+03  0.46109275309E+03  0.12613625922E+04  0.50400001928E-02 0.  1.
</event>
<event>
 5   0  0.1550483E-05  0.2476212E+04  0.7818609E-02  0.8411509E-01
        2   -1    0    0  501    0  0.00000000000E+00  0.00000000000E+00  0.15226249425E+04  0.15226249425E+04  0.25500000920E-02 0. -1.
       -2   -1    0    0    0  501  0.00000000000E+00  0.00000000000E+00 -0.10067526130E+04  0.10067526130E+04  0.25500000920E-02 0.  1.
    10030    2    1    2    0    0  0.00000000000E+00  0.00000000000E+00  0.51587232945E+03  0.25293775555E+04  0.24762121391E+04 0.  0.
        5    1    3    3  502    0 -0.22360652382E+03  0.49739487313E+03 -0.87745157780E+03  0.10331238545E+04  0.46999998093E+01 0.  1.
       -5    1    3    3    0  502  0.22360652382E+03 -0.49739487313E+03  0.13933239073E+04  0.14962537010E+04  0.46999998093E+01 0. -1.
</event>
<event>
 5   0  0.6346420E-06  0.2489352E+04  0.7818609E-02  0.8406789E-01
        1   -1    0    0  501    0  0.00000000000E+00  0.00000000000E+00  0.96260013377E+03  0.96260013379E+03  0.50400001928E-02 0. -1.
       -1   -1    0    0    0  501  0.00000000000E+00  0.00000000000E+00 -0.16094106095E+04  0.16094106095E+04  0.50400001928E-02 0.  1.
    10030    2    1    2    0    0  0.00000000000E+00  0.00000000000E+00 -0.64681047570E+03  0.25720107433E+04  0.24893524202E+04 0.  0.
        4    1    3    3  502    0  0.59837154822E+03  0.28629292488E+03  0.76475367591E+03  0.10123546544E+04  0.12699999809E+01 0. -1.
       -4    1    3    3    0  502 -0.59837154822E+03 -0.28629292488E+03 -0.14115641516E+04  0.15596560889E+04  0.12699999809E+01 0.  1.
</event>
<event>
 5   0  0.1468512E-05  0.2502831E+04  0.7818609E-02  0.8401978E-01
        2   -1    0    0  501    0  0.00000000000E+00  0.00000000000E+00  0.17426514051E+04  0.17426514051E+04  0.25500000920E-02 0. -1.
       -2   -1    0    0    0  501  0.00000000000E+00  0.00000000000E+00 -0.89865407686E+03  0.89865407687E+03  0.25500000920E-02 0.  1.
    10030    2    1    2    0    0  0.00000000000E+00  0.00000000000E+00  0.84399732821E+03  0.26413054819E+04  0.25028310288E+04 0.  0.
        4    1    3    3  502    0  0.36835296634E+03 -0.21625447197E+03  0.16633385077E+04  0.17173079247E+04  0.12699999809E+01 0. -1.
       -4    1    3    3    0  502 -0.36835296634E+03  0.21625447197E+03 -0.81934117945E+03  0.92399755719E+03  0.12699999809E+01 0.  1.
</event>
<event>
 5   0  0.1526824E-05  0.2501663E+04  0.7818609E-02  0.8402393E-01
        2   -1    0    0  501    0  0.00000000000E+00  0.00000000000E+00  0.12970021886E+04  0.12970021886E+04  0.25500000920E-02 0. -1.
       -2   -1    0    0    0  501  0.00000000000E+00  0.00000000000E+00 -0.12063046962E+04  0.12063046962E+04  0.25500000920E-02 0.  1.
    10030    2    1    2    0    0  0.00000000000E+00  0.00000000000E+00  0.90697492352E+02  0.25033068848E+04  0.25016633115E+04 0.  0.
        2    1    3    3  502    0  0.44983650538E+03 -0.89971859318E+03  0.78929761821E+03  0.12786075076E+04  0.25500000920E-02 0. -1.
       -2    1    3    3    0  502 -0.44983650538E+03  0.89971859318E+03 -0.69860012586E+03  0.12246993771E+04  0.25500000920E-02 0.  1.
</event>
<event>
 5   0  0.6290861E-06  0.2502951E+04  0.7818609E-02  0.8401935E-01
        1   -1    0    0  501    0  0.00000000000E+00  0.00000000000E+00  0.20136394126E+04  0.20136394126E+04  0.50400001928E-02 0. -1.
       -1   -1    0    0    0  501  0.00000000000E+00  0.00000000000E+00 -0.77779129505E+03  0.77779129507E+03  0.50400001928E-02 0.  1.
    10030    2    1    2    0    0  0.00000000000E+00  0.00000000000E+00  0.12358481176E+04  0.27914307077E+04  0.25029512233E+04 0.  0.
        1    1    3    3  502    0 -0.12220204714E+03  0.99552262390E+03 -0.21680039802E+03  0.10261583930E+04  0.50400001928E-02 0.  1.
       -1    1    3    3    0  502  0.12220204714E+03 -0.99552262390E+03  0.14526485156E+04  0.17652723147E+04  0.50400001928E-02 0. -1.
</event>
<event>
 5   0  0.1526824E-05  0.2499581E+04  0.7818609E-02  0.8403135E-01
        2   -1    0    0  501    0  0.00000000000E+00  0.00000000000E+00  0.17680815956E+04  0.17680815956E+04  0.25500000920E-02 0.  1.
       -2   -1    0    0    0  501  0.00000000000E+00  0.00000000000E+00 -0.88343000020E+03  0.88343000021E+03  0.25500000920E-02 0. -1.
    10030    2    1    2    0    0  0.00000000000E+00  0.00000000000E+00  0.88465159543E+03  0.26515115958E+04  0.24995810244E+04 0.  0.
        2    1    3    3  502    0 -0.79322668284E+03  0.86640687169E+03  0.89500391044E+03  0.14767875397E+04  0.25500000920E-02 0.  1.
       -2    1    3    3    0  502  0.79322668284E+03 -0.86640687169E+03 -0.10352315003E+02  0.11747240562E+04  0.25500000920E-02 0. -1.
</event>
<event>
 5   0  0.6104486E-06  0.2473514E+04  0.7818609E-02  0.8412483E-01
        1   -1    0    0  501    0  0.00000000000E+00  0.00000000000E+00  0.11174738831E+04  0.11174738831E+04  0.50400001928E-02 0.  1.
       -1   -1    0    0    0  501  0.00000000000E+00  0.00000000000E+00 -0.13687723200E+04  0.13687723200E+04  0.50400001928E-02 0. -1.
    10030    2    1    2    0    0  0.00000000000E+00  0.00000000000E+00 -0.25129843689E+03  0.24862462031E+04  0.24735135492E+04 0.  0.
        2    1    3    3  502    0  0.84574457463E+03  0.49249641147E+03  0.63437179993E+03  0.11663036403E+04  0.25500000920E-02 0.  1.
       -2    1    3    3    0  502 -0.84574457463E+03 -0.49249641147E+03 -0.88567023682E+03  0.13199425628E+04  0.25500000920E-02 0. -1.
</event>
<event>
 5   0  0.6346420E-06  0.2497941E+04  0.7818609E-02  0.8403719E-01
        1   -1    0    0  501    0  0.00000000000E+00  0.00000000000E+00  0.16832067917E+04  0.16832067917E+04  0.50400001928E-02 0. -1.
       -1   -1    0    0    0  501  0.00000000000E+00  0.00000000000E+00 -0.92675907373E+03  0.92675907374E+03  0.50400001928E-02 0.  1.
    10030    2    1    2    0    0  0.00000000000E+00  0.00000000000E+00  0.75644771797E+03  0.26099658654E+04  0.24979408858E+04 0.  0.
        4    1    3    3  502    0  0.53701889859E+03  0.47280954116E+03 -0.69139906084E+03  0.99497358452E+03  0.12699999809E+01 0.  1.
       -4    1    3    3    0  502 -0.53701889859E+03 -0.47280954116E+03  0.14478467788E+04  0.16149922809E+04  0.12699999809E+01 0. -1.
</event>
<event>
 5   0  0.1572732E-05  0.2509485E+04  0.7818609E-02  0.8399614E-01
        2   -1    0    0  501    0  0.00000000000E+00  0.00000000000E+00  0.19132168071E+04  0.19132168071E+04  0.25500000920E-02 0. -1.
       -2   -1    0    0    0  501  0.00000000000E+00  0.00000000000E+00 -0.82289629671E+03  0.82289629672E+03  0.25500000920E-02 0.  1.
    10030    2    1    2    0    0  0.00000000000E+00  0.00000000000E+00  0.10903205104E+04  0.27361131038E+04  0.25094852264E+04 0.  0.
        1    1    3    3  502    0  0.31132601113E+03  0.57934492370E+03  0.17102173223E+04  0.18323230379E+04  0.50400001928E-02 0. -1.
       -1    1    3    3    0  502 -0.31132601113E+03 -0.57934492370E+03 -0.61989681188E+03  0.90379006591E+03  0.50400001928E-02 0.  1.
</event>
<event>
 5   0  0.1526824E-05  0.2492926E+04  0.7818609E-02  0.8405510E-01
        2   -1    0    0  501    0  0.00000000000E+00  0.00000000000E+00  0.20016724179E+04  0.20016724179E+04  0.25500000920E-02 0. -1.
       -2   -1    0    0    0  501  0.00000000000E+00  0.00000000000E+00 -0.77618583137E+03  0.77618583137E+03  0.25500000920E-02 0.  1.
    10030    2    1    2    0    0  0.00000000000E+00  0.00000000000E+00  0.12254865865E+04  0.27778582493E+04  0.24929258070E+04 0.  0.
        2    1    3    3  502    0 -0.82505299920E+03  0.71526891114E+03  0.12825714141E+04  0.16844320998E+04  0.25500000920E-02 0.  1.
       -2    1    3    3    0  502  0.82505299920E+03 -0.71526891114E+03 -0.57084827546E+02  0.10934261494E+04  0.25500000920E-02 0. -1.
</event>
<event>
 5   0  0.6290861E-06  0.2525327E+04  0.7818609E-02  0.8394018E-01
       -1   -1    0    0    0  501  0.00000000000E+00  0.00000000000E+00  0.75031889243E+03  0.75031889244E+03  0.50400001928E-02 0.  1.
        1   -1    0    0  501    0  0.00000000000E+00  0.00000000000E+00 -0.21248549022E+04  0.21248549022E+04  0.50400001928E-02 0. -1.
    10030    2    1    2    0    0  0.00000000000E+00  0.00000000000E+00 -0.13745360098E+04  0.28751737947E+04  0.25253267328E+04 0.  0.
        1    1    3    3  502    0 -0.12864845443E+03 -0.24687498909E+03  0.71494407706E+03  0.76723055102E+03  0.50400001928E-02 0.  1.
       -1    1    3    3    0  502  0.12864845443E+03  0.24687498909E+03 -0.20894800869E+04  0.21079432437E+04  0.50400001928E-02 0. -1.
</event>
<event>
 5   0  0.6104486E-06  0.2491957E+04  0.7818609E-02  0.8405856E-01
       -1   -1    0    0    0  501  0.00000000000E+00  0.00000000000E+00  0.11423063889E+04  0.11423063889E+04  0.50400001928E-02 0.  1.
        1   -1    0    0  501    0  0.00000000000E+00  0.00000000000E+00 -0.13590597718E+04  0.13590597718E+04  0.50400001928E-02 0. -1.
    10030    2    1    2    0    0  0.00000000000E+00  0.00000000000E+00 -0.21675338290E+03  0.25013661606E+04  0.24919571908E+04 0.  0.
        2    1    3    3  502    0  0.93660162631E+03  0.38036083663E+03  0.62277295285E+03  0.11873260392E+04  0.25500000920E-02 0.  1.
       -2    1    3    3    0  502 -0.93660162631E+03 -0.38036083663E+03 -0.83952633575E+03  0.13140401215E+04  0.25500000920E-02 0. -1.
</event>
<event>
 5   0  0.1572732E-05  0.2547810E+04  0.7818609E-02  0.8386148E-01
        2   -1    0    0  501    0  0.00000000000E+00  0.00000000000E+00  0.23376008998E+04  0.23376008998E+04  0.25500000920E-02 0.  1.
       -2   -1    0    0    0  501  0.00000000000E+00  0.00000000000E+00 -0.69423080093E+03  0.69423080093E+03  0.25500000920E-02 0. -1.
    10030    2    1    2    0    0  0.00000000000E+00  0.00000000000E+00  0.16433700988E+04  0.30318317007E+04  0.25478104678E+04 0.  0.
        1    1    3    3  502    0  0.38668932621E+03 -0.68122294425E+03  0.20171461797E+04  0.21639020414E+04  0.50400001928E-02 0.  1.
       -1    1    3    3    0  502 -0.38668932621E+03  0.68122294425E+03 -0.37377608083E+03  0.86792965925E+03  0.50400001928E-02 0. -1.
</event>
<event>
 5   0  0.6104486E-06  0.2486908E+04  0.7818609E-02  0.8407665E-01
        1   -1    0    0  501    0  0.00000000000E+00  0.00000000000E+00  0.71577155816E+03  0.71577155818E+03  0.50400001928E-02 0.  1.
       -1   -1    0    0    0  501  0.00000000000E+00  0.00000000000E+00 -0.21601547823E+04  0.21601547823E+04  0.50400001928E-02 0. -1.
    10030    2    1    2    0    0  0.00000000000E+00  0.00000000000E+00 -0.14443832241E+04  0.28759263405E+04  0.24869076014E+04 0.  0.
        2    1    3    3  502    0 -0.16602733732E+03  0.30339947428E+03 -0.21034129780E+04  0.21316572130E+04  0.25500000920E-02 0. -1.
       -2    1    3    3    0  502  0.16602733732E+03 -0.30339947428E+03  0.65902975383E+03  0.74426912751E+03  0.25500000920E-02 0.  1.
</event>
<event>
 5   0  0.6105353E-06  0.2488921E+04  0.7818609E-02  0.8406943E-01
        1   -1    0    0  501    0  0.00000000000E+00  0.00000000000E+00  0.77660845455E+03  0.77660845457E+03  0.50400001928E-02 0.  1.
       -1   -1    0    0    0  501  0.00000000000E+00  0.00000000000E+00 -0.19941598204E+04  0.19941598204E+04  0.50400001928E-02 0. -1.
    10030    2    1    2    0    0  0.00000000000E+00  0.00000000000E+00 -0.12175513658E+04  0.27707682749E+04  0.24889205502E+04 0.  0.
        3    1    3    3  502    0 -0.10344629041E+03 -0.37099739387E+03  0.70858925580E+03  0.80649795095E+03  0.10100000352E+00 0.  1.
       -3    1    3    3    0  502  0.10344629041E+03  0.37099739387E+03 -0.19261406216E+04  0.19642703240E+04  0.10100000352E+00 0. -1.
</event>
<event>
 5   0  0.1468512E-05  0.2499044E+04  0.7818609E-02  0.8403326E-01
       -2   -1    0    0    0  501  0.00000000000E+00  0.00000000000E+00  0.76940424152E+03  0.76940424153E+03  0.25500000920E-02 0.  1.
        2   -1    0    0  501    0  0.00000000000E+00  0.00000000000E+00 -0.20292395741E+04  0.20292395741E+04  0.25500000920E-02 0. -1.
    10030    2    1    2    0    0  0.00000000000E+00  0.00000000000E+00 -0.12598353325E+04  0.27986438156E+04  0.24990442456E+04 0.  0.
        4    1    3    3  502    0  0.64669592668E+03  0.10277924333E+04 -0.30010988498E+03  0.12508558924E+04  0.12699999809E+01 0. -1.
       -4    1    3    3    0  502 -0.64669592668E+03 -0.10277924333E+04 -0.95972544755E+03  0.15477879232E+04  0.12699999809E+01 0.  1.
</event>
<event>
 5   0  0.1468512E-05  0.2553006E+04  0.7818609E-02  0.8384341E-01
       -2   -1    0    0    0  501  0.00000000000E+00  0.00000000000E+00  0.67324906603E+03  0.67324906604E+03  0.25500000920E-02 0. -1.
        2   -1    0    0  501    0  0.00000000000E+00  0.00000000000E+00 -0.24202937166E+04  0.24202937166E+04  0.25500000920E-02 0.  1.
    10030    2    1    2    0    0  0.00000000000E+00  0.00000000000E+00 -0.17470446506E+04  0.30935427826E+04  0.25530064506E+04 0.  0.
        4    1    3    3  502    0  0.97996087084E+03 -0.14971315951E+03  0.10093511292E+03  0.99645714831E+03  0.12699999809E+01 0. -1.
       -4    1    3    3    0  502 -0.97996087084E+03  0.14971315951E+03 -0.18479797635E+04  0.20970856343E+04  0.12699999809E+01 0.  1.
</event>
<event>
 5   0  0.1468512E-05  0.2494655E+04  0.7818609E-02  0.8404892E-01
        2   -1    0    0  501    0  0.00000000000E+00  0.00000000000E+00  0.17929659691E+04  0.17929659691E+04  0.25500000920E-02 0. -1.
       -2   -1    0    0    0  501  0.00000000000E+00  0.00000000000E+00 -0.86773871709E+03  0.86773871709E+03  0.25500000920E-02 0.  1.
    10030    2    1    2    0    0  0.00000000000E+00  0.00000000000E+00  0.92522725198E+03  0.26607046862E+04  0.24946550782E+04 0.  0.
        4    1    3    3  502    0  0.51411611973E+03 -0.11191542496E+04  0.25197703080E+03  0.12571060640E+04  0.12699999809E+01 0.  1.
       -4    1    3    3    0  502 -0.51411611973E+03  0.11191542496E+04  0.67325022118E+03  0.14035986222E+04  0.12699999809E+01 0. -1.
</event>
<event>
 5   0  0.1501947E-05  0.2494155E+04  0.7818609E-02  0.8405071E-01
        2   -1    0    0  501    0  0.00000000000E+00  0.00000000000E+00  0.20343185993E+04  0.20343185993E+04  0.25500000920E-02 0. -1.
       -2   -1    0    0    0  501  0.00000000000E+00  0.00000000000E+00 -0.76448325954E+03  0.76448325955E+03  0.25500000920E-02 0.  1.
    10030    2    1    2    0    0  0.00000000000E+00  0.00000000000E+00  0.12698353398E+04  0.27988018589E+04  0.24941551786E+04 0.  0.
        3    1    3    3  502    0  0.12577759946E+03  0.10503996763E+04  0.13759093849E+04  0.17355938840E+04  0.10100000352E+00 0. -1.
       -3    1    3    3    0  502 -0.12577759946E+03 -0.10503996763E+04 -0.10607404513E+03  0.10632079749E+04  0.10100000352E+00 0.  1.
</event>
<event>
 5   0  0.6290861E-06  0.2383742E+04  0.7818609E-02  0.8445615E-01
       -1   -1    0    0    0  501  0.00000000000E+00  0.00000000000E+00  0.12165926508E+04  0.12165926508E+04  0.50400001928E-02 0.  1.
        1   -1    0    0  501    0  0.00000000000E+00  0.00000000000E+00 -0.11676517792E+04  0.11676517792E+04  0.50400001928E-02 0. -1.
    10030    2    1    2    0    0  0.00000000000E+00  0.00000000000E+00  0.48940871598E+02  0.23842444300E+04  0.23837420777E+04 0.  0.
        1    1    3    3  502    0 -0.74105439583E+03 -0.92461828237E+03 -0.10391543823E+03  0.11894868658E+04  0.50400001928E-02 0. -1.
       -1    1    3    3    0  502  0.74105439583E+03  0.92461828237E+03  0.15285630983E+03  0.11947575642E+04  0.50400001928E-02 0.  1.
</event>
<event>
 5   0  0.1526824E-05  0.2510938E+04  0.7818609E-02  0.8399099E-01
       -2   -1    0    0    0  501  0.00000000000E+00  0.00000000000E+00  0.16512536693E+04  0.16512536693E+04  0.25500000920E-02 0.  1.
        2   -1    0    0  501    0  0.00000000000E+00  0.00000000000E+00 -0.95454906140E+03  0.95454906140E+03  0.25500000920E-02 0. -1.
    10030    2    1    2    0    0  0.00000000000E+00  0.00000000000E+00  0.69670460786E+03  0.26058027307E+04  0.25109381833E+04 0.  0.
        2    1    3    3  502    0  0.45109351304E+02  0.10461317107E+04 -0.37047551773E+03  0.11107108170E+04  0.25500000920E-02 0. -1.
       -2    1    3    3    0  502 -0.45109351304E+02 -0.10461317107E+04  0.10671801256E+04  0.14950919136E+04  0.25500000920E-02 0.  1.
</event>
<event>
 5   0  0.1572732E-05  0.2502623E+04  0.7818609E-02  0.8402052E-01
        2   -1    0    0  501    0  0.00000000000E+00  0.00000000000E+00  0.20289382884E+04  0.20289382884E+04  0.25500000920E-02 0. -1.
       -2   -1    0    0    0  501  0.00000000000E+00  0.00000000000E+00 -0.77172406342E+03  0.77172406343E+03  0.25500000920E-02 0.  1.
    10030    2    1    2    0    0  0.00000000000E+00  0.00000000000E+00  0.12572142250E+04  0.28006623518E+04  0.25026230242E+04 0.  0.
        1    1    3    3  502    0 -0.11218230670E+04  0.50352467363E+03  0.88807310582E+03  0.15168051727E+04  0.50400001928E-02 0. -1.
       -1    1    3    3    0  502  0.11218230670E+04 -0.50352467363E+03  0.36914111914E+03  0.12838571791E+04  0.50400001928E-02 0.  1.
</event>
<event>
 5   0  0.6104486E-06  0.2511651E+04  0.7818609E-02  0.8398847E-01
        1   -1    0    0  501    0  0.00000000000E+00  0.00000000000E+00  0.16674322275E+04  0.16674322275E+04  0.50400001928E-02 0.  1.
       -1   -1    0    0    0  501  0.00000000000E+00  0.00000000000E+00 -0.94582412356E+03  0.94582412357E+03  0.50400001928E-02 0. -1.
    10030    2    1    2    0    0  0.00000000000E+00  0.00000000000E+00  0.72160810396E+03  0.26132563511E+04  0.25116509512E+04 0.  0.
        2    1    3    3  502    0  0.82507696727E+03 -0.54857050478E+03 -0.44204331864E+03  0.10849349733E+04  0.25500000920E-02 0. -1.
       -2    1    3    3    0  502 -0.82507696727E+03  0.54857050478E+03  0.11636514226E+04  0.15283213778E+04  0.25500000920E-02 0.  1.
</event>
<event>
 5   0  0.6104486E-06  0.2506497E+04  0.7818609E-02  0.8400675E-01
       -1   -1    0    0    0  501  0.00000000000E+00  0.00000000000E+00  0.77509850391E+03  0.77509850392E+03  0.50400001928E-02 0.  1.
        1   -1    0    0  501    0  0.00000000000E+00  0.00000000000E+00 -0.20263633346E+04  0.20263633346E+04  0.50400001928E-02 0. -1.
    10030    2    1    2    0    0  0.00000000000E+00  0.00000000000E+00 -0.12512648307E+04  0.28014618385E+04  0.25064965103E+04 0.  0.
        2    1    3    3  502    0 -0.31100254621E+03 -0.75338835840E+03  0.43840547025E+03  0.92548147397E+03  0.25500000920E-02 0.  1.
       -2    1    3    3    0  502  0.31100254621E+03  0.75338835840E+03 -0.16896703009E+04  0.18759803646E+04  0.25500000920E-02 0. -1.
</event>
<event>
 5   0  0.1468512E-05  0.2505657E+04  0.7818609E-02  0.8400973E-01
        2   -1    0    0  501    0  0.00000000000E+00  0.00000000000E+00  0.19025208964E+04  0.19025208964E+04  0.25500000920E-02 0. -1.
       -2   -1    0    0    0  501  0.00000000000E+00  0.00000000000E+00 -0.82500003857E+03  0.82500003857E+03  0.25500000920E-02 0.  1.
    10030    2    1    2    0    0  0.00000000000E+00  0.00000000000E+00  0.10775208578E+04  0.27275209350E+04  0.25056574490E+04 0.  0.
        4    1    3    3  502    0 -0.64120813044E+03 -0.98324843547E+03  0.62215301802E+02  0.11754989192E+04  0.12699999809E+01 0. -1.
       -4    1    3    3    0  502  0.64120813044E+03  0.98324843547E+03  0.10153055560E+04  0.15520220158E+04  0.12699999809E+01 0.  1.
</event>
<event>
 5   0  0.1468512E-05  0.2590428E+04  0.7818609E-02  0.8371460E-01
       -2   -1    0    0    0  501  0.00000000000E+00  0.00000000000E+00  0.14255824028E+04  0.14255824028E+04  0.25500000920E-02 0. -1.
        2   -1    0    0  501    0  0.00000000000E+00  0.00000000000E+00 -0.11767679984E+04  0.11767679984E+04  0.25500000920E-02 0.  1.
    10030    2    1    2    0    0  0.00000000000E+00  0.00000000000E+00  0.24881440447E+03  0.26023504012E+04  0.25904283435E+04 0.  0.
        4    1    3    3  502    0 -0.18624912346E+02  0.33301691810E+03  0.13816986429E+04  0.14213866144E+04  0.12699999809E+01 0. -1.
       -4    1    3    3    0  502  0.18624912346E+02 -0.33301691810E+03 -0.11328842384E+04  0.11809637867E+04  0.12699999809E+01 0.  1.
</event>
<event>
 5   0  0.1468512E-05  0.2486272E+04  0.7818609E-02  0.8407893E-01
       -2   -1    0    0    0  501  0.00000000000E+00  0.00000000000E+00  0.12035034049E+04  0.12035034049E+04  0.25500000920E-02 0. -1.
        2   -1    0    0  501    0  0.00000000000E+00  0.00000000000E+00 -0.12840738975E+04  0.12840738975E+04  0.25500000920E-02 0.  1.
    10030    2    1    2    0    0  0.00000000000E+00  0.00000000000E+00 -0.80570492555E+02  0.24875773024E+04  0.24862721555E+04 0.  0.
        4    1    3    3  502    0 -0.57028003439E+03 -0.70349558946E+03  0.81178398266E+03  0.12161908606E+04  0.12699999809E+01 0. -1.
       -4    1    3    3    0  502  0.57028003439E+03  0.70349558946E+03 -0.89235447521E+03  0.12713864418E+04  0.12699999809E+01 0.  1.
</event>
<event>
 5   0  0.6105353E-06  0.2496341E+04  0.7818609E-02  0.8404290E-01
       -1   -1    0    0    0  501  0.00000000000E+00  0.00000000000E+00  0.95824716297E+03  0.95824716299E+03  0.50400001928E-02 0.  1.
        1   -1    0    0  501    0  0.00000000000E+00  0.00000000000E+00 -0.16258114412E+04  0.16258114413E+04  0.50400001928E-02 0. -1.
    10030    2    1    2    0    0  0.00000000000E+00  0.00000000000E+00 -0.66756427827E+03  0.25840586042E+04  0.24963406828E+04 0.  0.
        3    1    3    3  502    0  0.10807356199E+04  0.28460357616E+03  0.24157292191E+03  0.11433923922E+04  0.10100000352E+00 0.  1.
       -3    1    3    3    0  502 -0.10807356199E+04 -0.28460357616E+03 -0.90913720019E+03  0.14406662121E+04  0.10100000352E+00 0. -1.
</event>
<event>
 5   0  0.6477703E-06  0.2499778E+04  0.7818609E-02  0.8403065E-01
       -1   -1    0    0    0  501  0.00000000000E+00  0.00000000000E+00  0.11260547387E+04  0.11260547387E+04  0.50400001928E-02 0.  1.
        1   -1    0    0  501    0  0.00000000000E+00  0.00000000000E+00 -0.13873411774E+04  0.13873411774E+04  0.50400001928E-02 0. -1.
    10030    2    1    2    0    0  0.00000000000E+00  0.00000000000E+00 -0.26128643870E+03  0.25133959161E+04  0.24997776757E+04 0.  0.
        5    1    3    3  502    0  0.47520069702E+03 -0.51277488151E+03 -0.11723600200E+04  0.13649922666E+04  0.46999998093E+01 0. -1.
       -5    1    3    3    0  502 -0.47520069702E+03  0.51277488151E+03  0.91107358128E+03  0.11484036494E+04  0.46999998093E+01 0.  1.
</event>
<event>
 5   0  0.1526824E-05  0.2506789E+04  0.7818609E-02  0.8400571E-01
        2   -1    0    0  501    0  0.00000000000E+00  0.00000000000E+00  0.21622632132E+04  0.21622632132E+04  0.25500000920E-02 0. -1.
       -2   -1    0    0    0  501  0.00000000000E+00  0.00000000000E+00 -0.72655230606E+03  0.72655230607E+03  0.25500000920E-02 0.  1.
    10030    2    1    2    0    0  0.00000000000E+00  0.00000000000E+00  0.14357109071E+04  0.28888155192E+04  0.25067886420E+04 0.  0.
        2    1    3    3  502    0  0.36879439439E+03  0.84864972885E+03  0.16921466750E+04  0.19286202419E+04  0.25500000920E-02 0. -1.
       -2    1    3    3    0  502 -0.36879439439E+03 -0.84864972885E+03 -0.25643576790E+03  0.96019527737E+03  0.25500000920E-02 0.  1.
</event>
<event>
 5   0  0.6104486E-06  0.2502082E+04  0.7818609E-02  0.8402244E-01
        1   -1    0    0  501    0  0.00000000000E+00  0.00000000000E+00  0.17129634105E+04  0.17129634105E+04  0.50400001928E-02 0.  1.
       -1   -1    0    0    0  501  0.00000000000E+00  0.00000000000E+00 -0.91368191313E+03  0.91368191314E+03  0.50400001928E-02 0. -1.
    10030    2    1    2    0    0  0.00000000000E+00  0.00000000000E+00  0.79928149733E+03  0.26266453236E+04  0.25020820818E+04 0.  0.
        2    1    3    3  502    0  0.94475383862E+03 -0.68346230009E+03  0.87544090279E+03  0.14581074396E+04  0.25500000920E-02 0. -1.
       -2    1    3    3    0  502 -0.94475383862E+03  0.68346230009E+03 -0.76159405464E+02  0.11685378840E+04  0.25500000920E-02 0.  1.
</event>
<event>
 5   0  0.6104486E-06  0.2494287E+04  0.7818609E-02  0.8405024E-01
       -1   -1    0    0    0  501  0.00000000000E+00  0.00000000000E+00  0.89940460339E+03  0.89940460340E+03  0.50400001928E-02 0.  1.
        1   -1    0    0  501    0  0.00000000000E+00  0.00000000000E+00 -0.17293300201E+04  0.17293300201E+04  0.50400001928E-02 0. -1.
    10030    2    1    2    0    0  0.00000000000E+00  0.00000000000E+00 -0.82992541669E+03  0.26287346235E+04  0.24942873779E+04 0.  0.
        2    1    3    3  502    0  0.12121596272E+04 -0.13459854366E+03 -0.14030108706E+03  0.12276530963E+04  0.25500000920E-02 0.  1.
       -2    1    3    3    0  502 -0.12121596272E+04  0.13459854366E+03 -0.68962432963E+03  0.14010815272E+04  0.25500000920E-02 0. -1.
</event>
<event>
 5   0  0.6290861E-06  0.2364502E+04  0.7818609E-02  0.8452914E-01
       -1   -1    0    0    0  501  0.00000000000E+00  0.00000000000E+00  0.16979992471E+04  0.16979992471E+04  0.50400001928E-02 0. -1.
        1   -1    0    0  501    0  0.00000000000E+00  0.00000000000E+00 -0.82315561662E+03  0.82315561664E+03  0.50400001928E-02 0.  1.
    10030    2    1    2    0    0  0.00000000000E+00  0.00000000000E+00  0.87484363050E+03  0.25211548638E+04  0.23645021610E+04 0.  0.
        1    1    3    3  502    0 -0.98270088738E+03 -0.15753692421E+03 -0.24297614017E+03  0.10244785607E+04  0.50400001928E-02 0.  1.
       -1    1    3    3    0  502  0.98270088738E+03  0.15753692421E+03  0.11178197707E+04  0.14966763031E+04  0.50400001928E-02 0. -1.
</event>
<event>
 5   0  0.1526824E-05  0.2472539E+04  0.7818609E-02  0.8412835E-01
       -2   -1    0    0    0  501  0.00000000000E+00  0.00000000000E+00  0.12811051370E+04  0.12811051370E+04  0.25500000920E-02 0. -1.
        2   -1    0    0  501    0  0.00000000000E+00  0.00000000000E+00 -0.11930026333E+04  0.11930026333E+04  0.25500000920E-02 0.  1.
    10030    2    1    2    0    0  0.00000000000E+00  0.00000000000E+00  0.88102503704E+02  0.24741077703E+04  0.24725386160E+04 0.  0.
        2    1    3    3  502    0 -0.45788897914E+02 -0.28354638475E+03 -0.11591538004E+04  0.11942079837E+04  0.25500000920E-02 0.  1.
       -2    1    3    3    0  502  0.45788897914E+02  0.28354638475E+03  0.12472563041E+04  0.12798997865E+04  0.25500000920E-02 0. -1.
</event>
<event>
 5   0  0.1468512E-05  0.2478785E+04  0.7818609E-02  0.8410583E-01
        2   -1    0    0  501    0  0.00000000000E+00  0.00000000000E+00  0.87378099995E+03  0.87378099995E+03  0.25500000920E-02 0.  1.
       -2   -1    0    0    0  501  0.00000000000E+00  0.00000000000E+00 -0.17579848709E+04  0.17579848709E+04  0.25500000920E-02 0. -1.
    10030    2    1    2    0    0  0.00000000000E+00  0.00000000000E+00 -0.88420387095E+03  0.26317658709E+04  0.24787850075E+04 0.  0.
        4    1    3    3  502    0  0.36641305441E+03 -0.28292445663E+02 -0.16988047845E+04  0.17381019238E+04  0.12699999809E+01 0. -1.
       -4    1    3    3    0  502 -0.36641305441E+03  0.28292445663E+02  0.81460091355E+03  0.89366394701E+03  0.12699999809E+01 0.  1.
</event>
<event>
 5   0  0.6290861E-06  0.2569117E+04  0.7818609E-02  0.8378768E-01
       -1   -1    0    0    0  501  0.00000000000E+00  0.00000000000E+00  0.88619534996E+03  0.88619534998E+03  0.50400001928E-02 0.  1.
        1   -1    0    0  501    0  0.00000000000E+00  0.00000000000E+00 -0.18619937933E+04  0.18619937933E+04  0.50400001928E-02 0. -1.
    10030    2    1    2    0    0  0.00000000000E+00  0.00000000000E+00 -0.97579844331E+03  0.27481891433E+04  0.25691167675E+04 0.  0.
        1    1    3    3  502    0 -0.31520147564E+03  0.68211330376E+03 -0.16023724242E+04  0.17698101354E+04  0.50400001928E-02 0. -1.
       -1    1    3    3    0  502  0.31520147564E+03 -0.68211330376E+03  0.62657398092E+03  0.97837900785E+03  0.50400001928E-02 0.  1.
</event>
<event>
 5   0  0.1572732E-05  0.2485428E+04  0.7818609E-02  0.8408195E-01
       -2   -1    0    0    0  501  0.00000000000E+00  0.00000000000E+00  0.57491341218E+03  0.57491341219E+03  0.25500000920E-02 0. -1.
        2   -1    0    0  501    0  0.00000000000E+00  0.00000000000E+00 -0.26862107404E+04  0.26862107404E+04  0.25500000920E-02 0.  1.
    10030    2    1    2    0    0  0.00000000000E+00  0.00000000000E+00 -0.21112973282E+04  0.32611241525E+04  0.24854283998E+04 0.  0.
        1    1    3    3  502    0 -0.75659619983E+03  0.72760763089E+03 -0.18284455908E+03  0.10654965072E+04  0.50400001928E-02 0. -1.
       -1    1    3    3    0  502  0.75659619983E+03 -0.72760763089E+03 -0.19284527691E+04  0.21956276453E+04  0.50400001928E-02 0.  1.
</event>
<event>
 5   0  0.6104486E-06  0.2487928E+04  0.7818609E-02  0.8407299E-01
        1   -1    0    0  501    0  0.00000000000E+00  0.00000000000E+00  0.11366619943E+04  0.11366619943E+04  0.50400001928E-02 0. -1.
       -1   -1    0    0    0  501  0.00000000000E+00  0.00000000000E+00 -0.13613958504E+04  0.13613958504E+04  0.50400001928E-02 0.  1.
    10030    2    1    2    0    0  0.00000000000E+00  0.00000000000E+00 -0.22473385614E+03  0.24980578447E+04  0.24879283931E+04 0.  0.
        2    1    3    3  502    0  0.50897998881E+03  0.51837382474E+03 -0.11262677439E+04  0.13402429191E+04  0.25500000920E-02 0.  1.
       -2    1    3    3    0  502 -0.50897998881E+03 -0.51837382474E+03  0.90153388774E+03  0.11578149256E+04  0.25500000920E-02 0. -1.
</event>
<event>
 5   0  0.6290861E-06  0.2496663E+04  0.7818609E-02  0.8404175E-01
        1   -1    0    0  501    0  0.00000000000E+00  0.00000000000E+00  0.11999286852E+04  0.11999286852E+04  0.50400001928E-02 0.  1.
       -1   -1    0    0    0  501  0.00000000000E+00  0.00000000000E+00 -0.12986870510E+04  0.12986870511E+04  0.50400001928E-02 0. -1.
    10030    2    1    2    0    0  0.00000000000E+00  0.00000000000E+00 -0.98758365838E+02  0.24986157363E+04  0.24966632498E+04 0.  0.
        1    1    3    3  502    0 -0.93114511728E+01 -0.10006544431E+04 -0.79624413658E+03  0.12788278785E+04  0.50400001928E-02 0.  1.
       -1    1    3    3    0  502  0.93114511728E+01  0.10006544431E+04  0.69748577074E+03  0.12197878578E+04  0.50400001928E-02 0. -1.
</event>
<event>
 5   0  0.6105353E-06  0.2495680E+04  0.7818609E-02  0.8404526E-01
       -1   -1    0    0    0  501  0.00000000000E+00  0.00000000000E+00  0.71116773121E+03  0.71116773122E+03  0.50400001928E-02 0.  1.
        1   -1    0    0  501    0  0.00000000000E+00  0.00000000000E+00 -0.21895046713E+04  0.21895046713E+04  0.50400001928E-02 0. -1.
    10030    2    1    2    0    0  0.00000000000E+00  0.00000000000E+00 -0.14783369401E+04  0.29006724026E+04  0.24956803238E+04 0.  0.
        3    1    3    3  502    0  0.22294305224E+02 -0.31471414652E+03 -0.21423808254E+04  0.21654878530E+04  0.10100000352E+00 0. -1.
       -3    1    3    3    0  502 -0.22294305224E+02  0.31471414652E+03  0.66404388532E+03  0.73518454955E+03  0.10100000352E+00 0.  1.
</event>
<event>
 5   0  0.6290861E-06  0.2440983E+04  0.7818609E-02  0.8424317E-01
        1   -1    0    0  501    0  0.00000000000E+00  0.00000000000E+00  0.16153455203E+04  0.16153455203E+04  0.50400001928E-02 0. -1.
       -1   -1    0    0    0  501  0.00000000000E+00  0.00000000000E+00 -0.92215551588E+03  0.92215551589E+03  0.50400001928E-02 0.  1.
    10030    2    1    2    0    0  0.00000000000E+00  0.00000000000E+00  0.69319000440E+03  0.25375010362E+04  0.24409832294E+04 0.  0.
        1    1    3    3  502    0 -0.22719047610E+03  0.16937142414E+03 -0.88748350086E+03  0.93162715508E+03  0.50400001928E-02 0.  1.
       -1    1    3    3    0  502  0.22719047610E+03 -0.16937142414E+03  0.15806735053E+04  0.16058738811E+04  0.50400001928E-02 0. -1.
</event>
<event>
 5   0  0.6290861E-06  0.2503812E+04  0.7818609E-02  0.8401629E-01
       -1   -1    0    0    0  501  0.00000000000E+00  0.00000000000E+00  0.17335442129E+04  0.17335442129E+04  0.50400001928E-02 0.  1.
        1   -1    0    0  501    0  0.00000000000E+00  0.00000000000E+00 -0.90408347302E+03  0.90408347304E+03  0.50400001928E-02 0. -1.
    10030    2    1    2    0    0  0.00000000000E+00  0.00000000000E+00  0.82946073991E+03  0.26376276860E+04  0.25038120318E+04 0.  0.
        1    1    3    3  502    0 -0.54337221269E+03  0.76006221374E+02 -0.77068213598E+03  0.94603449301E+03  0.50400001928E-02 0. -1.
       -1    1    3    3    0  502  0.54337221269E+03 -0.76006221374E+02  0.16001428759E+04  0.16915931930E+04  0.50400001928E-02 0.  1.
</event>
<event>
 5   0  0.6104486E-06  0.2497814E+04  0.7818609E-02  0.8403765E-01
        1   -1    0    0  501    0  0.00000000000E+00  0.00000000000E+00  0.20140227456E+04  0.20140227456E+04  0.50400001928E-02 0.  1.
       -1   -1    0    0    0  501  0.00000000000E+00  0.00000000000E+00 -0.77445452117E+03  0.77445452118E+03  0.50400001928E-02 0. -1.
    10030    2    1    2    0    0  0.00000000000E+00  0.00000000000E+00  0.12395682244E+04  0.27884772668E+04  0.24978142614E+04 0.  0.
        2    1    3    3  502    0  0.69044448619E+03 -0.71604416130E+03 -0.22330296596E+03  0.10194591919E+04  0.25500000920E-02 0. -1.
       -2    1    3    3    0  502 -0.69044448619E+03  0.71604416130E+03  0.14628711904E+04  0.17690180748E+04  0.25500000920E-02 0.  1.
</event>
<event>
 5   0  0.6290861E-06  0.2507227E+04  0.7818609E-02  0.8400415E-01
        1   -1    0    0  501    0  0.00000000000E+00  0.00000000000E+00  0.14477965944E+04  0.14477965944E+04  0.50400001928E-02 0. -1.
       -1   -1    0    0    0  501  0.00000000000E+00  0.00000000000E+00 -0.10854750723E+04  0.10854750723E+04  0.50400001928E-02 0.  1.
    10030    2    1    2    0    0  0.00000000000E+00  0.00000000000E+00  0.36232152204E+03  0.25332716667E+04  0.25072272438E+04 0.  0.
        1    1    3    3  502    0 -0.45258320177E+03 -0.30012077479E+03 -0.96046251584E+03  0.11033550101E+04  0.50400001928E-02 0.  1.
       -1    1    3    3    0  502  0.45258320177E+03  0.30012077479E+03  0.13227840379E+04  0.14299166566E+04  0.50400001928E-02 0. -1.
</event>
<event>
 5   0  0.1526824E-05  0.2503377E+04  0.7818609E-02  0.8401783E-01
       -2   -1    0    0    0  501  0.00000000000E+00  0.00000000000E+00  0.11717334438E+04  0.11717334438E+04  0.25500000920E-02 0. -1.
        2   -1    0    0  501    0  0.00000000000E+00  0.00000000000E+00 -0.13370994818E+04  0.13370994818E+04  0.25500000920E-02 0.  1.
    10030    2    1    2    0    0  0.00000000000E+00  0.00000000000E+00 -0.16536603796E+03  0.25088329256E+04  0.25033770635E+04 0.  0.
        2    1    3    3  502    0 -0.35703788133E+03  0.59814210040E+03 -0.11248889620E+04  0.13231119370E+04  0.25500000920E-02 0.  1.
       -2    1    3    3    0  502  0.35703788133E+03 -0.59814210040E+03  0.95952292407E+03  0.11857209886E+04  0.25500000920E-02 0. -1.
</event>
<event>
 5   0  0.6104486E-06  0.2509894E+04  0.7818609E-02  0.8399469E-01
       -1   -1    0    0    0  501  0.00000000000E+00  0.00000000000E+00  0.82172930932E+03  0.82172930933E+03  0.50400001928E-02 0.  1.
        1   -1    0    0  501    0  0.00000000000E+00  0.00000000000E+00 -0.19165583349E+04  0.19165583349E+04  0.50400001928E-02 0. -1.
    10030    2    1    2    0    0  0.00000000000E+00  0.00000000000E+00 -0.10948290256E+04  0.27382876443E+04  0.25098941466E+04 0.  0.
        2    1    3    3  502    0 -0.12161183185E+04 -0.21996424290E+03 -0.78535229714E+03  0.14642767031E+04  0.25500000920E-02 0. -1.
       -2    1    3    3    0  502  0.12161183185E+04  0.21996424290E+03 -0.30947672847E+03  0.12740109411E+04  0.25500000920E-02 0.  1.
</event>
<event>
 5   0  0.6477703E-06  0.2495034E+04  0.7818609E-02  0.8404757E-01
        1   -1    0    0  501    0  0.00000000000E+00  0.00000000000E+00  0.11412769093E+04  0.11412769094E+04  0.50400001928E-02 0.  1.
       -1   -1    0    0    0  501  0.00000000000E+00  0.00000000000E+00 -0.13636473618E+04  0.13636473618E+04  0.50400001928E-02 0. -1.
    10030    2    1    2    0    0  0.00000000000E+00  0.00000000000E+00 -0.22237045250E+03  0.25049242712E+04  0.24950344660E+04 0.  0.
        5    1    3    3  502    0 -0.10201654775E+04 -0.53058095093E+03  0.37449195897E+03  0.12093469578E+04  0.46999998093E+01 0.  1.
       -5    1    3    3    0  502  0.10201654775E+04  0.53058095093E+03 -0.59686241147E+03  0.12955773134E+04  0.46999998093E+01 0. -1.
</event>
<event>
 5   0  0.1572732E-05  0.2492949E+04  0.7818609E-02  0.8405502E-01
       -2   -1    0    0    0  501  0.00000000000E+00  0.00000000000E+00  0.69488486923E+03  0.69488486923E+03  0.25500000920E-02 0.  1.
        2   -1    0    0  501    0  0.00000000000E+00  0.00000000000E+00 -0.22359079555E+04  0.22359079555E+04  0.25500000920E-02 0. -1.
    10030    2    1    2    0    0  0.00000000000E+00  0.00000000000E+00 -0.15410230863E+04  0.29307928248E+04  0.24929489424E+04 0.  0.
        1    1    3    3  502    0  0.28768167778E+03 -0.91961226904E+03 -0.17001176752E+04  0.19541871923E+04  0.50400001928E-02 0. -1.
       -1    1    3    3    0  502 -0.28768167778E+03  0.91961226904E+03  0.15909458889E+03  0.97660563245E+03  0.50400001928E-02 0.  1.
</event>
<event>
 5   0  0.1572732E-05  0.2468902E+04  0.7818609E-02  0.8414149E-01
       -2   -1    0    0    0  501  0.00000000000E+00  0.00000000000E+00  0.77591705932E+03  0.77591705933E+03  0.25500000920E-02 0.  1.
        2   -1    0    0  501    0  0.00000000000E+00  0.00000000000E+00 -0.19639596504E+04  0.19639596504E+04  0.25500000920E-02 0. -1.
    10030    2    1    2    0    0  0.00000000000E+00  0.00000000000E+00 -0.11880425910E+04  0.27398767097E+04  0.24689024254E+04 0.  0.
        1    1    3    3  502    0  0.47744432427E+03 -0.59742334491E+03  0.48135477196E+03  0.90364271277E+03  0.50400001928E-02 0.  1.
       -1    1    3    3    0  502 -0.47744432427E+03  0.59742334491E+03 -0.16693973630E+04  0.18362339969E+04  0.50400001928E-02 0. -1.
</event>
<event>
 5   0  0.1526824E-05  0.2510131E+04  0.7818609E-02  0.8399385E-01
        2   -1    0    0  501    0  0.00000000000E+00  0.00000000000E+00  0.14135063567E+04  0.14135063567E+04  0.25500000920E-02 0. -1.
       -2   -1    0    0    0  501  0.00000000000E+00  0.00000000000E+00 -0.11143848093E+04  0.11143848093E+04  0.25500000920E-02 0.  1.
    10030    2    1    2    0    0  0.00000000000E+00  0.00000000000E+00  0.29912154739E+03  0.25278911660E+04  0.25101314801E+04 0.  0.
        2    1    3    3  502    0 -0.87118842231E+01  0.10137919546E+04  0.89461947471E+03  0.13521072549E+04  0.25500000920E-02 0. -1.
       -2    1    3    3    0  502  0.87118842231E+01 -0.10137919546E+04 -0.59549792732E+03  0.11757839111E+04  0.25500000920E-02 0.  1.
</event>
<event>
 5   0  0.1550483E-05  0.2491702E+04  0.7818609E-02  0.8405948E-01
        2   -1    0    0  501    0  0.00000000000E+00  0.00000000000E+00  0.14961444979E+04  0.14961444979E+04  0.25500000920E-02 0.  1.
       -2   -1    0    0    0  501  0.00000000000E+00  0.00000000000E+00 -0.10374299851E+04  0.10374299851E+04  0.25500000920E-02 0. -1.
    10030    2    1    2    0    0  0.00000000000E+00  0.00000000000E+00  0.45871451277E+03  0.25335744830E+04  0.24917023611E+04 0.  0.
        5    1    3    3  502    0 -0.95828318716E+03 -0.75742193478E+03 -0.19974392322E+02  0.12216446785E+04  0.46999998093E+01 0.  1.
       -5    1    3    3    0  502  0.95828318716E+03  0.75742193478E+03  0.47868890509E+03  0.13119298045E+04  0.46999998093E+01 0. -1.
</event>
<event>
 5   0  0.6346420E-06  0.2523748E+04  0.7818609E-02  0.8394574E-01
        1   -1    0    0  501    0  0.00000000000E+00  0.00000000000E+00  0.18946110965E+04  0.18946110965E+04  0.50400001928E-02 0.  1.
       -1   -1    0    0    0  501  0.00000000000E+00  0.00000000000E+00 -0.84044980488E+03  0.84044980489E+03  0.50400001928E-02 0. -1.
    10030    2    1    2    0    0  0.00000000000E+00  0.00000000000E+00  0.10541612917E+04  0.27350609014E+04  0.25237476311E+04 0.  0.
        4    1    3    3  502    0  0.12748418406E+03  0.10980724888E+04  0.11865626067E+04  0.16217113925E+04  0.12699999809E+01 0. -1.
       -4    1    3    3    0  502 -0.12748418406E+03 -0.10980724888E+04 -0.13240131508E+03  0.11133495089E+04  0.12699999809E+01 0.  1.
</event>
<event>
 5   0  0.1572732E-05  0.2499776E+04  0.7818609E-02  0.8403066E-01
       -2   -1    0    0    0  501  0.00000000000E+00  0.00000000000E+00  0.28221536867E+04  0.28221536867E+04  0.25500000920E-02 0.  1.
        2   -1    0    0  501    0  0.00000000000E+00  0.00000000000E+00 -0.55355574858E+03  0.55355574858E+03  0.25500000920E-02 0. -1.
    10030    2    1    2    0    0  0.00000000000E+00  0.00000000000E+00  0.22685979381E+04  0.33757094353E+04  0.24997755072E+04 0.  0.
        1    1    3    3  502    0 -0.63801650141E+03 -0.43618613527E+03  0.24607899490E+04  0.25793042810E+04  0.50400001928E-02 0.  1.
       -1    1    3    3    0  502  0.63801650141E+03  0.43618613527E+03 -0.19219201092E+03  0.79640515428E+03  0.50400001928E-02 0. -1.
</event>
<event>
 5   0  0.6290861E-06  0.2496446E+04  0.7818609E-02  0.8404253E-01
        1   -1    0    0  501    0  0.00000000000E+00  0.00000000000E+00  0.52767731566E+03  0.52767731568E+03  0.50400001928E-02 0.  1.
       -1   -1    0    0    0  501  0.00000000000E+00  0.00000000000E+00 -0.29526778194E+04  0.29526778194E+04  0.50400001928E-02 0. -1.
    10030    2    1    2    0    0  0.00000000000E+00  0.00000000000E+00 -0.24250005037E+04  0.34803551351E+04  0.24964463589E+04 0.  0.
        1    1    3    3  502    0 -0.53220483289E+03  0.95966165136E+03 -0.20418206721E+04  0.23180215975E+04  0.50400001928E-02 0. -1.
       -1    1    3    3    0  502  0.53220483289E+03 -0.95966165136E+03 -0.38317983161E+03  0.11623335376E+04  0.50400001928E-02 0.  1.
</event>
<event>
 5   0  0.6104486E-06  0.2520353E+04  0.7818609E-02  0.8395770E-01
        1   -1    0    0  501    0  0.00000000000E+00  0.00000000000E+00  0.92260420265E+03  0.92260420267E+03  0.50400001928E-02 0.  1.
       -1   -1    0    0    0  501  0.00000000000E+00  0.00000000000E+00 -0.17212639417E+04  0.17212639417E+04  0.50400001928E-02 0. -1.
    10030    2    1    2    0    0  0.00000000000E+00  0.00000000000E+00 -0.79865973903E+03  0.26438681444E+04  0.25203534248E+04 0.  0.
        2    1    3    3  502    0 -0.66838438702E+03  0.47354357284E+03  0.60523550094E+03  0.10184749461E+04  0.25500000920E-02 0.  1.
       -2    1    3    3    0  502  0.66838438702E+03 -0.47354357284E+03 -0.14038952400E+04  0.16253931983E+04  0.25500000920E-02 0. -1.
</event>
<event>
 5   0  0.6290861E-06  0.2487065E+04  0.7818609E-02  0.8407608E-01
        1   -1    0    0  501    0  0.00000000000E+00  0.00000000000E+00  0.84177564506E+03  0.84177564508E+03  0.50400001928E-02 0.  1.
       -1   -1    0    0    0  501  0.00000000000E+00  0.00000000000E+00 -0.18370366581E+04  0.18370366582E+04  0.50400001928E-02 0. -1.
    10030    2    1    2    0    0  0.00000000000E+00  0.00000000000E+00 -0.99526101309E+03  0.26788123032E+04  0.24870647100E+04 0.  0.
        1    1    3    3  502    0  0.99882846765E+03  0.31735529410E+03  0.22330135577E+03  0.10715578314E+04  0.50400001928E-02 0.  1.
       -1    1    3    3    0  502 -0.99882846765E+03 -0.31735529410E+03 -0.12185623689E+04  0.16072544719E+04  0.50400001928E-02 0. -1.
</event>
<event>
 5   0  0.6477703E-06  0.2515774E+04  0.7818609E-02  0.8397387E-01
       -1   -1    0    0    0  501  0.00000000000E+00  0.00000000000E+00  0.15445306989E+04  0.15445306989E+04  0.50400001928E-02 0.  1.
        1   -1    0    0  501    0  0.00000000000E+00  0.00000000000E+00 -0.10244408373E+04  0.10244408373E+04  0.50400001928E-02 0. -1.
    10030    2    1    2    0    0  0.00000000000E+00  0.00000000000E+00  0.52008986162E+03  0.25689715362E+04  0.25157744910E+04 0.  0.
        5    1    3    3  502    0 -0.85140864013E+03  0.85215881535E+03  0.62990107691E+03  0.13593633715E+04  0.46999998093E+01 0.  1.
       -5    1    3    3    0  502  0.85140864013E+03 -0.85215881535E+03 -0.10981121530E+03  0.12096081647E+04  0.46999998093E+01 0. -1.
</event>
<event>
 5   0  0.6104486E-06  0.2550729E+04  0.7818609E-02  0.8385133E-01
        1   -1    0    0  501    0  0.00000000000E+00  0.00000000000E+00  0.72991962516E+03  0.72991962518E+03  0.50400001928E-02 0.  1.
       -1   -1    0    0    0  501  0.00000000000E+00  0.00000000000E+00 -0.22284028678E+04  0.22284028678E+04  0.50400001928E-02 0. -1.
    10030    2    1    2    0    0  0.00000000000E+00  0.00000000000E+00 -0.14984832427E+04  0.29583224930E+04  0.25507292965E+04 0.  0.
        2    1    3    3  502    0 -0.86838214180E+03  0.31774178469E+02  0.33344890538E+03  0.93074449508E+03  0.25500000920E-02 0.  1.
       -2    1    3    3    0  502  0.86838214180E+03 -0.31774178469E+02 -0.18319321480E+04  0.20275779979E+04  0.25500000920E-02 0. -1.
</event>
<event>
 5   0  0.1572732E-05  0.2500754E+04  0.7818609E-02  0.8402717E-01
       -2   -1    0    0    0  501  0.00000000000E+00  0.00000000000E+00  0.62170672473E+03  0.62170672473E+03  0.25500000920E-02 0. -1.
        2   -1    0    0  501    0  0.00000000000E+00  0.00000000000E+00 -0.25147582046E+04  0.25147582046E+04  0.25500000920E-02 0.  1.
    10030    2    1    2    0    0  0.00000000000E+00  0.00000000000E+00 -0.18930514799E+04  0.31364649294E+04  0.25007535559E+04 0.  0.
        1    1    3    3  502    0  0.96137143585E+03 -0.79502604330E+03 -0.10525092014E+04  0.16322000693E+04  0.50400001928E-02 0.  1.
       -1    1    3    3    0  502 -0.96137143585E+03  0.79502604330E+03 -0.84054227850E+03  0.15042648600E+04  0.50400001928E-02 0. -1.
</event>
<event>
 5   0  0.1501947E-05  0.2518066E+04  0.7818609E-02  0.8396578E-01
       -2   -1    0    0    0  501  0.00000000000E+00  0.00000000000E+00  0.91958760975E+03  0.91958760975E+03  0.25500000920E-02 0.  1.
        2   -1    0    0  501    0  0.00000000000E+00  0.00000000000E+00 -0.17237771108E+04  0.17237771108E+04  0.25500000920E-02 0. -1.
    10030    2    1    2    0    0  0.00000000000E+00  0.00000000000E+00 -0.80418950101E+03  0.26433647205E+04  0.25180659825E+04 0.  0.
        3    1    3    3  502    0 -0.17364825956E+03  0.79918605692E+03 -0.14069688868E+04  0.16273947063E+04  0.10100000352E+00 0. -1.
       -3    1    3    3    0  502  0.17364825956E+03 -0.79918605692E+03  0.60277938576E+03  0.10159700142E+04  0.10100000352E+00 0.  1.
</event>
<event>
 5   0  0.6290861E-06  0.2499218E+04  0.7818609E-02  0.8403264E-01
       -1   -1    0    0    0  501  0.00000000000E+00  0.00000000000E+00  0.62942315239E+03  0.62942315241E+03  0.50400001928E-02 0.  1.
        1   -1    0    0  501    0  0.00000000000E+00  0.00000000000E+00 -0.24808793402E+04  0.24808793402E+04  0.50400001928E-02 0. -1.
    10030    2    1    2    0    0  0.00000000000E+00  0.00000000000E+00 -0.18514561878E+04  0.31103024927E+04  0.24992181938E+04 0.  0.
        1    1    3    3  502    0 -0.20872132443E+03 -0.79962336063E+03 -0.20922270697E+04  0.22495279997E+04  0.50400001928E-02 0. -1.
       -1    1    3    3    0  502  0.20872132443E+03  0.79962336063E+03  0.24077088188E+03  0.86077449295E+03  0.50400001928E-02 0.  1.
</event>
<event>
 5   0  0.6104486E-06  0.2515303E+04  0.7818609E-02  0.8397554E-01
        1   -1    0    0  501    0  0.00000000000E+00  0.00000000000E+00  0.16034658955E+04  0.16034658955E+04  0.50400001928E-02 0.  1.
       -1   -1    0    0    0  501  0.00000000000E+00  0.00000000000E+00 -0.98641811455E+03  0.98641811456E+03  0.50400001928E-02 0. -1.
    10030    2    1    2    0    0  0.00000000000E+00  0.00000000000E+00  0.61704778091E+03  0.25898840100E+04  0.25153034055E+04 0.  0.
        2    1    3    3  502    0 -0.90489172605E+02  0.65153667693E+03  0.14122208607E+04  0.15579011814E+04  0.25500000920E-02 0.  1.
       -2    1    3    3    0  502  0.90489172605E+02 -0.65153667693E+03 -0.79517307977E+03  0.10319828286E+04  0.25500000920E-02 0. -1.
</event>
<event>
 5   0  0.6290861E-06  0.2507304E+04  0.7818609E-02  0.8400388E-01
        1   -1    0    0  501    0  0.00000000000E+00  0.00000000000E+00  0.10034089847E+04  0.10034089848E+04  0.50400001928E-02 0. -1.
       -1   -1    0    0    0  501  0.00000000000E+00  0.00000000000E+00 -0.15663043542E+04  0.15663043542E+04  0.50400001928E-02 0.  1.
    10030    2    1    2    0    0  0.00000000000E+00  0.00000000000E+00 -0.56289536947E+03  0.25697133390E+04  0.25073044186E+04 0.  0.
        1    1    3    3  502    0 -0.36850851785E+03  0.18621581366E+03 -0.14946210689E+04  0.15506021400E+04  0.50400001928E-02 0.  1.
       -1    1    3    3    0  502  0.36850851785E+03 -0.18621581366E+03  0.93172569939E+03  0.10191111990E+04  0.50400001928E-02 0. -1.
</event>
<event>
 5   0  0.6346420E-06  0.2508915E+04  0.7818609E-02  0.8399816E-01
        1   -1    0    0  501    0  0.00000000000E+00  0.00000000000E+00  0.19936418485E+04  0.19936418485E+04  0.50400001928E-02 0. -1.
       -1   -1    0    0    0  501  0.00000000000E+00  0.00000000000E+00 -0.78934118447E+03  0.78934118448E+03  0.50400001928E-02 0.  1.
    10030    2    1    2    0    0  0.00000000000E+00  0.00000000000E+00  0.12043006640E+04  0.27829830330E+04  0.25089149991E+04 0.  0.
        4    1    3    3  502    0 -0.81815673426E+03 -0.56172403945E+03  0.14532672246E+04  0.17598015733E+04  0.12699999809E+01 0. -1.
       -4    1    3    3    0  502  0.81815673426E+03  0.56172403945E+03 -0.24896656057E+03  0.10231814597E+04  0.12699999809E+01 0.  1.
</event>
<event>
 5   0  0.6105353E-06  0.2482889E+04  0.7818609E-02  0.8409107E-01
       -1   -1    0    0    0  501  0.00000000000E+00  0.00000000000E+00  0.97294983757E+03  0.97294983758E+03  0.50400001928E-02 0. -1.
        1   -1    0    0  501    0  0.00000000000E+00  0.00000000000E+00 -0.15840331729E+04  0.15840331729E+04  0.50400001928E-02 0.  1.
    10030    2    1    2    0    0  0.00000000000E+00  0.00000000000E+00 -0.61108333530E+03  0.25569830105E+04  0.24828892994E+04 0.  0.
        3    1    3    3  502    0  0.51078474017E+03 -0.23219674661E+03 -0.14460040540E+04  0.15510461354E+04  0.10100000352E+00 0.  1.
       -3    1    3    3    0  502 -0.51078474017E+03  0.23219674661E+03  0.83492071866E+03  0.10059368750E+04  0.10100000352E+00 0. -1.
</event>
<event>
 5   0  0.1572732E-05  0.2497351E+04  0.7818609E-02  0.8403930E-01
       -2   -1    0    0    0  501  0.00000000000E+00  0.00000000000E+00  0.83521374556E+03  0.83521374556E+03  0.25500000920E-02 0.  1.
        2   -1    0    0  501    0  0.00000000000E+00  0.00000000000E+00 -0.18668157669E+04  0.18668157669E+04  0.25500000920E-02 0. -1.
    10030    2    1    2    0    0  0.00000000000E+00  0.00000000000E+00 -0.10316020213E+04  0.27020295124E+04  0.24973507474E+04 0.  0.
        1    1    3    3  502    0  0.11281591450E+03 -0.10023815087E+04  0.28051892134E+03  0.10469894864E+04  0.50400001928E-02 0.  1.
       -1    1    3    3    0  502 -0.11281591450E+03  0.10023815087E+04 -0.13121209426E+04  0.16550400260E+04  0.50400001928E-02 0. -1.
</event>
<event>
 5   0  0.6477703E-06  0.2496842E+04  0.7818609E-02  0.8404112E-01
       -1   -1    0    0    0  501  0.00000000000E+00  0.00000000000E+00  0.72795375436E+03  0.72795375438E+03  0.50400001928E-02 0.  1.
        1   -1    0    0  501    0  0.00000000000E+00  0.00000000000E+00 -0.21410078050E+04  0.21410078050E+04  0.50400001928E-02 0. -1.
    10030    2    1    2    0    0  0.00000000000E+00  0.00000000000E+00 -0.14130540507E+04  0.28689615594E+04  0.24968417409E+04 0.  0.
        5    1    3    3  502    0  0.31955668140E+03 -0.10760882272E+04 -0.78801663889E+02  0.11253062417E+04  0.46999998093E+01 0.  1.
       -5    1    3    3    0  502 -0.31955668140E+03  0.10760882272E+04 -0.13342523868E+04  0.17436553177E+04  0.46999998093E+01 0. -1.
</event>
<event>
 5   0  0.1526824E-05  0.2491949E+04  0.7818609E-02  0.8405859E-01
        2   -1    0    0  501    0  0.00000000000E+00  0.00000000000E+00  0.11660337884E+04  0.11660337884E+04  0.25500000920E-02 0.  1.
       -2   -1    0    0    0  501  0.00000000000E+00  0.00000000000E+00 -0.13313961892E+04  0.13313961892E+04  0.25500000920E-02 0. -1.
    10030    2    1    2    0    0  0.00000000000E+00  0.00000000000E+00 -0.16536240079E+03  0.24974299775E+04  0.24919493914E+04 0.  0.
        2    1    3    3  502    0 -0.84758388235E+02 -0.33880601984E+03  0.11159757618E+04  0.11693482819E+04  0.25500000920E-02 0.  1.
       -2    1    3    3    0  502  0.84758388235E+02  0.33880601984E+03 -0.12813381626E+04  0.13280816957E+04  0.25500000920E-02 0. -1.
</event>
<event>
 5   0  0.6346420E-06  0.2515902E+04  0.7818609E-02  0.8397342E-01
        1   -1    0    0  501    0  0.00000000000E+00  0.00000000000E+00  0.21411173246E+04  0.21411173246E+04  0.50400001928E-02 0.  1.
       -1   -1    0    0    0  501  0.00000000000E+00  0.00000000000E+00 -0.73907228478E+03  0.73907228480E+03  0.50400001928E-02 0. -1.
    10030    2    1    2    0    0  0.00000000000E+00  0.00000000000E+00  0.14020450398E+04  0.28801896094E+04  0.25159018050E+04 0.  0.
        4    1    3    3  502    0 -0.51181758050E+03  0.10568849410E+04  0.18462538494E+03  0.11887182845E+04  0.12699999809E+01 0.  1.
       -4    1    3    3    0  502  0.51181758050E+03 -0.10568849410E+04  0.12174196548E+04  0.16914713249E+04  0.12699999809E+01 0. -1.
</event>
<event>
 5   0  0.1501947E-05  0.2491602E+04  0.7818609E-02  0.8405984E-01
       -2   -1    0    0    0  501  0.00000000000E+00  0.00000000000E+00  0.17504105900E+04  0.17504105900E+04  0.25500000920E-02 0. -1.
        2   -1    0    0  501    0  0.00000000000E+00  0.00000000000E+00 -0.88666043826E+03  0.88666043827E+03  0.25500000920E-02 0.  1.
    10030    2    1    2    0    0  0.00000000000E+00  0.00000000000E+00  0.86375015178E+03  0.26370710283E+04  0.24916017506E+04 0.  0.
        3    1    3    3  502    0  0.35486351510E+03  0.11681065799E+04  0.16915121591E+03  0.12324825518E+04  0.10100000352E+00 0.  1.
       -3    1    3    3    0  502 -0.35486351510E+03 -0.11681065799E+04  0.69459893587E+03  0.14045884765E+04  0.10100000352E+00 0. -1.
</event>
<event>
 5   0  0.6290861E-06  0.2448189E+04  0.7818609E-02  0.8421680E-01
        1   -1    0    0  501    0  0.00000000000E+00  0.00000000000E+00  0.11287442916E+04  0.11287442916E+04  0.50400001928E-02 0.  1.
       -1   -1    0    0    0  501  0.00000000000E+00  0.00000000000E+00 -0.13274989132E+04  0.13274989132E+04  0.50400001928E-02 0. -1.
    10030    2    1    2    0    0  0.00000000000E+00  0.00000000000E+00 -0.19875462162E+03  0.24562432048E+04  0.24481885715E+04 0.  0.
        1    1    3    3  502    0  0.27859127890E+03 -0.88358061348E+03 -0.90205888911E+03  0.12930730995E+04  0.50400001928E-02 0.  1.
       -1    1    3    3    0  502 -0.27859127890E+03  0.88358061348E+03  0.70330426749E+03  0.11631701053E+04  0.50400001928E-02 0. -1.
</event>
<event>
 5   0  0.1501947E-05  0.2491662E+04  0.7818609E-02  0.8405962E-01
       -2   -1    0    0    0  501  0.00000000000E+00  0.00000000000E+00  0.12077189330E+04  0.12077189330E+04  0.25500000920E-02 0. -1.
        2   -1    0    0  501    0  0.00000000000E+00  0.00000000000E+00 -0.12851454236E+04  0.12851454236E+04  0.25500000920E-02 0.  1.
    10030    2    1    2    0    0  0.00000000000E+00  0.00000000000E+00 -0.77426490562E+02  0.24928643566E+04  0.24916616622E+04 0.  0.
        3    1    3    3  502    0  0.12843373530E+03  0.12349419225E+04 -0.14131845629E+03  0.12496190189E+04  0.10100000352E+00 0.  1.
       -3    1    3    3    0  502 -0.12843373530E+03 -0.12349419225E+04  0.63891965729E+02  0.12432453377E+04  0.10100000352E+00 0. -1.
</event>
<event>
 5   0  0.6105353E-06  0.2501408E+04  0.7818609E-02  0.8402484E-01
       -1   -1    0    0    0  501  0.00000000000E+00  0.00000000000E+00  0.14463405068E+04  0.14463405068E+04  0.50400001928E-02 0. -1.
        1   -1    0    0  501    0  0.00000000000E+00  0.00000000000E+00 -0.10815302176E+04  0.10815302176E+04  0.50400001928E-02 0.  1.
    10030    2    1    2    0    0  0.00000000000E+00  0.00000000000E+00  0.36481028919E+03  0.25278707244E+04  0.25014083737E+04 0.  0.
        3    1    3    3  502    0  0.13806055625E+03 -0.71257442375E+03 -0.84691701212E+03  0.11153884804E+04  0.10100000352E+00 0.  1.
       -3    1    3    3    0  502 -0.13806055625E+03  0.71257442375E+03  0.12117273013E+04  0.14124822440E+04  0.10100000352E+00 0. -1.
</event>
<event>
 5   0  0.6477703E-06  0.2449980E+04  0.7818609E-02  0.8421025E-01
        1   -1    0    0  501    0  0.00000000000E+00  0.00000000000E+00  0.17601660335E+04  0.17601660335E+04  0.50400001928E-02 0. -1.
       -1   -1    0    0    0  501  0.00000000000E+00  0.00000000000E+00 -0.85253378924E+03  0.85253378925E+03  0.50400001928E-02 0.  1.
    10030    2    1    2    0    0  0.00000000000E+00  0.00000000000E+00  0.90763224429E+03  0.26126998228E+04  0.24499804230E+04 0.  0.
        5    1    3    3  502    0  0.10391209773E+04  0.27415419628E+03 -0.17314797110E+03  0.10885473066E+04  0.46999998093E+01 0.  1.
       -5    1    3    3    0  502 -0.10391209773E+04 -0.27415419628E+03  0.10807802154E+04  0.15241525162E+04  0.46999998093E+01 0. -1.
</event>
<event>
 5   0  0.6105353E-06  0.2502536E+04  0.7818609E-02  0.8402083E-01
       -1   -1    0    0    0  501  0.00000000000E+00  0.00000000000E+00  0.94404857285E+03  0.94404857286E+03  0.50400001928E-02 0.  1.
        1   -1    0    0  501    0  0.00000000000E+00  0.00000000000E+00 -0.16584645830E+04  0.16584645830E+04  0.50400001928E-02 0. -1.
    10030    2    1    2    0    0  0.00000000000E+00  0.00000000000E+00 -0.71441601018E+03  0.26025131559E+04  0.25025356123E+04 0.  0.
        3    1    3    3  502    0  0.11379313387E+04  0.39126030395E+02  0.18241762319E+03  0.11531239211E+04  0.10100000352E+00 0.  1.
       -3    1    3    3    0  502 -0.11379313387E+04 -0.39126030395E+02 -0.89683363337E+03  0.14493892348E+04  0.10100000352E+00 0. -1.
</event>
<event>
 5   0  0.1550483E-05  0.2496792E+04  0.7818609E-02  0.8404129E-01
        2   -1    0    0  501    0  0.00000000000E+00  0.00000000000E+00  0.16544800773E+04  0.16544800773E+04  0.25500000920E-02 0. -1.
       -2   -1    0    0    0  501  0.00000000000E+00  0.00000000000E+00 -0.94198326891E+03  0.94198326891E+03  0.25500000920E-02 0.  1.
    10030    2    1    2    0    0  0.00000000000E+00  0.00000000000E+00  0.71249680843E+03  0.25964633463E+04  0.24967919830E+04 0.  0.
        5    1    3    3  502    0 -0.71492292870E+03 -0.45345387898E+03  0.13103345547E+04  0.15600429319E+04  0.46999998093E+01 0. -1.
       -5    1    3    3    0  502  0.71492292870E+03  0.45345387898E+03 -0.59783774625E+03  0.10364204143E+04  0.46999998093E+01 0.  1.
</event>
<event>
 5   0  0.1572732E-05  0.2506812E+04  0.7818609E-02  0.8400563E-01
        2   -1    0    0  501    0  0.00000000000E+00  0.00000000000E+00  0.19918496628E+04  0.19918496628E+04  0.25500000920E-02 0. -1.
       -2   -1    0    0    0  501  0.00000000000E+00  0.00000000000E+00 -0.78872776848E+03  0.78872776848E+03  0.25500000920E-02 0.  1.
    10030    2    1    2    0    0  0.00000000000E+00  0.00000000000E+00  0.12031218944E+04  0.27805774313E+04  0.25068124299E+04 0.  0.
        1    1    3    3  502    0 -0.58157723736E+03  0.46618524711E+03 -0.51619226600E+03  0.90665055183E+03  0.50400001928E-02 0.  1.
       -1    1    3    3    0  502  0.58157723736E+03 -0.46618524711E+03  0.17193141604E+04  0.18739268795E+04  0.50400001928E-02 0. -1.
</event>
<event>
 5   0  0.1572732E-05  0.2504119E+04  0.7818609E-02  0.8401519E-01
       -2   -1    0    0    0  501  0.00000000000E+00  0.00000000000E+00  0.84664836194E+03  0.84664836194E+03  0.25500000920E-02 0. -1.
        2   -1    0    0  501    0  0.00000000000E+00  0.00000000000E+00 -0.18515990920E+04  0.18515990920E+04  0.25500000920E-02 0.  1.
    10030    2    1    2    0    0  0.00000000000E+00  0.00000000000E+00 -0.10049507301E+04  0.26982474540E+04  0.25041192769E+04 0.  0.
        1    1    3    3  502    0  0.42854507105E+03 -0.53628035037E+03 -0.16307437935E+04  0.17693424802E+04  0.50400001928E-02 0.  1.
       -1    1    3    3    0  502 -0.42854507105E+03  0.53628035037E+03  0.62579306340E+03  0.92890497380E+03  0.50400001928E-02 0. -1.
</event>
<event>
 5   0  0.6104486E-06  0.2458400E+04  0.7818609E-02  0.8417957E-01
        1   -1    0    0  501    0  0.00000000000E+00  0.00000000000E+00  0.15656520945E+04  0.15656520945E+04  0.50400001928E-02 0. -1.
       -1   -1    0    0    0  501  0.00000000000E+00  0.00000000000E+00 -0.96505000519E+03  0.96505000520E+03  0.50400001928E-02 0.  1.
    10030    2    1    2    0    0  0.00000000000E+00  0.00000000000E+00  0.60060208933E+03  0.25307020997E+04  0.24583999365E+04 0.  0.
        2    1    3    3  502    0 -0.61123367381E+03 -0.10653525694E+04  0.35020207955E+03  0.12771938763E+04  0.25500000920E-02 0. -1.
       -2    1    3    3    0  502  0.61123367381E+03  0.10653525694E+04  0.25040000978E+03  0.12535082234E+04  0.25500000920E-02 0.  1.
</event>
<event>
 5   0  0.6104486E-06  0.2495346E+04  0.7818609E-02  0.8404646E-01
       -1   -1    0    0    0  501  0.00000000000E+00  0.00000000000E+00  0.12046713710E+04  0.12046713710E+04  0.50400001928E-02 0.  1.
        1   -1    0    0  501    0  0.00000000000E+00  0.00000000000E+00 -0.12922093353E+04  0.12922093353E+04  0.50400001928E-02 0. -1.
    10030    2    1    2    0    0  0.00000000000E+00  0.00000000000E+00 -0.87537964302E+02  0.24968807064E+04  0.24953457409E+04 0.  0.
        2    1    3    3  502    0  0.56836340588E+03  0.10044731047E+04 -0.51806943373E+03  0.12650688192E+04  0.25500000920E-02 0.  1.
       -2    1    3    3    0  502 -0.56836340588E+03 -0.10044731047E+04  0.43053146943E+03  0.12318118872E+04  0.25500000920E-02 0. -1.
</event>
<event>
 5   0  0.1526824E-05  0.2498069E+04  0.7818609E-02  0.8403674E-01
        2   -1    0    0  501    0  0.00000000000E+00  0.00000000000E+00  0.14443767136E+04  0.14443767136E+04  0.25500000920E-02 0.  1.
       -2   -1    0    0    0  501  0.00000000000E+00  0.00000000000E+00 -0.10801108044E+04  0.10801108044E+04  0.25500000920E-02 0. -1.
    10030    2    1    2    0    0  0.00000000000E+00  0.00000000000E+00  0.36426590916E+03  0.25244875180E+04  0.24980687692E+04 0.  0.
        2    1    3    3  502    0 -0.11866612754E+04  0.14740211144E+03  0.54677370783E+03  0.13148588718E+04  0.25500000920E-02 0. -1.
       -2    1    3    3    0  502  0.11866612754E+04 -0.14740211144E+03 -0.18250779867E+03  0.12096286462E+04  0.25500000920E-02 0.  1.
</event>
<event>
 5   0  0.6477703E-06  0.2514963E+04  0.7818609E-02  0.8397674E-01
       -1   -1    0    0    0  501  0.00000000000E+00  0.00000000000E+00  0.10091344626E+04  0.10091344626E+04  0.50400001928E-02 0. -1.
        1   -1    0    0  501    0  0.00000000000E+00  0.00000000000E+00 -0.15669464820E+04  0.15669464820E+04  0.50400001928E-02 0.  1.
    10030    2    1    2    0    0  0.00000000000E+00  0.00000000000E+00 -0.55781201944E+03  0.25760809446E+04  0.25149629786E+04 0.  0.
        5    1    3    3  502    0 -0.47327397054E+02 -0.46306729382E+02 -0.15651506247E+04  0.15665576158E+04  0.46999998093E+01 0.  1.
       -5    1    3    3    0  502  0.47327397054E+02  0.46306729382E+02  0.10073386052E+04  0.10095233288E+04  0.46999998093E+01 0. -1.
</event>
<event>
 5   0  0.6346420E-06  0.2511402E+04  0.7818609E-02  0.8398935E-01
        1   -1    0    0  501    0  0.00000000000E+00  0.00000000000E+00  0.13878258237E+04  0.13878258237E+04  0.50400001928E-02 0. -1.
       -1   -1    0    0    0  501  0.00000000000E+00  0.00000000000E+00 -0.11361550321E+04  0.11361550321E+04  0.50400001928E-02 0.  1.
    10030    2    1    2    0    0  0.00000000000E+00  0.00000000000E+00  0.25167079156E+03  0.25239808558E+04  0.25114022324E+04 0.  0.
        4    1    3    3  502    0 -0.70573627773E+03 -0.10266147122E+04  0.28404756274E+03  0.12777660552E+04  0.12699999809E+01 0. -1.
       -4    1    3    3    0  502  0.70573627773E+03  0.10266147122E+04 -0.32376771185E+02  0.12462148006E+04  0.12699999809E+01 0.  1.
</event>
<event>
 5   0  0.6105353E-06  0.2716717E+04  0.7818609E-02  0.8329601E-01
        1   -1    0    0  501    0  0.00000000000E+00  0.00000000000E+00  0.12210748598E+04  0.12210748598E+04  0.50400001928E-02 0. -1.
       -1   -1    0    0    0  501  0.00000000000E+00  0.00000000000E+00 -0.15110766176E+04  0.15110766176E+04  0.50400001928E-02 0.  1.
    10030    2    1    2    0    0  0.00000000000E+00  0.00000000000E+00 -0.29000175781E+03  0.27321514774E+04  0.27167168928E+04 0.  0.
        3    1    3    3  502    0 -0.11041637054E+04 -0.65370081362E+03 -0.59321830124E+03  0.14136513733E+04  0.10100000352E+00 0.  1.
       -3    1    3    3    0  502  0.11041637054E+04  0.65370081362E+03  0.30321654343E+03  0.13185001041E+04  0.10100000352E+00 0. -1.
</event>
<event>
 5   0  0.6477703E-06  0.2424071E+04  0.7818609E-02  0.8430546E-01
       -1   -1    0    0    0  501  0.00000000000E+00  0.00000000000E+00  0.96939090601E+03  0.96939090603E+03  0.50400001928E-02 0.  1.
        1   -1    0    0  501    0  0.00000000000E+00  0.00000000000E+00 -0.15154155298E+04  0.15154155298E+04  0.50400001928E-02 0. -1.
    10030    2    1    2    0    0  0.00000000000E+00  0.00000000000E+00 -0.54602462374E+03  0.24848064358E+04  0.24240709836E+04 0.  0.
        5    1    3    3  502    0 -0.19152272959E+03 -0.89739373838E+03 -0.10846925483E+04  0.14207661637E+04  0.46999998093E+01 0. -1.
       -5    1    3    3    0  502  0.19152272959E+03  0.89739373838E+03  0.53866792457E+03  0.10640402721E+04  0.46999998093E+01 0.  1.
</event>
<event>
 5   0  0.1526824E-05  0.2491064E+04  0.7818609E-02  0.8406176E-01
        2   -1    0    0  501    0  0.00000000000E+00  0.00000000000E+00  0.32201756438E+04  0.32201756438E+04  0.25500000920E-02 0. -1.
       -2   -1    0    0    0  501  0.00000000000E+00  0.00000000000E+00 -0.48175938475E+03  0.48175938476E+03  0.25500000920E-02 0.  1.
    10030    2    1    2    0    0  0.00000000000E+00  0.00000000000E+00  0.27384162590E+04  0.37019350285E+04  0.24910638988E+04 0.  0.
        2    1    3    3  502    0  0.48631659775E+03 -0.36509809249E+02 -0.33397410478E+03  0.59107994560E+03  0.25500000920E-02 0.  1.
       -2    1    3    3    0  502 -0.48631659775E+03  0.36509809249E+02  0.30723903638E+04  0.31108550829E+04  0.25500000920E-02 0. -1.
</event>
<event>
 5   0  0.1526824E-05  0.2491380E+04  0.7818609E-02  0.8406063E-01
       -2   -1    0    0    0  501  0.00000000000E+00  0.00000000000E+00  0.81413355964E+03  0.81413355964E+03  0.25500000920E-02 0.  1.
        2   -1    0    0  501    0  0.00000000000E+00  0.00000000000E+00 -0.19060064525E+04  0.19060064525E+04  0.25500000920E-02 0. -1.
    10030    2    1    2    0    0  0.00000000000E+00  0.00000000000E+00 -0.10918728929E+04  0.27201400122E+04  0.24913801941E+04 0.  0.
        2    1    3    3  502    0 -0.97929176101E+03 -0.69440779750E+03 -0.90892247799E+03  0.15057737590E+04  0.25500000920E-02 0. -1.
       -2    1    3    3    0  502  0.97929176101E+03  0.69440779750E+03 -0.18295041490E+03  0.12143662531E+04  0.25500000920E-02 0.  1.
</event>
<event>
 5   0  0.6346420E-06  0.2435683E+04  0.7818609E-02  0.8426264E-01
       -1   -1    0    0    0  501  0.00000000000E+00  0.00000000000E+00  0.94793925021E+03  0.94793925022E+03  0.50400001928E-02 0.  1.
        1   -1    0    0  501    0  0.00000000000E+00  0.00000000000E+00 -0.15645917774E+04  0.15645917774E+04  0.50400001928E-02 0. -1.
    10030    2    1    2    0    0  0.00000000000E+00  0.00000000000E+00 -0.61665252721E+03  0.25125310276E+04  0.24356830306E+04 0.  0.
        4    1    3    3  502    0  0.59759887147E+03  0.73481842626E+03  0.48136877789E+03  0.10624500195E+04  0.12699999809E+01 0.  1.
       -4    1    3    3    0  502 -0.59759887147E+03 -0.73481842626E+03 -0.10980213051E+04  0.14500810081E+04  0.12699999809E+01 0. -1.
</event>
<event>
 5   0  0.6290861E-06  0.2505900E+04  0.7818609E-02  0.8400887E-01
       -1   -1    0    0    0  501  0.00000000000E+00  0.00000000000E+00  0.12562803109E+04  0.12562803109E+04  0.50400001928E-02 0.  1.
        1   -1    0    0  501    0  0.00000000000E+00  0.00000000000E+00 -0.12496280253E+04  0.12496280253E+04  0.50400001928E-02 0. -1.
    10030    2    1    2    0    0  0.00000000000E+00  0.00000000000E+00  0.66522855820E+01  0.25059083362E+04  0.25058995065E+04 0.  0.
        1    1    3    3  502    0 -0.64197069487E+02 -0.32609633020E+03 -0.12047439250E+04  0.12497471765E+04  0.50400001928E-02 0. -1.
       -1    1    3    3    0  502  0.64197069487E+02  0.32609633020E+03  0.12113962105E+04  0.12561611597E+04  0.50400001928E-02 0.  1.
</event>
<event>
 5   0  0.6290861E-06  0.2501427E+04  0.7818609E-02  0.8402477E-01
        1   -1    0    0  501    0  0.00000000000E+00  0.00000000000E+00  0.17532303889E+04  0.17532303890E+04  0.50400001928E-02 0. -1.
       -1   -1    0    0    0  501  0.00000000000E+00  0.00000000000E+00 -0.89222945358E+03  0.89222945359E+03  0.50400001928E-02 0.  1.
    10030    2    1    2    0    0  0.00000000000E+00  0.00000000000E+00  0.86100093537E+03  0.26454598425E+04  0.25014266265E+04 0.  0.
        1    1    3    3  502    0  0.37901577781E+03 -0.10449317290E+04  0.10368810756E+04  0.15200847487E+04  0.50400001928E-02 0. -1.
       -1    1    3    3    0  502 -0.37901577781E+03  0.10449317290E+04 -0.17588014026E+03  0.11253750939E+04  0.50400001928E-02 0.  1.
</event>
<event>
 5   0  0.6477703E-06  0.2502083E+04  0.7818609E-02  0.8402244E-01
        1   -1    0    0  501    0  0.00000000000E+00  0.00000000000E+00  0.81089092087E+03  0.81089092089E+03  0.50400001928E-02 0.  1.
       -1   -1    0    0    0  501  0.00000000000E+00  0.00000000000E+00 -0.19301055432E+04  0.19301055432E+04  0.50400001928E-02 0. -1.
    10030    2    1    2    0    0  0.00000000000E+00  0.00000000000E+00 -0.11192146223E+04  0.27409964641E+04  0.25020831811E+04 0.  0.
        5    1    3    3  502    0 -0.64081944252E+02 -0.97736864846E+03  0.29299243350E+03  0.10223612995E+04  0.46999998093E+01 0.  1.
       -5    1    3    3    0  502  0.64081944252E+02  0.97736864846E+03 -0.14122070558E+04  0.17186351646E+04  0.46999998093E+01 0. -1.
</event>
<event>
 5   0  0.1468512E-05  0.2503905E+04  0.7818609E-02  0.8401596E-01
       -2   -1    0    0    0  501  0.00000000000E+00  0.00000000000E+00  0.15207057511E+04  0.15207057511E+04  0.25500000920E-02 0.  1.
        2   -1    0    0  501    0  0.00000000000E+00  0.00000000000E+00 -0.10306955981E+04  0.10306955981E+04  0.25500000920E-02 0. -1.
    10030    2    1    2    0    0  0.00000000000E+00  0.00000000000E+00  0.49001015297E+03  0.25514013492E+04  0.25039047296E+04 0.  0.
        4    1    3    3  502    0 -0.20395973600E+03 -0.12318458379E+04  0.33805747320E+03  0.12935718806E+04  0.12699999809E+01 0.  1.
       -4    1    3    3    0  502  0.20395973600E+03  0.12318458379E+04  0.15195267978E+03  0.12578294686E+04  0.12699999809E+01 0. -1.
</event>
<event>
 5   0  0.1501947E-05  0.2461746E+04  0.7818609E-02  0.8416742E-01
       -2   -1    0    0    0  501  0.00000000000E+00  0.00000000000E+00  0.14795834927E+04  0.14795834927E+04  0.25500000920E-02 0. -1.
        2   -1    0    0  501    0  0.00000000000E+00  0.00000000000E+00 -0.10239698335E+04  0.10239698335E+04  0.25500000920E-02 0.  1.
    10030    2    1    2    0    0  0.00000000000E+00  0.00000000000E+00  0.45561365921E+03  0.25035533262E+04  0.24617464229E+04 0.  0.
        3    1    3    3  502    0  0.72360797362E+03  0.58907898226E+03 -0.58858784086E+03  0.11032036092E+04  0.10100000352E+00 0.  1.
       -3    1    3    3    0  502 -0.72360797362E+03 -0.58907898226E+03  0.10442015001E+04  0.14003497170E+04  0.10100000352E+00 0. -1.
</event>
<event>
 5   0  0.1572732E-05  0.2497577E+04  0.7818609E-02  0.8403849E-01
       -2   -1    0    0    0  501  0.00000000000E+00  0.00000000000E+00  0.84763079769E+03  0.84763079769E+03  0.25500000920E-02 0.  1.
        2   -1    0    0  501    0  0.00000000000E+00  0.00000000000E+00 -0.18398017589E+04  0.18398017589E+04  0.25500000920E-02 0. -1.
    10030    2    1    2    0    0  0.00000000000E+00  0.00000000000E+00 -0.99217096125E+03  0.26874325566E+04  0.24975769318E+04 0.  0.
        1    1    3    3  502    0  0.16031162398E+02 -0.79251627414E+03  0.54221892408E+03  0.96038554998E+03  0.50400001928E-02 0.  1.
       -1    1    3    3    0  502 -0.16031162398E+02  0.79251627414E+03 -0.15343898853E+04  0.17270470067E+04  0.50400001928E-02 0. -1.
</event>
<event>
 5   0  0.1501947E-05  0.2516794E+04  0.7818609E-02  0.8397027E-01
       -2   -1    0    0    0  501  0.00000000000E+00  0.00000000000E+00  0.71409102081E+03  0.71409102081E+03  0.25500000920E-02 0. -1.
        2   -1    0    0  501    0  0.00000000000E+00  0.00000000000E+00 -0.22175926809E+04  0.22175926809E+04  0.25500000920E-02 0.  1.
    10030    2    1    2    0    0  0.00000000000E+00  0.00000000000E+00 -0.15035016600E+04  0.29316837017E+04  0.25167940092E+04 0.  0.
        3    1    3    3  502    0  0.75685020385E+03 -0.12113493976E+03  0.41080479087E+03  0.86963008866E+03  0.10100000352E+00 0. -1.
       -3    1    3    3    0  502 -0.75685020385E+03  0.12113493976E+03 -0.19143064509E+04  0.20620536130E+04  0.10100000352E+00 0.  1.
</event>
<event>
 5   0  0.1550483E-05  0.2486943E+04  0.7818609E-02  0.8407652E-01
        2   -1    0    0  501    0  0.00000000000E+00  0.00000000000E+00  0.14870703318E+04  0.14870703318E+04  0.25500000920E-02 0. -1.
       -2   -1    0    0    0  501  0.00000000000E+00  0.00000000000E+00 -0.10397770086E+04  0.10397770086E+04  0.25500000920E-02 0.  1.
    10030    2    1    2    0    0  0.00000000000E+00  0.00000000000E+00  0.44729332325E+03  0.25268473404E+04  0.24869431366E+04 0.  0.
        5    1    3    3  502    0  0.54802517255E+03  0.69550932405E+03  0.11106576513E+04  0.14204391285E+04  0.46999998093E+01 0. -1.
       -5    1    3    3    0  502 -0.54802517255E+03 -0.69550932405E+03 -0.66336432802E+03  0.11064082119E+04  0.46999998093E+01 0.  1.
</event>
<event>
 5   0  0.5164625E-06  0.2498925E+04  0.7818609E-02  0.8403369E-01
        4   -1    0    0  501    0  0.00000000000E+00  0.00000000000E+00  0.10498488975E+04  0.10498496657E+04  0.12699999809E+01 0.  1.
       -4   -1    0    0    0  501  0.00000000000E+00  0.00000000000E+00 -0.14870279247E+04  0.14870284670E+04  0.12699999809E+01 0. -1.
    10030    2    1    2    0    0  0.00000000000E+00  0.00000000000E+00 -0.43717902720E+03  0.25368781327E+04  0.24989248005E+04 0.  0.
        5    1    3    3  502    0  0.58116067562E+03  0.63886969560E+03 -0.11352046442E+04  0.14263989249E+04  0.46999998093E+01 0. -1.
       -5    1    3    3    0  502 -0.58116067562E+03 -0.63886969560E+03  0.69802561701E+03  0.11104792078E+04  0.46999998093E+01 0.  1.
</event>
<event>
 5   0  0.6105353E-06  0.2505185E+04  0.7818609E-02  0.8401141E-01
       -1   -1    0    0    0  501  0.00000000000E+00  0.00000000000E+00  0.12840671115E+04  0.12840671115E+04  0.50400001928E-02 0.  1.
        1   -1    0    0  501    0  0.00000000000E+00  0.00000000000E+00 -0.12218889769E+04  0.12218889769E+04  0.50400001928E-02 0. -1.
    10030    2    1    2    0    0  0.00000000000E+00  0.00000000000E+00  0.62178134589E+02  0.25059560884E+04  0.25051845833E+04 0.  0.
        3    1    3    3  502    0  0.22079794260E+03  0.23764197531E+03 -0.11791438475E+04  0.12229495751E+04  0.10100000352E+00 0. -1.
       -3    1    3    3    0  502 -0.22079794260E+03 -0.23764197531E+03  0.12413219821E+04  0.12830065133E+04  0.10100000352E+00 0.  1.
</event>
<event>
 5   0  0.1572732E-05  0.2521405E+04  0.7818609E-02  0.8395399E-01
       -2   -1    0    0    0  501  0.00000000000E+00  0.00000000000E+00  0.72216925701E+03  0.72216925701E+03  0.25500000920E-02 0.  1.
        2   -1    0    0  501    0  0.00000000000E+00  0.00000000000E+00 -0.22008289118E+04  0.22008289118E+04  0.25500000920E-02 0. -1.
    10030    2    1    2    0    0  0.00000000000E+00  0.00000000000E+00 -0.14786596548E+04  0.29229981688E+04  0.25214051480E+04 0.  0.
        1    1    3    3  502    0  0.49540003069E+03 -0.91790328458E+03  0.81549887221E+02  0.10462399411E+04  0.50400001928E-02 0.  1.
       -1    1    3    3    0  502 -0.49540003069E+03  0.91790328458E+03 -0.15602095420E+04  0.18767582277E+04  0.50400001928E-02 0. -1.
</event>
<event>
 5   0  0.6105353E-06  0.2484672E+04  0.7818609E-02  0.8408467E-01
        1   -1    0    0  501    0  0.00000000000E+00  0.00000000000E+00  0.21947487516E+04  0.21947487516E+04  0.50400001928E-02 0. -1.
       -1   -1    0    0    0  501  0.00000000000E+00  0.00000000000E+00 -0.70322342845E+03  0.70322342847E+03  0.50400001928E-02 0.  1.
    10030    2    1    2    0    0  0.00000000000E+00  0.00000000000E+00  0.14915253231E+04  0.28979721800E+04  0.24846720039E+04 0.  0.
        3    1    3    3  502    0  0.85148760057E+02 -0.18649937854E+03 -0.68335666321E+03  0.71344843464E+03  0.10100000352E+00 0.  1.
       -3    1    3    3    0  502 -0.85148760057E+02  0.18649937854E+03  0.21748819863E+04  0.21845237454E+04  0.10100000352E+00 0. -1.
</event>
<event>
 5   0  0.6104486E-06  0.2508209E+04  0.7818609E-02  0.8400067E-01
       -1   -1    0    0    0  501  0.00000000000E+00  0.00000000000E+00  0.13294565451E+04  0.13294565451E+04  0.50400001928E-02 0. -1.
        1   -1    0    0  501    0  0.00000000000E+00  0.00000000000E+00 -0.11830237225E+04  0.11830237225E+04  0.50400001928E-02 0.  1.
    10030    2    1    2    0    0  0.00000000000E+00  0.00000000000E+00  0.14643282266E+03  0.25124802676E+04  0.25082094258E+04 0.  0.
        2    1    3    3  502    0  0.11874942326E+03  0.42070880069E+03 -0.11042344875E+04  0.11876157307E+04  0.25500000920E-02 0.  1.
       -2    1    3    3    0  502 -0.11874942326E+03 -0.42070880069E+03  0.12506673101E+04  0.13248645369E+04  0.25500000920E-02 0. -1.
</event>
<event>
 5   0  0.6346420E-06  0.2497242E+04  0.7818609E-02  0.8403969E-01
       -1   -1    0    0    0  501  0.00000000000E+00  0.00000000000E+00  0.14285211437E+04  0.14285211437E+04  0.50400001928E-02 0.  1.
        1   -1    0    0  501    0  0.00000000000E+00  0.00000000000E+00 -0.10913767761E+04  0.10913767761E+04  0.50400001928E-02 0. -1.
    10030    2    1    2    0    0  0.00000000000E+00  0.00000000000E+00  0.33714436767E+03  0.25198979198E+04  0.24972423193E+04 0.  0.
        4    1    3    3  502    0 -0.18961241144E+03  0.72928693154E+03 -0.83607105763E+03  0.11255348601E+04  0.12699999809E+01 0. -1.
       -4    1    3    3    0  502  0.18961241144E+03 -0.72928693154E+03  0.11732154253E+04  0.13943630597E+04  0.12699999809E+01 0.  1.
</event>
<event>
 5   0  0.1468512E-05  0.2492107E+04  0.7818609E-02  0.8405803E-01
       -2   -1    0    0    0  501  0.00000000000E+00  0.00000000000E+00  0.12093258456E+04  0.12093258456E+04  0.25500000920E-02 0. -1.
        2   -1    0    0  501    0  0.00000000000E+00  0.00000000000E+00 -0.12838964992E+04  0.12838964992E+04  0.25500000920E-02 0.  1.
    10030    2    1    2    0    0  0.00000000000E+00  0.00000000000E+00 -0.74570653603E+02  0.24932223448E+04  0.24921069155E+04 0.  0.
        4    1    3    3  502    0 -0.57425707191E+03  0.23378556315E+03 -0.11186116986E+04  0.12789529387E+04  0.12699999809E+01 0.  1.
       -4    1    3    3    0  502  0.57425707191E+03 -0.23378556315E+03  0.10440410450E+04  0.12142694061E+04  0.12699999809E+01 0. -1.
</event>
<event>
 5   0  0.6477703E-06  0.2499297E+04  0.7818609E-02  0.8403236E-01
        1   -1    0    0  501    0  0.00000000000E+00  0.00000000000E+00  0.11523367681E+04  0.11523367681E+04  0.50400001928E-02 0. -1.
       -1   -1    0    0    0  501  0.00000000000E+00  0.00000000000E+00 -0.13551780998E+04  0.13551780998E+04  0.50400001928E-02 0.  1.
    10030    2    1    2    0    0  0.00000000000E+00  0.00000000000E+00 -0.20284133167E+03  0.25075148679E+04  0.24992971426E+04 0.  0.
        5    1    3    3  502    0  0.48295911402E+03  0.10610917402E+04 -0.55282699815E+03  0.12902732141E+04  0.46999998093E+01 0.  1.
       -5    1    3    3    0  502 -0.48295911402E+03 -0.10610917402E+04  0.34998566648E+03  0.12172416538E+04  0.46999998093E+01 0. -1.
</event>
<event>
 5   0  0.6477703E-06  0.2493047E+04  0.7818609E-02  0.8405467E-01
       -1   -1    0    0    0  501  0.00000000000E+00  0.00000000000E+00  0.60031040134E+03  0.60031040136E+03  0.50400001928E-02 0.  1.
        1   -1    0    0  501    0  0.00000000000E+00  0.00000000000E+00 -0.25883616623E+04  0.25883616624E+04  0.50400001928E-02 0. -1.
    10030    2    1    2    0    0  0.00000000000E+00  0.00000000000E+00 -0.19880512610E+04  0.31886720637E+04  0.24930466730E+04 0.  0.
        5    1    3    3  502    0 -0.36139472638E+03 -0.60824273080E+03 -0.23066536506E+04  0.24127242946E+04  0.46999998093E+01 0. -1.
       -5    1    3    3    0  502  0.36139472638E+03  0.60824273080E+03  0.31860238957E+03  0.77594776916E+03  0.46999998093E+01 0.  1.
</event>
<event>
 5   0  0.6477703E-06  0.2492307E+04  0.7818609E-02  0.8405731E-01
       -1   -1    0    0    0  501  0.00000000000E+00  0.00000000000E+00  0.15566786010E+04  0.15566786010E+04  0.50400001928E-02 0. -1.
        1   -1    0    0  501    0  0.00000000000E+00  0.00000000000E+00 -0.99757150229E+03  0.99757150231E+03  0.50400001928E-02 0.  1.
    10030    2    1    2    0    0  0.00000000000E+00  0.00000000000E+00  0.55910709868E+03  0.25542501033E+04  0.24923067312E+04 0.  0.
        5    1    3    3  502    0 -0.85899166819E+03 -0.80276537937E+03 -0.14372123264E+03  0.11844732260E+04  0.46999998093E+01 0.  1.
       -5    1    3    3    0  502  0.85899166819E+03  0.80276537937E+03  0.70282833132E+03  0.13697768773E+04  0.46999998093E+01 0. -1.
</event>
<event>
 5   0  0.1550483E-05  0.2508836E+04  0.7818609E-02  0.8399844E-01
       -2   -1    0    0    0  501  0.00000000000E+00  0.00000000000E+00  0.15628259149E+04  0.15628259149E+04  0.25500000920E-02 0. -1.
        2   -1    0    0  501    0  0.00000000000E+00  0.00000000000E+00 -0.10068711583E+04  0.10068711583E+04  0.25500000920E-02 0.  1.
    10030    2    1    2    0    0  0.00000000000E+00  0.00000000000E+00  0.55595475662E+03  0.25696970731E+04  0.25088358568E+04 0.  0.
        5    1    3    3  502    0  0.37510959169E+03 -0.11516156105E+04 -0.56465499200E+02  0.12124917166E+04  0.46999998093E+01 0.  1.
       -5    1    3    3    0  502 -0.37510959169E+03  0.11516156105E+04  0.61242025582E+03  0.13572053566E+04  0.46999998093E+01 0. -1.
</event>
<event>
 5   0  0.1572732E-05  0.2496595E+04  0.7818609E-02  0.8404200E-01
        2   -1    0    0  501    0  0.00000000000E+00  0.00000000000E+00  0.98243593618E+03  0.98243593619E+03  0.25500000920E-02 0. -1.
       -2   -1    0    0    0  501  0.00000000000E+00  0.00000000000E+00 -0.15861050705E+04  0.15861050705E+04  0.25500000920E-02 0.  1.
    10030    2    1    2    0    0  0.00000000000E+00  0.00000000000E+00 -0.60366913435E+03  0.25685410067E+04  0.24965949771E+04 0.  0.
        1    1    3    3  502    0 -0.62816998724E+02 -0.53631469852E+03  0.85606174743E+03  0.10121369209E+04  0.50400001928E-02 0. -1.
       -1    1    3    3    0  502  0.62816998724E+02  0.53631469852E+03 -0.14597308818E+04  0.15564040858E+04  0.50400001928E-02 0.  1.
</event>
<event>
 5   0  0.6104486E-06  0.2404488E+04  0.7818609E-02  0.8437825E-01
       -1   -1    0    0    0  501  0.00000000000E+00  0.00000000000E+00  0.84422224702E+03  0.84422224704E+03  0.50400001928E-02 0. -1.
        1   -1    0    0  501    0  0.00000000000E+00  0.00000000000E+00 -0.17120978356E+04  0.17120978356E+04  0.50400001928E-02 0.  1.
    10030    2    1    2    0    0  0.00000000000E+00  0.00000000000E+00 -0.86787558859E+03  0.25563200827E+04  0.24044883713E+04 0.  0.
        2    1    3    3  502    0  0.11694958910E+03  0.98131127663E+03  0.29394174270E+03  0.10310435375E+04  0.25500000920E-02 0. -1.
       -2    1    3    3    0  502 -0.11694958910E+03 -0.98131127663E+03 -0.11618173313E+04  0.15252765452E+04  0.25500000920E-02 0.  1.
</event>
<event>
 5   0  0.5164625E-06  0.2481986E+04  0.7818609E-02  0.8409431E-01
       -4   -1    0    0    0  501  0.00000000000E+00  0.00000000000E+00  0.18388020467E+04  0.18388024853E+04  0.12699999809E+01 0.  1.
        4   -1    0    0  501    0  0.00000000000E+00  0.00000000000E+00 -0.83753511506E+03  0.83753607795E+03  0.12699999809E+01 0. -1.
    10030    2    1    2    0    0  0.00000000000E+00  0.00000000000E+00  0.10012669317E+04  0.26763385633E+04  0.24819856238E+04 0.  0.
        3    1    3    3  502    0  0.84652490163E+02  0.78253625450E+03  0.15352078814E+04  0.17252223865E+04  0.10100000352E+00 0.  1.
       -3    1    3    3    0  502 -0.84652490163E+02 -0.78253625450E+03 -0.53394094970E+03  0.95111617674E+03  0.10100000352E+00 0. -1.
</event>
<event>
 5   0  0.1572732E-05  0.2497315E+04  0.7818609E-02  0.8403943E-01
        2   -1    0    0  501    0  0.00000000000E+00  0.00000000000E+00  0.11575304743E+04  0.11575304743E+04  0.25500000920E-02 0. -1.
       -2   -1    0    0    0  501  0.00000000000E+00  0.00000000000E+00 -0.13469585843E+04  0.13469585843E+04  0.25500000920E-02 0.  1.
    10030    2    1    2    0    0  0.00000000000E+00  0.00000000000E+00 -0.18942810998E+03  0.25044890586E+04  0.24973150453E+04 0.  0.
        1    1    3    3  502    0 -0.81840371246E+02 -0.35678861643E+03 -0.12919397790E+04  0.13427972132E+04  0.50400001928E-02 0.  1.
       -1    1    3    3    0  502  0.81840371246E+02  0.35678861643E+03  0.11025116690E+04  0.11616918454E+04  0.50400001928E-02 0. -1.
</event>
<event>
 5   0  0.1572732E-05  0.2517677E+04  0.7818609E-02  0.8396715E-01
       -2   -1    0    0    0  501  0.00000000000E+00  0.00000000000E+00  0.13167785322E+04  0.13167785322E+04  0.25500000920E-02 0.  1.
        2   -1    0    0  501    0  0.00000000000E+00  0.00000000000E+00 -0.12034483114E+04  0.12034483114E+04  0.25500000920E-02 0. -1.
    10030    2    1    2    0    0  0.00000000000E+00  0.00000000000E+00  0.11333022078E+03  0.25202268436E+04  0.25176774226E+04 0.  0.
        1    1    3    3  502    0  0.46839153462E+03 -0.11538390968E+04  0.24107872135E+03  0.12684061814E+04  0.50400001928E-02 0. -1.
       -1    1    3    3    0  502 -0.46839153462E+03  0.11538390968E+04 -0.12774850058E+03  0.12518206622E+04  0.50400001928E-02 0.  1.
</event>
<event>
 5   0  0.1501947E-05  0.2499979E+04  0.7818609E-02  0.8402993E-01
       -2   -1    0    0    0  501  0.00000000000E+00  0.00000000000E+00  0.15247991897E+04  0.15247991897E+04  0.25500000920E-02 0.  1.
        2   -1    0    0  501    0  0.00000000000E+00  0.00000000000E+00 -0.10247080640E+04  0.10247080640E+04  0.25500000920E-02 0. -1.
    10030    2    1    2    0    0  0.00000000000E+00  0.00000000000E+00  0.50009112570E+03  0.25495072537E+04  0.24999792205E+04 0.  0.
        3    1    3    3  502    0  0.82763863792E+02 -0.28078712147E+03  0.14893504393E+04  0.15178458439E+04  0.10100000352E+00 0.  1.
       -3    1    3    3    0  502 -0.82763863792E+02  0.28078712147E+03 -0.98925931358E+03  0.10316614098E+04  0.10100000352E+00 0. -1.
</event>
<event>
 5   0  0.6346420E-06  0.2519120E+04  0.7818609E-02  0.8396206E-01
        1   -1    0    0  501    0  0.00000000000E+00  0.00000000000E+00  0.15219942727E+04  0.15219942727E+04  0.50400001928E-02 0. -1.
       -1   -1    0    0    0  501  0.00000000000E+00  0.00000000000E+00 -0.10423764101E+04  0.10423764102E+04  0.50400001928E-02 0.  1.
    10030    2    1    2    0    0  0.00000000000E+00  0.00000000000E+00  0.47961786254E+03  0.25643706828E+04  0.25191196289E+04 0.  0.
        4    1    3    3  502    0  0.75196615046E+03 -0.19825840020E+03  0.12484299276E+04  0.14708291477E+04  0.12699999809E+01 0. -1.
       -4    1    3    3    0  502 -0.75196615046E+03  0.19825840020E+03 -0.76881206509E+03  0.10935415351E+04  0.12699999809E+01 0.  1.
</event>
<event>
 5   0  0.6346420E-06  0.2500500E+04  0.7818609E-02  0.8402807E-01
        1   -1    0    0  501    0  0.00000000000E+00  0.00000000000E+00  0.21594359214E+04  0.21594359214E+04  0.50400001928E-02 0.  1.
       -1   -1    0    0    0  501  0.00000000000E+00  0.00000000000E+00 -0.72385826882E+03  0.72385826884E+03  0.50400001928E-02 0. -1.
    10030    2    1    2    0    0  0.00000000000E+00  0.00000000000E+00  0.14355776526E+04  0.28832941903E+04  0.25005003881E+04 0.  0.
        4    1    3    3  502    0 -0.23879442364E+03 -0.98984664460E+03  0.15543172211E+04  0.18581503688E+04  0.12699999809E+01 0.  1.
       -4    1    3    3    0  502  0.23879442364E+03  0.98984664460E+03 -0.11873956848E+03  0.10251438214E+04  0.12699999809E+01 0. -1.
</event>
<event>
 5   0  0.6290861E-06  0.2509079E+04  0.7818609E-02  0.8399758E-01
       -1   -1    0    0    0  501  0.00000000000E+00  0.00000000000E+00  0.69664746900E+03  0.69664746902E+03  0.50400001928E-02 0.  1.
        1   -1    0    0  501    0  0.00000000000E+00  0.00000000000E+00 -0.22592051096E+04  0.22592051096E+04  0.50400001928E-02 0. -1.
    10030    2    1    2    0    0  0.00000000000E+00  0.00000000000E+00 -0.15625576406E+04  0.29558525786E+04  0.25090791312E+04 0.  0.
        1    1    3    3  502    0 -0.97727076627E+03  0.77300631897E+03 -0.95310079943E+03  0.15687568498E+04  0.50400001928E-02 0.  1.
       -1    1    3    3    0  502  0.97727076627E+03 -0.77300631897E+03 -0.60945684120E+03  0.13870957289E+04  0.50400001928E-02 0. -1.
</event>
<event>
 5   0  0.1550483E-05  0.2524782E+04  0.7818609E-02  0.8394210E-01
       -2   -1    0    0    0  501  0.00000000000E+00  0.00000000000E+00  0.12999718612E+04  0.12999718612E+04  0.25500000920E-02 0. -1.
        2   -1    0    0  501    0  0.00000000000E+00  0.00000000000E+00 -0.12258967926E+04  0.12258967926E+04  0.25500000920E-02 0.  1.
    10030    2    1    2    0    0  0.00000000000E+00  0.00000000000E+00  0.74075068578E+02  0.25258686538E+04  0.25247822363E+04 0.  0.
        5    1    3    3  502    0 -0.12193282429E+04 -0.18048004927E+03 -0.23561383261E+03  0.12549383970E+04  0.46999998093E+01 0.  1.
       -5    1    3    3    0  502  0.12193282429E+04  0.18048004927E+03  0.30968890119E+03  0.12709302568E+04  0.46999998093E+01 0. -1.
</event>
<event>
 5   0  0.6105353E-06  0.2553925E+04  0.7818609E-02  0.8384023E-01
       -1   -1    0    0    0  501  0.00000000000E+00  0.00000000000E+00  0.10778287903E+04  0.10778287903E+04  0.50400001928E-02 0. -1.
        1   -1    0    0  501    0  0.00000000000E+00  0.00000000000E+00 -0.15128867639E+04  0.15128867639E+04  0.50400001928E-02 0.  1.
    10030    2    1    2    0    0  0.00000000000E+00  0.00000000000E+00 -0.43505797360E+03  0.25907155543E+04  0.25539247528E+04 0.  0.
        3    1    3    3  502    0 -0.20951888365E+03 -0.12331214325E+04  0.43365148651E+02  0.12515459145E+04  0.10100000352E+00 0.  1.
       -3    1    3    3    0  502  0.20951888365E+03  0.12331214325E+04 -0.47842312226E+03  0.13391696397E+04  0.10100000352E+00 0. -1.
</event>
<event>
 5   0  0.1550483E-05  0.2513485E+04  0.7818609E-02  0.8398197E-01
        2   -1    0    0  501    0  0.00000000000E+00  0.00000000000E+00  0.18529126922E+04  0.18529126922E+04  0.25500000920E-02 0.  1.
       -2   -1    0    0    0  501  0.00000000000E+00  0.00000000000E+00 -0.85238896090E+03  0.85238896090E+03  0.25500000920E-02 0. -1.
    10030    2    1    2    0    0  0.00000000000E+00  0.00000000000E+00  0.10005237313E+04  0.27053016531E+04  0.25134854878E+04 0.  0.
        5    1    3    3  502    0 -0.14084843266E+03  0.79935631423E+03  0.15329473286E+04  0.17345772973E+04  0.46999998093E+01 0.  1.
       -5    1    3    3    0  502  0.14084843266E+03 -0.79935631423E+03 -0.53242359726E+03  0.97072435583E+03  0.46999998093E+01 0. -1.
</event>
<event>
 5   0  0.1572732E-05  0.2510196E+04  0.7818609E-02  0.8399362E-01
       -2   -1    0    0    0  501  0.00000000000E+00  0.00000000000E+00  0.11966003698E+04  0.11966003698E+04  0.25500000920E-02 0. -1.
        2   -1    0    0  501    0  0.00000000000E+00  0.00000000000E+00 -0.13164556144E+04  0.13164556144E+04  0.25500000920E-02 0.  1.
    10030    2    1    2    0    0  0.00000000000E+00  0.00000000000E+00 -0.11985524462E+03  0.25130559841E+04  0.25101962273E+04 0.  0.
        1    1    3    3  502    0 -0.39108714912E+03 -0.10094746168E+04  0.57584161559E+03  0.12262062332E+04  0.50400001928E-02 0. -1.
       -1    1    3    3    0  502  0.39108714912E+03  0.10094746168E+04 -0.69569686022E+03  0.12868497509E+04  0.50400001928E-02 0.  1.
</event>
<event>
 5   0  0.1468512E-05  0.2263995E+04  0.7818609E-02  0.8492254E-01
        2   -1    0    0  501    0  0.00000000000E+00  0.00000000000E+00  0.92419750578E+03  0.92419750578E+03  0.25500000920E-02 0. -1.
       -2   -1    0    0    0  501  0.00000000000E+00  0.00000000000E+00 -0.13865197824E+04  0.13865197824E+04  0.25500000920E-02 0.  1.
    10030    2    1    2    0    0  0.00000000000E+00  0.00000000000E+00 -0.46232227666E+03  0.23107172882E+04  0.22639948098E+04 0.  0.
        4    1    3    3  502    0 -0.48928039653E+03 -0.21443449762E+03  0.78745269489E+03  0.95155705020E+03  0.12699999809E+01 0. -1.
       -4    1    3    3    0  502  0.48928039653E+03  0.21443449762E+03 -0.12497749716E+04  0.13591602380E+04  0.12699999809E+01 0.  1.
</event>
<event>
 5   0  0.1550483E-05  0.2649839E+04  0.7818609E-02  0.8351466E-01
       -2   -1    0    0    0  501  0.00000000000E+00  0.00000000000E+00  0.74026348322E+03  0.74026348323E+03  0.25500000920E-02 0.  1.
        2   -1    0    0  501    0  0.00000000000E+00  0.00000000000E+00 -0.23713342645E+04  0.23713342645E+04  0.25500000920E-02 0. -1.
    10030    2    1    2    0    0  0.00000000000E+00  0.00000000000E+00 -0.16310707813E+04  0.31115977477E+04  0.26498393631E+04 0.  0.
        5    1    3    3  502    0 -0.43052723736E+03 -0.84251601191E+03 -0.19046270022E+04  0.21266906310E+04  0.46999998093E+01 0. -1.
       -5    1    3    3    0  502  0.43052723736E+03  0.84251601191E+03  0.27355622100E+03  0.98490711667E+03  0.46999998093E+01 0.  1.
</event>
<event>
 5   0  0.6346420E-06  0.2502802E+04  0.7818609E-02  0.8401988E-01
       -1   -1    0    0    0  501  0.00000000000E+00  0.00000000000E+00  0.13460412951E+04  0.13460412951E+04  0.50400001928E-02 0. -1.
        1   -1    0    0  501    0  0.00000000000E+00  0.00000000000E+00 -0.11634148059E+04  0.11634148059E+04  0.50400001928E-02 0.  1.
    10030    2    1    2    0    0  0.00000000000E+00  0.00000000000E+00  0.18262648926E+03  0.25094561010E+04  0.25028019275E+04 0.  0.
        4    1    3    3  502    0  0.62486873710E+03 -0.66448523393E+03 -0.76770325437E+03  0.11922128436E+04  0.12699999809E+01 0.  1.
       -4    1    3    3    0  502 -0.62486873710E+03  0.66448523393E+03  0.95032974363E+03  0.13172432574E+04  0.12699999809E+01 0. -1.
</event>
<event>
 5   0  0.1572732E-05  0.2501214E+04  0.7818609E-02  0.8402553E-01
        2   -1    0    0  501    0  0.00000000000E+00  0.00000000000E+00  0.13462752783E+04  0.13462752783E+04  0.25500000920E-02 0.  1.
       -2   -1    0    0    0  501  0.00000000000E+00  0.00000000000E+00 -0.11617374748E+04  0.11617374748E+04  0.25500000920E-02 0. -1.
    10030    2    1    2    0    0  0.00000000000E+00  0.00000000000E+00  0.18453780354E+03  0.25080127531E+04  0.25012144588E+04 0.  0.
        1    1    3    3  502    0  0.26537343039E+03  0.10293302818E+04 -0.56836517947E+03  0.12053973884E+04  0.50400001928E-02 0. -1.
       -1    1    3    3    0  502 -0.26537343039E+03 -0.10293302818E+04  0.75290298300E+03  0.13026153647E+04  0.50400001928E-02 0.  1.
</event>
<event>
 5   0  0.6346420E-06  0.2498115E+04  0.7818609E-02  0.8403657E-01
       -1   -1    0    0    0  501  0.00000000000E+00  0.00000000000E+00  0.10622777753E+04  0.10622777754E+04  0.50400001928E-02 0.  1.
        1   -1    0    0  501    0  0.00000000000E+00  0.00000000000E+00 -0.14686782893E+04  0.14686782893E+04  0.50400001928E-02 0. -1.
    10030    2    1    2    0    0  0.00000000000E+00  0.00000000000E+00 -0.40640051392E+03  0.25309560646E+04  0.24981147338E+04 0.  0.
        4    1    3    3  502    0 -0.18168431982E+02 -0.73009709650E+03 -0.12298185216E+04  0.14303241141E+04  0.12699999809E+01 0. -1.
       -4    1    3    3    0  502  0.18168431982E+02  0.73009709650E+03  0.82341800772E+03  0.11006319506E+04  0.12699999809E+01 0.  1.
</event>
<event>
 5   0  0.6104486E-06  0.2402885E+04  0.7818609E-02  0.8438424E-01
       -1   -1    0    0    0  501  0.00000000000E+00  0.00000000000E+00  0.20331186331E+04  0.20331186331E+04  0.50400001928E-02 0. -1.
        1   -1    0    0  501    0  0.00000000000E+00  0.00000000000E+00 -0.70997515431E+03  0.70997515432E+03  0.50400001928E-02 0.  1.
    10030    2    1    2    0    0  0.00000000000E+00  0.00000000000E+00  0.13231434788E+04  0.27430937874E+04  0.24028846958E+04 0.  0.
        2    1    3    3  502    0  0.10640868893E+04  0.41452694173E+03  0.23542265710E+03  0.11659919900E+04  0.25500000920E-02 0.  1.
       -2    1    3    3    0  502 -0.10640868893E+04 -0.41452694173E+03  0.10877208217E+04  0.15771017974E+04  0.25500000920E-02 0. -1.
</event>
<event>
 5   0  0.6104486E-06  0.2507680E+04  0.7818609E-02  0.8400255E-01
       -1   -1    0    0    0  501  0.00000000000E+00  0.00000000000E+00  0.85622971720E+03  0.85622971722E+03  0.50400001928E-02 0.  1.
        1   -1    0    0  501    0  0.00000000000E+00  0.00000000000E+00 -0.18360895867E+04  0.18360895867E+04  0.50400001928E-02 0. -1.
    10030    2    1    2    0    0  0.00000000000E+00  0.00000000000E+00 -0.97985986946E+03  0.26923193039E+04  0.25076797783E+04 0.  0.
        2    1    3    3  502    0 -0.69083525176E+03 -0.91014375616E+03  0.64316181427E+02  0.11444437833E+04  0.25500000920E-02 0.  1.
       -2    1    3    3    0  502  0.69083525176E+03  0.91014375616E+03 -0.10441760509E+04  0.15478755206E+04  0.25500000920E-02 0. -1.
</event>
<event>
 5   0  0.6290861E-06  0.2508243E+04  0.7818609E-02  0.8400055E-01
       -1   -1    0    0    0  501  0.00000000000E+00  0.00000000000E+00  0.89998798256E+03  0.89998798257E+03  0.50400001928E-02 0.  1.
        1   -1    0    0  501    0  0.00000000000E+00  0.00000000000E+00 -0.17476013837E+04  0.17476013837E+04  0.50400001928E-02 0. -1.
    10030    2    1    2    0    0  0.00000000000E+00  0.00000000000E+00 -0.84761340117E+03  0.26475893663E+04  0.25082426068E+04 0.  0.
        1    1    3    3  502    0  0.18595093987E+03 -0.27602240400E+03 -0.17001362157E+04  0.17324056313E+04  0.50400001928E-02 0. -1.
       -1    1    3    3    0  502 -0.18595093987E+03  0.27602240400E+03  0.85252281449E+03  0.91518373500E+03  0.50400001928E-02 0.  1.
</event>
<event>
 5   0  0.6346420E-06  0.2483617E+04  0.7818609E-02  0.8408845E-01
       -1   -1    0    0    0  501  0.00000000000E+00  0.00000000000E+00  0.12530727740E+04  0.12530727740E+04  0.50400001928E-02 0.  1.
        1   -1    0    0  501    0  0.00000000000E+00  0.00000000000E+00 -0.12306452391E+04  0.12306452391E+04  0.50400001928E-02 0. -1.
    10030    2    1    2    0    0  0.00000000000E+00  0.00000000000E+00  0.22427534916E+02  0.24837180131E+04  0.24836167527E+04 0.  0.
        4    1    3    3  502    0 -0.95817863286E+03 -0.30898035503E+03 -0.71580368454E+03  0.12352941674E+04  0.12699999809E+01 0. -1.
       -4    1    3    3    0  502  0.95817863286E+03  0.30898035503E+03  0.73823121945E+03  0.12484238457E+04  0.12699999809E+01 0.  1.
</event>
<event>
 5   0  0.1468512E-05  0.2528481E+04  0.7818609E-02  0.8392909E-01
       -2   -1    0    0    0  501  0.00000000000E+00  0.00000000000E+00  0.11090279682E+04  0.11090279682E+04  0.25500000920E-02 0.  1.
        2   -1    0    0  501    0  0.00000000000E+00  0.00000000000E+00 -0.14411750537E+04  0.14411750537E+04  0.25500000920E-02 0. -1.
    10030    2    1    2    0    0  0.00000000000E+00  0.00000000000E+00 -0.33214708547E+03  0.25502030219E+04  0.25284805252E+04 0.  0.
        4    1    3    3  502    0 -0.38490471012E+03 -0.80283765719E+03 -0.10713378159E+04  0.13930061983E+04  0.12699999809E+01 0.  1.
       -4    1    3    3    0  502  0.38490471012E+03  0.80283765719E+03  0.73919073045E+03  0.11571968236E+04  0.12699999809E+01 0. -1.
</event>
<event>
 5   0  0.1468512E-05  0.2322925E+04  0.7818609E-02  0.8468937E-01
        2   -1    0    0  501    0  0.00000000000E+00  0.00000000000E+00  0.13039846677E+04  0.13039846677E+04  0.25500000920E-02 0.  1.
       -2   -1    0    0    0  501  0.00000000000E+00  0.00000000000E+00 -0.10345171990E+04  0.10345171990E+04  0.25500000920E-02 0. -1.
    10030    2    1    2    0    0  0.00000000000E+00  0.00000000000E+00  0.26946746875E+03  0.23385018667E+04  0.23229245067E+04 0.  0.
        4    1    3    3  502    0 -0.16545793203E+03  0.20523068722E+03  0.12734676601E+04  0.13004681682E+04  0.12699999809E+01 0.  1.
       -4    1    3    3    0  502  0.16545793203E+03 -0.20523068722E+03 -0.10040001913E+04  0.10380336986E+04  0.12699999809E+01 0. -1.
</event>
<event>
 5   0  0.6477703E-06  0.2486527E+04  0.7818609E-02  0.8407801E-01
        1   -1    0    0  501    0  0.00000000000E+00  0.00000000000E+00  0.12404926515E+04  0.12404926515E+04  0.50400001928E-02 0.  1.
       -1   -1    0    0    0  501  0.00000000000E+00  0.00000000000E+00 -0.12460408166E+04  0.12460408166E+04  0.50400001928E-02 0. -1.
    10030    2    1    2    0    0  0.00000000000E+00  0.00000000000E+00 -0.55481650851E+01  0.24865334680E+04  0.24865272783E+04 0.  0.
        5    1    3    3  502    0 -0.44616903555E+02  0.67019149534E+03  0.10434288266E+04  0.12409323571E+04  0.46999998093E+01 0.  1.
       -5    1    3    3    0  502  0.44616903555E+02 -0.67019149534E+03 -0.10489769917E+04  0.12456011110E+04  0.46999998093E+01 0. -1.
</event>
<event>
 5   0  0.1526824E-05  0.2452496E+04  0.7818609E-02  0.8420107E-01
       -2   -1    0    0    0  501  0.00000000000E+00  0.00000000000E+00  0.83143693523E+03  0.83143693523E+03  0.25500000920E-02 0. -1.
        2   -1    0    0  501    0  0.00000000000E+00  0.00000000000E+00 -0.18085360947E+04  0.18085360947E+04  0.25500000920E-02 0.  1.
    10030    2    1    2    0    0  0.00000000000E+00  0.00000000000E+00 -0.97709915948E+03  0.26399730299E+04  0.24524956333E+04 0.  0.
        2    1    3    3  502    0 -0.11157305476E+04 -0.22046652758E+03  0.50013153748E+01  0.11373148894E+04  0.25500000920E-02 0. -1.
       -2    1    3    3    0  502  0.11157305476E+04  0.22046652758E+03 -0.98210047485E+03  0.15026581405E+04  0.25500000920E-02 0.  1.
</event>
<event>
 5   0  0.6477703E-06  0.2499140E+04  0.7818609E-02  0.8403292E-01
        1   -1    0    0  501    0  0.00000000000E+00  0.00000000000E+00  0.14149669147E+04  0.14149669147E+04  0.50400001928E-02 0.  1.
       -1   -1    0    0    0  501  0.00000000000E+00  0.00000000000E+00 -0.11035062991E+04  0.11035062991E+04  0.50400001928E-02 0. -1.
    10030    2    1    2    0    0  0.00000000000E+00  0.00000000000E+00  0.31146061557E+03  0.25184732138E+04  0.24991397747E+04 0.  0.
        5    1    3    3  502    0 -0.67332170829E+03 -0.91180144539E+03  0.68578300106E+03  0.13247884409E+04  0.46999998093E+01 0. -1.
       -5    1    3    3    0  502  0.67332170829E+03  0.91180144539E+03 -0.37432238549E+03  0.11936847729E+04  0.46999998093E+01 0.  1.
</event>
<event>
 5   0  0.1572732E-05  0.2506846E+04  0.7818609E-02  0.8400551E-01
        2   -1    0    0  501    0  0.00000000000E+00  0.00000000000E+00  0.10407253186E+04  0.10407253186E+04  0.25500000920E-02 0.  1.
       -2   -1    0    0    0  501  0.00000000000E+00  0.00000000000E+00 -0.15095908890E+04  0.15095908890E+04  0.25500000920E-02 0. -1.
    10030    2    1    2    0    0  0.00000000000E+00  0.00000000000E+00 -0.46886557039E+03  0.25503162076E+04  0.25068461931E+04 0.  0.
        1    1    3    3  502    0  0.25440166504E+03  0.87753488380E+02  0.10109883885E+04  0.10461923359E+04  0.50400001928E-02 0.  1.
       -1    1    3    3    0  502 -0.25440166504E+03 -0.87753488380E+02 -0.14798539589E+04  0.15041238718E+04  0.50400001928E-02 0. -1.
</event>
<event>
 5   0  0.1468512E-05  0.2495446E+04  0.7818609E-02  0.8404610E-01
        2   -1    0    0  501    0  0.00000000000E+00  0.00000000000E+00  0.17570299279E+04  0.17570299279E+04  0.25500000920E-02 0. -1.
       -2   -1    0    0    0  501  0.00000000000E+00  0.00000000000E+00 -0.88604822428E+03  0.88604822428E+03  0.25500000920E-02 0.  1.
    10030    2    1    2    0    0  0.00000000000E+00  0.00000000000E+00  0.87098170362E+03  0.26430781522E+04  0.24954464511E+04 0.  0.
        4    1    3    3  502    0 -0.31327804589E+03  0.15840183699E+03 -0.83266408449E+03  0.90364006468E+03  0.12699999809E+01 0.  1.
       -4    1    3    3    0  502  0.31327804589E+03 -0.15840183699E+03  0.17036457881E+04  0.17394380875E+04  0.12699999809E+01 0. -1.
</event>
<event>
 5   0  0.6477703E-06  0.2518992E+04  0.7818609E-02  0.8396250E-01
       -1   -1    0    0    0  501  0.00000000000E+00  0.00000000000E+00  0.83689405952E+03  0.83689405953E+03  0.50400001928E-02 0. -1.
        1   -1    0    0  501    0  0.00000000000E+00  0.00000000000E+00 -0.18954975994E+04  0.18954975994E+04  0.50400001928E-02 0.  1.
    10030    2    1    2    0    0  0.00000000000E+00  0.00000000000E+00 -0.10586035399E+04  0.27323916589E+04  0.25189924023E+04 0.  0.
        5    1    3    3  502    0 -0.94903523611E+03  0.74247452263E+03 -0.92692427773E+03  0.15202457047E+04  0.46999998093E+01 0.  1.
       -5    1    3    3    0  502  0.94903523611E+03 -0.74247452263E+03 -0.13167926212E+03  0.12121459542E+04  0.46999998093E+01 0. -1.
</event>
<event>
 5   0  0.1468512E-05  0.2469548E+04  0.7818609E-02  0.8413915E-01
       -2   -1    0    0    0  501  0.00000000000E+00  0.00000000000E+00  0.65968957308E+03  0.65968957308E+03  0.25500000920E-02 0.  1.
        2   -1    0    0  501    0  0.00000000000E+00  0.00000000000E+00 -0.23111888957E+04  0.23111888957E+04  0.25500000920E-02 0. -1.
    10030    2    1    2    0    0  0.00000000000E+00  0.00000000000E+00 -0.16514993226E+04  0.29708784688E+04  0.24695483117E+04 0.  0.
        4    1    3    3  502    0  0.88309745709E+03 -0.72309535029E+03 -0.13924882717E+04  0.18004869353E+04  0.12699999809E+01 0. -1.
       -4    1    3    3    0  502 -0.88309745709E+03  0.72309535029E+03 -0.25901105091E+03  0.11703915335E+04  0.12699999809E+01 0.  1.
</event>
<event>
 5   0  0.1550483E-05  0.2484641E+04  0.7818609E-02  0.8408478E-01
        2   -1    0    0  501    0  0.00000000000E+00  0.00000000000E+00  0.19956064545E+04  0.19956064545E+04  0.25500000920E-02 0.  1.
       -2   -1    0    0    0  501  0.00000000000E+00  0.00000000000E+00 -0.77337903590E+03  0.77337903591E+03  0.25500000920E-02 0. -1.
    10030    2    1    2    0    0  0.00000000000E+00  0.00000000000E+00  0.12222274186E+04  0.27689854904E+04  0.24846409767E+04 0.  0.
        5    1    3    3  502    0  0.86498080006E+02 -0.20848443326E+03 -0.75032553199E+03  0.78355482942E+03  0.46999998093E+01 0. -1.
       -5    1    3    3    0  502 -0.86498080006E+02  0.20848443326E+03  0.19725529506E+04  0.19854306610E+04  0.46999998093E+01 0.  1.
</event>
<event>
 5   0  0.1572732E-05  0.2458774E+04  0.7818609E-02  0.8417821E-01
        2   -1    0    0  501    0  0.00000000000E+00  0.00000000000E+00  0.18168314891E+04  0.18168314891E+04  0.25500000920E-02 0. -1.
       -2   -1    0    0    0  501  0.00000000000E+00  0.00000000000E+00 -0.83188378283E+03  0.83188378283E+03  0.25500000920E-02 0.  1.
    10030    2    1    2    0    0  0.00000000000E+00  0.00000000000E+00  0.98494770632E+03  0.26487152720E+04  0.24587742084E+04 0.  0.
        1    1    3    3  502    0  0.18104754767E+03 -0.11934033567E+04  0.74373625949E+03  0.14177917372E+04  0.50400001928E-02 0. -1.
       -1    1    3    3    0  502 -0.18104754767E+03  0.11934033567E+04  0.24121144683E+03  0.12309235348E+04  0.50400001928E-02 0.  1.
</event>
<event>
 5   0  0.6346420E-06  0.2499897E+04  0.7818609E-02  0.8403022E-01
        1   -1    0    0  501    0  0.00000000000E+00  0.00000000000E+00  0.13009198041E+04  0.13009198041E+04  0.50400001928E-02 0. -1.
       -1   -1    0    0    0  501  0.00000000000E+00  0.00000000000E+00 -0.12009746967E+04  0.12009746967E+04  0.50400001928E-02 0.  1.
    10030    2    1    2    0    0  0.00000000000E+00  0.00000000000E+00  0.99945107397E+02  0.25018945007E+04  0.24998974116E+04 0.  0.
        4    1    3    3  502    0  0.84460371311E+03  0.23618447128E+03  0.94131956759E+03  0.12865545763E+04  0.12699999809E+01 0. -1.
       -4    1    3    3    0  502 -0.84460371311E+03 -0.23618447128E+03 -0.84137446019E+03  0.12153399244E+04  0.12699999809E+01 0.  1.
</event>
<event>
 5   0  0.1572732E-05  0.2530067E+04  0.7818609E-02  0.8392352E-01
       -2   -1    0    0    0  501  0.00000000000E+00  0.00000000000E+00  0.10961774764E+04  0.10961774764E+04  0.25500000920E-02 0. -1.
        2   -1    0    0  501    0  0.00000000000E+00  0.00000000000E+00 -0.14599001018E+04  0.14599001018E+04  0.25500000920E-02 0.  1.
    10030    2    1    2    0    0  0.00000000000E+00  0.00000000000E+00 -0.36372262538E+03  0.25560775782E+04  0.25300668840E+04 0.  0.
        1    1    3    3  502    0 -0.54551625841E+03  0.30790680925E+03  0.92848951078E+03  0.11200390007E+04  0.50400001928E-02 0. -1.
       -1    1    3    3    0  502  0.54551625841E+03 -0.30790680925E+03 -0.12922121362E+04  0.14360385776E+04  0.50400001928E-02 0.  1.
</event>
<event>
 5   0  0.6104486E-06  0.2494942E+04  0.7818609E-02  0.8404790E-01
       -1   -1    0    0    0  501  0.00000000000E+00  0.00000000000E+00  0.11019149038E+04  0.11019149038E+04  0.50400001928E-02 0.  1.
        1   -1    0    0  501    0  0.00000000000E+00  0.00000000000E+00 -0.14122546512E+04  0.14122546512E+04  0.50400001928E-02 0. -1.
    10030    2    1    2    0    0  0.00000000000E+00  0.00000000000E+00 -0.31033974741E+03  0.25141695550E+04  0.24949424427E+04 0.  0.
        2    1    3    3  502    0  0.10198024259E+04 -0.68363213130E+03 -0.37785833404E+03  0.12845726135E+04  0.25500000920E-02 0. -1.
       -2    1    3    3    0  502 -0.10198024259E+04  0.68363213130E+03  0.67518586623E+02  0.12295969414E+04  0.25500000920E-02 0.  1.
</event>
<event>
 5   0  0.1501947E-05  0.2481953E+04  0.7818609E-02  0.8409443E-01
       -2   -1    0    0    0  501  0.00000000000E+00  0.00000000000E+00  0.93227083980E+03  0.93227083980E+03  0.25500000920E-02 0.  1.
        2   -1    0    0  501    0  0.00000000000E+00  0.00000000000E+00 -0.16519053679E+04  0.16519053679E+04  0.25500000920E-02 0. -1.
    10030    2    1    2    0    0  0.00000000000E+00  0.00000000000E+00 -0.71963452809E+03  0.25841762077E+04  0.24819534279E+04 0.  0.
        3    1    3    3  502    0 -0.89075865391E+03  0.79331826813E+03 -0.71628996738E+03  0.13913576757E+04  0.10100000352E+00 0.  1.
       -3    1    3    3    0  502  0.89075865391E+03 -0.79331826813E+03 -0.33445607110E+01  0.11928185320E+04  0.10100000352E+00 0. -1.
</event>
<event>
 5   0  0.6346420E-06  0.2484072E+04  0.7818609E-02  0.8408682E-01
       -1   -1    0    0    0  501  0.00000000000E+00  0.00000000000E+00  0.74998521557E+03  0.74998521559E+03  0.50400001928E-02 0.  1.
        1   -1    0    0  501    0  0.00000000000E+00  0.00000000000E+00 -0.20569111359E+04  0.20569111359E+04  0.50400001928E-02 0. -1.
    10030    2    1    2    0    0  0.00000000000E+00  0.00000000000E+00 -0.13069259204E+04  0.28068963515E+04  0.24840716107E+04 0.  0.
        4    1    3    3  502    0  0.73948539840E+03  0.85340623606E+03 -0.69032750034E+02  0.11313301868E+04  0.12699999809E+01 0. -1.
       -4    1    3    3    0  502 -0.73948539840E+03 -0.85340623606E+03 -0.12378931703E+04  0.16755661647E+04  0.12699999809E+01 0.  1.
</event>
<event>
 5   0  0.6290861E-06  0.2546290E+04  0.7818609E-02  0.8386678E-01
       -1   -1    0    0    0  501  0.00000000000E+00  0.00000000000E+00  0.31533526331E+04  0.31533526331E+04  0.50400001928E-02 0.  1.
        1   -1    0    0  501    0  0.00000000000E+00  0.00000000000E+00 -0.51402385285E+03  0.51402385288E+03  0.50400001928E-02 0. -1.
    10030    2    1    2    0    0  0.00000000000E+00  0.00000000000E+00  0.26393287803E+04  0.36673764860E+04  0.25462902191E+04 0.  0.
        1    1    3    3  502    0  0.36969453069E+03  0.14094863062E+03 -0.42323056429E+03  0.57936575068E+03  0.50400001928E-02 0. -1.
       -1    1    3    3    0  502 -0.36969453069E+03 -0.14094863062E+03  0.30625593446E+04  0.30880107353E+04  0.50400001928E-02 0.  1.
</event>
<event>
 5   0  0.1572732E-05  0.2765009E+04  0.7818609E-02  0.8314215E-01
        2   -1    0    0  501    0  0.00000000000E+00  0.00000000000E+00  0.16082586495E+04  0.16082586495E+04  0.25500000920E-02 0.  1.
       -2   -1    0    0    0  501  0.00000000000E+00  0.00000000000E+00 -0.11884397792E+04  0.11884397792E+04  0.25500000920E-02 0. -1.
    10030    2    1    2    0    0  0.00000000000E+00  0.00000000000E+00  0.41981887030E+03  0.27966984288E+04  0.27650089001E+04 0.  0.
        1    1    3    3  502    0 -0.10716434522E+04  0.55901393475E+03 -0.46890238828E+03  0.12964512014E+04  0.50400001928E-02 0. -1.
       -1    1    3    3    0  502  0.10716434522E+04 -0.55901393475E+03  0.88872125858E+03  0.15002472274E+04  0.50400001928E-02 0.  1.
</event>
<event>
 5   0  0.1468512E-05  0.2496593E+04  0.7818609E-02  0.8404200E-01
        2   -1    0    0  501    0  0.00000000000E+00  0.00000000000E+00  0.21393665166E+04  0.21393665166E+04  0.25500000920E-02 0.  1.
       -2   -1    0    0    0  501  0.00000000000E+00  0.00000000000E+00 -0.72836688897E+03  0.72836688898E+03  0.25500000920E-02 0. -1.
    10030    2    1    2    0    0  0.00000000000E+00  0.00000000000E+00  0.14109996276E+04  0.28677334056E+04  0.24965926653E+04 0.  0.
        4    1    3    3  502    0  0.96798090824E+03 -0.50822413763E+03  0.13975258711E+04  0.17743615714E+04  0.12699999809E+01 0.  1.
       -4    1    3    3    0  502 -0.96798090824E+03  0.50822413763E+03  0.13473756546E+02  0.10933718342E+04  0.12699999809E+01 0. -1.
</event>
<event>
 5   0  0.6477703E-06  0.2497118E+04  0.7818609E-02  0.8404013E-01
        1   -1    0    0  501    0  0.00000000000E+00  0.00000000000E+00  0.21335675334E+04  0.21335675334E+04  0.50400001928E-02 0.  1.
       -1   -1    0    0    0  501  0.00000000000E+00  0.00000000000E+00 -0.73065392623E+03  0.73065392625E+03  0.50400001928E-02 0. -1.
    10030    2    1    2    0    0  0.00000000000E+00  0.00000000000E+00  0.14029136072E+04  0.28642214597E+04  0.24971179349E+04 0.  0.
        5    1    3    3  502    0  0.42965044582E+03 -0.98864713669E+03 -0.21118852093E+02  0.10781886488E+04  0.46999998093E+01 0. -1.
       -5    1    3    3    0  502 -0.42965044582E+03  0.98864713669E+03  0.14240324593E+04  0.17860328109E+04  0.46999998093E+01 0.  1.
</event>
<event>
 5   0  0.1572732E-05  0.2502327E+04  0.7818609E-02  0.8402157E-01
        2   -1    0    0  501    0  0.00000000000E+00  0.00000000000E+00  0.18984761038E+04  0.18984761038E+04  0.25500000920E-02 0.  1.
       -2   -1    0    0    0  501  0.00000000000E+00  0.00000000000E+00 -0.82456151939E+03  0.82456151939E+03  0.25500000920E-02 0. -1.
    10030    2    1    2    0    0  0.00000000000E+00  0.00000000000E+00  0.10739145844E+04  0.27230376232E+04  0.25023271894E+04 0.  0.
        1    1    3    3  502    0  0.11754959387E+04 -0.38462185064E+02  0.10013790627E+04  0.15446779822E+04  0.50400001928E-02 0.  1.
       -1    1    3    3    0  502 -0.11754959387E+04  0.38462185064E+02  0.72535521661E+02  0.11783596409E+04  0.50400001928E-02 0. -1.
</event>
<event>
 5   0  0.1501947E-05  0.2459094E+04  0.7818609E-02  0.8417705E-01
        2   -1    0    0  501    0  0.00000000000E+00  0.00000000000E+00  0.11019946826E+04  0.11019946826E+04  0.25500000920E-02 0.  1.
       -2   -1    0    0    0  501  0.00000000000E+00  0.00000000000E+00 -0.13718630428E+04  0.13718630428E+04  0.25500000920E-02 0. -1.
    10030    2    1    2    0    0  0.00000000000E+00  0.00000000000E+00 -0.26986836015E+03  0.24738577255E+04  0.24590939620E+04 0.  0.
        3    1    3    3  502    0 -0.75948553402E+02 -0.52079458609E+03 -0.12528169192E+04  0.13588765312E+04  0.10100000352E+00 0. -1.
       -3    1    3    3    0  502  0.75948553402E+02  0.52079458609E+03  0.98294855906E+03  0.11149811943E+04  0.10100000352E+00 0.  1.
</event>
<event>
 5   0  0.6290861E-06  0.2474387E+04  0.7818609E-02  0.8412168E-01
        1   -1    0    0  501    0  0.00000000000E+00  0.00000000000E+00  0.16508067256E+04  0.16508067256E+04  0.50400001928E-02 0.  1.
       -1   -1    0    0    0  501  0.00000000000E+00  0.00000000000E+00 -0.92721175791E+03  0.92721175792E+03  0.50400001928E-02 0. -1.
    10030    2    1    2    0    0  0.00000000000E+00  0.00000000000E+00  0.72359496765E+03  0.25780184835E+04  0.24743867167E+04 0.  0.
        1    1    3    3  502    0 -0.11141916441E+04 -0.34797053745E+03 -0.65426006514E+02  0.11690966928E+04  0.50400001928E-02 0. -1.
       -1    1    3    3    0  502  0.11141916441E+04  0.34797053745E+03  0.78902097416E+03  0.14089217907E+04  0.50400001928E-02 0.  1.
</event>
<event>
 5   0  0.6290861E-06  0.2494889E+04  0.7818609E-02  0.8404809E-01
       -1   -1    0    0    0  501  0.00000000000E+00  0.00000000000E+00  0.67898136490E+03  0.67898136492E+03  0.50400001928E-02 0. -1.
        1   -1    0    0  501    0  0.00000000000E+00  0.00000000000E+00 -0.22918417031E+04  0.22918417031E+04  0.50400001928E-02 0.  1.
    10030    2    1    2    0    0  0.00000000000E+00  0.00000000000E+00 -0.16128603382E+04  0.29708230680E+04  0.24948890218E+04 0.  0.
        1    1    3    3  502    0 -0.68045501773E+03 -0.36273119408E+03 -0.19740616982E+04  0.21193188856E+04  0.50400001928E-02 0.  1.
       -1    1    3    3    0  502  0.68045501773E+03  0.36273119408E+03  0.36120135998E+03  0.85150418249E+03  0.50400001928E-02 0. -1.
</event>
<event>
 5   0  0.6105353E-06  0.2494557E+04  0.7818609E-02  0.8404927E-01
       -1   -1    0    0    0  501  0.00000000000E+00  0.00000000000E+00  0.14501579173E+04  0.14501579174E+04  0.50400001928E-02 0. -1.
        1   -1    0    0  501    0  0.00000000000E+00  0.00000000000E+00 -0.10727820102E+04  0.10727820102E+04  0.50400001928E-02 0.  1.
    10030    2    1    2    0    0  0.00000000000E+00  0.00000000000E+00  0.37737590718E+03  0.25229399275E+04  0.24945567347E+04 0.  0.
        3    1    3    3  502    0 -0.36861944031E+02 -0.22836054153E+03 -0.10508984991E+04  0.10760552985E+04  0.10100000352E+00 0.  1.
       -3    1    3    3    0  502  0.36861944031E+02  0.22836054153E+03  0.14282744063E+04  0.14468846290E+04  0.10100000352E+00 0. -1.
</event>
<event>
 5   0  0.6477703E-06  0.2491746E+04  0.7818609E-02  0.8405932E-01
        1   -1    0    0  501    0  0.00000000000E+00  0.00000000000E+00  0.16496119212E+04  0.16496119212E+04  0.50400001928E-02 0. -1.
       -1   -1    0    0    0  501  0.00000000000E+00  0.00000000000E+00 -0.94094853292E+03  0.94094853293E+03  0.50400001928E-02 0.  1.
    10030    2    1    2    0    0  0.00000000000E+00  0.00000000000E+00  0.70866338824E+03  0.25905604541E+04  0.24917463090E+04 0.  0.
        5    1    3    3  502    0  0.80447677723E+03 -0.16578036979E+03  0.13282362406E+04  0.15616976715E+04  0.46999998093E+01 0. -1.
       -5    1    3    3    0  502 -0.80447677723E+03  0.16578036979E+03 -0.61957285239E+03  0.10288627827E+04  0.46999998093E+01 0.  1.
</event>
<event>
 5   0  0.6477703E-06  0.2501743E+04  0.7818609E-02  0.8402365E-01
       -1   -1    0    0    0  501  0.00000000000E+00  0.00000000000E+00  0.11575328577E+04  0.11575328577E+04  0.50400001928E-02 0. -1.
        1   -1    0    0  501    0  0.00000000000E+00  0.00000000000E+00 -0.13517371113E+04  0.13517371113E+04  0.50400001928E-02 0.  1.
    10030    2    1    2    0    0  0.00000000000E+00  0.00000000000E+00 -0.19420425362E+03  0.25092699691E+04  0.25017434892E+04 0.  0.
        5    1    3    3  502    0  0.37081082042E+03  0.10604159034E+04  0.45471252755E+03  0.12119274423E+04  0.46999998093E+01 0. -1.
       -5    1    3    3    0  502 -0.37081082042E+03 -0.10604159034E+04 -0.64891678117E+03  0.12973425267E+04  0.46999998093E+01 0.  1.
</event>
<event>
 5   0  0.1468512E-05  0.2529279E+04  0.7818609E-02  0.8392628E-01
       -2   -1    0    0    0  501  0.00000000000E+00  0.00000000000E+00  0.74021689285E+03  0.74021689285E+03  0.25500000920E-02 0.  1.
        2   -1    0    0  501    0  0.00000000000E+00  0.00000000000E+00 -0.21606002717E+04  0.21606002717E+04  0.25500000920E-02 0. -1.
    10030    2    1    2    0    0  0.00000000000E+00  0.00000000000E+00 -0.14203833788E+04  0.29008171645E+04  0.25292788062E+04 0.  0.
        4    1    3    3  502    0  0.43474137207E+03 -0.10494741049E+03 -0.20668754677E+04  0.21147079778E+04  0.12699999809E+01 0. -1.
       -4    1    3    3    0  502 -0.43474137207E+03  0.10494741049E+03  0.64649208888E+03  0.78610918671E+03  0.12699999809E+01 0.  1.
</event>
<event>
 5   0  0.1572732E-05  0.2232254E+04  0.7818609E-02  0.8505122E-01
       -2   -1    0    0    0  501  0.00000000000E+00  0.00000000000E+00  0.77579283634E+03  0.77579283634E+03  0.25500000920E-02 0. -1.
        2   -1    0    0  501    0  0.00000000000E+00  0.00000000000E+00 -0.16057631382E+04  0.16057631382E+04  0.25500000920E-02 0.  1.
    10030    2    1    2    0    0  0.00000000000E+00  0.00000000000E+00 -0.82997030190E+03  0.23815559746E+04  0.22322540532E+04 0.  0.
        1    1    3    3  502    0 -0.46405918861E+03  0.27890140763E+03 -0.14562784115E+04  0.15536678337E+04  0.50400001928E-02 0.  1.
       -1    1    3    3    0  502  0.46405918861E+03 -0.27890140763E+03  0.62630810956E+03  0.82788814090E+03  0.50400001928E-02 0. -1.
</event>
<event>
 5   0  0.6104486E-06  0.2526030E+04  0.7818609E-02  0.8393770E-01
        1   -1    0    0  501    0  0.00000000000E+00  0.00000000000E+00  0.11747495317E+04  0.11747495317E+04  0.50400001928E-02 0.  1.
       -1   -1    0    0    0  501  0.00000000000E+00  0.00000000000E+00 -0.13579123353E+04  0.13579123353E+04  0.50400001928E-02 0. -1.
    10030    2    1    2    0    0  0.00000000000E+00  0.00000000000E+00 -0.18316280358E+03  0.25326618670E+04  0.25260299919E+04 0.  0.
        2    1    3    3  502    0 -0.84936927161E+03 -0.67454193629E+03 -0.74040624910E+03  0.13132541251E+04  0.25500000920E-02 0. -1.
       -2    1    3    3    0  502  0.84936927161E+03  0.67454193629E+03  0.55724344552E+03  0.12194077419E+04  0.25500000920E-02 0.  1.
</event>
<event>
 5   0  0.1550483E-05  0.2507407E+04  0.7818609E-02  0.8400352E-01
       -2   -1    0    0    0  501  0.00000000000E+00  0.00000000000E+00  0.77834578376E+03  0.77834578377E+03  0.25500000920E-02 0.  1.
        2   -1    0    0  501    0  0.00000000000E+00  0.00000000000E+00 -0.20193749569E+04  0.20193749569E+04  0.25500000920E-02 0. -1.
    10030    2    1    2    0    0  0.00000000000E+00  0.00000000000E+00 -0.12410291731E+04  0.27977207406E+04  0.25074066152E+04 0.  0.
        5    1    3    3  502    0  0.27772561173E+03 -0.10745499921E+04  0.30055286389E+02  0.11102768174E+04  0.46999998093E+01 0.  1.
       -5    1    3    3    0  502 -0.27772561173E+03  0.10745499921E+04 -0.12710844595E+04  0.16874439232E+04  0.46999998093E+01 0. -1.
</event>
<event>
 5   0  0.6104486E-06  0.2448298E+04  0.7818609E-02  0.8421639E-01
        1   -1    0    0  501    0  0.00000000000E+00  0.00000000000E+00  0.15285725355E+04  0.15285725355E+04  0.50400001928E-02 0. -1.
       -1   -1    0    0    0  501  0.00000000000E+00  0.00000000000E+00 -0.98035344420E+03  0.98035344422E+03  0.50400001928E-02 0.  1.
    10030    2    1    2    0    0  0.00000000000E+00  0.00000000000E+00  0.54821909128E+03  0.25089259797E+04  0.24482984703E+04 0.  0.
        2    1    3    3  502    0  0.80426434827E+03 -0.57109706198E+03  0.10170086374E+04  0.14167919977E+04  0.25500000920E-02 0. -1.
       -2    1    3    3    0  502 -0.80426434827E+03  0.57109706198E+03 -0.46878954614E+03  0.10921339820E+04  0.25500000920E-02 0.  1.
</event>
<event>
 5   0  0.1526824E-05  0.2604391E+04  0.7818609E-02  0.8366711E-01
       -2   -1    0    0    0  501  0.00000000000E+00  0.00000000000E+00  0.86828708200E+03  0.86828708200E+03  0.25500000920E-02 0. -1.
        2   -1    0    0  501    0  0.00000000000E+00  0.00000000000E+00 -0.19529399379E+04  0.19529399379E+04  0.25500000920E-02 0.  1.
    10030    2    1    2    0    0  0.00000000000E+00  0.00000000000E+00 -0.10846528559E+04  0.28212270199E+04  0.26043905390E+04 0.  0.
        2    1    3    3  502    0  0.22419982097E+03 -0.12754379866E+04 -0.69047915528E+03  0.14675725131E+04  0.25500000920E-02 0.  1.
       -2    1    3    3    0  502 -0.22419982097E+03  0.12754379866E+04 -0.39417370058E+03  0.13536545067E+04  0.25500000920E-02 0. -1.
</event>
<event>
 5   0  0.1501947E-05  0.2517472E+04  0.7818609E-02  0.8396787E-01
       -2   -1    0    0    0  501  0.00000000000E+00  0.00000000000E+00  0.74928690495E+03  0.74928690496E+03  0.25500000920E-02 0. -1.
        2   -1    0    0  501    0  0.00000000000E+00  0.00000000000E+00 -0.21145650692E+04  0.21145650692E+04  0.25500000920E-02 0.  1.
    10030    2    1    2    0    0  0.00000000000E+00  0.00000000000E+00 -0.13652781643E+04  0.28638519742E+04  0.25174716809E+04 0.  0.
        3    1    3    3  502    0  0.85046048711E+03 -0.79547128789E+03 -0.13902040502E+03  0.11727677917E+04  0.10100000352E+00 0. -1.
       -3    1    3    3    0  502 -0.85046048711E+03  0.79547128789E+03 -0.12262577593E+04  0.16910841825E+04  0.10100000352E+00 0.  1.
</event>
<event>
 5   0  0.1572732E-05  0.2492977E+04  0.7818609E-02  0.8405492E-01
        2   -1    0    0  501    0  0.00000000000E+00  0.00000000000E+00  0.92867702273E+03  0.92867702273E+03  0.25500000920E-02 0. -1.
       -2   -1    0    0    0  501  0.00000000000E+00  0.00000000000E+00 -0.16730610225E+04  0.16730610225E+04  0.25500000920E-02 0.  1.
    10030    2    1    2    0    0  0.00000000000E+00  0.00000000000E+00 -0.74438399980E+03  0.26017380453E+04  0.24929767983E+04 0.  0.
        1    1    3    3  502    0  0.24421726508E+03 -0.41040681469E+03  0.82941098417E+03  0.95707805679E+03  0.50400001928E-02 0. -1.
       -1    1    3    3    0  502 -0.24421726508E+03  0.41040681469E+03 -0.15737949840E+04  0.16446599885E+04  0.50400001928E-02 0.  1.
</event>
<event>
 5   0  0.1468512E-05  0.2431677E+04  0.7818609E-02  0.8427738E-01
        2   -1    0    0  501    0  0.00000000000E+00  0.00000000000E+00  0.17370424899E+04  0.17370424899E+04  0.25500000920E-02 0.  1.
       -2   -1    0    0    0  501  0.00000000000E+00  0.00000000000E+00 -0.85102330094E+03  0.85102330094E+03  0.25500000920E-02 0. -1.
    10030    2    1    2    0    0  0.00000000000E+00  0.00000000000E+00  0.88601918895E+03  0.25880657908E+04  0.24316773089E+04 0.  0.
        4    1    3    3  502    0 -0.34798079568E+03 -0.11229409113E+04  0.77307551461E+03  0.14070303083E+04  0.12699999809E+01 0.  1.
       -4    1    3    3    0  502  0.34798079568E+03  0.11229409113E+04  0.11294367435E+03  0.11810354825E+04  0.12699999809E+01 0. -1.
</event>
<event>
 5   0  0.6477703E-06  0.2470391E+04  0.7818609E-02  0.8413610E-01
       -1   -1    0    0    0  501  0.00000000000E+00  0.00000000000E+00  0.65454647051E+03  0.65454647053E+03  0.50400001928E-02 0.  1.
        1   -1    0    0  501    0  0.00000000000E+00  0.00000000000E+00 -0.23309391451E+04  0.23309391451E+04  0.50400001928E-02 0. -1.
    10030    2    1    2    0    0  0.00000000000E+00  0.00000000000E+00 -0.16763926746E+04  0.29854856157E+04  0.24703910544E+04 0.  0.
        5    1    3    3  502    0  0.82647860966E+03 -0.31048960678E+03  0.20575757498E+03  0.90654782434E+03  0.46999998093E+01 0.  1.
       -5    1    3    3    0  502 -0.82647860966E+03  0.31048960678E+03 -0.18821502496E+04  0.20789377913E+04  0.46999998093E+01 0. -1.
</event>
<event>
 5   0  0.6346420E-06  0.2504892E+04  0.7818609E-02  0.8401245E-01
        1   -1    0    0  501    0  0.00000000000E+00  0.00000000000E+00  0.12896859606E+04  0.12896859606E+04  0.50400001928E-02 0. -1.
       -1   -1    0    0    0  501  0.00000000000E+00  0.00000000000E+00 -0.12162809741E+04  0.12162809741E+04  0.50400001928E-02 0.  1.
    10030    2    1    2    0    0  0.00000000000E+00  0.00000000000E+00  0.73404986502E+02  0.25059669348E+04  0.25048916117E+04 0.  0.
        4    1    3    3  502    0  0.27090957172E+03 -0.86588620838E+03  0.90047800918E+03  0.12782852498E+04  0.12699999809E+01 0. -1.
       -4    1    3    3    0  502 -0.27090957172E+03  0.86588620838E+03 -0.82707302268E+03  0.12276816850E+04  0.12699999809E+01 0.  1.
</event>
<event>
 5   0  0.5164625E-06  0.2394617E+04  0.7818609E-02  0.8441521E-01
        3   -1    0    0  501    0  0.00000000000E+00  0.00000000000E+00  0.80547854850E+03  0.80547855484E+03  0.10100000352E+00 0. -1.
       -3   -1    0    0    0  501  0.00000000000E+00  0.00000000000E+00 -0.17797472420E+04  0.17797472449E+04  0.10100000352E+00 0.  1.
    10030    2    1    2    0    0  0.00000000000E+00  0.00000000000E+00 -0.97426869354E+03  0.25852257997E+04  0.23946174952E+04 0.  0.
        2    1    3    3  502    0  0.24685439062E+02  0.79512332996E+03  0.47892111430E+03  0.92854505248E+03  0.25500000920E-02 0. -1.
       -2    1    3    3    0  502 -0.24685439062E+02 -0.79512332996E+03 -0.14531898078E+04  0.16566807473E+04  0.25500000920E-02 0.  1.
</event>
<event>
 5   0  0.1501947E-05  0.2477925E+04  0.7818609E-02  0.8410892E-01
        2   -1    0    0  501    0  0.00000000000E+00  0.00000000000E+00  0.14815315912E+04  0.14815315912E+04  0.25500000920E-02 0. -1.
       -2   -1    0    0    0  501  0.00000000000E+00  0.00000000000E+00 -0.10361088575E+04  0.10361088575E+04  0.25500000920E-02 0.  1.
    10030    2    1    2    0    0  0.00000000000E+00  0.00000000000E+00  0.44542273366E+03  0.25176404487E+04  0.24779249418E+04 0.  0.
        3    1    3    3  502    0  0.93183721557E+03  0.71828208164E+03 -0.17181397786E+03  0.11890205206E+04  0.10100000352E+00 0.  1.
       -3    1    3    3    0  502 -0.93183721557E+03 -0.71828208164E+03  0.61723671151E+03  0.13286199281E+04  0.10100000352E+00 0. -1.
</event>
<event>
 5   0  0.1526824E-05  0.2492132E+04  0.7818609E-02  0.8405794E-01
       -2   -1    0    0    0  501  0.00000000000E+00  0.00000000000E+00  0.87955344184E+03  0.87955344184E+03  0.25500000920E-02 0. -1.
        2   -1    0    0  501    0  0.00000000000E+00  0.00000000000E+00 -0.17653049188E+04  0.17653049188E+04  0.25500000920E-02 0.  1.
    10030    2    1    2    0    0  0.00000000000E+00  0.00000000000E+00 -0.88575147698E+03  0.26448583607E+04  0.24921316316E+04 0.  0.
        2    1    3    3  502    0  0.79438961389E+03 -0.91674189757E+03 -0.14043887094E+03  0.12211443985E+04  0.25500000920E-02 0. -1.
       -2    1    3    3    0  502 -0.79438961389E+03  0.91674189757E+03 -0.74531260605E+03  0.14237139622E+04  0.25500000920E-02 0.  1.
</event>
<event>
 5   0  0.1550483E-05  0.2568625E+04  0.7818609E-02  0.8378937E-01
        2   -1    0    0  501    0  0.00000000000E+00  0.00000000000E+00  0.19579740517E+04  0.19579740517E+04  0.25500000920E-02 0. -1.
       -2   -1    0    0    0  501  0.00000000000E+00  0.00000000000E+00 -0.84243118685E+03  0.84243118685E+03  0.25500000920E-02 0.  1.
    10030    2    1    2    0    0  0.00000000000E+00  0.00000000000E+00  0.11155428648E+04  0.28004052385E+04  0.25686248494E+04 0.  0.
        5    1    3    3  502    0  0.50331272635E+02  0.64181710785E+03 -0.65380017513E+03  0.91757244724E+03  0.46999998093E+01 0.  1.
       -5    1    3    3    0  502 -0.50331272635E+02 -0.64181710785E+03  0.17693430400E+04  0.18828327913E+04  0.46999998093E+01 0. -1.
</event>
<event>
 5   0  0.6346420E-06  0.2421932E+04  0.7818609E-02  0.8431338E-01
       -1   -1    0    0    0  501  0.00000000000E+00  0.00000000000E+00  0.82060744574E+03  0.82060744576E+03  0.50400001928E-02 0. -1.
        1   -1    0    0  501    0  0.00000000000E+00  0.00000000000E+00 -0.17870159220E+04  0.17870159220E+04  0.50400001928E-02 0.  1.
    10030    2    1    2    0    0  0.00000000000E+00  0.00000000000E+00 -0.96640847621E+03  0.26076233677E+04  0.24219319324E+04 0.  0.
        4    1    3    3  502    0  0.44347891256E+03  0.90735786481E+03 -0.12026146144E+04  0.15704315854E+04  0.12699999809E+01 0.  1.
       -4    1    3    3    0  502 -0.44347891256E+03 -0.90735786481E+03  0.23620613819E+03  0.10371917823E+04  0.12699999809E+01 0. -1.
</event>
<event>
 5   0  0.6290861E-06  0.2489077E+04  0.7818609E-02  0.8406887E-01
        1   -1    0    0  501    0  0.00000000000E+00  0.00000000000E+00  0.10562091591E+04  0.10562091591E+04  0.50400001928E-02 0.  1.
       -1   -1    0    0    0  501  0.00000000000E+00  0.00000000000E+00 -0.14664481271E+04  0.14664481271E+04  0.50400001928E-02 0. -1.
    10030    2    1    2    0    0  0.00000000000E+00  0.00000000000E+00 -0.41023896805E+03  0.25226572862E+04  0.24890768917E+04 0.  0.
        1    1    3    3  502    0  0.65869988452E+03 -0.43738204098E+03 -0.11791721518E+04  0.14197308024E+04  0.50400001928E-02 0. -1.
       -1    1    3    3    0  502 -0.65869988452E+03  0.43738204098E+03  0.76893318377E+03  0.11029264838E+04  0.50400001928E-02 0.  1.
</event>
<event>
 5   0  0.1526824E-05  0.2496472E+04  0.7818609E-02  0.8404243E-01
       -2   -1    0    0    0  501  0.00000000000E+00  0.00000000000E+00  0.11976498689E+04  0.11976498689E+04  0.25500000920E-02 0.  1.
        2   -1    0    0  501    0  0.00000000000E+00  0.00000000000E+00 -0.13009592328E+04  0.13009592328E+04  0.25500000920E-02 0. -1.
    10030    2    1    2    0    0  0.00000000000E+00  0.00000000000E+00 -0.10330936384E+03  0.24986091017E+04  0.24964724350E+04 0.  0.
        2    1    3    3  502    0 -0.71449002475E+03  0.33444099342E+03 -0.10198227097E+04  0.12893351515E+04  0.25500000920E-02 0. -1.
       -2    1    3    3    0  502  0.71449002475E+03 -0.33444099342E+03  0.91651334589E+03  0.12092739503E+04  0.25500000920E-02 0.  1.
</event>
<event>
 5   0  0.6346420E-06  0.2501138E+04  0.7818609E-02  0.8402580E-01
       -1   -1    0    0    0  501  0.00000000000E+00  0.00000000000E+00  0.13889971992E+04  0.13889971992E+04  0.50400001928E-02 0.  1.
        1   -1    0    0  501    0  0.00000000000E+00  0.00000000000E+00 -0.11259367088E+04  0.11259367088E+04  0.50400001928E-02 0. -1.
    10030    2    1    2    0    0  0.00000000000E+00  0.00000000000E+00  0.26306049039E+03  0.25149339081E+04  0.25011380890E+04 0.  0.
        4    1    3    3  502    0 -0.55702508033E+03  0.88213287531E+02  0.12538691440E+04  0.13748628904E+04  0.12699999809E+01 0.  1.
       -4    1    3    3    0  502  0.55702508033E+03 -0.88213287531E+02 -0.99080865365E+03  0.11400710176E+04  0.12699999809E+01 0. -1.
</event>
<event>
 5   0  0.1468512E-05  0.2506198E+04  0.7818609E-02  0.8400781E-01
       -2   -1    0    0    0  501  0.00000000000E+00  0.00000000000E+00  0.87200786777E+03  0.87200786777E+03  0.25500000920E-02 0.  1.
        2   -1    0    0  501    0  0.00000000000E+00  0.00000000000E+00 -0.18007372494E+04  0.18007372494E+04  0.25500000920E-02 0. -1.
    10030    2    1    2    0    0  0.00000000000E+00  0.00000000000E+00 -0.92872938167E+03  0.26727451172E+04  0.25061979565E+04 0.  0.
        4    1    3    3  502    0  0.10448940219E+04 -0.14191785072E+03 -0.11863401389E+04  0.15872456430E+04  0.12699999809E+01 0. -1.
       -4    1    3    3    0  502 -0.10448940219E+04  0.14191785072E+03  0.25761075721E+03  0.10854994742E+04  0.12699999809E+01 0.  1.
</event>
<event>
 5   0  0.6477703E-06  0.2182308E+04  0.7818609E-02  0.8525828E-01
       -1   -1    0    0    0  501  0.00000000000E+00  0.00000000000E+00  0.12061030606E+04  0.12061030606E+04  0.50400001928E-02 0.  1.
        1   -1    0    0  501    0  0.00000000000E+00  0.00000000000E+00 -0.98715985338E+03  0.98715985340E+03  0.50400001928E-02 0. -1.
    10030    2    1    2    0    0  0.00000000000E+00  0.00000000000E+00  0.21894320724E+03  0.21932629140E+04  0.21823075132E+04 0.  0.
        5    1    3    3  502    0  0.91466880887E+02 -0.85201412176E+03  0.78836262618E+03  0.11644019814E+04  0.46999998093E+01 0.  1.
       -5    1    3    3    0  502 -0.91466880887E+02  0.85201412176E+03 -0.56941941894E+03  0.10288609326E+04  0.46999998093E+01 0. -1.
</event>
<event>
 5   0  0.1550483E-05  0.2489523E+04  0.7818609E-02  0.8406728E-01
        2   -1    0    0  501    0  0.00000000000E+00  0.00000000000E+00  0.10838599813E+04  0.10838599813E+04  0.25500000920E-02 0.  1.
       -2   -1    0    0    0  501  0.00000000000E+00  0.00000000000E+00 -0.14295491728E+04  0.14295491728E+04  0.25500000920E-02 0. -1.
    10030    2    1    2    0    0  0.00000000000E+00  0.00000000000E+00 -0.34568919146E+03  0.25134091540E+04  0.24895229580E+04 0.  0.
        5    1    3    3  502    0  0.32318030620E+03  0.22914452263E+03 -0.13641904237E+04  0.14205598631E+04  0.46999998093E+01 0. -1.
       -5    1    3    3    0  502 -0.32318030620E+03 -0.22914452263E+03  0.10185012323E+04  0.10928492909E+04  0.46999998093E+01 0.  1.
</event>
<event>
 5   0  0.1572732E-05  0.2490503E+04  0.7818609E-02  0.8406377E-01
        2   -1    0    0  501    0  0.00000000000E+00  0.00000000000E+00  0.19239857504E+04  0.19239857504E+04  0.25500000920E-02 0.  1.
       -2   -1    0    0    0  501  0.00000000000E+00  0.00000000000E+00 -0.80595800970E+03  0.80595800970E+03  0.25500000920E-02 0. -1.
    10030    2    1    2    0    0  0.00000000000E+00  0.00000000000E+00  0.11180277407E+04  0.27299437601E+04  0.24905033436E+04 0.  0.
        1    1    3    3  502    0 -0.55947720826E+03 -0.87884902215E+03 -0.18866493770E+03  0.10587657007E+04  0.50400001928E-02 0. -1.
       -1    1    3    3    0  502  0.55947720826E+03  0.87884902215E+03  0.13066926784E+04  0.16711780594E+04  0.50400001928E-02 0.  1.
</event>
<event>
 5   0  0.6105353E-06  0.2524519E+04  0.7818609E-02  0.8394302E-01
        1   -1    0    0  501    0  0.00000000000E+00  0.00000000000E+00  0.14587683953E+04  0.14587683953E+04  0.50400001928E-02 0. -1.
       -1   -1    0    0    0  501  0.00000000000E+00  0.00000000000E+00 -0.10922224482E+04  0.10922224482E+04  0.50400001928E-02 0.  1.
    10030    2    1    2    0    0  0.00000000000E+00  0.00000000000E+00  0.36654594711E+03  0.25509908436E+04  0.25245194300E+04 0.  0.
        3    1    3    3  502    0 -0.28516764969E+03  0.99507928760E+03  0.91320200730E+03  0.13803772287E+04  0.10100000352E+00 0. -1.
       -3    1    3    3    0  502  0.28516764969E+03 -0.99507928760E+03 -0.54665606019E+03  0.11706136149E+04  0.10100000352E+00 0.  1.
</event>
<event>
 5   0  0.6346420E-06  0.2496138E+04  0.7818609E-02  0.8404363E-01
        1   -1    0    0  501    0  0.00000000000E+00  0.00000000000E+00  0.27033764572E+04  0.27033764572E+04  0.50400001928E-02 0. -1.
       -1   -1    0    0    0  501  0.00000000000E+00  0.00000000000E+00 -0.57619637146E+03  0.57619637148E+03  0.50400001928E-02 0.  1.
    10030    2    1    2    0    0  0.00000000000E+00  0.00000000000E+00  0.21271800857E+04  0.32795728287E+04  0.24961375806E+04 0.  0.
        4    1    3    3  502    0 -0.10786216152E+04  0.48489049851E+03  0.15877040403E+04  0.19797346077E+04  0.12699999809E+01 0. -1.
       -4    1    3    3    0  502  0.10786216152E+04 -0.48489049851E+03  0.53947604539E+03  0.12998382210E+04  0.12699999809E+01 0.  1.
</event>
<event>
 5   0  0.6346420E-06  0.2490193E+04  0.7818609E-02  0.8406488E-01
        1   -1    0    0  501    0  0.00000000000E+00  0.00000000000E+00  0.13356257238E+04  0.13356257238E+04  0.50400001928E-02 0.  1.
       -1   -1    0    0    0  501  0.00000000000E+00  0.00000000000E+00 -0.11607030620E+04  0.11607030620E+04  0.50400001928E-02 0. -1.
    10030    2    1    2    0    0  0.00000000000E+00  0.00000000000E+00  0.17492266181E+03  0.24963287859E+04  0.24901926571E+04 0.  0.
        4    1    3    3  502    0 -0.94764704175E+03  0.16565874474E+03 -0.70492014495E+03  0.11926406664E+04  0.12699999809E+01 0. -1.
       -4    1    3    3    0  502  0.94764704175E+03 -0.16565874474E+03  0.87984280675E+03  0.13036881195E+04  0.12699999809E+01 0.  1.
</event>
<event>
 5   0  0.6346420E-06  0.2517395E+04  0.7818609E-02  0.8396815E-01
       -1   -1    0    0    0  501  0.00000000000E+00  0.00000000000E+00  0.82832875797E+03  0.82832875799E+03  0.50400001928E-02 0.  1.
        1   -1    0    0  501    0  0.00000000000E+00  0.00000000000E+00 -0.19126700605E+04  0.19126700605E+04  0.50400001928E-02 0. -1.
    10030    2    1    2    0    0  0.00000000000E+00  0.00000000000E+00 -0.10843413025E+04  0.27409988184E+04  0.25173951741E+04 0.  0.
        4    1    3    3  502    0 -0.81699665199E+03  0.18465373367E+03 -0.15651649995E+04  0.17751967832E+04  0.12699999809E+01 0.  1.
       -4    1    3    3    0  502  0.81699665199E+03 -0.18465373367E+03  0.48082369699E+03  0.96580203521E+03  0.12699999809E+01 0. -1.
</event>
<event>
 5   0  0.6105353E-06  0.2459440E+04  0.7818609E-02  0.8417579E-01
       -1   -1    0    0    0  501  0.00000000000E+00  0.00000000000E+00  0.12250649868E+04  0.12250649868E+04  0.50400001928E-02 0.  1.
        1   -1    0    0  501    0  0.00000000000E+00  0.00000000000E+00 -0.12343927032E+04  0.12343927032E+04  0.50400001928E-02 0. -1.
    10030    2    1    2    0    0  0.00000000000E+00  0.00000000000E+00 -0.93277163666E+01  0.24594576900E+04  0.24594400019E+04 0.  0.
        3    1    3    3  502    0  0.78439530550E+03 -0.61554586381E+03  0.71509027776E+03  0.12269991122E+04  0.10100000352E+00 0.  1.
       -3    1    3    3    0  502 -0.78439530550E+03  0.61554586381E+03 -0.72441799412E+03  0.12324585779E+04  0.10100000352E+00 0. -1.
</event>
<event>
 5   0  0.1550483E-05  0.2501778E+04  0.7818609E-02  0.8402352E-01
        2   -1    0    0  501    0  0.00000000000E+00  0.00000000000E+00  0.21686774410E+04  0.21686774410E+04  0.25500000920E-02 0. -1.
       -2   -1    0    0    0  501  0.00000000000E+00  0.00000000000E+00 -0.72151054051E+03  0.72151054052E+03  0.25500000920E-02 0.  1.
    10030    2    1    2    0    0  0.00000000000E+00  0.00000000000E+00  0.14471669005E+04  0.28901879815E+04  0.25017782737E+04 0.  0.
        5    1    3    3  502    0  0.85921607256E+03 -0.45921714624E+03  0.16299744986E+04  0.18989395996E+04  0.46999998093E+01 0. -1.
       -5    1    3    3    0  502 -0.85921607256E+03  0.45921714624E+03 -0.18280759813E+03  0.99124838193E+03  0.46999998093E+01 0.  1.
</event>
<event>
 5   0  0.1526824E-05  0.2482202E+04  0.7818609E-02  0.8409354E-01
        2   -1    0    0  501    0  0.00000000000E+00  0.00000000000E+00  0.11979111713E+04  0.11979111713E+04  0.25500000920E-02 0. -1.
       -2   -1    0    0    0  501  0.00000000000E+00  0.00000000000E+00 -0.12858483627E+04  0.12858483627E+04  0.25500000920E-02 0.  1.
    10030    2    1    2    0    0  0.00000000000E+00  0.00000000000E+00 -0.87937191318E+02  0.24837595340E+04  0.24822023433E+04 0.  0.
        2    1    3    3  502    0 -0.10606443568E+04  0.39470171686E+03  0.46583725946E+03  0.12238301554E+04  0.25500000920E-02 0. -1.
       -2    1    3    3    0  502  0.10606443568E+04 -0.39470171686E+03 -0.55377445078E+03  0.12599293787E+04  0.25500000920E-02 0.  1.
</event>
<event>
 5   0  0.6104486E-06  0.2487939E+04  0.7818609E-02  0.8407295E-01
       -1   -1    0    0    0  501  0.00000000000E+00  0.00000000000E+00  0.77194157492E+03  0.77194157494E+03  0.50400001928E-02 0. -1.
        1   -1    0    0  501    0  0.00000000000E+00  0.00000000000E+00 -0.20046343447E+04  0.20046343447E+04  0.50400001928E-02 0.  1.
    10030    2    1    2    0    0  0.00000000000E+00  0.00000000000E+00 -0.12326927697E+04  0.27765759196E+04  0.24879393829E+04 0.  0.
        2    1    3    3  502    0  0.67258503102E+03 -0.96115443813E+03 -0.15448347358E+03  0.11832386156E+04  0.25500000920E-02 0.  1.
       -2    1    3    3    0  502 -0.67258503102E+03  0.96115443813E+03 -0.10782092962E+04  0.15933373040E+04  0.25500000920E-02 0. -1.
</event>
<event>
 5   0  0.6290861E-06  0.2497341E+04  0.7818609E-02  0.8403934E-01
        1   -1    0    0  501    0  0.00000000000E+00  0.00000000000E+00  0.11107076006E+04  0.11107076006E+04  0.50400001928E-02 0.  1.
       -1   -1    0    0    0  501  0.00000000000E+00  0.00000000000E+00 -0.14037695457E+04  0.14037695457E+04  0.50400001928E-02 0. -1.
    10030    2    1    2    0    0  0.00000000000E+00  0.00000000000E+00 -0.29306194510E+03  0.25144771462E+04  0.24973405886E+04 0.  0.
        1    1    3    3  502    0  0.55194622812E+02  0.12435458198E+04 -0.47239624257E+02  0.12456661809E+04  0.50400001928E-02 0.  1.
       -1    1    3    3    0  502 -0.55194622812E+02 -0.12435458198E+04 -0.24582232084E+03  0.12688109653E+04  0.50400001928E-02 0. -1.
</event>
<event>
 5   0  0.6105353E-06  0.2500527E+04  0.7818609E-02  0.8402798E-01
        1   -1    0    0  501    0  0.00000000000E+00  0.00000000000E+00  0.28810303960E+04  0.28810303960E+04  0.50400001928E-02 0. -1.
       -1   -1    0    0    0  501  0.00000000000E+00  0.00000000000E+00 -0.54256939526E+03  0.54256939528E+03  0.50400001928E-02 0.  1.
    10030    2    1    2    0    0  0.00000000000E+00  0.00000000000E+00  0.23384610007E+04  0.34235997912E+04  0.25005270802E+04 0.  0.
        3    1    3    3  502    0  0.78136781959E+03  0.67975522120E+03  0.21281800512E+04  0.23668023091E+04  0.10100000352E+00 0. -1.
       -3    1    3    3    0  502 -0.78136781959E+03 -0.67975522120E+03  0.21028094954E+03  0.10567974821E+04  0.10100000352E+00 0.  1.
</event>
<event>
 5   0  0.6290861E-06  0.2508480E+04  0.7818609E-02  0.8399971E-01
        1   -1    0    0  501    0  0.00000000000E+00  0.00000000000E+00  0.15417147576E+04  0.15417147576E+04  0.50400001928E-02 0. -1.
       -1   -1    0    0    0  501  0.00000000000E+00  0.00000000000E+00 -0.10203690596E+04  0.10203690596E+04  0.50400001928E-02 0.  1.
    10030    2    1    2    0    0  0.00000000000E+00  0.00000000000E+00  0.52134569799E+03  0.25620838173E+04  0.25084800477E+04 0.  0.
        1    1    3    3  502    0 -0.19165294231E+02 -0.33964597669E+03 -0.97234900632E+03  0.10301404215E+04  0.50400001928E-02 0.  1.
       -1    1    3    3    0  502  0.19165294231E+02  0.33964597669E+03  0.14936947043E+04  0.15319433957E+04  0.50400001928E-02 0. -1.
</event>
<event>
 5   0  0.6346420E-06  0.2500123E+04  0.7818609E-02  0.8402942E-01
        1   -1    0    0  501    0  0.00000000000E+00  0.00000000000E+00  0.14705330757E+04  0.14705330757E+04  0.50400001928E-02 0.  1.
       -1   -1    0    0    0  501  0.00000000000E+00  0.00000000000E+00 -0.10626445873E+04  0.10626445873E+04  0.50400001928E-02 0. -1.
    10030    2    1    2    0    0  0.00000000000E+00  0.00000000000E+00  0.40788848843E+03  0.25331776630E+04  0.25001232076E+04 0.  0.
        4    1    3    3  502    0  0.97946334284E+03  0.34885008736E+02  0.99014573363E+03  0.13931818225E+04  0.12699999809E+01 0.  1.
       -4    1    3    3    0  502 -0.97946334284E+03 -0.34885008736E+02 -0.58225724521E+03  0.11399958405E+04  0.12699999809E+01 0. -1.
</event>
<event>
 5   0  0.6346420E-06  0.2505325E+04  0.7818609E-02  0.8401091E-01
        1   -1    0    0  501    0  0.00000000000E+00  0.00000000000E+00  0.14106523484E+04  0.14106523484E+04  0.50400001928E-02 0. -1.
       -1   -1    0    0    0  501  0.00000000000E+00  0.00000000000E+00 -0.11123671959E+04  0.11123671959E+04  0.50400001928E-02 0.  1.
    10030    2    1    2    0    0  0.00000000000E+00  0.00000000000E+00  0.29828515245E+03  0.25230195443E+04  0.25053250465E+04 0.  0.
        4    1    3    3  502    0  0.29529942687E+02 -0.53850179472E+03  0.12877496498E+04  0.13961221200E+04  0.12699999809E+01 0. -1.
       -4    1    3    3    0  502 -0.29529942687E+02  0.53850179472E+03 -0.98946449737E+03  0.11268974243E+04  0.12699999809E+01 0.  1.
</event>
<event>
 5   0  0.6105353E-06  0.2501630E+04  0.7818609E-02  0.8402405E-01
       -1   -1    0    0    0  501  0.00000000000E+00  0.00000000000E+00  0.10502695912E+04  0.10502695913E+04  0.50400001928E-02 0.  1.
        1   -1    0    0  501    0  0.00000000000E+00  0.00000000000E+00 -0.14896540593E+04  0.14896540593E+04  0.50400001928E-02 0. -1.
    10030    2    1    2    0    0  0.00000000000E+00  0.00000000000E+00 -0.43938446801E+03  0.25399236505E+04  0.25016301565E+04 0.  0.
        3    1    3    3  502    0 -0.33549380923E+03  0.98054868317E+03  0.49139021058E+03  0.11469508121E+04  0.10100000352E+00 0. -1.
       -3    1    3    3    0  502  0.33549380923E+03 -0.98054868317E+03 -0.93077467859E+03  0.13929728384E+04  0.10100000352E+00 0.  1.
</event>
<event>
 5   0  0.1526824E-05  0.2506775E+04  0.7818609E-02  0.8400576E-01
       -2   -1    0    0    0  501  0.00000000000E+00  0.00000000000E+00  0.10007818812E+04  0.10007818812E+04  0.25500000920E-02 0. -1.
        2   -1    0    0  501    0  0.00000000000E+00  0.00000000000E+00 -0.15697526798E+04  0.15697526798E+04  0.25500000920E-02 0.  1.
    10030    2    1    2    0    0  0.00000000000E+00  0.00000000000E+00 -0.56897079860E+03  0.25705345609E+04  0.25067748521E+04 0.  0.
        2    1    3    3  502    0  0.11241134484E+04 -0.51965105350E+03 -0.48256104823E+03  0.13291100134E+04  0.25500000920E-02 0.  1.
       -2    1    3    3    0  502 -0.11241134484E+04  0.51965105350E+03 -0.86409750371E+02  0.12414245476E+04  0.25500000920E-02 0. -1.
</event>
<event>
 5   0  0.6477703E-06  0.2505604E+04  0.7818609E-02  0.8400992E-01
       -1   -1    0    0    0  501  0.00000000000E+00  0.00000000000E+00  0.11209728935E+04  0.11209728936E+04  0.50400001928E-02 0.  1.
        1   -1    0    0  501    0  0.00000000000E+00  0.00000000000E+00 -0.14001349833E+04  0.14001349833E+04  0.50400001928E-02 0. -1.
    10030    2    1    2    0    0  0.00000000000E+00  0.00000000000E+00 -0.27916208972E+03  0.25211078768E+04  0.25056044090E+04 0.  0.
        5    1    3    3  502    0 -0.33191955059E+03 -0.11944840920E+04 -0.32105342659E+03  0.12806483619E+04  0.46999998093E+01 0. -1.
       -5    1    3    3    0  502  0.33191955059E+03  0.11944840920E+04  0.41891336874E+02  0.12404595149E+04  0.46999998093E+01 0.  1.
</event>
<event>
 5   0  0.1572732E-05  0.2532073E+04  0.7818609E-02  0.8391648E-01
       -2   -1    0    0    0  501  0.00000000000E+00  0.00000000000E+00  0.14868596506E+04  0.14868596506E+04  0.25500000920E-02 0. -1.
        2   -1    0    0  501    0  0.00000000000E+00  0.00000000000E+00 -0.10780092429E+04  0.10780092429E+04  0.25500000920E-02 0.  1.
    10030    2    1    2    0    0  0.00000000000E+00  0.00000000000E+00  0.40885040767E+03  0.25648688935E+04  0.25320730212E+04 0.  0.
        1    1    3    3  502    0 -0.12379992865E+04 -0.26298153125E+03  0.17164986908E+03  0.12772099267E+04  0.50400001928E-02 0.  1.
       -1    1    3    3    0  502  0.12379992865E+04  0.26298153125E+03  0.23720053860E+03  0.12876589668E+04  0.50400001928E-02 0. -1.
</event>
<event>
 5   0  0.6105353E-06  0.2489446E+04  0.7818609E-02  0.8406755E-01
        1   -1    0    0  501    0  0.00000000000E+00  0.00000000000E+00  0.10036485265E+04  0.10036485265E+04  0.50400001928E-02 0.  1.
       -1   -1    0    0    0  501  0.00000000000E+00  0.00000000000E+00 -0.15437026256E+04  0.15437026256E+04  0.50400001928E-02 0. -1.
    10030    2    1    2    0    0  0.00000000000E+00  0.00000000000E+00 -0.54005409914E+03  0.25473511521E+04  0.24894456134E+04 0.  0.
        3    1    3    3  502    0 -0.78659699737E+02  0.37221444234E+03  0.94270013043E+03  0.10165699610E+04  0.10100000352E+00 0.  1.
       -3    1    3    3    0  502  0.78659699737E+02 -0.37221444234E+03 -0.14827542296E+04  0.15307811911E+04  0.10100000352E+00 0. -1.
</event>
<event>
 5   0  0.1572732E-05  0.2499304E+04  0.7818609E-02  0.8403233E-01
       -2   -1    0    0    0  501  0.00000000000E+00  0.00000000000E+00  0.61652550909E+03  0.61652550910E+03  0.25500000920E-02 0.  1.
        2   -1    0    0  501    0  0.00000000000E+00  0.00000000000E+00 -0.25329531324E+04  0.25329531324E+04  0.25500000920E-02 0. -1.
    10030    2    1    2    0    0  0.00000000000E+00  0.00000000000E+00 -0.19164276233E+04  0.31494786415E+04  0.24993040787E+04 0.  0.
        1    1    3    3  502    0  0.58016218911E+03  0.10141421581E+04 -0.39953186042E+03  0.12347866982E+04  0.50400001928E-02 0.  1.
       -1    1    3    3    0  502 -0.58016218911E+03 -0.10141421581E+04 -0.15168957629E+04  0.19146919433E+04  0.50400001928E-02 0. -1.
</event>
<event>
 5   0  0.6290861E-06  0.2499332E+04  0.7818609E-02  0.8403224E-01
       -1   -1    0    0    0  501  0.00000000000E+00  0.00000000000E+00  0.13744970097E+04  0.13744970097E+04  0.50400001928E-02 0.  1.
        1   -1    0    0  501    0  0.00000000000E+00  0.00000000000E+00 -0.11361716516E+04  0.11361716516E+04  0.50400001928E-02 0. -1.
    10030    2    1    2    0    0  0.00000000000E+00  0.00000000000E+00  0.23832535815E+03  0.25106686613E+04  0.24993315408E+04 0.  0.
        1    1    3    3  502    0  0.43260036264E+03 -0.76660812196E+03  0.10102226603E+04  0.13399182475E+04  0.50400001928E-02 0.  1.
       -1    1    3    3    0  502 -0.43260036264E+03  0.76660812196E+03 -0.77189730219E+03  0.11707504139E+04  0.50400001928E-02 0. -1.
</event>
<event>
 5   0  0.1550483E-05  0.2738853E+04  0.7818609E-02  0.8322508E-01
       -2   -1    0    0    0  501  0.00000000000E+00  0.00000000000E+00  0.13515997077E+04  0.13515997077E+04  0.25500000920E-02 0. -1.
        2   -1    0    0  501    0  0.00000000000E+00  0.00000000000E+00 -0.13874879222E+04  0.13874879222E+04  0.25500000920E-02 0.  1.
    10030    2    1    2    0    0  0.00000000000E+00  0.00000000000E+00 -0.35888214482E+02  0.27390876299E+04  0.27388525116E+04 0.  0.
        5    1    3    3  502    0 -0.71524831512E+03 -0.94207831506E+03 -0.70808629650E+03  0.13785862314E+04  0.46999998093E+01 0.  1.
       -5    1    3    3    0  502  0.71524831512E+03  0.94207831506E+03  0.67219808201E+03  0.13605013985E+04  0.46999998093E+01 0. -1.
</event>
<event>
 5   0  0.6104486E-06  0.2502301E+04  0.7818609E-02  0.8402166E-01
       -1   -1    0    0    0  501  0.00000000000E+00  0.00000000000E+00  0.80051414302E+03  0.80051414304E+03  0.50400001928E-02 0. -1.
        1   -1    0    0  501    0  0.00000000000E+00  0.00000000000E+00 -0.19554659638E+04  0.19554659638E+04  0.50400001928E-02 0.  1.
    10030    2    1    2    0    0  0.00000000000E+00  0.00000000000E+00 -0.11549518208E+04  0.27559801069E+04  0.25023014689E+04 0.  0.
        2    1    3    3  502    0  0.96100393224E+03  0.11838394407E+03 -0.14501642136E+04  0.17437085658E+04  0.25500000920E-02 0.  1.
       -2    1    3    3    0  502 -0.96100393224E+03 -0.11838394407E+03  0.29521239281E+03  0.10122715411E+04  0.25500000920E-02 0. -1.
</event>
<event>
 5   0  0.1501947E-05  0.2484246E+04  0.7818609E-02  0.8408619E-01
        2   -1    0    0  501    0  0.00000000000E+00  0.00000000000E+00  0.13000084006E+04  0.13000084006E+04  0.25500000920E-02 0.  1.
       -2   -1    0    0    0  501  0.00000000000E+00  0.00000000000E+00 -0.11868151939E+04  0.11868151939E+04  0.25500000920E-02 0. -1.
    10030    2    1    2    0    0  0.00000000000E+00  0.00000000000E+00  0.11319320669E+03  0.24868235944E+04  0.24842461407E+04 0.  0.
        3    1    3    3  502    0  0.75743968214E+03 -0.28532546711E+03  0.99977594836E+03  0.12863426648E+04  0.10100000352E+00 0.  1.
       -3    1    3    3    0  502 -0.75743968214E+03  0.28532546711E+03 -0.88658274166E+03  0.12004809296E+04  0.10100000352E+00 0. -1.
</event>
<event>
 5   0  0.1526824E-05  0.2500286E+04  0.7818609E-02  0.8402883E-01
       -2   -1    0    0    0  501  0.00000000000E+00  0.00000000000E+00  0.80754128358E+03  0.80754128358E+03  0.25500000920E-02 0.  1.
        2   -1    0    0  501    0  0.00000000000E+00  0.00000000000E+00 -0.19353290411E+04  0.19353290411E+04  0.25500000920E-02 0. -1.
    10030    2    1    2    0    0  0.00000000000E+00  0.00000000000E+00 -0.11277877575E+04  0.27428703247E+04  0.25002864620E+04 0.  0.
        2    1    3    3  502    0  0.28290922536E+03 -0.74155251032E+03  0.49569596777E+03  0.93576292288E+03  0.25500000920E-02 0.  1.
       -2    1    3    3    0  502 -0.28290922536E+03  0.74155251032E+03 -0.16234837253E+04  0.18071074018E+04  0.25500000920E-02 0. -1.
</event>
<event>
 5   0  0.6104486E-06  0.2383667E+04  0.7818609E-02  0.8445644E-01
       -1   -1    0    0    0  501  0.00000000000E+00  0.00000000000E+00  0.54590546521E+03  0.54590546524E+03  0.50400001928E-02 0.  1.
        1   -1    0    0  501    0  0.00000000000E+00  0.00000000000E+00 -0.26020382618E+04  0.26020382618E+04  0.50400001928E-02 0. -1.
    10030    2    1    2    0    0  0.00000000000E+00  0.00000000000E+00 -0.20561327966E+04  0.31479437271E+04  0.23836668457E+04 0.  0.
        2    1    3    3  502    0 -0.40575591212E+03  0.59076880837E+03 -0.22856655961E+04  0.23953940933E+04  0.25500000920E-02 0. -1.
       -2    1    3    3    0  502  0.40575591212E+03 -0.59076880837E+03  0.22953279950E+03  0.75254963372E+03  0.25500000920E-02 0.  1.
</event>
<event>
 5   0  0.1550483E-05  0.2492063E+04  0.7818609E-02  0.8405818E-01
        2   -1    0    0  501    0  0.00000000000E+00  0.00000000000E+00  0.17974832304E+04  0.17974832304E+04  0.25500000920E-02 0.  1.
       -2   -1    0    0    0  501  0.00000000000E+00  0.00000000000E+00 -0.86376043160E+03  0.86376043160E+03  0.25500000920E-02 0. -1.
    10030    2    1    2    0    0  0.00000000000E+00  0.00000000000E+00  0.93372279884E+03  0.26612436620E+04  0.24920633145E+04 0.  0.
        5    1    3    3  502    0  0.58943577578E+03  0.34307515816E+03  0.15804576535E+04  0.17213377305E+04  0.46999998093E+01 0.  1.
       -5    1    3    3    0  502 -0.58943577578E+03 -0.34307515816E+03 -0.64673485466E+03  0.93990593154E+03  0.46999998093E+01 0. -1.
</event>
<event>
 5   0  0.1550483E-05  0.2419132E+04  0.7818609E-02  0.8432375E-01
       -2   -1    0    0    0  501  0.00000000000E+00  0.00000000000E+00  0.10681857036E+04  0.10681857036E+04  0.25500000920E-02 0. -1.
        2   -1    0    0  501    0  0.00000000000E+00  0.00000000000E+00 -0.13696588232E+04  0.13696588232E+04  0.25500000920E-02 0.  1.
    10030    2    1    2    0    0  0.00000000000E+00  0.00000000000E+00 -0.30147311959E+03  0.24378445268E+04  0.24191320540E+04 0.  0.
        5    1    3    3  502    0  0.11580007641E+04 -0.30344809701E+03 -0.32522720179E+03  0.12405004394E+04  0.46999998093E+01 0.  1.
       -5    1    3    3    0  502 -0.11580007641E+04  0.30344809701E+03  0.23754082203E+02  0.11973440874E+04  0.46999998093E+01 0. -1.
</event>
<event>
 5   0  0.1501947E-05  0.2494560E+04  0.7818609E-02  0.8404926E-01
       -2   -1    0    0    0  501  0.00000000000E+00  0.00000000000E+00  0.76367669596E+03  0.76367669596E+03  0.25500000920E-02 0. -1.
        2   -1    0    0  501    0  0.00000000000E+00  0.00000000000E+00 -0.20371278075E+04  0.20371278075E+04  0.25500000920E-02 0.  1.
    10030    2    1    2    0    0  0.00000000000E+00  0.00000000000E+00 -0.12734511115E+04  0.28008045034E+04  0.24945597073E+04 0.  0.
        3    1    3    3  502    0 -0.69113181135E+03  0.18402048971E+02 -0.18022969583E+04  0.19303564832E+04  0.10100000352E+00 0.  1.
       -3    1    3    3    0  502  0.69113181135E+03 -0.18402048971E+02  0.52884584679E+03  0.87044802024E+03  0.10100000352E+00 0. -1.
</event>
<event>
 5   0  0.1572732E-05  0.2474900E+04  0.7818609E-02  0.8411983E-01
        2   -1    0    0  501    0  0.00000000000E+00  0.00000000000E+00  0.10513528965E+04  0.10513528966E+04  0.25500000920E-02 0. -1.
       -2   -1    0    0    0  501  0.00000000000E+00  0.00000000000E+00 -0.14564873924E+04  0.14564873924E+04  0.25500000920E-02 0.  1.
    10030    2    1    2    0    0  0.00000000000E+00  0.00000000000E+00 -0.40513449583E+03  0.25078402889E+04  0.24748997869E+04 0.  0.
        1    1    3    3  502    0  0.75188483927E+03  0.16085148055E+03 -0.11850484603E+04  0.14126372017E+04  0.50400001928E-02 0.  1.
       -1    1    3    3    0  502 -0.75188483927E+03 -0.16085148055E+03  0.77991396446E+03  0.10952030872E+04  0.50400001928E-02 0. -1.
</event>
<event>
 5   0  0.6477703E-06  0.2497817E+04  0.7818609E-02  0.8403763E-01
        1   -1    0    0  501    0  0.00000000000E+00  0.00000000000E+00  0.12665652346E+04  0.12665652346E+04  0.50400001928E-02 0. -1.
       -1   -1    0    0    0  501  0.00000000000E+00  0.00000000000E+00 -0.12314983786E+04  0.12314983786E+04  0.50400001928E-02 0.  1.
    10030    2    1    2    0    0  0.00000000000E+00  0.00000000000E+00  0.35066855964E+02  0.24980636132E+04  0.24978174735E+04 0.  0.
        5    1    3    3  502    0 -0.60280861533E+03  0.68308867583E+03 -0.83681217449E+03  0.12370388317E+04  0.46999998093E+01 0.  1.
       -5    1    3    3    0  502  0.60280861533E+03 -0.68308867583E+03  0.87187903045E+03  0.12610247815E+04  0.46999998093E+01 0. -1.
</event>
<event>
 5   0  0.6290861E-06  0.2456298E+04  0.7818609E-02  0.8418722E-01
        1   -1    0    0  501    0  0.00000000000E+00  0.00000000000E+00  0.21269168139E+04  0.21269168139E+04  0.50400001928E-02 0.  1.
       -1   -1    0    0    0  501  0.00000000000E+00  0.00000000000E+00 -0.70917209566E+03  0.70917209568E+03  0.50400001928E-02 0. -1.
    10030    2    1    2    0    0  0.00000000000E+00  0.00000000000E+00  0.14177447182E+04  0.28360889095E+04  0.24562980717E+04 0.  0.
        1    1    3    3  502    0 -0.87770537465E+03  0.74949145326E+03  0.22414417226E+03  0.11757315906E+04  0.50400001928E-02 0. -1.
       -1    1    3    3    0  502  0.87770537465E+03 -0.74949145326E+03  0.11936005459E+04  0.16603573189E+04  0.50400001928E-02 0.  1.
</event>
<event>
 5   0  0.1526824E-05  0.2509655E+04  0.7818609E-02  0.8399554E-01
        2   -1    0    0  501    0  0.00000000000E+00  0.00000000000E+00  0.25558575961E+04  0.25558575961E+04  0.25500000920E-02 0. -1.
       -2   -1    0    0    0  501  0.00000000000E+00  0.00000000000E+00 -0.61607187506E+03  0.61607187507E+03  0.25500000920E-02 0.  1.
    10030    2    1    2    0    0  0.00000000000E+00  0.00000000000E+00  0.19397857210E+04  0.31719294711E+04  0.25096549417E+04 0.  0.
        2    1    3    3  502    0 -0.10412622630E+03 -0.67735740172E+03 -0.35865804682E+03  0.77349267303E+03  0.25500000920E-02 0.  1.
       -2    1    3    3    0  502  0.10412622630E+03  0.67735740172E+03  0.22984437678E+04  0.23984367981E+04  0.25500000920E-02 0. -1.
</event>
<event>
 5   0  0.6104486E-06  0.2569902E+04  0.7818609E-02  0.8378497E-01
       -1   -1    0    0    0  501  0.00000000000E+00  0.00000000000E+00  0.76022837504E+03  0.76022837506E+03  0.50400001928E-02 0. -1.
        1   -1    0    0  501    0  0.00000000000E+00  0.00000000000E+00 -0.21718455354E+04  0.21718455354E+04  0.50400001928E-02 0.  1.
    10030    2    1    2    0    0  0.00000000000E+00  0.00000000000E+00 -0.14116171603E+04  0.29320739105E+04  0.25699016341E+04 0.  0.
        2    1    3    3  502    0  0.88700980936E+03  0.47826763913E+03 -0.16153885373E+04  0.19039449737E+04  0.25500000920E-02 0.  1.
       -2    1    3    3    0  502 -0.88700980936E+03 -0.47826763913E+03  0.20377137691E+03  0.10281289368E+04  0.25500000920E-02 0. -1.
</event>
<event>
 5   0  0.1572732E-05  0.2477418E+04  0.7818609E-02  0.8411075E-01
       -2   -1    0    0    0  501  0.00000000000E+00  0.00000000000E+00  0.16669534866E+04  0.16669534866E+04  0.25500000920E-02 0. -1.
        2   -1    0    0  501    0  0.00000000000E+00  0.00000000000E+00 -0.92048161357E+03  0.92048161357E+03  0.25500000920E-02 0.  1.
    10030    2    1    2    0    0  0.00000000000E+00  0.00000000000E+00  0.74647187300E+03  0.25874351001E+04  0.24774180391E+04 0.  0.
        1    1    3    3  502    0  0.11195023633E+04 -0.53012356792E+03  0.36369251879E+03  0.12909642857E+04  0.50400001928E-02 0. -1.
       -1    1    3    3    0  502 -0.11195023633E+04  0.53012356792E+03  0.38277935421E+03  0.12964708144E+04  0.50400001928E-02 0.  1.
</event>
<event>
 5   0  0.1550483E-05  0.2457504E+04  0.7818609E-02  0.8418283E-01
       -2   -1    0    0    0  501  0.00000000000E+00  0.00000000000E+00  0.79829439939E+03  0.79829439939E+03  0.25500000920E-02 0. -1.
        2   -1    0    0  501    0  0.00000000000E+00  0.00000000000E+00 -0.18913219571E+04  0.18913219571E+04  0.25500000920E-02 0.  1.
    10030    2    1    2    0    0  0.00000000000E+00  0.00000000000E+00 -0.10930275577E+04  0.26896163565E+04  0.24575042021E+04 0.  0.
        5    1    3    3  502    0 -0.10735976794E+04 -0.87178785215E+02  0.10059939088E+03  0.10818292126E+04  0.46999998093E+01 0. -1.
       -5    1    3    3    0  502  0.10735976794E+04  0.87178785215E+02 -0.11936269486E+04  0.16077871439E+04  0.46999998093E+01 0.  1.
</event>
<event>
 5   0  0.6477703E-06  0.2486871E+04  0.7818609E-02  0.8407678E-01
        1   -1    0    0  501    0  0.00000000000E+00  0.00000000000E+00  0.23665253206E+04  0.23665253206E+04  0.50400001928E-02 0. -1.
       -1   -1    0    0    0  501  0.00000000000E+00  0.00000000000E+00 -0.65333413828E+03  0.65333413830E+03  0.50400001928E-02 0.  1.
    10030    2    1    2    0    0  0.00000000000E+00  0.00000000000E+00  0.17131911823E+04  0.30198594589E+04  0.24868709505E+04 0.  0.
        5    1    3    3  502    0  0.71976999444E+03 -0.67253690062E+03 -0.64797146083E+02  0.98721602890E+03  0.46999998093E+01 0.  1.
       -5    1    3    3    0  502 -0.71976999444E+03  0.67253690062E+03  0.17779883284E+04  0.20326434300E+04  0.46999998093E+01 0. -1.
</event>
<event>
 5   0  0.6477703E-06  0.2519968E+04  0.7818609E-02  0.8395906E-01
       -1   -1    0    0    0  501  0.00000000000E+00  0.00000000000E+00  0.11945172942E+04  0.11945172942E+04  0.50400001928E-02 0. -1.
        1   -1    0    0  501    0  0.00000000000E+00  0.00000000000E+00 -0.13290391667E+04  0.13290391667E+04  0.50400001928E-02 0.  1.
    10030    2    1    2    0    0  0.00000000000E+00  0.00000000000E+00 -0.13452187247E+03  0.25235564609E+04  0.25199684675E+04 0.  0.
        5    1    3    3  502    0 -0.43314745958E+03 -0.24649674234E+03  0.10916079040E+04  0.12000030299E+04  0.46999998093E+01 0. -1.
       -5    1    3    3    0  502  0.43314745958E+03  0.24649674234E+03 -0.12261297765E+04  0.13235534309E+04  0.46999998093E+01 0.  1.
</event>
<event>
 5   0  0.1572732E-05  0.2531732E+04  0.7818609E-02  0.8391767E-01
       -2   -1    0    0    0  501  0.00000000000E+00  0.00000000000E+00  0.26147124413E+04  0.26147124413E+04  0.25500000920E-02 0. -1.
        2   -1    0    0  501    0  0.00000000000E+00  0.00000000000E+00 -0.61284635857E+03  0.61284635858E+03  0.25500000920E-02 0.  1.
    10030    2    1    2    0    0  0.00000000000E+00  0.00000000000E+00  0.20018660827E+04  0.32275587999E+04  0.25317322120E+04 0.  0.
        1    1    3    3  502    0  0.95684546591E+03  0.31333090757E+03  0.19790680453E+04  0.22204593739E+04  0.50400001928E-02 0. -1.
       -1    1    3    3    0  502 -0.95684546591E+03 -0.31333090757E+03  0.22798037458E+02  0.10070994260E+04  0.50400001928E-02 0.  1.
</event>
<event>
 5   0  0.1468512E-05  0.2504909E+04  0.7818609E-02  0.8401239E-01
        2   -1    0    0  501    0  0.00000000000E+00  0.00000000000E+00  0.15361718066E+04  0.15361718066E+04  0.25500000920E-02 0. -1.
       -2   -1    0    0    0  501  0.00000000000E+00  0.00000000000E+00 -0.10211369280E+04  0.10211369280E+04  0.25500000920E-02 0.  1.
    10030    2    1    2    0    0  0.00000000000E+00  0.00000000000E+00  0.51503487857E+03  0.25573087346E+04  0.25049085888E+04 0.  0.
        4    1    3    3  502    0 -0.77166161977E+03 -0.51142547471E+03 -0.60370652924E+03  0.11052062513E+04  0.12699999809E+01 0.  1.
       -4    1    3    3    0  502  0.77166161977E+03  0.51142547471E+03  0.11187414078E+04  0.14521024833E+04  0.12699999809E+01 0. -1.
</event>
<event>
 5   0  0.6104486E-06  0.2489699E+04  0.7818609E-02  0.8406664E-01
       -1   -1    0    0    0  501  0.00000000000E+00  0.00000000000E+00  0.17944720582E+04  0.17944720582E+04  0.50400001928E-02 0.  1.
        1   -1    0    0  501    0  0.00000000000E+00  0.00000000000E+00 -0.86356899608E+03  0.86356899610E+03  0.50400001928E-02 0. -1.
    10030    2    1    2    0    0  0.00000000000E+00  0.00000000000E+00  0.93090306208E+03  0.26580410543E+04  0.24896991254E+04 0.  0.
        2    1    3    3  502    0 -0.13879295994E+03  0.87397745763E+03 -0.46927627317E+03  0.10016587756E+04  0.25500000920E-02 0. -1.
       -2    1    3    3    0  502  0.13879295994E+03 -0.87397745763E+03  0.14001793353E+04  0.16563822787E+04  0.25500000920E-02 0.  1.
</event>
<event>
 5   0  0.6346420E-06  0.2770779E+04  0.7818609E-02  0.8312398E-01
        1   -1    0    0  501    0  0.00000000000E+00  0.00000000000E+00  0.21285212064E+04  0.21285212064E+04  0.50400001928E-02 0. -1.
       -1   -1    0    0    0  501  0.00000000000E+00  0.00000000000E+00 -0.90170802601E+03  0.90170802602E+03  0.50400001928E-02 0.  1.
    10030    2    1    2    0    0  0.00000000000E+00  0.00000000000E+00  0.12268131804E+04  0.30302292325E+04  0.27707794249E+04 0.  0.
        4    1    3    3  502    0  0.66176902231E+03  0.12096199692E+04  0.76088288806E+03  0.15748216061E+04  0.12699999809E+01 0. -1.
       -4    1    3    3    0  502 -0.66176902231E+03 -0.12096199692E+04  0.46593029236E+03  0.14554076264E+04  0.12699999809E+01 0.  1.
</event>
<event>
 5   0  0.1501947E-05  0.2496282E+04  0.7818609E-02  0.8404311E-01
        2   -1    0    0  501    0  0.00000000000E+00  0.00000000000E+00  0.99441176546E+03  0.99441176546E+03  0.25500000920E-02 0. -1.
       -2   -1    0    0    0  501  0.00000000000E+00  0.00000000000E+00 -0.15666107355E+04  0.15666107355E+04  0.25500000920E-02 0.  1.
    10030    2    1    2    0    0  0.00000000000E+00  0.00000000000E+00 -0.57219897008E+03  0.25610225010E+04  0.24962821534E+04 0.  0.
        3    1    3    3  502    0  0.76273543357E+02  0.33721561887E+03  0.94430555812E+03  0.10056067941E+04  0.10100000352E+00 0. -1.
       -3    1    3    3    0  502 -0.76273543357E+02 -0.33721561887E+03 -0.15165045282E+04  0.15554157069E+04  0.10100000352E+00 0.  1.
</event>
<event>
 5   0  0.6290861E-06  0.2514912E+04  0.7818609E-02  0.8397692E-01
       -1   -1    0    0    0  501  0.00000000000E+00  0.00000000000E+00  0.90918542343E+03  0.90918542344E+03  0.50400001928E-02 0. -1.
        1   -1    0    0  501    0  0.00000000000E+00  0.00000000000E+00 -0.17391343833E+04  0.17391343833E+04  0.50400001928E-02 0.  1.
    10030    2    1    2    0    0  0.00000000000E+00  0.00000000000E+00 -0.82994895986E+03  0.26483198067E+04  0.25149120308E+04 0.  0.
        1    1    3    3  502    0  0.10042805427E+04  0.47154785464E+02 -0.12102810860E+04  0.15733986429E+04  0.50400001928E-02 0.  1.
       -1    1    3    3    0  502 -0.10042805427E+04 -0.47154785464E+02  0.38033212614E+03  0.10749211639E+04  0.50400001928E-02 0. -1.
</event>
<event>
 5   0  0.1550483E-05  0.2478148E+04  0.7818609E-02  0.8410812E-01
       -2   -1    0    0    0  501  0.00000000000E+00  0.00000000000E+00  0.77058954230E+03  0.77058954231E+03  0.25500000920E-02 0.  1.
        2   -1    0    0  501    0  0.00000000000E+00  0.00000000000E+00 -0.19923764473E+04  0.19923764473E+04  0.25500000920E-02 0. -1.
    10030    2    1    2    0    0  0.00000000000E+00  0.00000000000E+00 -0.12217869050E+04  0.27629659896E+04  0.24781480623E+04 0.  0.
        5    1    3    3  502    0  0.48184760194E+03 -0.48493358158E+03 -0.17630796428E+04  0.18909811228E+04  0.46999998093E+01 0. -1.
       -5    1    3    3    0  502 -0.48184760194E+03  0.48493358158E+03  0.54129273775E+03  0.87198486683E+03  0.46999998093E+01 0.  1.
</event>
<event>
 5   0  0.6104486E-06  0.2565910E+04  0.7818609E-02  0.8379874E-01
        1   -1    0    0  501    0  0.00000000000E+00  0.00000000000E+00  0.79437468157E+03  0.79437468159E+03  0.50400001928E-02 0. -1.
       -1   -1    0    0    0  501  0.00000000000E+00  0.00000000000E+00 -0.20720359665E+04  0.20720359665E+04  0.50400001928E-02 0.  1.
    10030    2    1    2    0    0  0.00000000000E+00  0.00000000000E+00 -0.12776612850E+04  0.28664106481E+04  0.25659095161E+04 0.  0.
        2    1    3    3  502    0  0.54571401385E+03  0.11371690674E+04 -0.90085408565E+03  0.15499985021E+04  0.25500000920E-02 0.  1.
       -2    1    3    3    0  502 -0.54571401385E+03 -0.11371690674E+04 -0.37680719930E+03  0.13164121460E+04  0.25500000920E-02 0. -1.
</event>
<event>
 5   0  0.1572732E-05  0.2412299E+04  0.7818609E-02  0.8434913E-01
        2   -1    0    0  501    0  0.00000000000E+00  0.00000000000E+00  0.15574881181E+04  0.15574881181E+04  0.25500000920E-02 0.  1.
       -2   -1    0    0    0  501  0.00000000000E+00  0.00000000000E+00 -0.93406597664E+03  0.93406597664E+03  0.25500000920E-02 0. -1.
    10030    2    1    2    0    0  0.00000000000E+00  0.00000000000E+00  0.62342214151E+03  0.24915540948E+04  0.24122990363E+04 0.  0.
        1    1    3    3  502    0  0.65817553928E+03 -0.94175027172E+03  0.69079549849E+03  0.13406293431E+04  0.50400001928E-02 0.  1.
       -1    1    3    3    0  502 -0.65817553928E+03  0.94175027172E+03 -0.67373356982E+02  0.11509247517E+04  0.50400001928E-02 0. -1.
</event>
<event>
 5   0  0.1526824E-05  0.2500325E+04  0.7818609E-02  0.8402870E-01
        2   -1    0    0  501    0  0.00000000000E+00  0.00000000000E+00  0.17127312545E+04  0.17127312545E+04  0.25500000920E-02 0.  1.
       -2   -1    0    0    0  501  0.00000000000E+00  0.00000000000E+00 -0.91252251582E+03  0.91252251582E+03  0.25500000920E-02 0. -1.
    10030    2    1    2    0    0  0.00000000000E+00  0.00000000000E+00  0.80020873871E+03  0.26252537703E+04  0.25003246456E+04 0.  0.
        2    1    3    3  502    0  0.38987189565E+03  0.20589130868E+03  0.16283906244E+04  0.16870232220E+04  0.25500000920E-02 0.  1.
       -2    1    3    3    0  502 -0.38987189565E+03 -0.20589130868E+03 -0.82818188569E+03  0.93823054832E+03  0.25500000920E-02 0. -1.
</event>
<event>
 5   0  0.5164625E-06  0.2512608E+04  0.7818609E-02  0.8398508E-01
        3   -1    0    0  501    0  0.00000000000E+00  0.00000000000E+00  0.14302876435E+04  0.14302876471E+04  0.10100000352E+00 0.  1.
       -3   -1    0    0    0  501  0.00000000000E+00  0.00000000000E+00 -0.11034840276E+04  0.11034840322E+04  0.10100000352E+00 0. -1.
    10030    2    1    2    0    0  0.00000000000E+00  0.00000000000E+00  0.32680361593E+03  0.25337716793E+04  0.25126078722E+04 0.  0.
        3    1    3    3  502    0 -0.33985817535E+03 -0.83188108914E+03  0.10487316815E+04  0.13810748987E+04  0.10100000352E+00 0.  1.
       -3    1    3    3    0  502  0.33985817535E+03  0.83188108914E+03 -0.72192806560E+03  0.11526967806E+04  0.10100000352E+00 0. -1.
</event>
<event>
 5   0  0.6346420E-06  0.2493440E+04  0.7818609E-02  0.8405326E-01
       -1   -1    0    0    0  501  0.00000000000E+00  0.00000000000E+00  0.72387925097E+03  0.72387925099E+03  0.50400001928E-02 0.  1.
        1   -1    0    0  501    0  0.00000000000E+00  0.00000000000E+00 -0.21471965969E+04  0.21471965969E+04  0.50400001928E-02 0. -1.
    10030    2    1    2    0    0  0.00000000000E+00  0.00000000000E+00 -0.14233173459E+04  0.28710758478E+04  0.24934402453E+04 0.  0.
        4    1    3    3  502    0 -0.65391639282E+03  0.71306426953E+03 -0.16170263933E+04  0.18843681357E+04  0.12699999809E+01 0. -1.
       -4    1    3    3    0  502  0.65391639282E+03 -0.71306426953E+03  0.19370904741E+03  0.98670771216E+03  0.12699999809E+01 0.  1.
</event>
<event>
 5   0  0.1468512E-05  0.2497955E+04  0.7818609E-02  0.8403714E-01
       -2   -1    0    0    0  501  0.00000000000E+00  0.00000000000E+00  0.16333276562E+04  0.16333276562E+04  0.25500000920E-02 0. -1.
        2   -1    0    0  501    0  0.00000000000E+00  0.00000000000E+00 -0.95507161882E+03  0.95507161882E+03  0.25500000920E-02 0.  1.
    10030    2    1    2    0    0  0.00000000000E+00  0.00000000000E+00  0.67825603740E+03  0.25883992750E+04  0.24979550746E+04 0.  0.
        4    1    3    3  502    0  0.88978711935E+03  0.19892287193E+03 -0.54538999462E+03  0.10624233082E+04  0.12699999809E+01 0.  1.
       -4    1    3    3    0  502 -0.88978711935E+03 -0.19892287193E+03  0.12236460320E+04  0.15259759668E+04  0.12699999809E+01 0. -1.
</event>
<event>
 5   0  0.1550483E-05  0.2486127E+04  0.7818609E-02  0.8407945E-01
       -2   -1    0    0    0  501  0.00000000000E+00  0.00000000000E+00  0.84009262690E+03  0.84009262691E+03  0.25500000920E-02 0. -1.
        2   -1    0    0  501    0  0.00000000000E+00  0.00000000000E+00 -0.18393288025E+04  0.18393288025E+04  0.25500000920E-02 0.  1.
    10030    2    1    2    0    0  0.00000000000E+00  0.00000000000E+00 -0.99923617560E+03  0.26794214294E+04  0.24861267590E+04 0.  0.
        5    1    3    3  502    0 -0.50759944705E+03  0.66727513572E+03  0.48948993882E+03  0.97084282744E+03  0.46999998093E+01 0.  1.
       -5    1    3    3    0  502  0.50759944705E+03 -0.66727513572E+03 -0.14887261144E+04  0.17085786020E+04  0.46999998093E+01 0. -1.
</event>
<event>
 5   0  0.6290861E-06  0.2506639E+04  0.7818609E-02  0.8400624E-01
       -1   -1    0    0    0  501  0.00000000000E+00  0.00000000000E+00  0.94060569942E+03  0.94060569944E+03  0.50400001928E-02 0.  1.
        1   -1    0    0  501    0  0.00000000000E+00  0.00000000000E+00 -0.16699983591E+04  0.16699983592E+04  0.50400001928E-02 0. -1.
    10030    2    1    2    0    0  0.00000000000E+00  0.00000000000E+00 -0.72939265972E+03  0.26106040586E+04  0.25066391640E+04 0.  0.
        1    1    3    3  502    0 -0.79546547272E+02 -0.35801961114E+03  0.88346986268E+03  0.95656923086E+03  0.50400001928E-02 0.  1.
       -1    1    3    3    0  502  0.79546547272E+02  0.35801961114E+03 -0.16128625224E+04  0.16540348277E+04  0.50400001928E-02 0. -1.
</event>
<event>
 5   0  0.1468512E-05  0.2456796E+04  0.7818609E-02  0.8418541E-01
        2   -1    0    0  501    0  0.00000000000E+00  0.00000000000E+00  0.16434685493E+04  0.16434685493E+04  0.25500000920E-02 0. -1.
       -2   -1    0    0    0  501  0.00000000000E+00  0.00000000000E+00 -0.91815635834E+03  0.91815635834E+03  0.25500000920E-02 0.  1.
    10030    2    1    2    0    0  0.00000000000E+00  0.00000000000E+00  0.72531219092E+03  0.25616249076E+04  0.24567955538E+04 0.  0.
        4    1    3    3  502    0  0.93493681596E+03  0.55325656031E+03 -0.23518516233E+03  0.11115364793E+04  0.12699999809E+01 0.  1.
       -4    1    3    3    0  502 -0.93493681596E+03 -0.55325656031E+03  0.96049735325E+03  0.14500884283E+04  0.12699999809E+01 0. -1.
</event>
<event>
 5   0  0.6105353E-06  0.2535367E+04  0.7818609E-02  0.8390493E-01
       -1   -1    0    0    0  501  0.00000000000E+00  0.00000000000E+00  0.84183372162E+03  0.84183372163E+03  0.50400001928E-02 0. -1.
        1   -1    0    0  501    0  0.00000000000E+00  0.00000000000E+00 -0.19089537293E+04  0.19089537293E+04  0.50400001928E-02 0.  1.
    10030    2    1    2    0    0  0.00000000000E+00  0.00000000000E+00 -0.10671200076E+04  0.27507874509E+04  0.25353671311E+04 0.  0.
        3    1    3    3  502    0  0.10095792898E+04 -0.61455706245E+02 -0.13626860236E+04  0.16970387018E+04  0.10100000352E+00 0.  1.
       -3    1    3    3    0  502 -0.10095792898E+04  0.61455706245E+02  0.29556601598E+03  0.10537487491E+04  0.10100000352E+00 0. -1.
</event>
<event>
 5   0  0.6104486E-06  0.2519057E+04  0.7818609E-02  0.8396228E-01
       -1   -1    0    0    0  501  0.00000000000E+00  0.00000000000E+00  0.10006169021E+04  0.10006169021E+04  0.50400001928E-02 0.  1.
        1   -1    0    0  501    0  0.00000000000E+00  0.00000000000E+00 -0.15854336816E+04  0.15854336816E+04  0.50400001928E-02 0. -1.
    10030    2    1    2    0    0  0.00000000000E+00  0.00000000000E+00 -0.58481677948E+03  0.25860505837E+04  0.25190567592E+04 0.  0.
        2    1    3    3  502    0 -0.38425654596E+03 -0.98754192816E+02  0.93479381645E+03  0.10155023205E+04  0.25500000920E-02 0.  1.
       -2    1    3    3    0  502  0.38425654596E+03  0.98754192816E+02 -0.15196105959E+04  0.15705482632E+04  0.25500000920E-02 0. -1.
</event>
<event>
 5   0  0.6104486E-06  0.2478432E+04  0.7818609E-02  0.8410710E-01
       -1   -1    0    0    0  501  0.00000000000E+00  0.00000000000E+00  0.13851786918E+04  0.13851786919E+04  0.50400001928E-02 0. -1.
        1   -1    0    0  501    0  0.00000000000E+00  0.00000000000E+00 -0.11086343013E+04  0.11086343013E+04  0.50400001928E-02 0.  1.
    10030    2    1    2    0    0  0.00000000000E+00  0.00000000000E+00  0.27654439058E+03  0.24938129931E+04  0.24784322554E+04 0.  0.
        2    1    3    3  502    0  0.10374239488E+04  0.29399091194E+03 -0.47623666727E+03  0.11787622615E+04  0.25500000920E-02 0.  1.
       -2    1    3    3    0  502 -0.10374239488E+04 -0.29399091194E+03  0.75278105784E+03  0.13150507317E+04  0.25500000920E-02 0. -1.
</event>
<event>
 5   0  0.6290861E-06  0.2507886E+04  0.7818609E-02  0.8400181E-01
       -1   -1    0    0    0  501  0.00000000000E+00  0.00000000000E+00  0.13690241424E+04  0.13690241424E+04  0.50400001928E-02 0.  1.
        1   -1    0    0  501    0  0.00000000000E+00  0.00000000000E+00 -0.11485358597E+04  0.11485358598E+04  0.50400001928E-02 0. -1.
    10030    2    1    2    0    0  0.00000000000E+00  0.00000000000E+00  0.22048828265E+03  0.25175600022E+04  0.25078862179E+04 0.  0.
        1    1    3    3  502    0 -0.28537219625E+03 -0.15939177916E+03 -0.11050164113E+04  0.11523472996E+04  0.50400001928E-02 0. -1.
       -1    1    3    3    0  502  0.28537219625E+03  0.15939177916E+03  0.13255046939E+04  0.13652127026E+04  0.50400001928E-02 0.  1.
</event>
<event>
 5   0  0.6477703E-06  0.2450406E+04  0.7818609E-02  0.8420870E-01
       -1   -1    0    0    0  501  0.00000000000E+00  0.00000000000E+00  0.82482463648E+03  0.82482463650E+03  0.50400001928E-02 0.  1.
        1   -1    0    0  501    0  0.00000000000E+00  0.00000000000E+00 -0.18199292570E+04  0.18199292571E+04  0.50400001928E-02 0. -1.
    10030    2    1    2    0    0  0.00000000000E+00  0.00000000000E+00 -0.99510462056E+03  0.26447538936E+04  0.24504060789E+04 0.  0.
        5    1    3    3  502    0 -0.13919651066E+03 -0.34658997027E+03 -0.17569763963E+04  0.17962428631E+04  0.46999998093E+01 0. -1.
       -5    1    3    3    0  502  0.13919651066E+03  0.34658997027E+03  0.76187177576E+03  0.84851103043E+03  0.46999998093E+01 0.  1.
</event>
<event>
 5   0  0.6104486E-06  0.2543857E+04  0.7818609E-02  0.8387526E-01
        1   -1    0    0  501    0  0.00000000000E+00  0.00000000000E+00  0.13733885574E+04  0.13733885575E+04  0.50400001928E-02 0. -1.
       -1   -1    0    0    0  501  0.00000000000E+00  0.00000000000E+00 -0.11779637512E+04  0.11779637512E+04  0.50400001928E-02 0.  1.
    10030    2    1    2    0    0  0.00000000000E+00  0.00000000000E+00  0.19542480625E+03  0.25513523087E+04  0.25438568647E+04 0.  0.
        2    1    3    3  502    0  0.48424407782E+03 -0.34423733469E+03  0.12256639735E+04  0.13620733627E+04  0.25500000920E-02 0. -1.
       -2    1    3    3    0  502 -0.48424407782E+03  0.34423733469E+03 -0.10302391673E+04  0.11892789459E+04  0.25500000920E-02 0.  1.
</event>
<event>
 5   0  0.1468512E-05  0.2528462E+04  0.7818609E-02  0.8392916E-01
        2   -1    0    0  501    0  0.00000000000E+00  0.00000000000E+00  0.24812028954E+04  0.24812028954E+04  0.25500000920E-02 0. -1.
       -2   -1    0    0    0  501  0.00000000000E+00  0.00000000000E+00 -0.64415510690E+03  0.64415510691E+03  0.25500000920E-02 0.  1.
    10030    2    1    2    0    0  0.00000000000E+00  0.00000000000E+00  0.18370477885E+04  0.31253580023E+04  0.25284616005E+04 0.  0.
        4    1    3    3  502    0  0.96105563233E+03 -0.29757169747E+03  0.18648256870E+04  0.21189037966E+04  0.12699999809E+01 0. -1.
       -4    1    3    3    0  502 -0.96105563233E+03  0.29757169747E+03 -0.27777898516E+02  0.10064542057E+04  0.12699999809E+01 0.  1.
</event>
<event>
 5   0  0.1468512E-05  0.2492747E+04  0.7818609E-02  0.8405574E-01
       -2   -1    0    0    0  501  0.00000000000E+00  0.00000000000E+00  0.16534188111E+04  0.16534188111E+04  0.25500000920E-02 0.  1.
        2   -1    0    0  501    0  0.00000000000E+00  0.00000000000E+00 -0.93953591621E+03  0.93953591621E+03  0.25500000920E-02 0. -1.
    10030    2    1    2    0    0  0.00000000000E+00  0.00000000000E+00  0.71388289489E+03  0.25929547273E+04  0.24927465636E+04 0.  0.
        4    1    3    3  502    0  0.11216402800E+04  0.52205623305E+03  0.19978821815E+03  0.12532105063E+04  0.12699999809E+01 0.  1.
       -4    1    3    3    0  502 -0.11216402800E+04 -0.52205623305E+03  0.51409467674E+03  0.13397442210E+04  0.12699999809E+01 0. -1.
</event>
<event>
 5   0  0.1572732E-05  0.2506118E+04  0.7818609E-02  0.8400809E-01
        2   -1    0    0  501    0  0.00000000000E+00  0.00000000000E+00  0.12901663352E+04  0.12901663352E+04  0.25500000920E-02 0. -1.
       -2   -1    0    0    0  501  0.00000000000E+00  0.00000000000E+00 -0.12170193181E+04  0.12170193181E+04  0.25500000920E-02 0.  1.
    10030    2    1    2    0    0  0.00000000000E+00  0.00000000000E+00  0.73147017121E+02  0.25071856533E+04  0.25061183958E+04 0.  0.
        1    1    3    3  502    0 -0.25453697409E+03 -0.11774650127E+04 -0.30845657030E+03  0.12435265912E+04  0.50400001928E-02 0.  1.
       -1    1    3    3    0  502  0.25453697409E+03  0.11774650127E+04  0.38160358742E+03  0.12636590621E+04  0.50400001928E-02 0. -1.
</event>
<event>
 5   0  0.6346420E-06  0.2607361E+04  0.7818609E-02  0.8365705E-01
        1   -1    0    0  501    0  0.00000000000E+00  0.00000000000E+00  0.16362445338E+04  0.16362445338E+04  0.50400001928E-02 0.  1.
       -1   -1    0    0    0  501  0.00000000000E+00  0.00000000000E+00 -0.10387099329E+04  0.10387099329E+04  0.50400001928E-02 0. -1.
    10030    2    1    2    0    0  0.00000000000E+00  0.00000000000E+00  0.59753460094E+03  0.26749544667E+04  0.26073614632E+04 0.  0.
        4    1    3    3  502    0 -0.64385093480E+03 -0.82131813048E+03  0.11003509652E+04  0.15165359729E+04  0.12699999809E+01 0.  1.
       -4    1    3    3    0  502  0.64385093480E+03  0.82131813048E+03 -0.50281636425E+03  0.11584184938E+04  0.12699999809E+01 0. -1.
</event>
<event>
 5   0  0.6346420E-06  0.2475018E+04  0.7818609E-02  0.8411940E-01
        1   -1    0    0  501    0  0.00000000000E+00  0.00000000000E+00  0.20660019688E+04  0.20660019688E+04  0.50400001928E-02 0.  1.
       -1   -1    0    0    0  501  0.00000000000E+00  0.00000000000E+00 -0.74125193379E+03  0.74125193381E+03  0.50400001928E-02 0. -1.
    10030    2    1    2    0    0  0.00000000000E+00  0.00000000000E+00  0.13247500350E+04  0.28072539026E+04  0.24750175390E+04 0.  0.
        4    1    3    3  502    0  0.67650406487E+03 -0.85552504111E+02  0.18336895525E+04  0.19563731670E+04  0.12699999809E+01 0.  1.
       -4    1    3    3    0  502 -0.67650406487E+03  0.85552504111E+02 -0.50893951753E+03  0.85088073556E+03  0.12699999809E+01 0. -1.
</event>
<event>
 5   0  0.1550483E-05  0.2532324E+04  0.7818609E-02  0.8391560E-01
       -2   -1    0    0    0  501  0.00000000000E+00  0.00000000000E+00  0.85441506213E+03  0.85441506213E+03  0.25500000920E-02 0. -1.
        2   -1    0    0  501    0  0.00000000000E+00  0.00000000000E+00 -0.18763321135E+04  0.18763321135E+04  0.25500000920E-02 0.  1.
    10030    2    1    2    0    0  0.00000000000E+00  0.00000000000E+00 -0.10219170514E+04  0.27307471757E+04  0.25323241652E+04 0.  0.
        5    1    3    3  502    0 -0.11521001787E+04 -0.34399111746E+03 -0.83026912244E+02  0.12052303800E+04  0.46999998093E+01 0.  1.
       -5    1    3    3    0  502  0.11521001787E+04  0.34399111746E+03 -0.93889013915E+03  0.15255167957E+04  0.46999998093E+01 0. -1.
</event>
<event>
 5   0  0.6477703E-06  0.2504814E+04  0.7818609E-02  0.8401272E-01
       -1   -1    0    0    0  501  0.00000000000E+00  0.00000000000E+00  0.92782330239E+03  0.92782330241E+03  0.50400001928E-02 0. -1.
        1   -1    0    0  501    0  0.00000000000E+00  0.00000000000E+00 -0.16905415907E+04  0.16905415907E+04  0.50400001928E-02 0.  1.
    10030    2    1    2    0    0  0.00000000000E+00  0.00000000000E+00 -0.76271828829E+03  0.26183648931E+04  0.25048144694E+04 0.  0.
        5    1    3    3  502    0  0.96595845290E+03  0.73948391672E+03 -0.69249206482E+03  0.13998141111E+04  0.46999998093E+01 0.  1.
       -5    1    3    3    0  502 -0.96595845290E+03 -0.73948391672E+03 -0.70226223473E+02  0.12185507820E+04  0.46999998093E+01 0. -1.
</event>
<event>
 5   0  0.5164625E-06  0.2500930E+04  0.7818609E-02  0.8402654E-01
       -3   -1    0    0    0  501  0.00000000000E+00  0.00000000000E+00  0.92891438874E+03  0.92891439423E+03  0.10100000352E+00 0.  1.
        3   -1    0    0  501    0  0.00000000000E+00  0.00000000000E+00 -0.16833221684E+04  0.16833221715E+04  0.10100000352E+00 0. -1.
    10030    2    1    2    0    0  0.00000000000E+00  0.00000000000E+00 -0.75440777971E+03  0.26122365657E+04  0.25009295826E+04 0.  0.
        2    1    3    3  502    0 -0.93520771855E+03 -0.41269654608E+03 -0.11294879155E+04  0.15233761411E+04  0.25500000920E-02 0. -1.
       -2    1    3    3    0  502  0.93520771855E+03  0.41269654608E+03  0.37508013581E+03  0.10888604246E+04  0.25500000920E-02 0.  1.
</event>
<event>
 5   0  0.1526824E-05  0.2503302E+04  0.7818609E-02  0.8401810E-01
        2   -1    0    0  501    0  0.00000000000E+00  0.00000000000E+00  0.83191983798E+03  0.83191983799E+03  0.25500000920E-02 0.  1.
       -2   -1    0    0    0  501  0.00000000000E+00  0.00000000000E+00 -0.18831499164E+04  0.18831499164E+04  0.25500000920E-02 0. -1.
    10030    2    1    2    0    0  0.00000000000E+00  0.00000000000E+00 -0.10512300784E+04  0.27150697544E+04  0.25033016385E+04 0.  0.
        2    1    3    3  502    0  0.58953766827E+03  0.11030622586E+04 -0.47327541325E+03  0.13372698402E+04  0.25500000920E-02 0. -1.
       -2    1    3    3    0  502 -0.58953766827E+03 -0.11030622586E+04 -0.57795466519E+03  0.13777999142E+04  0.25500000920E-02 0.  1.
</event>
<event>
 5   0  0.6105353E-06  0.2469798E+04  0.7818609E-02  0.8413825E-01
       -1   -1    0    0    0  501  0.00000000000E+00  0.00000000000E+00  0.18111022958E+04  0.18111022958E+04  0.50400001928E-02 0. -1.
        1   -1    0    0  501    0  0.00000000000E+00  0.00000000000E+00 -0.84201530890E+03  0.84201530891E+03  0.50400001928E-02 0.  1.
    10030    2    1    2    0    0  0.00000000000E+00  0.00000000000E+00  0.96908698689E+03  0.26531176047E+04  0.24697982582E+04 0.  0.
        3    1    3    3  502    0 -0.27153264763E+03 -0.33069051470E+03 -0.75983765595E+03  0.87203180495E+03  0.10100000352E+00 0.  1.
       -3    1    3    3    0  502  0.27153264763E+03  0.33069051470E+03  0.17289246428E+04  0.17810857998E+04  0.10100000352E+00 0. -1.
</event>
<event>
 5   0  0.1501947E-05  0.2506043E+04  0.7818609E-02  0.8400836E-01
       -2   -1    0    0    0  501  0.00000000000E+00  0.00000000000E+00  0.88160751934E+03  0.88160751934E+03  0.25500000920E-02 0.  1.
        2   -1    0    0  501    0  0.00000000000E+00  0.00000000000E+00 -0.17809097582E+04  0.17809097582E+04  0.25500000920E-02 0. -1.
    10030    2    1    2    0    0  0.00000000000E+00  0.00000000000E+00 -0.89930223888E+03  0.26625172776E+04  0.25060434427E+04 0.  0.
        3    1    3    3  502    0 -0.52463540174E+03  0.23278165717E+03 -0.16330349945E+04  0.17309630002E+04  0.10100000352E+00 0. -1.
       -3    1    3    3    0  502  0.52463540174E+03 -0.23278165717E+03  0.73373275565E+03  0.93155427732E+03  0.10100000352E+00 0.  1.
</event>
<event>
 5   0  0.1468512E-05  0.2500554E+04  0.7818609E-02  0.8402788E-01
       -2   -1    0    0    0  501  0.00000000000E+00  0.00000000000E+00  0.11831932764E+04  0.11831932764E+04  0.25500000920E-02 0. -1.
        2   -1    0    0  501    0  0.00000000000E+00  0.00000000000E+00 -0.13211644677E+04  0.13211644677E+04  0.25500000920E-02 0.  1.
    10030    2    1    2    0    0  0.00000000000E+00  0.00000000000E+00 -0.13797119123E+03  0.25043577441E+04  0.25005542708E+04 0.  0.
        4    1    3    3  502    0 -0.84113243224E+03 -0.67777504837E+03 -0.69947353865E+03  0.12869139944E+04  0.12699999809E+01 0.  1.
       -4    1    3    3    0  502  0.84113243224E+03  0.67777504837E+03  0.56150234742E+03  0.12174437498E+04  0.12699999809E+01 0. -1.
</event>
<event>
 5   0  0.1468512E-05  0.2493457E+04  0.7818609E-02  0.8405320E-01
       -2   -1    0    0    0  501  0.00000000000E+00  0.00000000000E+00  0.70874283831E+03  0.70874283832E+03  0.25500000920E-02 0.  1.
        2   -1    0    0  501    0  0.00000000000E+00  0.00000000000E+00 -0.21930823442E+04  0.21930823442E+04  0.25500000920E-02 0. -1.
    10030    2    1    2    0    0  0.00000000000E+00  0.00000000000E+00 -0.14843395059E+04  0.29018251825E+04  0.24934565609E+04 0.  0.
        4    1    3    3  502    0 -0.11643808041E+04  0.37899041025E+03 -0.46945500597E+03  0.13114137423E+04  0.12699999809E+01 0. -1.
       -4    1    3    3    0  502  0.11643808041E+04 -0.37899041025E+03 -0.10148844999E+04  0.15904114402E+04  0.12699999809E+01 0.  1.
</event>
<event>
 5   0  0.6104486E-06  0.2473407E+04  0.7818609E-02  0.8412521E-01
        1   -1    0    0  501    0  0.00000000000E+00  0.00000000000E+00  0.22193153994E+04  0.22193153994E+04  0.50400001928E-02 0.  1.
       -1   -1    0    0    0  501  0.00000000000E+00  0.00000000000E+00 -0.68914744360E+03  0.68914744362E+03  0.50400001928E-02 0. -1.
    10030    2    1    2    0    0  0.00000000000E+00  0.00000000000E+00  0.15301679558E+04  0.29084628430E+04  0.24734069896E+04 0.  0.
        2    1    3    3  502    0  0.43174442241E+03 -0.54572037773E+03 -0.43710326537E+03  0.82175010894E+03  0.25500000920E-02 0. -1.
       -2    1    3    3    0  502 -0.43174442241E+03  0.54572037773E+03  0.19672712211E+04  0.20867127341E+04  0.25500000920E-02 0.  1.
</event>
<event>
 5   0  0.1572732E-05  0.2478034E+04  0.7818609E-02  0.8410853E-01
       -2   -1    0    0    0  501  0.00000000000E+00  0.00000000000E+00  0.61377829552E+03  0.61377829552E+03  0.25500000920E-02 0. -1.
        2   -1    0    0  501    0  0.00000000000E+00  0.00000000000E+00 -0.25011691596E+04  0.25011691596E+04  0.25500000920E-02 0.  1.
    10030    2    1    2    0    0  0.00000000000E+00  0.00000000000E+00 -0.18873908640E+04  0.31149474551E+04  0.24780341754E+04 0.  0.
        1    1    3    3  502    0  0.21516711446E+03 -0.10906083500E+04 -0.25583828213E+03  0.11406913198E+04  0.50400001928E-02 0. -1.
       -1    1    3    3    0  502 -0.21516711446E+03  0.10906083500E+04 -0.16315525819E+04  0.19742561353E+04  0.50400001928E-02 0.  1.
</event>
<event>
 5   0  0.6290861E-06  0.2426560E+04  0.7818609E-02  0.8429626E-01
        1   -1    0    0  501    0  0.00000000000E+00  0.00000000000E+00  0.94678755997E+03  0.94678755998E+03  0.50400001928E-02 0.  1.
       -1   -1    0    0    0  501  0.00000000000E+00  0.00000000000E+00 -0.15547824246E+04  0.15547824246E+04  0.50400001928E-02 0. -1.
    10030    2    1    2    0    0  0.00000000000E+00  0.00000000000E+00 -0.60799486461E+03  0.25015699846E+04  0.24265602470E+04 0.  0.
        1    1    3    3  502    0  0.31761059243E+03  0.42603675921E+03 -0.14284312372E+04  0.15240733605E+04  0.50400001928E-02 0. -1.
       -1    1    3    3    0  502 -0.31761059243E+03 -0.42603675921E+03  0.82043637260E+03  0.97749662410E+03  0.50400001928E-02 0.  1.
</event>
<event>
 5   0  0.6477703E-06  0.2498259E+04  0.7818609E-02  0.8403606E-01
       -1   -1    0    0    0  501  0.00000000000E+00  0.00000000000E+00  0.69818337715E+03  0.69818337717E+03  0.50400001928E-02 0. -1.
        1   -1    0    0  501    0  0.00000000000E+00  0.00000000000E+00 -0.22348348887E+04  0.22348348887E+04  0.50400001928E-02 0.  1.
    10030    2    1    2    0    0  0.00000000000E+00  0.00000000000E+00 -0.15366515116E+04  0.29330182659E+04  0.24982590498E+04 0.  0.
        5    1    3    3  502    0 -0.26199939756E+03  0.11927271694E+04 -0.45979904356E+03  0.13048674397E+04  0.46999998093E+01 0.  1.
       -5    1    3    3    0  502  0.26199939756E+03 -0.11927271694E+04 -0.10768524680E+04  0.16281508262E+04  0.46999998093E+01 0. -1.
</event>
<event>
 5   0  0.1572732E-05  0.2488443E+04  0.7818609E-02  0.8407114E-01
        2   -1    0    0  501    0  0.00000000000E+00  0.00000000000E+00  0.16511735799E+04  0.16511735799E+04  0.25500000920E-02 0.  1.
       -2   -1    0    0    0  501  0.00000000000E+00  0.00000000000E+00 -0.93756784695E+03  0.93756784695E+03  0.25500000920E-02 0. -1.
    10030    2    1    2    0    0  0.00000000000E+00  0.00000000000E+00  0.71360573293E+03  0.25887414268E+04  0.24884430942E+04 0.  0.
        1    1    3    3  502    0 -0.10328726145E+04  0.59555894836E+03 -0.13304727317E+02  0.11923478161E+04  0.50400001928E-02 0. -1.
       -1    1    3    3    0  502  0.10328726145E+04 -0.59555894836E+03  0.72691046025E+03  0.13963936107E+04  0.50400001928E-02 0.  1.
</event>
<event>
 5   0  0.6477703E-06  0.2500143E+04  0.7818609E-02  0.8402935E-01
        1   -1    0    0  501    0  0.00000000000E+00  0.00000000000E+00  0.22984639634E+04  0.22984639634E+04  0.50400001928E-02 0. -1.
       -1   -1    0    0    0  501  0.00000000000E+00  0.00000000000E+00 -0.67987945651E+03  0.67987945653E+03  0.50400001928E-02 0.  1.
    10030    2    1    2    0    0  0.00000000000E+00  0.00000000000E+00  0.16185845069E+04  0.29783434200E+04  0.25001427402E+04 0.  0.
        5    1    3    3  502    0 -0.81492864905E+03  0.15787815851E+03  0.19227449732E+04  0.20942790019E+04  0.46999998093E+01 0. -1.
       -5    1    3    3    0  502  0.81492864905E+03 -0.15787815851E+03 -0.30416046628E+03  0.88406441803E+03  0.46999998093E+01 0.  1.
</event>
<event>
 5   0  0.6105353E-06  0.2500243E+04  0.7818609E-02  0.8402899E-01
        1   -1    0    0  501    0  0.00000000000E+00  0.00000000000E+00  0.12050779651E+04  0.12050779651E+04  0.50400001928E-02 0.  1.
       -1   -1    0    0    0  501  0.00000000000E+00  0.00000000000E+00 -0.12968481622E+04  0.12968481622E+04  0.50400001928E-02 0. -1.
    10030    2    1    2    0    0  0.00000000000E+00  0.00000000000E+00 -0.91770197057E+02  0.25019261273E+04  0.25002425038E+04 0.  0.
        3    1    3    3  502    0  0.42726708225E+03  0.11627917579E+04  0.12204120030E+03  0.12448035575E+04  0.10100000352E+00 0. -1.
       -3    1    3    3    0  502 -0.42726708225E+03 -0.11627917579E+04 -0.21381139735E+03  0.12571225699E+04  0.10100000352E+00 0.  1.
</event>
<event>
 5   0  0.6346420E-06  0.2457735E+04  0.7818609E-02  0.8418199E-01
       -1   -1    0    0    0  501  0.00000000000E+00  0.00000000000E+00  0.74622536799E+03  0.74622536801E+03  0.50400001928E-02 0.  1.
        1   -1    0    0  501    0  0.00000000000E+00  0.00000000000E+00 -0.20236720865E+04  0.20236720866E+04  0.50400001928E-02 0. -1.
    10030    2    1    2    0    0  0.00000000000E+00  0.00000000000E+00 -0.12774467186E+04  0.27698974546E+04  0.24577350935E+04 0.  0.
        4    1    3    3  502    0  0.30042164366E+03  0.30851151801E+03 -0.19358558135E+04  0.19831721722E+04  0.12699999809E+01 0. -1.
       -4    1    3    3    0  502 -0.30042164366E+03 -0.30851151801E+03  0.65840909498E+03  0.78672528241E+03  0.12699999809E+01 0.  1.
</event>
<event>
 5   0  0.1550483E-05  0.2505129E+04  0.7818609E-02  0.8401160E-01
       -2   -1    0    0    0  501  0.00000000000E+00  0.00000000000E+00  0.60753384751E+03  0.60753384752E+03  0.25500000920E-02 0. -1.
        2   -1    0    0  501    0  0.00000000000E+00  0.00000000000E+00 -0.25824375512E+04  0.25824375512E+04  0.25500000920E-02 0.  1.
    10030    2    1    2    0    0  0.00000000000E+00  0.00000000000E+00 -0.19749037037E+04  0.31899713988E+04  0.25051293152E+04 0.  0.
        5    1    3    3  502    0 -0.11842291854E+03  0.14791224428E+03  0.58916761081E+03  0.61890434097E+03  0.46999998093E+01 0. -1.
       -5    1    3    3    0  502  0.11842291854E+03 -0.14791224428E+03 -0.25640713145E+04  0.25710670578E+04  0.46999998093E+01 0.  1.
</event>
<event>
 5   0  0.1572732E-05  0.2499409E+04  0.7818609E-02  0.8403196E-01
        2   -1    0    0  501    0  0.00000000000E+00  0.00000000000E+00  0.16469765793E+04  0.16469765793E+04  0.25500000920E-02 0.  1.
       -2   -1    0    0    0  501  0.00000000000E+00  0.00000000000E+00 -0.94825942507E+03  0.94825942507E+03  0.25500000920E-02 0. -1.
    10030    2    1    2    0    0  0.00000000000E+00  0.00000000000E+00  0.69871715426E+03  0.25952360044E+04  0.24994087815E+04 0.  0.
        1    1    3    3  502    0 -0.19537471302E+02  0.19396766697E+03  0.16310906912E+04  0.16426996109E+04  0.50400001928E-02 0.  1.
       -1    1    3    3    0  502  0.19537471302E+02 -0.19396766697E+03 -0.93237353693E+03  0.95253639354E+03  0.50400001928E-02 0. -1.
</event>
<event>
 5   0  0.6104486E-06  0.2492954E+04  0.7818609E-02  0.8405500E-01
        1   -1    0    0  501    0  0.00000000000E+00  0.00000000000E+00  0.22330798560E+04  0.22330798560E+04  0.50400001928E-02 0. -1.
       -1   -1    0    0    0  501  0.00000000000E+00  0.00000000000E+00 -0.69576757988E+03  0.69576757989E+03  0.50400001928E-02 0.  1.
    10030    2    1    2    0    0  0.00000000000E+00  0.00000000000E+00  0.15373122761E+04  0.29288474359E+04  0.24929537237E+04 0.  0.
        2    1    3    3  502    0 -0.12243010907E+04 -0.95792038485E+02  0.10195775723E+04  0.15961289739E+04  0.25500000920E-02 0. -1.
       -2    1    3    3    0  502  0.12243010907E+04  0.95792038485E+02  0.51773470379E+03  0.13327184620E+04  0.25500000920E-02 0.  1.
</event>
<event>
 5   0  0.6477703E-06  0.2484321E+04  0.7818609E-02  0.8408593E-01
        1   -1    0    0  501    0  0.00000000000E+00  0.00000000000E+00  0.10431899269E+04  0.10431899269E+04  0.50400001928E-02 0. -1.
       -1   -1    0    0    0  501  0.00000000000E+00  0.00000000000E+00 -0.14790814265E+04  0.14790814265E+04  0.50400001928E-02 0.  1.
    10030    2    1    2    0    0  0.00000000000E+00  0.00000000000E+00 -0.43589149959E+03  0.25222713534E+04  0.24843211106E+04 0.  0.
        5    1    3    3  502    0  0.19850110452E+03 -0.11355965972E+04 -0.68756812854E+03  0.13422944317E+04  0.46999998093E+01 0.  1.
       -5    1    3    3    0  502 -0.19850110452E+03  0.11355965972E+04  0.25167662895E+03  0.11799769216E+04  0.46999998093E+01 0. -1.
</event>
<event>
 5   0  0.1501947E-05  0.2531969E+04  0.7818609E-02  0.8391684E-01
       -2   -1    0    0    0  501  0.00000000000E+00  0.00000000000E+00  0.12101884234E+04  0.12101884234E+04  0.25500000920E-02 0.  1.
        2   -1    0    0  501    0  0.00000000000E+00  0.00000000000E+00 -0.13243529355E+04  0.13243529355E+04  0.25500000920E-02 0. -1.
    10030    2    1    2    0    0  0.00000000000E+00  0.00000000000E+00 -0.11416451209E+03  0.25345413589E+04  0.25319688711E+04 0.  0.
        3    1    3    3  502    0  0.11421188943E+04  0.51587104946E+03 -0.23659117269E+03  0.12753563822E+04  0.10100000352E+00 0. -1.
       -3    1    3    3    0  502 -0.11421188943E+04 -0.51587104946E+03  0.12242666061E+03  0.12591849768E+04  0.10100000352E+00 0.  1.
</event>
<event>
 5   0  0.1572732E-05  0.2469768E+04  0.7818609E-02  0.8413836E-01
       -2   -1    0    0    0  501  0.00000000000E+00  0.00000000000E+00  0.81857035630E+03  0.81857035630E+03  0.25500000920E-02 0. -1.
        2   -1    0    0  501    0  0.00000000000E+00  0.00000000000E+00 -0.18629286162E+04  0.18629286162E+04  0.25500000920E-02 0.  1.
    10030    2    1    2    0    0  0.00000000000E+00  0.00000000000E+00 -0.10443582599E+04  0.26814989725E+04  0.24697677147E+04 0.  0.
        1    1    3    3  502    0 -0.55328145670E+03  0.90704488623E+03 -0.12054879228E+04  0.16068764508E+04  0.50400001928E-02 0.  1.
       -1    1    3    3    0  502  0.55328145670E+03 -0.90704488623E+03  0.16112966290E+03  0.10746225218E+04  0.50400001928E-02 0. -1.
</event>
<event>
 5   0  0.5164625E-06  0.2504324E+04  0.7818609E-02  0.8401447E-01
       -3   -1    0    0    0  501  0.00000000000E+00  0.00000000000E+00  0.10520806453E+04  0.10520806501E+04  0.10100000352E+00 0.  1.
        3   -1    0    0  501    0  0.00000000000E+00  0.00000000000E+00 -0.14902938470E+04  0.14902938505E+04  0.10100000352E+00 0. -1.
    10030    2    1    2    0    0  0.00000000000E+00  0.00000000000E+00 -0.43821320174E+03  0.25423745006E+04  0.25043237193E+04 0.  0.
        4    1    3    3  502    0 -0.59151202363E+03 -0.10727048248E+04 -0.48252078463E+03  0.13165903067E+04  0.12699999809E+01 0. -1.
       -4    1    3    3    0  502  0.59151202363E+03  0.10727048248E+04  0.44307582891E+02  0.12257841939E+04  0.12699999809E+01 0.  1.
</event>
<event>
 5   0  0.6104486E-06  0.2485734E+04  0.7818609E-02  0.8408086E-01
       -1   -1    0    0    0  501  0.00000000000E+00  0.00000000000E+00  0.83497135510E+03  0.83497135512E+03  0.50400001928E-02 0.  1.
        1   -1    0    0  501    0  0.00000000000E+00  0.00000000000E+00 -0.18500252940E+04  0.18500252940E+04  0.50400001928E-02 0. -1.
    10030    2    1    2    0    0  0.00000000000E+00  0.00000000000E+00 -0.10150539389E+04  0.26849966491E+04  0.24857337965E+04 0.  0.
        2    1    3    3  502    0 -0.85863701812E+03  0.88473617433E+03 -0.67729643536E+03  0.14066790993E+04  0.25500000920E-02 0. -1.
       -2    1    3    3    0  502  0.85863701812E+03 -0.88473617433E+03 -0.33775750357E+03  0.12783175499E+04  0.25500000920E-02 0.  1.
</event>
<event>
 5   0  0.6477703E-06  0.2450461E+04  0.7818609E-02  0.8420850E-01
       -1   -1    0    0    0  501  0.00000000000E+00  0.00000000000E+00  0.10541050059E+04  0.10541050059E+04  0.50400001928E-02 0. -1.
        1   -1    0    0  501    0  0.00000000000E+00  0.00000000000E+00 -0.14241364582E+04  0.14241364583E+04  0.50400001928E-02 0.  1.
    10030    2    1    2    0    0  0.00000000000E+00  0.00000000000E+00 -0.37003145232E+03  0.24782414642E+04  0.24504606667E+04 0.  0.
        5    1    3    3  502    0 -0.50388103988E+03 -0.31855513354E+03  0.89753714927E+03  0.10774824824E+04  0.46999998093E+01 0. -1.
       -5    1    3    3    0  502  0.50388103988E+03  0.31855513354E+03 -0.12675686016E+04  0.14007589818E+04  0.46999998093E+01 0.  1.
</event>
<event>
 5   0  0.6104486E-06  0.2505923E+04  0.7818609E-02  0.8400878E-01
       -1   -1    0    0    0  501  0.00000000000E+00  0.00000000000E+00  0.16372253391E+04  0.16372253391E+04  0.50400001928E-02 0. -1.
        1   -1    0    0  501    0  0.00000000000E+00  0.00000000000E+00 -0.95888636987E+03  0.95888636989E+03  0.50400001928E-02 0.  1.
    10030    2    1    2    0    0  0.00000000000E+00  0.00000000000E+00  0.67833896919E+03  0.25961117090E+04  0.25059234322E+04 0.  0.
        2    1    3    3  502    0 -0.39438558982E+03 -0.11826859129E+04  0.46867694121E+03  0.13318949047E+04  0.25500000920E-02 0.  1.
       -2    1    3    3    0  502  0.39438558982E+03  0.11826859129E+04  0.20966202798E+03  0.12642168042E+04  0.25500000920E-02 0. -1.
</event>
<event>
 5   0  0.6477703E-06  0.2484494E+04  0.7818609E-02  0.8408531E-01
        1   -1    0    0  501    0  0.00000000000E+00  0.00000000000E+00  0.15989963409E+04  0.15989963409E+04  0.50400001928E-02 0. -1.
       -1   -1    0    0    0  501  0.00000000000E+00  0.00000000000E+00 -0.96509138554E+03  0.96509138555E+03  0.50400001928E-02 0.  1.
    10030    2    1    2    0    0  0.00000000000E+00  0.00000000000E+00  0.63390495536E+03  0.25640877265E+04  0.24844939880E+04 0.  0.
        5    1    3    3  502    0 -0.88981214142E+03  0.44358743013E+03  0.10855389071E+04  0.14720571538E+04  0.46999998093E+01 0. -1.
       -5    1    3    3    0  502  0.88981214142E+03 -0.44358743013E+03 -0.45163395178E+03  0.10920305726E+04  0.46999998093E+01 0.  1.
</event>
<event>
 5   0  0.6104486E-06  0.2524007E+04  0.7818609E-02  0.8394483E-01
       -1   -1    0    0    0  501  0.00000000000E+00  0.00000000000E+00  0.11957962803E+04  0.11957962803E+04  0.50400001928E-02 0. -1.
        1   -1    0    0  501    0  0.00000000000E+00  0.00000000000E+00 -0.13318760471E+04  0.13318760471E+04  0.50400001928E-02 0.  1.
    10030    2    1    2    0    0  0.00000000000E+00  0.00000000000E+00 -0.13607976679E+03  0.25276723273E+04  0.25240066742E+04 0.  0.
        2    1    3    3  502    0  0.46369472208E+02 -0.12349551788E+04 -0.32412203245E+03  0.12776226022E+04  0.25500000920E-02 0.  1.
       -2    1    3    3    0  502 -0.46369472208E+02  0.12349551788E+04  0.18804226565E+03  0.12500497252E+04  0.25500000920E-02 0. -1.
</event>
<event>
 5   0  0.1501947E-05  0.2403415E+04  0.7818609E-02  0.8438226E-01
        2   -1    0    0  501    0  0.00000000000E+00  0.00000000000E+00  0.20028802520E+04  0.20028802520E+04  0.25500000920E-02 0.  1.
       -2   -1    0    0    0  501  0.00000000000E+00  0.00000000000E+00 -0.72101205248E+03  0.72101205248E+03  0.25500000920E-02 0. -1.
    10030    2    1    2    0    0  0.00000000000E+00  0.00000000000E+00  0.12818681995E+04  0.27238923045E+04  0.24034149050E+04 0.  0.
        3    1    3    3  502    0  0.36170746894E+03 -0.13029767847E+03 -0.64943049305E+03  0.75469845211E+03  0.10100000352E+00 0. -1.
       -3    1    3    3    0  502 -0.36170746894E+03  0.13029767847E+03  0.19312986926E+04  0.19691938524E+04  0.10100000352E+00 0.  1.
</event>
<event>
 5   0  0.1526824E-05  0.2308429E+04  0.7818609E-02  0.8474605E-01
        2   -1    0    0  501    0  0.00000000000E+00  0.00000000000E+00  0.20099449175E+04  0.20099449175E+04  0.25500000920E-02 0.  1.
       -2   -1    0    0    0  501  0.00000000000E+00  0.00000000000E+00 -0.66281001148E+03  0.66281001148E+03  0.25500000920E-02 0. -1.
    10030    2    1    2    0    0  0.00000000000E+00  0.00000000000E+00  0.13471349060E+04  0.26727549290E+04  0.23084294348E+04 0.  0.
        2    1    3    3  502    0  0.29567157652E+03  0.44872521887E+02 -0.61717333056E+03  0.68581203280E+03  0.25500000920E-02 0. -1.
       -2    1    3    3    0  502 -0.29567157652E+03 -0.44872521887E+02  0.19643082366E+04  0.19869428962E+04  0.25500000920E-02 0.  1.
</event>
<event>
 5   0  0.1572732E-05  0.2492874E+04  0.7818609E-02  0.8405529E-01
       -2   -1    0    0    0  501  0.00000000000E+00  0.00000000000E+00  0.15828465412E+04  0.15828465412E+04  0.25500000920E-02 0. -1.
        2   -1    0    0  501    0  0.00000000000E+00  0.00000000000E+00 -0.98152609161E+03  0.98152609161E+03  0.25500000920E-02 0.  1.
    10030    2    1    2    0    0  0.00000000000E+00  0.00000000000E+00  0.60132044962E+03  0.25643726328E+04  0.24928739874E+04 0.  0.
        1    1    3    3  502    0  0.84500754324E+03 -0.86727305073E+03 -0.34623539097E+01  0.12108725286E+04  0.50400001928E-02 0.  1.
       -1    1    3    3    0  502 -0.84500754324E+03  0.86727305073E+03  0.60478280353E+03  0.13535001042E+04  0.50400001928E-02 0. -1.
</event>
<event>
 5   0  0.6104486E-06  0.2477763E+04  0.7818609E-02  0.8410950E-01
       -1   -1    0    0    0  501  0.00000000000E+00  0.00000000000E+00  0.10908778498E+04  0.10908778498E+04  0.50400001928E-02 0.  1.
        1   -1    0    0  501    0  0.00000000000E+00  0.00000000000E+00 -0.14069658897E+04  0.14069658898E+04  0.50400001928E-02 0. -1.
    10030    2    1    2    0    0  0.00000000000E+00  0.00000000000E+00 -0.31608803993E+03  0.24978437396E+04  0.24777634468E+04 0.  0.
        2    1    3    3  502    0  0.13446397256E+03  0.54387797971E+03  0.95587422200E+03  0.11079617976E+04  0.25500000920E-02 0.  1.
       -2    1    3    3    0  502 -0.13446397256E+03 -0.54387797971E+03 -0.12719622619E+04  0.13898819419E+04  0.25500000920E-02 0. -1.
</event>
<event>
 5   0  0.1468512E-05  0.2496015E+04  0.7818609E-02  0.8404406E-01
        2   -1    0    0  501    0  0.00000000000E+00  0.00000000000E+00  0.14813337666E+04  0.14813337666E+04  0.25500000920E-02 0. -1.
       -2   -1    0    0    0  501  0.00000000000E+00  0.00000000000E+00 -0.10514329356E+04  0.10514329356E+04  0.25500000920E-02 0.  1.
    10030    2    1    2    0    0  0.00000000000E+00  0.00000000000E+00  0.42990083094E+03  0.25327667022E+04  0.24960153131E+04 0.  0.
        4    1    3    3  502    0 -0.64144456813E+02  0.81603589581E+03 -0.74098877066E+03  0.11041263812E+04  0.12699999809E+01 0.  1.
       -4    1    3    3    0  502  0.64144456813E+02 -0.81603589581E+03  0.11708896016E+04  0.14286403209E+04  0.12699999809E+01 0. -1.
</event>
<event>
 5   0  0.6290861E-06  0.2489843E+04  0.7818609E-02  0.8406613E-01
        1   -1    0    0  501    0  0.00000000000E+00  0.00000000000E+00  0.21134385611E+04  0.21134385611E+04  0.50400001928E-02 0. -1.
       -1   -1    0    0    0  501  0.00000000000E+00  0.00000000000E+00 -0.73332156083E+03  0.73332156085E+03  0.50400001928E-02 0.  1.
    10030    2    1    2    0    0  0.00000000000E+00  0.00000000000E+00  0.13801170003E+04  0.28467601220E+04  0.24898434203E+04 0.  0.
        1    1    3    3  502    0 -0.56645125819E+03  0.96909616168E+03  0.74541905969E+02  0.11249759527E+04  0.50400001928E-02 0.  1.
       -1    1    3    3    0  502  0.56645125819E+03 -0.96909616168E+03  0.13055750943E+04  0.17217841692E+04  0.50400001928E-02 0. -1.
</event>
<event>
 5   0  0.6346420E-06  0.2513751E+04  0.7818609E-02  0.8398103E-01
        1   -1    0    0  501    0  0.00000000000E+00  0.00000000000E+00  0.14861414638E+04  0.14861414638E+04  0.50400001928E-02 0.  1.
       -1   -1    0    0    0  501  0.00000000000E+00  0.00000000000E+00 -0.10629780575E+04  0.10629780575E+04  0.50400001928E-02 0. -1.
    10030    2    1    2    0    0  0.00000000000E+00  0.00000000000E+00  0.42316340624E+03  0.25491195213E+04  0.25137507962E+04 0.  0.
        4    1    3    3  502    0  0.59122045389E+03  0.57229008373E+02  0.13348296540E+04  0.14610231355E+04  0.12699999809E+01 0.  1.
       -4    1    3    3    0  502 -0.59122045389E+03 -0.57229008373E+02 -0.91166624776E+03  0.10880963858E+04  0.12699999809E+01 0. -1.
</event>
<event>
 5   0  0.1501947E-05  0.2505883E+04  0.7818609E-02  0.8400893E-01
        2   -1    0    0  501    0  0.00000000000E+00  0.00000000000E+00  0.20196565937E+04  0.20196565937E+04  0.25500000920E-02 0.  1.
       -2   -1    0    0    0  501  0.00000000000E+00  0.00000000000E+00 -0.77729186532E+03  0.77729186532E+03  0.25500000920E-02 0. -1.
    10030    2    1    2    0    0  0.00000000000E+00  0.00000000000E+00  0.12423647284E+04  0.27969484590E+04  0.25058831904E+04 0.  0.
        3    1    3    3  502    0 -0.84189871598E+03 -0.47610142383E+03 -0.26782236199E+03  0.10035909732E+04  0.10100000352E+00 0. -1.
       -3    1    3    3    0  502  0.84189871598E+03  0.47610142383E+03  0.15101870904E+04  0.17933574858E+04  0.10100000352E+00 0.  1.
</event>
<event>
 5   0  0.6477703E-06  0.2469487E+04  0.7818609E-02  0.8413937E-01
        1   -1    0    0  501    0  0.00000000000E+00  0.00000000000E+00  0.13108256589E+04  0.13108256589E+04  0.50400001928E-02 0. -1.
       -1   -1    0    0    0  501  0.00000000000E+00  0.00000000000E+00 -0.11630774141E+04  0.11630774141E+04  0.50400001928E-02 0.  1.
    10030    2    1    2    0    0  0.00000000000E+00  0.00000000000E+00  0.14774824481E+03  0.24739030730E+04  0.24694871675E+04 0.  0.
        5    1    3    3  502    0 -0.10055604308E+04  0.95125840549E+02  0.78533343044E+03  0.12794418285E+04  0.46999998093E+01 0. -1.
       -5    1    3    3    0  502  0.10055604308E+04 -0.95125840549E+02 -0.63758518563E+03  0.11944612445E+04  0.46999998093E+01 0.  1.
</event>
<event>
 5   0  0.1501947E-05  0.2491233E+04  0.7818609E-02  0.8406115E-01
        2   -1    0    0  501    0  0.00000000000E+00  0.00000000000E+00  0.14528385702E+04  0.14528385702E+04  0.25500000920E-02 0.  1.
       -2   -1    0    0    0  501  0.00000000000E+00  0.00000000000E+00 -0.10679511169E+04  0.10679511169E+04  0.25500000920E-02 0. -1.
    10030    2    1    2    0    0  0.00000000000E+00  0.00000000000E+00  0.38488745328E+03  0.25207896871E+04  0.24912330872E+04 0.  0.
        3    1    3    3  502    0  0.79835053830E+03 -0.95613620729E+03  0.19170389494E+03  0.12602818821E+04  0.10100000352E+00 0.  1.
       -3    1    3    3    0  502 -0.79835053830E+03  0.95613620729E+03  0.19318355834E+03  0.12605078049E+04  0.10100000352E+00 0. -1.
</event>
<event>
 5   0  0.6346420E-06  0.2496981E+04  0.7818609E-02  0.8404062E-01
        1   -1    0    0  501    0  0.00000000000E+00  0.00000000000E+00  0.99941772764E+03  0.99941772765E+03  0.50400001928E-02 0. -1.
       -1   -1    0    0    0  501  0.00000000000E+00  0.00000000000E+00 -0.15596362003E+04  0.15596362003E+04  0.50400001928E-02 0.  1.
    10030    2    1    2    0    0  0.00000000000E+00  0.00000000000E+00 -0.56021847265E+03  0.25590539280E+04  0.24969806305E+04 0.  0.
        4    1    3    3  502    0 -0.14790540886E+02  0.47971606131E+03  0.90109626385E+03  0.10209418932E+04  0.12699999809E+01 0. -1.
       -4    1    3    3    0  502  0.14790540886E+02 -0.47971606131E+03 -0.14613147365E+04  0.15381120348E+04  0.12699999809E+01 0.  1.
</event>
<event>
 5   0  0.6477703E-06  0.2498714E+04  0.7818609E-02  0.8403444E-01
        1   -1    0    0  501    0  0.00000000000E+00  0.00000000000E+00  0.13538660100E+04  0.13538660100E+04  0.50400001928E-02 0.  1.
       -1   -1    0    0    0  501  0.00000000000E+00  0.00000000000E+00 -0.11529152929E+04  0.11529152929E+04  0.50400001928E-02 0. -1.
    10030    2    1    2    0    0  0.00000000000E+00  0.00000000000E+00  0.20095071705E+03  0.25067813029E+04  0.24987139312E+04 0.  0.
        5    1    3    3  502    0 -0.32978509529E+03  0.53241493323E+03 -0.98405461252E+03  0.11664516452E+04  0.46999998093E+01 0. -1.
       -5    1    3    3    0  502  0.32978509529E+03 -0.53241493323E+03  0.11850053296E+04  0.13403296577E+04  0.46999998093E+01 0.  1.
</event>
<event>
 5   0  0.1550483E-05  0.2495833E+04  0.7818609E-02  0.8404472E-01
       -2   -1    0    0    0  501  0.00000000000E+00  0.00000000000E+00  0.13101018908E+04  0.13101018908E+04  0.25500000920E-02 0.  1.
        2   -1    0    0  501    0  0.00000000000E+00  0.00000000000E+00 -0.11886823551E+04  0.11886823551E+04  0.25500000920E-02 0. -1.
    10030    2    1    2    0    0  0.00000000000E+00  0.00000000000E+00  0.12141953568E+03  0.24987842459E+04  0.24958325273E+04 0.  0.
        5    1    3    3  502    0  0.51569820800E+03 -0.48403198491E+03  0.10900508309E+04  0.12994092920E+04  0.46999998093E+01 0.  1.
       -5    1    3    3    0  502 -0.51569820800E+03  0.48403198491E+03 -0.96863129521E+03  0.11993749540E+04  0.46999998093E+01 0. -1.
</event>
<event>
 5   0  0.6290861E-06  0.2501480E+04  0.7818609E-02  0.8402458E-01
        1   -1    0    0  501    0  0.00000000000E+00  0.00000000000E+00  0.13204997712E+04  0.13204997713E+04  0.50400001928E-02 0. -1.
       -1   -1    0    0    0  501  0.00000000000E+00  0.00000000000E+00 -0.11846656152E+04  0.11846656153E+04  0.50400001928E-02 0.  1.
    10030    2    1    2    0    0  0.00000000000E+00  0.00000000000E+00  0.13583415601E+03  0.25051653865E+04  0.25014801010E+04 0.  0.
        1    1    3    3  502    0  0.10062035538E+04 -0.73530210201E+03  0.17407277391E+03  0.12583386283E+04  0.50400001928E-02 0.  1.
       -1    1    3    3    0  502 -0.10062035538E+04  0.73530210201E+03 -0.38238617906E+02  0.12468267582E+04  0.50400001928E-02 0. -1.
</event>
<event>
 5   0  0.1550483E-05  0.2380624E+04  0.7818609E-02  0.8446793E-01
        2   -1    0    0  501    0  0.00000000000E+00  0.00000000000E+00  0.18234650562E+04  0.18234650562E+04  0.25500000920E-02 0.  1.
       -2   -1    0    0    0  501  0.00000000000E+00  0.00000000000E+00 -0.77700562741E+03  0.77700562741E+03  0.25500000920E-02 0. -1.
    10030    2    1    2    0    0  0.00000000000E+00  0.00000000000E+00  0.10464594288E+04  0.26004706836E+04  0.23806239603E+04 0.  0.
        5    1    3    3  502    0  0.84843535645E+03 -0.25869934426E+03 -0.34383112348E+03  0.95132004933E+03  0.46999998093E+01 0. -1.
       -5    1    3    3    0  502 -0.84843535645E+03  0.25869934426E+03  0.13902905523E+04  0.16491506343E+04  0.46999998093E+01 0.  1.
</event>
<event>
 5   0  0.6104486E-06  0.2478391E+04  0.7818609E-02  0.8410725E-01
       -1   -1    0    0    0  501  0.00000000000E+00  0.00000000000E+00  0.66820886323E+03  0.66820886325E+03  0.50400001928E-02 0.  1.
        1   -1    0    0  501    0  0.00000000000E+00  0.00000000000E+00 -0.22980920014E+04  0.22980920014E+04  0.50400001928E-02 0. -1.
    10030    2    1    2    0    0  0.00000000000E+00  0.00000000000E+00 -0.16298831382E+04  0.29663008647E+04  0.24783909650E+04 0.  0.
        2    1    3    3  502    0 -0.43129281063E+03  0.10286777868E+04 -0.16884034743E+03  0.11281394153E+04  0.25500000920E-02 0.  1.
       -2    1    3    3    0  502  0.43129281063E+03 -0.10286777868E+04 -0.14610427907E+04  0.18381614493E+04  0.25500000920E-02 0. -1.
</event>
<event>
 5   0  0.6105353E-06  0.2512126E+04  0.7818609E-02  0.8398678E-01
        1   -1    0    0  501    0  0.00000000000E+00  0.00000000000E+00  0.12674134973E+04  0.12674134973E+04  0.50400001928E-02 0. -1.
       -1   -1    0    0    0  501  0.00000000000E+00  0.00000000000E+00 -0.12448136824E+04  0.12448136824E+04  0.50400001928E-02 0.  1.
    10030    2    1    2    0    0  0.00000000000E+00  0.00000000000E+00  0.22599814964E+02  0.25122271797E+04  0.25121255245E+04 0.  0.
        3    1    3    3  502    0  0.61248478217E+03  0.57093764301E+03 -0.92499982921E+03  0.12476907048E+04  0.10100000352E+00 0.  1.
       -3    1    3    3    0  502 -0.61248478217E+03 -0.57093764301E+03  0.94759964417E+03  0.12645364749E+04  0.10100000352E+00 0. -1.
</event>
<event>
 5   0  0.6477703E-06  0.2491120E+04  0.7818609E-02  0.8406156E-01
       -1   -1    0    0    0  501  0.00000000000E+00  0.00000000000E+00  0.86840586018E+03  0.86840586019E+03  0.50400001928E-02 0.  1.
        1   -1    0    0  501    0  0.00000000000E+00  0.00000000000E+00 -0.17865152448E+04  0.17865152449E+04  0.50400001928E-02 0. -1.
    10030    2    1    2    0    0  0.00000000000E+00  0.00000000000E+00 -0.91810938467E+03  0.26549211050E+04  0.24911204772E+04 0.  0.
        5    1    3    3  502    0  0.68347793822E+03  0.88247949549E+03 -0.10481052766E+04  0.15311626017E+04  0.46999998093E+01 0. -1.
       -5    1    3    3    0  502 -0.68347793822E+03 -0.88247949549E+03  0.12999589191E+03  0.11237585034E+04  0.46999998093E+01 0.  1.
</event>
<event>
 5   0  0.1526824E-05  0.2494529E+04  0.7818609E-02  0.8404937E-01
       -2   -1    0    0    0  501  0.00000000000E+00  0.00000000000E+00  0.10496624333E+04  0.10496624333E+04  0.25500000920E-02 0.  1.
        2   -1    0    0  501    0  0.00000000000E+00  0.00000000000E+00 -0.14820662825E+04  0.14820662825E+04  0.25500000920E-02 0. -1.
    10030    2    1    2    0    0  0.00000000000E+00  0.00000000000E+00 -0.43240384922E+03  0.25317287159E+04  0.24945294550E+04 0.  0.
        2    1    3    3  502    0  0.39501922029E+03 -0.75337608302E+03  0.70957037406E+03  0.11077480863E+04  0.25500000920E-02 0.  1.
       -2    1    3    3    0  502 -0.39501922029E+03  0.75337608302E+03 -0.11419742233E+04  0.14239806296E+04  0.25500000920E-02 0. -1.
</event>
<event>
 5   0  0.1572732E-05  0.2458556E+04  0.7818609E-02  0.8417901E-01
       -2   -1    0    0    0  501  0.00000000000E+00  0.00000000000E+00  0.71645624433E+03  0.71645624434E+03  0.25500000920E-02 0.  1.
        2   -1    0    0  501    0  0.00000000000E+00  0.00000000000E+00 -0.21091652106E+04  0.21091652106E+04  0.25500000920E-02 0. -1.
    10030    2    1    2    0    0  0.00000000000E+00  0.00000000000E+00 -0.13927089662E+04  0.28256214549E+04  0.24585561498E+04 0.  0.
        1    1    3    3  502    0 -0.61860551766E+03  0.10425498503E+04 -0.46210669277E+03  0.12973532951E+04  0.50400001928E-02 0. -1.
       -1    1    3    3    0  502  0.61860551766E+03 -0.10425498503E+04 -0.93060227347E+03  0.15282681598E+04  0.50400001928E-02 0.  1.
</event>
<event>
 5   0  0.6290861E-06  0.2472404E+04  0.7818609E-02  0.8412883E-01
       -1   -1    0    0    0  501  0.00000000000E+00  0.00000000000E+00  0.88637231958E+03  0.88637231960E+03  0.50400001928E-02 0.  1.
        1   -1    0    0  501    0  0.00000000000E+00  0.00000000000E+00 -0.17241004866E+04  0.17241004866E+04  0.50400001928E-02 0. -1.
    10030    2    1    2    0    0  0.00000000000E+00  0.00000000000E+00 -0.83772816698E+03  0.26104728062E+04  0.24724036462E+04 0.  0.
        1    1    3    3  502    0  0.62163149110E+02  0.11804462895E+04 -0.80083638833E+03  0.14278153313E+04  0.50400001928E-02 0.  1.
       -1    1    3    3    0  502 -0.62163149110E+02 -0.11804462895E+04 -0.36891778650E+02  0.11826574748E+04  0.50400001928E-02 0. -1.
</event>
<event>
 5   0  0.6105353E-06  0.2526305E+04  0.7818609E-02  0.8393674E-01
       -1   -1    0    0    0  501  0.00000000000E+00  0.00000000000E+00  0.24232303509E+04  0.24232303509E+04  0.50400001928E-02 0. -1.
        1   -1    0    0  501    0  0.00000000000E+00  0.00000000000E+00 -0.65844111824E+03  0.65844111826E+03  0.50400001928E-02 0.  1.
    10030    2    1    2    0    0  0.00000000000E+00  0.00000000000E+00  0.17647892326E+04  0.30816714691E+04  0.25263052088E+04 0.  0.
        3    1    3    3  502    0  0.12231162978E+04  0.31480487091E+03  0.90795026149E+03  0.15554707558E+04  0.10100000352E+00 0.  1.
       -3    1    3    3    0  502 -0.12231162978E+04 -0.31480487091E+03  0.85683897115E+03  0.15262007133E+04  0.10100000352E+00 0. -1.
</event>
<event>
 5   0  0.6105353E-06  0.2506469E+04  0.7818609E-02  0.8400685E-01
       -1   -1    0    0    0  501  0.00000000000E+00  0.00000000000E+00  0.12053527832E+04  0.12053527832E+04  0.50400001928E-02 0. -1.
        1   -1    0    0  501    0  0.00000000000E+00  0.00000000000E+00 -0.13030184143E+04  0.13030184143E+04  0.50400001928E-02 0.  1.
    10030    2    1    2    0    0  0.00000000000E+00  0.00000000000E+00 -0.97665631098E+02  0.25083711976E+04  0.25064691280E+04 0.  0.
        3    1    3    3  502    0  0.73070699324E+03 -0.82853303723E+03  0.54339084508E+03  0.12311268515E+04  0.10100000352E+00 0. -1.
       -3    1    3    3    0  502 -0.73070699324E+03  0.82853303723E+03 -0.64105647618E+03  0.12772443461E+04  0.10100000352E+00 0.  1.
</event>
<event>
 5   0  0.6104486E-06  0.2482466E+04  0.7818609E-02  0.8409259E-01
       -1   -1    0    0    0  501  0.00000000000E+00  0.00000000000E+00  0.77894309939E+03  0.77894309940E+03  0.50400001928E-02 0. -1.
        1   -1    0    0  501    0  0.00000000000E+00  0.00000000000E+00 -0.19778841283E+04  0.19778841283E+04  0.50400001928E-02 0.  1.
    10030    2    1    2    0    0  0.00000000000E+00  0.00000000000E+00 -0.11989410289E+04  0.27568272277E+04  0.24824658654E+04 0.  0.
        2    1    3    3  502    0 -0.25624159087E+03  0.27338604530E+03  0.71463588253E+03  0.80691023495E+03  0.25500000920E-02 0. -1.
       -2    1    3    3    0  502  0.25624159087E+03 -0.27338604530E+03 -0.19135769115E+04  0.19499169928E+04  0.25500000920E-02 0.  1.
</event>
<event>
 5   0  0.1572732E-05  0.2537191E+04  0.7818609E-02  0.8389855E-01
       -2   -1    0    0    0  501  0.00000000000E+00  0.00000000000E+00  0.15319191675E+04  0.15319191675E+04  0.25500000920E-02 0.  1.
        2   -1    0    0  501    0  0.00000000000E+00  0.00000000000E+00 -0.10505350088E+04  0.10505350088E+04  0.25500000920E-02 0. -1.
    10030    2    1    2    0    0  0.00000000000E+00  0.00000000000E+00  0.48138415875E+03  0.25824541763E+04  0.25371911367E+04 0.  0.
        1    1    3    3  502    0 -0.63625012424E+03  0.58036099934E+03 -0.70743082681E+03  0.11144915813E+04  0.50400001928E-02 0. -1.
       -1    1    3    3    0  502  0.63625012424E+03 -0.58036099934E+03  0.11888149856E+04  0.14679625949E+04  0.50400001928E-02 0.  1.
</event>
<event>
 5   0  0.1501947E-05  0.2194927E+04  0.7818609E-02  0.8520543E-01
        2   -1    0    0  501    0  0.00000000000E+00  0.00000000000E+00  0.13160292489E+04  0.13160292489E+04  0.25500000920E-02 0.  1.
       -2   -1    0    0    0  501  0.00000000000E+00  0.00000000000E+00 -0.91519700204E+03  0.91519700204E+03  0.25500000920E-02 0. -1.
    10030    2    1    2    0    0  0.00000000000E+00  0.00000000000E+00  0.40083224685E+03  0.22312262509E+04  0.21949268992E+04 0.  0.
        3    1    3    3  502    0  0.29790078480E+03  0.32708258729E+03  0.12213653746E+04  0.12990232042E+04  0.10100000352E+00 0.  1.
       -3    1    3    3    0  502 -0.29790078480E+03 -0.32708258729E+03 -0.82053312774E+03  0.93220304677E+03  0.10100000352E+00 0. -1.
</event>
<event>
 5   0  0.6105353E-06  0.2513323E+04  0.7818609E-02  0.8398255E-01
        1   -1    0    0  501    0  0.00000000000E+00  0.00000000000E+00  0.13680873255E+04  0.13680873256E+04  0.50400001928E-02 0. -1.
       -1   -1    0    0    0  501  0.00000000000E+00  0.00000000000E+00 -0.11543108419E+04  0.11543108419E+04  0.50400001928E-02 0.  1.
    10030    2    1    2    0    0  0.00000000000E+00  0.00000000000E+00  0.21377648363E+03  0.25223981675E+04  0.25133229260E+04 0.  0.
        3    1    3    3  502    0 -0.19375165435E+03  0.52502570639E+03 -0.10223440462E+04  0.11654951973E+04  0.10100000352E+00 0.  1.
       -3    1    3    3    0  502  0.19375165435E+03 -0.52502570639E+03  0.12361205298E+04  0.13569029702E+04  0.10100000352E+00 0. -1.
</event>
<event>
 5   0  0.1468512E-05  0.2582338E+04  0.7818609E-02  0.8374225E-01
        2   -1    0    0  501    0  0.00000000000E+00  0.00000000000E+00  0.94486915676E+03  0.94486915677E+03  0.25500000920E-02 0.  1.
       -2   -1    0    0    0  501  0.00000000000E+00  0.00000000000E+00 -0.17643894746E+04  0.17643894746E+04  0.25500000920E-02 0. -1.
    10030    2    1    2    0    0  0.00000000000E+00  0.00000000000E+00 -0.81952031784E+03  0.27092586314E+04  0.25823378517E+04 0.  0.
        4    1    3    3  502    0 -0.66472793888E+03 -0.89637873715E+02  0.74774112299E+03  0.10044981737E+04  0.12699999809E+01 0.  1.
       -4    1    3    3    0  502  0.66472793888E+03  0.89637873715E+02 -0.15672614408E+04  0.17047604576E+04  0.12699999809E+01 0. -1.
</event>
<event>
 5   0  0.6105353E-06  0.2489984E+04  0.7818609E-02  0.8406563E-01
        1   -1    0    0  501    0  0.00000000000E+00  0.00000000000E+00  0.14926498876E+04  0.14926498876E+04  0.50400001928E-02 0. -1.
       -1   -1    0    0    0  501  0.00000000000E+00  0.00000000000E+00 -0.10384247595E+04  0.10384247595E+04  0.50400001928E-02 0.  1.
    10030    2    1    2    0    0  0.00000000000E+00  0.00000000000E+00  0.45422512815E+03  0.25310746471E+04  0.24899836149E+04 0.  0.
        3    1    3    3  502    0  0.40263363841E+03  0.26184952147E+03 -0.94046154111E+03  0.10560051795E+04  0.10100000352E+00 0.  1.
       -3    1    3    3    0  502 -0.40263363841E+03 -0.26184952147E+03  0.13946866693E+04  0.14750694676E+04  0.10100000352E+00 0. -1.
</event>
<event>
 5   0  0.6105353E-06  0.2482046E+04  0.7818609E-02  0.8409410E-01
       -1   -1    0    0    0  501  0.00000000000E+00  0.00000000000E+00  0.10536795480E+04  0.10536795480E+04  0.50400001928E-02 0. -1.
        1   -1    0    0  501    0  0.00000000000E+00  0.00000000000E+00 -0.14616758223E+04  0.14616758223E+04  0.50400001928E-02 0.  1.
    10030    2    1    2    0    0  0.00000000000E+00  0.00000000000E+00 -0.40799627431E+03  0.25153553703E+04  0.24820458656E+04 0.  0.
        3    1    3    3  502    0  0.11057629646E+04 -0.44812334018E+03  0.14206912277E+03  0.12015448005E+04  0.10100000352E+00 0. -1.
       -3    1    3    3    0  502 -0.11057629646E+04  0.44812334018E+03 -0.55006539708E+03  0.13138105697E+04  0.10100000352E+00 0.  1.
</event>
<event>
 5   0  0.1550483E-05  0.2504924E+04  0.7818609E-02  0.8401234E-01
       -2   -1    0    0    0  501  0.00000000000E+00  0.00000000000E+00  0.87588445943E+03  0.87588445944E+03  0.25500000920E-02 0.  1.
        2   -1    0    0  501    0  0.00000000000E+00  0.00000000000E+00 -0.17909445127E+04  0.17909445127E+04  0.25500000920E-02 0. -1.
    10030    2    1    2    0    0  0.00000000000E+00  0.00000000000E+00 -0.91506005326E+03  0.26668289721E+04  0.25049235249E+04 0.  0.
        5    1    3    3  502    0 -0.10224951300E+04 -0.61251817779E+02 -0.12247989539E+04  0.15966848918E+04  0.46999998093E+01 0. -1.
       -5    1    3    3    0  502  0.10224951300E+04  0.61251817779E+02  0.30973890067E+03  0.10701440803E+04  0.46999998093E+01 0.  1.
</event>
<event>
 5   0  0.6346420E-06  0.2500156E+04  0.7818609E-02  0.8402930E-01
        1   -1    0    0  501    0  0.00000000000E+00  0.00000000000E+00  0.16194815192E+04  0.16194815193E+04  0.50400001928E-02 0. -1.
       -1   -1    0    0    0  501  0.00000000000E+00  0.00000000000E+00 -0.96493551836E+03  0.96493551837E+03  0.50400001928E-02 0.  1.
    10030    2    1    2    0    0  0.00000000000E+00  0.00000000000E+00  0.65454600088E+03  0.25844170376E+04  0.25001561865E+04 0.  0.
        4    1    3    3  502    0 -0.58912947680E+03  0.44800651244E+03  0.13686531013E+04  0.15559551087E+04  0.12699999809E+01 0. -1.
       -4    1    3    3    0  502  0.58912947680E+03 -0.44800651244E+03 -0.71410710039E+03  0.10284619290E+04  0.12699999809E+01 0.  1.
</event>
<event>
 5   0  0.6105353E-06  0.2259886E+04  0.7818609E-02  0.8493908E-01
       -1   -1    0    0    0  501  0.00000000000E+00  0.00000000000E+00  0.61523071343E+03  0.61523071345E+03  0.50400001928E-02 0.  1.
        1   -1    0    0  501    0  0.00000000000E+00  0.00000000000E+00 -0.20752718468E+04  0.20752718468E+04  0.50400001928E-02 0. -1.
    10030    2    1    2    0    0  0.00000000000E+00  0.00000000000E+00 -0.14600411334E+04  0.26905025603E+04  0.22598858192E+04 0.  0.
        3    1    3    3  502    0  0.10238033361E+04  0.40480433493E+03 -0.10329235617E+04  0.15096260845E+04  0.10100000352E+00 0. -1.
       -3    1    3    3    0  502 -0.10238033361E+04 -0.40480433493E+03 -0.42711757173E+03  0.11808764757E+04  0.10100000352E+00 0.  1.
</event>
<event>
 5   0  0.1526824E-05  0.2498342E+04  0.7818609E-02  0.8403576E-01
        2   -1    0    0  501    0  0.00000000000E+00  0.00000000000E+00  0.10236860483E+04  0.10236860484E+04  0.25500000920E-02 0. -1.
       -2   -1    0    0    0  501  0.00000000000E+00  0.00000000000E+00 -0.15243233485E+04  0.15243233485E+04  0.25500000920E-02 0.  1.
    10030    2    1    2    0    0  0.00000000000E+00  0.00000000000E+00 -0.50063730011E+03  0.25480093968E+04  0.24983422864E+04 0.  0.
        2    1    3    3  502    0 -0.12045960491E+04  0.16972323049E+03 -0.53981178621E+03  0.13308848113E+04  0.25500000920E-02 0.  1.
       -2    1    3    3    0  502  0.12045960491E+04 -0.16972323049E+03  0.39174486097E+02  0.12171245855E+04  0.25500000920E-02 0. -1.
</event>
<event>
 5   0  0.6346420E-06  0.2696638E+04  0.7818609E-02  0.8336096E-01
       -1   -1    0    0    0  501  0.00000000000E+00  0.00000000000E+00  0.70450163131E+03  0.70450163133E+03  0.50400001928E-02 0.  1.
        1   -1    0    0  501    0  0.00000000000E+00  0.00000000000E+00 -0.25804976131E+04  0.25804976131E+04  0.50400001928E-02 0. -1.
    10030    2    1    2    0    0  0.00000000000E+00  0.00000000000E+00 -0.18759959818E+04  0.32849992445E+04  0.26966384838E+04 0.  0.
        4    1    3    3  502    0  0.76370656202E+03 -0.11267983826E+03 -0.22846378748E+04  0.24115381587E+04  0.12699999809E+01 0. -1.
       -4    1    3    3    0  502 -0.76370656202E+03  0.11267983826E+03  0.40864189297E+03  0.87346108581E+03  0.12699999809E+01 0.  1.
</event>
<event>
 5   0  0.1572732E-05  0.2509857E+04  0.7818609E-02  0.8399482E-01
        2   -1    0    0  501    0  0.00000000000E+00  0.00000000000E+00  0.21636049864E+04  0.21636049864E+04  0.25500000920E-02 0.  1.
       -2   -1    0    0    0  501  0.00000000000E+00  0.00000000000E+00 -0.72788025576E+03  0.72788025576E+03  0.25500000920E-02 0. -1.
    10030    2    1    2    0    0  0.00000000000E+00  0.00000000000E+00  0.14357247306E+04  0.28914852421E+04  0.25098568492E+04 0.  0.
        1    1    3    3  502    0 -0.92040300603E+03  0.38211236559E+03 -0.16079437416E+03  0.10094584609E+04  0.50400001928E-02 0. -1.
       -1    1    3    3    0  502  0.92040300603E+03 -0.38211236559E+03  0.15965191048E+04  0.18820267812E+04  0.50400001928E-02 0.  1.
</event>
<event>
 5   0  0.6104486E-06  0.2370244E+04  0.7818609E-02  0.8450728E-01
        1   -1    0    0  501    0  0.00000000000E+00  0.00000000000E+00  0.15860112913E+04  0.15860112913E+04  0.50400001928E-02 0. -1.
       -1   -1    0    0    0  501  0.00000000000E+00  0.00000000000E+00 -0.88556402366E+03  0.88556402368E+03  0.50400001928E-02 0.  1.
    10030    2    1    2    0    0  0.00000000000E+00  0.00000000000E+00  0.70044726761E+03  0.24715753150E+04  0.23702443256E+04 0.  0.
        2    1    3    3  502    0 -0.11021288300E+04 -0.12629548492E+03  0.78503470688E+03  0.13590136123E+04  0.25500000920E-02 0. -1.
       -2    1    3    3    0  502  0.11021288300E+04  0.12629548492E+03 -0.84587439265E+02  0.11125617027E+04  0.25500000920E-02 0.  1.
</event>
<event>
 5   0  0.6346420E-06  0.2499962E+04  0.7818609E-02  0.8402999E-01
       -1   -1    0    0    0  501  0.00000000000E+00  0.00000000000E+00  0.80695412962E+03  0.80695412963E+03  0.50400001928E-02 0. -1.
        1   -1    0    0  501    0  0.00000000000E+00  0.00000000000E+00 -0.19362350953E+04  0.19362350953E+04  0.50400001928E-02 0.  1.
    10030    2    1    2    0    0  0.00000000000E+00  0.00000000000E+00 -0.11292809657E+04  0.27431892250E+04  0.24999623246E+04 0.  0.
        4    1    3    3  502    0  0.11686360240E+03  0.47110629318E+03 -0.18286016067E+04  0.18919259209E+04  0.12699999809E+01 0.  1.
       -4    1    3    3    0  502 -0.11686360240E+03 -0.47110629318E+03  0.69932064102E+03  0.85126330409E+03  0.12699999809E+01 0. -1.
</event>
<event>
 5   0  0.1501947E-05  0.2475055E+04  0.7818609E-02  0.8411927E-01
        2   -1    0    0  501    0  0.00000000000E+00  0.00000000000E+00  0.17612084749E+04  0.17612084749E+04  0.25500000920E-02 0.  1.
       -2   -1    0    0    0  501  0.00000000000E+00  0.00000000000E+00 -0.86955885620E+03  0.86955885620E+03  0.25500000920E-02 0. -1.
    10030    2    1    2    0    0  0.00000000000E+00  0.00000000000E+00  0.89164961867E+03  0.26307673311E+04  0.24750550919E+04 0.  0.
        3    1    3    3  502    0 -0.12277015894E+03 -0.20060056859E+03 -0.84558618680E+03  0.87768394627E+03  0.10100000352E+00 0. -1.
       -3    1    3    3    0  502  0.12277015894E+03  0.20060056859E+03  0.17372358055E+04  0.17530833848E+04  0.10100000352E+00 0.  1.
</event>
<event>
 5   0  0.6105353E-06  0.2515529E+04  0.7818609E-02  0.8397474E-01
        1   -1    0    0  501    0  0.00000000000E+00  0.00000000000E+00  0.11915396120E+04  0.11915396120E+04  0.50400001928E-02 0. -1.
       -1   -1    0    0    0  501  0.00000000000E+00  0.00000000000E+00 -0.13276703540E+04  0.13276703540E+04  0.50400001928E-02 0.  1.
    10030    2    1    2    0    0  0.00000000000E+00  0.00000000000E+00 -0.13613074201E+03  0.25192099660E+04  0.25155292235E+04 0.  0.
        3    1    3    3  502    0  0.12365889888E+04  0.13782018306E+02 -0.29781233090E+03  0.12720198371E+04  0.10100000352E+00 0.  1.
       -3    1    3    3    0  502 -0.12365889888E+04 -0.13782018306E+02  0.16168158889E+03  0.12471901289E+04  0.10100000352E+00 0. -1.
</event>
<event>
 5   0  0.1526824E-05  0.2505564E+04  0.7818609E-02  0.8401006E-01
        2   -1    0    0  501    0  0.00000000000E+00  0.00000000000E+00  0.13676770007E+04  0.13676770007E+04  0.25500000920E-02 0.  1.
       -2   -1    0    0    0  501  0.00000000000E+00  0.00000000000E+00 -0.11475388045E+04  0.11475388045E+04  0.25500000920E-02 0. -1.
    10030    2    1    2    0    0  0.00000000000E+00  0.00000000000E+00  0.22013819625E+03  0.25152158052E+04  0.25055637532E+04 0.  0.
        2    1    3    3  502    0  0.97434045404E+03 -0.65264068570E+03 -0.33229072244E+03  0.12188914264E+04  0.25500000920E-02 0. -1.
       -2    1    3    3    0  502 -0.97434045404E+03  0.65264068570E+03  0.55242891868E+03  0.12963243789E+04  0.25500000920E-02 0.  1.
</event>
<event>
 5   0  0.1501947E-05  0.2532810E+04  0.7818609E-02  0.8391389E-01
       -2   -1    0    0    0  501  0.00000000000E+00  0.00000000000E+00  0.58528041340E+03  0.58528041341E+03  0.25500000920E-02 0.  1.
        2   -1    0    0  501    0  0.00000000000E+00  0.00000000000E+00 -0.27401943312E+04  0.27401943312E+04  0.25500000920E-02 0. -1.
    10030    2    1    2    0    0  0.00000000000E+00  0.00000000000E+00 -0.21549139178E+04  0.33254747446E+04  0.25328103529E+04 0.  0.
        3    1    3    3  502    0  0.59772282537E+03  0.10678265406E+04 -0.15054410631E+04  0.19400718805E+04  0.10100000352E+00 0. -1.
       -3    1    3    3    0  502 -0.59772282537E+03 -0.10678265406E+04 -0.64947285476E+03  0.13854028642E+04  0.10100000352E+00 0.  1.
</event>
<event>
 5   0  0.1526824E-05  0.2513520E+04  0.7818609E-02  0.8398185E-01
       -2   -1    0    0    0  501  0.00000000000E+00  0.00000000000E+00  0.94473856969E+03  0.94473856969E+03  0.25500000920E-02 0. -1.
        2   -1    0    0  501    0  0.00000000000E+00  0.00000000000E+00 -0.16718336103E+04  0.16718336103E+04  0.25500000920E-02 0.  1.
    10030    2    1    2    0    0  0.00000000000E+00  0.00000000000E+00 -0.72709504065E+03  0.26165721800E+04  0.25135199970E+04 0.  0.
        2    1    3    3  502    0 -0.56774948927E+03  0.22077765519E+03  0.78077689185E+03  0.99030036375E+03  0.25500000920E-02 0. -1.
       -2    1    3    3    0  502  0.56774948927E+03 -0.22077765519E+03 -0.15078719325E+04  0.16262718163E+04  0.25500000920E-02 0.  1.
</event>
<event>
 5   0  0.1526824E-05  0.2503687E+04  0.7818609E-02  0.8401673E-01
       -2   -1    0    0    0  501  0.00000000000E+00  0.00000000000E+00  0.11028460785E+04  0.11028460785E+04  0.25500000920E-02 0. -1.
        2   -1    0    0  501    0  0.00000000000E+00  0.00000000000E+00 -0.14209711777E+04  0.14209711777E+04  0.25500000920E-02 0.  1.
    10030    2    1    2    0    0  0.00000000000E+00  0.00000000000E+00 -0.31812509925E+03  0.25238172562E+04  0.25036872736E+04 0.  0.
        2    1    3    3  502    0 -0.21368665570E+03  0.41237556600E+03  0.10127800515E+04  0.11141988274E+04  0.25500000920E-02 0. -1.
       -2    1    3    3    0  502  0.21368665570E+03 -0.41237556600E+03 -0.13309051508E+04  0.14096184288E+04  0.25500000920E-02 0.  1.
</event>
<event>
 5   0  0.6477703E-06  0.2502666E+04  0.7818609E-02  0.8402036E-01
        1   -1    0    0  501    0  0.00000000000E+00  0.00000000000E+00  0.10616995753E+04  0.10616995753E+04  0.50400001928E-02 0.  1.
       -1   -1    0    0    0  501  0.00000000000E+00  0.00000000000E+00 -0.14748376438E+04  0.14748376438E+04  0.50400001928E-02 0. -1.
    10030    2    1    2    0    0  0.00000000000E+00  0.00000000000E+00 -0.41313806848E+03  0.25365372192E+04  0.25026661784E+04 0.  0.
        5    1    3    3  502    0  0.83680370045E+02 -0.12461105083E+04 -0.12793939036E+03  0.12554618197E+04  0.46999998093E+01 0. -1.
       -5    1    3    3    0  502 -0.83680370045E+02  0.12461105083E+04 -0.28519867811E+03  0.12810753995E+04  0.46999998093E+01 0.  1.
</event>
<event>
 5   0  0.6290861E-06  0.2487769E+04  0.7818609E-02  0.8407356E-01
       -1   -1    0    0    0  501  0.00000000000E+00  0.00000000000E+00  0.96758943239E+03  0.96758943240E+03  0.50400001928E-02 0. -1.
        1   -1    0    0  501    0  0.00000000000E+00  0.00000000000E+00 -0.15990751644E+04  0.15990751644E+04  0.50400001928E-02 0.  1.
    10030    2    1    2    0    0  0.00000000000E+00  0.00000000000E+00 -0.63148573197E+03  0.25666645968E+04  0.24877686634E+04 0.  0.
        1    1    3    3  502    0  0.94212025496E+03  0.28011153336E+03  0.47079589716E+03  0.10898173346E+04  0.50400001928E-02 0. -1.
       -1    1    3    3    0  502 -0.94212025496E+03 -0.28011153336E+03 -0.11022816291E+04  0.14768472622E+04  0.50400001928E-02 0.  1.
</event>
<event>
 5   0  0.1526824E-05  0.2512551E+04  0.7818609E-02  0.8398528E-01
       -2   -1    0    0    0  501  0.00000000000E+00  0.00000000000E+00  0.56871746583E+03  0.56871746584E+03  0.25500000920E-02 0. -1.
        2   -1    0    0  501    0  0.00000000000E+00  0.00000000000E+00 -0.27750649758E+04  0.27750649758E+04  0.25500000920E-02 0.  1.
    10030    2    1    2    0    0  0.00000000000E+00  0.00000000000E+00 -0.22063475100E+04  0.33437824417E+04  0.25125508318E+04 0.  0.
        2    1    3    3  502    0  0.69080133493E+02 -0.12522390364E+04 -0.12005452809E+04  0.17361404439E+04  0.25500000920E-02 0. -1.
       -2    1    3    3    0  502 -0.69080133493E+02  0.12522390364E+04 -0.10058022291E+04  0.16076419978E+04  0.25500000920E-02 0.  1.
</event>
<event>
 5   0  0.1526824E-05  0.2446557E+04  0.7818609E-02  0.8422276E-01
       -2   -1    0    0    0  501  0.00000000000E+00  0.00000000000E+00  0.12292775376E+04  0.12292775376E+04  0.25500000920E-02 0.  1.
        2   -1    0    0  501    0  0.00000000000E+00  0.00000000000E+00 -0.12173083830E+04  0.12173083830E+04  0.25500000920E-02 0. -1.
    10030    2    1    2    0    0  0.00000000000E+00  0.00000000000E+00  0.11969154604E+02  0.24465859207E+04  0.24465566428E+04 0.  0.
        2    1    3    3  502    0  0.12198542758E+03  0.34772060241E+03  0.11724546176E+04  0.12289995493E+04  0.25500000920E-02 0.  1.
       -2    1    3    3    0  502 -0.12198542758E+03 -0.34772060241E+03 -0.11604854630E+04  0.12175863714E+04  0.25500000920E-02 0. -1.
</event>
<event>
 5   0  0.1501947E-05  0.2499667E+04  0.7818609E-02  0.8403104E-01
        2   -1    0    0  501    0  0.00000000000E+00  0.00000000000E+00  0.14316183296E+04  0.14316183296E+04  0.25500000920E-02 0.  1.
       -2   -1    0    0    0  501  0.00000000000E+00  0.00000000000E+00 -0.10911315185E+04  0.10911315185E+04  0.25500000920E-02 0. -1.
    10030    2    1    2    0    0  0.00000000000E+00  0.00000000000E+00  0.34048681109E+03  0.25227498481E+04  0.24996670833E+04 0.  0.
        3    1    3    3  502    0  0.22907772791E+03 -0.56378562570E+03 -0.93151190022E+03  0.11126748256E+04  0.10100000352E+00 0. -1.
       -3    1    3    3    0  502 -0.22907772791E+03  0.56378562570E+03  0.12719987113E+04  0.14100750224E+04  0.10100000352E+00 0.  1.
</event>
<event>
 5   0  0.6104486E-06  0.2504188E+04  0.7818609E-02  0.8401495E-01
       -1   -1    0    0    0  501  0.00000000000E+00  0.00000000000E+00  0.10059730674E+04  0.10059730674E+04  0.50400001928E-02 0.  1.
        1   -1    0    0  501    0  0.00000000000E+00  0.00000000000E+00 -0.15584313062E+04  0.15584313062E+04  0.50400001928E-02 0. -1.
    10030    2    1    2    0    0  0.00000000000E+00  0.00000000000E+00 -0.55245823877E+03  0.25644043736E+04  0.25041884286E+04 0.  0.
        2    1    3    3  502    0  0.25243310725E+03  0.12169541815E+04 -0.12078995945E+03  0.12487154070E+04  0.25500000920E-02 0.  1.
       -2    1    3    3    0  502 -0.25243310725E+03 -0.12169541815E+04 -0.43166827933E+03  0.13156889666E+04  0.25500000920E-02 0. -1.
</event>
<event>
 5   0  0.6290861E-06  0.2189601E+04  0.7818609E-02  0.8522769E-01
       -1   -1    0    0    0  501  0.00000000000E+00  0.00000000000E+00  0.15577728391E+04  0.15577728391E+04  0.50400001928E-02 0. -1.
        1   -1    0    0  501    0  0.00000000000E+00  0.00000000000E+00 -0.76942387303E+03  0.76942387305E+03  0.50400001928E-02 0.  1.
    10030    2    1    2    0    0  0.00000000000E+00  0.00000000000E+00  0.78834896606E+03  0.23271967121E+04  0.21896005217E+04 0.  0.
        1    1    3    3  502    0  0.43682784964E+03 -0.22605466103E+03 -0.64538394950E+03  0.81144298770E+03  0.50400001928E-02 0.  1.
       -1    1    3    3    0  502 -0.43682784964E+03  0.22605466103E+03  0.14337329156E+04  0.15157537244E+04  0.50400001928E-02 0. -1.
</event>
<event>
 5   0  0.1526824E-05  0.2502518E+04  0.7818609E-02  0.8402089E-01
        2   -1    0    0  501    0  0.00000000000E+00  0.00000000000E+00  0.28844561590E+04  0.28844561590E+04  0.25500000920E-02 0. -1.
       -2   -1    0    0    0  501  0.00000000000E+00  0.00000000000E+00 -0.54278850852E+03  0.54278850852E+03  0.25500000920E-02 0.  1.
    10030    2    1    2    0    0  0.00000000000E+00  0.00000000000E+00  0.23416676505E+04  0.34272446676E+04  0.25025184566E+04 0.  0.
        2    1    3    3  502    0 -0.66049831174E+03  0.72940370426E+03  0.11234428651E+03  0.99040851285E+03  0.25500000920E-02 0. -1.
       -2    1    3    3    0  502  0.66049831174E+03 -0.72940370426E+03  0.22293233640E+04  0.24368361547E+04  0.25500000920E-02 0.  1.
</event>
<event>
 5   0  0.1550483E-05  0.2518443E+04  0.7818609E-02  0.8396445E-01
        2   -1    0    0  501    0  0.00000000000E+00  0.00000000000E+00  0.16674851499E+04  0.16674851499E+04  0.25500000920E-02 0. -1.
       -2   -1    0    0    0  501  0.00000000000E+00  0.00000000000E+00 -0.95091607794E+03  0.95091607795E+03  0.25500000920E-02 0.  1.
    10030    2    1    2    0    0  0.00000000000E+00  0.00000000000E+00  0.71656907199E+03  0.26184012279E+04  0.25184427242E+04 0.  0.
        5    1    3    3  502    0 -0.73587355653E+03  0.93577994231E+03  0.78496620800E+03  0.14259691544E+04  0.46999998093E+01 0. -1.
       -5    1    3    3    0  502  0.73587355653E+03 -0.93577994231E+03 -0.68397136008E+02  0.11924320735E+04  0.46999998093E+01 0.  1.
</event>
<event>
 5   0  0.6104486E-06  0.2438494E+04  0.7818609E-02  0.8425231E-01
       -1   -1    0    0    0  501  0.00000000000E+00  0.00000000000E+00  0.12087728991E+04  0.12087728991E+04  0.50400001928E-02 0.  1.
        1   -1    0    0  501    0  0.00000000000E+00  0.00000000000E+00 -0.12298115049E+04  0.12298115049E+04  0.50400001928E-02 0. -1.
    10030    2    1    2    0    0  0.00000000000E+00  0.00000000000E+00 -0.21038605769E+02  0.24385844040E+04  0.24384936482E+04 0.  0.
        2    1    3    3  502    0 -0.11642554295E+04  0.20293257748E+03  0.28930926989E+03  0.12167054655E+04  0.25500000920E-02 0.  1.
       -2    1    3    3    0  502  0.11642554295E+04 -0.20293257748E+03 -0.31034787566E+03  0.12218789384E+04  0.25500000920E-02 0. -1.
</event>
<event>
 5   0  0.6477703E-06  0.2495784E+04  0.7818609E-02  0.8404489E-01
        1   -1    0    0  501    0  0.00000000000E+00  0.00000000000E+00  0.10957369948E+04  0.10957369948E+04  0.50400001928E-02 0.  1.
       -1   -1    0    0    0  501  0.00000000000E+00  0.00000000000E+00 -0.14211757779E+04  0.14211757779E+04  0.50400001928E-02 0. -1.
    10030    2    1    2    0    0  0.00000000000E+00  0.00000000000E+00 -0.32543878308E+03  0.25169127727E+04  0.24957843464E+04 0.  0.
        5    1    3    3  502    0  0.11987333977E+04  0.15463324691E+03 -0.47573319988E+03  0.12989293157E+04  0.46999998093E+01 0.  1.
       -5    1    3    3    0  502 -0.11987333977E+04 -0.15463324691E+03  0.15029441680E+03  0.12179834570E+04  0.46999998093E+01 0. -1.
</event>
<event>
 5   0  0.1468512E-05  0.2500532E+04  0.7818609E-02  0.8402796E-01
        2   -1    0    0  501    0  0.00000000000E+00  0.00000000000E+00  0.12861952882E+04  0.12861952882E+04  0.25500000920E-02 0. -1.
       -2   -1    0    0    0  501  0.00000000000E+00  0.00000000000E+00 -0.12153406034E+04  0.12153406034E+04  0.25500000920E-02 0.  1.
    10030    2    1    2    0    0  0.00000000000E+00  0.00000000000E+00  0.70854684813E+02  0.25015358915E+04  0.25005322294E+04 0.  0.
        4    1    3    3  502    0  0.34657689704E+03 -0.10134070942E+04 -0.60985423865E+03  0.12324906853E+04  0.12699999809E+01 0.  1.
       -4    1    3    3    0  502 -0.34657689704E+03  0.10134070942E+04  0.68070892346E+03  0.12690452062E+04  0.12699999809E+01 0. -1.
</event>
<event>
 5   0  0.6105353E-06  0.2498205E+04  0.7818609E-02  0.8403625E-01
        1   -1    0    0  501    0  0.00000000000E+00  0.00000000000E+00  0.16905757519E+04  0.16905757519E+04  0.50400001928E-02 0.  1.
       -1   -1    0    0    0  501  0.00000000000E+00  0.00000000000E+00 -0.92291444343E+03  0.92291444345E+03  0.50400001928E-02 0. -1.
    10030    2    1    2    0    0  0.00000000000E+00  0.00000000000E+00  0.76766130844E+03  0.26134901953E+04  0.24982047788E+04 0.  0.
        3    1    3    3  502    0  0.25344530976E+03 -0.11973587147E+04  0.64506256454E+03  0.13834768300E+04  0.10100000352E+00 0. -1.
       -3    1    3    3    0  502 -0.25344530976E+03  0.11973587147E+04  0.12259874390E+03  0.12300133653E+04  0.10100000352E+00 0.  1.
</event>
<event>
 5   0  0.6104486E-06  0.2521782E+04  0.7818609E-02  0.8395266E-01
        1   -1    0    0  501    0  0.00000000000E+00  0.00000000000E+00  0.83371720191E+03  0.83371720192E+03  0.50400001928E-02 0. -1.
       -1   -1    0    0    0  501  0.00000000000E+00  0.00000000000E+00 -0.19069371928E+04  0.19069371928E+04  0.50400001928E-02 0.  1.
    10030    2    1    2    0    0  0.00000000000E+00  0.00000000000E+00 -0.10732199909E+04  0.27406543947E+04  0.25217821798E+04 0.  0.
        2    1    3    3  502    0  0.12447763040E+04 -0.10456408441E+03 -0.35012243463E+03  0.12973000478E+04  0.25500000920E-02 0. -1.
       -2    1    3    3    0  502 -0.12447763040E+04  0.10456408441E+03 -0.72309755623E+03  0.14433543469E+04  0.25500000920E-02 0.  1.
</event>
<event>
 5   0  0.1526824E-05  0.2226927E+04  0.7818609E-02  0.8507304E-01
        2   -1    0    0  501    0  0.00000000000E+00  0.00000000000E+00  0.17142423241E+04  0.17142423241E+04  0.25500000920E-02 0. -1.
       -2   -1    0    0    0  501  0.00000000000E+00  0.00000000000E+00 -0.72323524256E+03  0.72323524257E+03  0.25500000920E-02 0.  1.
    10030    2    1    2    0    0  0.00000000000E+00  0.00000000000E+00  0.99100708150E+03  0.24374775666E+04  0.22269265485E+04 0.  0.
        2    1    3    3  502    0 -0.69882934409E+03  0.61256364244E+03  0.11668494093E+04  0.14916883764E+04  0.25500000920E-02 0. -1.
       -2    1    3    3    0  502  0.69882934409E+03 -0.61256364244E+03 -0.17584232777E+03  0.94578919028E+03  0.25500000920E-02 0.  1.
</event>
<event>
 5   0  0.1550483E-05  0.2516134E+04  0.7818609E-02  0.8397260E-01
       -2   -1    0    0    0  501  0.00000000000E+00  0.00000000000E+00  0.75616338387E+03  0.75616338388E+03  0.25500000920E-02 0.  1.
        2   -1    0    0  501    0  0.00000000000E+00  0.00000000000E+00 -0.20931096820E+04  0.20931096820E+04  0.25500000920E-02 0. -1.
    10030    2    1    2    0    0  0.00000000000E+00  0.00000000000E+00 -0.13369462982E+04  0.28492730659E+04  0.25161342571E+04 0.  0.
        5    1    3    3  502    0 -0.88902407141E+03  0.13252916726E+03  0.32828618675E+03  0.95693348261E+03  0.46999998093E+01 0.  1.
       -5    1    3    3    0  502  0.88902407141E+03 -0.13252916726E+03 -0.16652324849E+04  0.18923395833E+04  0.46999998093E+01 0. -1.
</event>
<event>
 5   0  0.6346420E-06  0.2510042E+04  0.7818609E-02  0.8399417E-01
        1   -1    0    0  501    0  0.00000000000E+00  0.00000000000E+00  0.11501903774E+04  0.11501903774E+04  0.50400001928E-02 0.  1.
       -1   -1    0    0    0  501  0.00000000000E+00  0.00000000000E+00 -0.13694063006E+04  0.13694063006E+04  0.50400001928E-02 0. -1.
    10030    2    1    2    0    0  0.00000000000E+00  0.00000000000E+00 -0.21921592317E+03  0.25195966780E+04  0.25100421906E+04 0.  0.
        4    1    3    3  502    0 -0.33495739321E+03 -0.10291495969E+04 -0.74742489953E+03  0.13152912003E+04  0.12699999809E+01 0. -1.
       -4    1    3    3    0  502  0.33495739321E+03  0.10291495969E+04  0.52820897636E+03  0.12043054777E+04  0.12699999809E+01 0.  1.
</event>
<event>
 5   0  0.1550483E-05  0.2490743E+04  0.7818609E-02  0.8406291E-01
       -2   -1    0    0    0  501  0.00000000000E+00  0.00000000000E+00  0.74414043919E+03  0.74414043919E+03  0.25500000920E-02 0. -1.
        2   -1    0    0  501    0  0.00000000000E+00  0.00000000000E+00 -0.20842174563E+04  0.20842174563E+04  0.25500000920E-02 0.  1.
    10030    2    1    2    0    0  0.00000000000E+00  0.00000000000E+00 -0.13400770171E+04  0.28283578955E+04  0.24907432572E+04 0.  0.
        5    1    3    3  502    0 -0.90714100066E+03  0.45795938233E+03  0.14747449447E+03  0.10268409845E+04  0.46999998093E+01 0. -1.
       -5    1    3    3    0  502  0.90714100066E+03 -0.45795938233E+03 -0.14875515116E+04  0.18015169110E+04  0.46999998093E+01 0.  1.
</event>
<event>
 5   0  0.6105353E-06  0.2537429E+04  0.7818609E-02  0.8389771E-01
        1   -1    0    0  501    0  0.00000000000E+00  0.00000000000E+00  0.10864971443E+04  0.10864971443E+04  0.50400001928E-02 0.  1.
       -1   -1    0    0    0  501  0.00000000000E+00  0.00000000000E+00 -0.14814922174E+04  0.14814922174E+04  0.50400001928E-02 0. -1.
    10030    2    1    2    0    0  0.00000000000E+00  0.00000000000E+00 -0.39499507302E+03  0.25679893617E+04  0.25374294580E+04 0.  0.
        3    1    3    3  502    0  0.10270772234E+04  0.58049387182E+03  0.27478789099E+03  0.12113501366E+04  0.10100000352E+00 0.  1.
       -3    1    3    3    0  502 -0.10270772234E+04 -0.58049387182E+03 -0.66978296401E+03  0.13566392251E+04  0.10100000352E+00 0. -1.
</event>
<event>
 5   0  0.1526824E-05  0.2496388E+04  0.7818609E-02  0.8404273E-01
       -2   -1    0    0    0  501  0.00000000000E+00  0.00000000000E+00  0.10251989065E+04  0.10251989065E+04  0.25500000920E-02 0.  1.
        2   -1    0    0  501    0  0.00000000000E+00  0.00000000000E+00 -0.15196941752E+04  0.15196941752E+04  0.25500000920E-02 0. -1.
    10030    2    1    2    0    0  0.00000000000E+00  0.00000000000E+00 -0.49449526869E+03  0.25448930817E+04  0.24963884367E+04 0.  0.
        2    1    3    3  502    0 -0.10408392544E+04 -0.10286640123E+03 -0.94170388999E+03  0.14073855429E+04  0.25500000920E-02 0. -1.
       -2    1    3    3    0  502  0.10408392544E+04  0.10286640123E+03  0.44720862130E+03  0.11375075388E+04  0.25500000920E-02 0.  1.
</event>
<event>
 5   0  0.1501947E-05  0.2548586E+04  0.7818609E-02  0.8385878E-01
        2   -1    0    0  501    0  0.00000000000E+00  0.00000000000E+00  0.18635398784E+04  0.18635398785E+04  0.25500000920E-02 0.  1.
       -2   -1    0    0    0  501  0.00000000000E+00  0.00000000000E+00 -0.87136466210E+03  0.87136466211E+03  0.25500000920E-02 0. -1.
    10030    2    1    2    0    0  0.00000000000E+00  0.00000000000E+00  0.99217521635E+03  0.27349045406E+04  0.25485861151E+04 0.  0.
        3    1    3    3  502    0 -0.89885508705E+03 -0.83266180842E+03  0.12041349697E+03  0.12311643169E+04  0.10100000352E+00 0. -1.
       -3    1    3    3    0  502  0.89885508705E+03  0.83266180842E+03  0.87176171937E+03  0.15037402237E+04  0.10100000352E+00 0.  1.
</event>
<event>
 5   0  0.1572732E-05  0.2457429E+04  0.7818609E-02  0.8418311E-01
       -2   -1    0    0    0  501  0.00000000000E+00  0.00000000000E+00  0.64851682039E+03  0.64851682039E+03  0.25500000920E-02 0.  1.
        2   -1    0    0  501    0  0.00000000000E+00  0.00000000000E+00 -0.23279879884E+04  0.23279879884E+04  0.25500000920E-02 0. -1.
    10030    2    1    2    0    0  0.00000000000E+00  0.00000000000E+00 -0.16794711680E+04  0.29765048088E+04  0.24574290372E+04 0.  0.
        1    1    3    3  502    0 -0.80636186201E+03 -0.88278772598E+03 -0.11827626159E+04  0.16818029098E+04  0.50400001928E-02 0. -1.
       -1    1    3    3    0  502  0.80636186201E+03  0.88278772598E+03 -0.49670855209E+03  0.12947018990E+04  0.50400001928E-02 0.  1.
</event>
<event>
 5   0  0.6290861E-06  0.2511858E+04  0.7818609E-02  0.8398773E-01
        1   -1    0    0  501    0  0.00000000000E+00  0.00000000000E+00  0.19971627784E+04  0.19971627784E+04  0.50400001928E-02 0. -1.
       -1   -1    0    0    0  501  0.00000000000E+00  0.00000000000E+00 -0.78979894022E+03  0.78979894024E+03  0.50400001928E-02 0.  1.
    10030    2    1    2    0    0  0.00000000000E+00  0.00000000000E+00  0.12073638382E+04  0.27869617186E+04  0.25118575165E+04 0.  0.
        1    1    3    3  502    0  0.86628994663E+03  0.22104223814E+03 -0.37498907064E+03  0.96950231861E+03  0.50400001928E-02 0.  1.
       -1    1    3    3    0  502 -0.86628994663E+03 -0.22104223814E+03  0.15823529088E+04  0.18174594000E+04  0.50400001928E-02 0. -1.
</event>
<event>
 5   0  0.1501947E-05  0.2493849E+04  0.7818609E-02  0.8405180E-01
       -2   -1    0    0    0  501  0.00000000000E+00  0.00000000000E+00  0.76697147531E+03  0.76697147532E+03  0.25500000920E-02 0. -1.
        2   -1    0    0  501    0  0.00000000000E+00  0.00000000000E+00 -0.20272205971E+04  0.20272205971E+04  0.25500000920E-02 0.  1.
    10030    2    1    2    0    0  0.00000000000E+00  0.00000000000E+00 -0.12602491218E+04  0.27941920724E+04  0.24938487301E+04 0.  0.
        3    1    3    3  502    0  0.82246497042E+03 -0.40567037227E+03  0.31649488124E+03  0.97014746227E+03  0.10100000352E+00 0. -1.
       -3    1    3    3    0  502 -0.82246497042E+03  0.40567037227E+03 -0.15767440030E+04  0.18240446102E+04  0.10100000352E+00 0.  1.
</event>
<event>
 5   0  0.6346420E-06  0.2506214E+04  0.7818609E-02  0.8400775E-01
        1   -1    0    0  501    0  0.00000000000E+00  0.00000000000E+00  0.19879966636E+04  0.19879966636E+04  0.50400001928E-02 0.  1.
       -1   -1    0    0    0  501  0.00000000000E+00  0.00000000000E+00 -0.78987942132E+03  0.78987942134E+03  0.50400001928E-02 0. -1.
    10030    2    1    2    0    0  0.00000000000E+00  0.00000000000E+00  0.11981172422E+04  0.27778760849E+04  0.25062143996E+04 0.  0.
        4    1    3    3  502    0 -0.10845042786E+04 -0.43987930315E+03  0.10955314865E+04  0.16030702363E+04  0.12699999809E+01 0.  1.
       -4    1    3    3    0  502  0.10845042786E+04  0.43987930315E+03  0.10258575571E+03  0.11748058486E+04  0.12699999809E+01 0. -1.
</event>
<event>
 5   0  0.1550483E-05  0.2524802E+04  0.7818609E-02  0.8394203E-01
       -2   -1    0    0    0  501  0.00000000000E+00  0.00000000000E+00  0.53082907342E+03  0.53082907342E+03  0.25500000920E-02 0.  1.
        2   -1    0    0  501    0  0.00000000000E+00  0.00000000000E+00 -0.30022021337E+04  0.30022021337E+04  0.25500000920E-02 0. -1.
    10030    2    1    2    0    0  0.00000000000E+00  0.00000000000E+00 -0.24713730603E+04  0.35330312071E+04  0.25248019145E+04 0.  0.
        5    1    3    3  502    0 -0.87266429081E+03 -0.19515054887E+03 -0.24825888524E+04  0.26387300357E+04  0.46999998093E+01 0. -1.
       -5    1    3    3    0  502  0.87266429081E+03  0.19515054887E+03  0.11215792156E+02  0.89430117140E+03  0.46999998093E+01 0.  1.
</event>
<event>
 5   0  0.6346420E-06  0.2540119E+04  0.7818609E-02  0.8388831E-01
        1   -1    0    0  501    0  0.00000000000E+00  0.00000000000E+00  0.10866580569E+04  0.10866580569E+04  0.50400001928E-02 0.  1.
       -1   -1    0    0    0  501  0.00000000000E+00  0.00000000000E+00 -0.14844149881E+04  0.14844149881E+04  0.50400001928E-02 0. -1.
    10030    2    1    2    0    0  0.00000000000E+00  0.00000000000E+00 -0.39775693118E+03  0.25710730450E+04  0.25401192938E+04 0.  0.
        4    1    3    3  502    0 -0.54715665612E+02 -0.11711317967E+04 -0.69320090416E+03  0.13620104977E+04  0.12699999809E+01 0. -1.
       -4    1    3    3    0  502  0.54715665612E+02  0.11711317967E+04  0.29544397298E+03  0.12090625474E+04  0.12699999809E+01 0.  1.
</event>
<event>
 5   0  0.6105353E-06  0.2295141E+04  0.7818609E-02  0.8479839E-01
       -1   -1    0    0    0  501  0.00000000000E+00  0.00000000000E+00  0.53101621048E+03  0.53101621051E+03  0.50400001928E-02 0.  1.
        1   -1    0    0  501    0  0.00000000000E+00  0.00000000000E+00 -0.24799964600E+04  0.24799964600E+04  0.50400001928E-02 0. -1.
    10030    2    1    2    0    0  0.00000000000E+00  0.00000000000E+00 -0.19489802495E+04  0.30110126705E+04  0.22951412351E+04 0.  0.
        3    1    3    3  502    0  0.51492474331E+02  0.95607571576E+03 -0.18044061432E+04  0.20426976744E+04  0.10100000352E+00 0. -1.
       -3    1    3    3    0  502 -0.51492474331E+02 -0.95607571576E+03 -0.14457410626E+03  0.96831499606E+03  0.10100000352E+00 0.  1.
</event>
<event>
 5   0  0.1572732E-05  0.2520101E+04  0.7818609E-02  0.8395859E-01
        2   -1    0    0  501    0  0.00000000000E+00  0.00000000000E+00  0.25131406088E+04  0.25131406088E+04  0.25500000920E-02 0. -1.
       -2   -1    0    0    0  501  0.00000000000E+00  0.00000000000E+00 -0.63176992404E+03  0.63176992405E+03  0.25500000920E-02 0.  1.
    10030    2    1    2    0    0  0.00000000000E+00  0.00000000000E+00  0.18813706847E+04  0.31449105328E+04  0.25201005151E+04 0.  0.
        1    1    3    3  502    0 -0.23203779973E+03  0.76649243516E+03  0.21546944283E+04  0.22987083924E+04  0.50400001928E-02 0. -1.
       -1    1    3    3    0  502  0.23203779973E+03 -0.76649243516E+03 -0.27332374360E+03  0.84620214045E+03  0.50400001928E-02 0.  1.
</event>
<event>
 5   0  0.1468512E-05  0.2432263E+04  0.7818609E-02  0.8427523E-01
        2   -1    0    0  501    0  0.00000000000E+00  0.00000000000E+00  0.16788613940E+04  0.16788613940E+04  0.25500000920E-02 0. -1.
       -2   -1    0    0    0  501  0.00000000000E+00  0.00000000000E+00 -0.88093973339E+03  0.88093973340E+03  0.25500000920E-02 0.  1.
    10030    2    1    2    0    0  0.00000000000E+00  0.00000000000E+00  0.79792166063E+03  0.25598011274E+04  0.24322629043E+04 0.  0.
        4    1    3    3  502    0 -0.77276196825E+03 -0.68056412308E+03 -0.28199497873E+03  0.10676382187E+04  0.12699999809E+01 0. -1.
       -4    1    3    3    0  502  0.77276196825E+03  0.68056412308E+03  0.10799166394E+04  0.14921629087E+04  0.12699999809E+01 0.  1.
</event>
<event>
 5   0  0.1501947E-05  0.2495925E+04  0.7818609E-02  0.8404439E-01
        2   -1    0    0  501    0  0.00000000000E+00  0.00000000000E+00  0.16015381926E+04  0.16015381926E+04  0.25500000920E-02 0. -1.
       -2   -1    0    0    0  501  0.00000000000E+00  0.00000000000E+00 -0.97244674895E+03  0.97244674896E+03  0.25500000920E-02 0.  1.
    10030    2    1    2    0    0  0.00000000000E+00  0.00000000000E+00  0.62909144360E+03  0.25739849415E+04  0.24959251661E+04 0.  0.
        3    1    3    3  502    0 -0.10261914603E+04  0.51006421325E+03  0.82414181838E+03  0.14115396423E+04  0.10100000352E+00 0. -1.
       -3    1    3    3    0  502  0.10261914603E+04 -0.51006421325E+03 -0.19505037479E+03  0.11624452992E+04  0.10100000352E+00 0.  1.
</event>
<event>
 5   0  0.6346420E-06  0.2505367E+04  0.7818609E-02  0.8401076E-01
       -1   -1    0    0    0  501  0.00000000000E+00  0.00000000000E+00  0.16752141982E+04  0.16752141982E+04  0.50400001928E-02 0.  1.
        1   -1    0    0  501    0  0.00000000000E+00  0.00000000000E+00 -0.93672526683E+03  0.93672526685E+03  0.50400001928E-02 0. -1.
    10030    2    1    2    0    0  0.00000000000E+00  0.00000000000E+00  0.73848893138E+03  0.26119394651E+04  0.25053666134E+04 0.  0.
        4    1    3    3  502    0 -0.33913085053E+03  0.11164883846E+03  0.16210448869E+04  0.16598985918E+04  0.12699999809E+01 0.  1.
       -4    1    3    3    0  502  0.33913085053E+03 -0.11164883846E+03 -0.88255595549E+03  0.95204087327E+03  0.12699999809E+01 0. -1.
</event>
<event>
 5   0  0.6104486E-06  0.2503239E+04  0.7818609E-02  0.8401833E-01
        1   -1    0    0  501    0  0.00000000000E+00  0.00000000000E+00  0.11839489054E+04  0.11839489054E+04  0.50400001928E-02 0.  1.
       -1   -1    0    0    0  501  0.00000000000E+00  0.00000000000E+00 -0.13231576784E+04  0.13231576784E+04  0.50400001928E-02 0. -1.
    10030    2    1    2    0    0  0.00000000000E+00  0.00000000000E+00 -0.13920877295E+03  0.25071065838E+04  0.25032387701E+04 0.  0.
        2    1    3    3  502    0  0.57140758986E+03  0.49450755811E+03 -0.10688968688E+04  0.13090396766E+04  0.25500000920E-02 0. -1.
       -2    1    3    3    0  502 -0.57140758986E+03 -0.49450755811E+03  0.92968809581E+03  0.11980669073E+04  0.25500000920E-02 0.  1.
</event>
<event>
 5   0  0.1550483E-05  0.2511231E+04  0.7818609E-02  0.8398995E-01
       -2   -1    0    0    0  501  0.00000000000E+00  0.00000000000E+00  0.90361323309E+03  0.90361323310E+03  0.25500000920E-02 0.  1.
        2   -1    0    0  501    0  0.00000000000E+00  0.00000000000E+00 -0.17447405823E+04  0.17447405823E+04  0.25500000920E-02 0. -1.
    10030    2    1    2    0    0  0.00000000000E+00  0.00000000000E+00 -0.84112734922E+03  0.26483538154E+04  0.25112313143E+04 0.  0.
        5    1    3    3  502    0  0.96360979636E+03  0.27504423372E+03  0.37728804726E+03  0.10707761348E+04  0.46999998093E+01 0.  1.
       -5    1    3    3    0  502 -0.96360979636E+03 -0.27504423372E+03 -0.12184153965E+04  0.15775776807E+04  0.46999998093E+01 0. -1.
</event>
<event>
 5   0  0.6290861E-06  0.2478520E+04  0.7818609E-02  0.8410678E-01
        1   -1    0    0  501    0  0.00000000000E+00  0.00000000000E+00  0.12775334327E+04  0.12775334327E+04  0.50400001928E-02 0. -1.
       -1   -1    0    0    0  501  0.00000000000E+00  0.00000000000E+00 -0.12021334147E+04  0.12021334147E+04  0.50400001928E-02 0.  1.
    10030    2    1    2    0    0  0.00000000000E+00  0.00000000000E+00  0.75400017998E+02  0.24796668475E+04  0.24785202262E+04 0.  0.
        1    1    3    3  502    0 -0.10529095828E+03 -0.50746628841E+03  0.11639016395E+04  0.12740781947E+04  0.50400001928E-02 0. -1.
       -1    1    3    3    0  502  0.10529095828E+03  0.50746628841E+03 -0.10885016215E+04  0.12055886528E+04  0.50400001928E-02 0.  1.
</event>
<event>
 5   0  0.1501947E-05  0.2503207E+04  0.7818609E-02  0.8401844E-01
       -2   -1    0    0    0  501  0.00000000000E+00  0.00000000000E+00  0.12615785384E+04  0.12615785384E+04  0.25500000920E-02 0. -1.
        2   -1    0    0  501    0  0.00000000000E+00  0.00000000000E+00 -0.12417076136E+04  0.12417076136E+04  0.25500000920E-02 0.  1.
    10030    2    1    2    0    0  0.00000000000E+00  0.00000000000E+00  0.19870924796E+02  0.25032861520E+04  0.25032072837E+04 0.  0.
        3    1    3    3  502    0  0.10453276777E+04 -0.16747406107E+03  0.67760472205E+03  0.12569429917E+04  0.10100000352E+00 0. -1.
       -3    1    3    3    0  502 -0.10453276777E+04  0.16747406107E+03 -0.65773379725E+03  0.12463431603E+04  0.10100000352E+00 0.  1.
</event>
<event>
 5   0  0.6104486E-06  0.2465535E+04  0.7818609E-02  0.8415368E-01
       -1   -1    0    0    0  501  0.00000000000E+00  0.00000000000E+00  0.87803294285E+03  0.87803294286E+03  0.50400001928E-02 0. -1.
        1   -1    0    0  501    0  0.00000000000E+00  0.00000000000E+00 -0.17308182885E+04  0.17308182885E+04  0.50400001928E-02 0.  1.
    10030    2    1    2    0    0  0.00000000000E+00  0.00000000000E+00 -0.85278534566E+03  0.26088512314E+04  0.24655348105E+04 0.  0.
        2    1    3    3  502    0  0.63553265860E+03 -0.57711780715E+03 -0.13625511356E+04  0.16104385491E+04  0.25500000920E-02 0.  1.
       -2    1    3    3    0  502 -0.63553265860E+03  0.57711780715E+03  0.50976578992E+03  0.99841268224E+03  0.25500000920E-02 0. -1.
</event>
<event>
 5   0  0.6346420E-06  0.2498646E+04  0.7818609E-02  0.8403468E-01
        1   -1    0    0  501    0  0.00000000000E+00  0.00000000000E+00  0.15249528067E+04  0.15249528067E+04  0.50400001928E-02 0. -1.
       -1   -1    0    0    0  501  0.00000000000E+00  0.00000000000E+00 -0.10235120405E+04  0.10235120405E+04  0.50400001928E-02 0.  1.
    10030    2    1    2    0    0  0.00000000000E+00  0.00000000000E+00  0.50144076614E+03  0.25484648472E+04  0.24986456803E+04 0.  0.
        4    1    3    3  502    0  0.43340344309E+03 -0.92873499910E+03  0.97940107448E+03  0.14176090154E+04  0.12699999809E+01 0. -1.
       -4    1    3    3    0  502 -0.43340344309E+03  0.92873499910E+03 -0.47796030834E+03  0.11308558318E+04  0.12699999809E+01 0.  1.
</event>
<event>
 5   0  0.5164625E-06  0.2501051E+04  0.7818609E-02  0.8402611E-01
       -3   -1    0    0    0  501  0.00000000000E+00  0.00000000000E+00  0.10407016570E+04  0.10407016619E+04  0.10100000352E+00 0. -1.
        3   -1    0    0  501    0  0.00000000000E+00  0.00000000000E+00 -0.15026540023E+04  0.15026540057E+04  0.10100000352E+00 0.  1.
    10030    2    1    2    0    0  0.00000000000E+00  0.00000000000E+00 -0.46195234529E+03  0.25433556676E+04  0.25010513954E+04 0.  0.
        1    1    3    3  502    0  0.50910786370E+03 -0.91872475329E+03 -0.92110729233E+03  0.13970270696E+04  0.50400001928E-02 0.  1.
       -1    1    3    3    0  502 -0.50910786370E+03  0.91872475329E+03  0.45915494704E+03  0.11463285980E+04  0.50400001928E-02 0. -1.
</event>
<event>
 5   0  0.1468512E-05  0.2496997E+04  0.7818609E-02  0.8404056E-01
        2   -1    0    0  501    0  0.00000000000E+00  0.00000000000E+00  0.10162638700E+04  0.10162638700E+04  0.25500000920E-02 0.  1.
       -2   -1    0    0    0  501  0.00000000000E+00  0.00000000000E+00 -0.15338025106E+04  0.15338025106E+04  0.25500000920E-02 0. -1.
    10030    2    1    2    0    0  0.00000000000E+00  0.00000000000E+00 -0.51753864065E+03  0.25500663806E+04  0.24969966562E+04 0.  0.
        4    1    3    3  502    0 -0.92071408139E+03 -0.19892132376E+03  0.57807439285E+03  0.11051948829E+04  0.12699999809E+01 0.  1.
       -4    1    3    3    0  502  0.92071408139E+03  0.19892132376E+03 -0.10956130335E+04  0.14448714977E+04  0.12699999809E+01 0. -1.
</event>
<event>
 5   0  0.6477703E-06  0.2556391E+04  0.7818609E-02  0.8383167E-01
        1   -1    0    0  501    0  0.00000000000E+00  0.00000000000E+00  0.14104727868E+04  0.14104727869E+04  0.50400001928E-02 0.  1.
       -1   -1    0    0    0  501  0.00000000000E+00  0.00000000000E+00 -0.11583235516E+04  0.11583235516E+04  0.50400001928E-02 0. -1.
    10030    2    1    2    0    0  0.00000000000E+00  0.00000000000E+00  0.25214923528E+03  0.25687963384E+04  0.25563910874E+04 0.  0.
        5    1    3    3  502    0 -0.61970907642E+03  0.53430134934E+03  0.11127992295E+04  0.13812535923E+04  0.46999998093E+01 0.  1.
       -5    1    3    3    0  502  0.61970907642E+03 -0.53430134934E+03 -0.86064999418E+03  0.11875427461E+04  0.46999998093E+01 0. -1.
</event>
<event>
 5   0  0.1526824E-05  0.2569794E+04  0.7818609E-02  0.8378534E-01
       -2   -1    0    0    0  501  0.00000000000E+00  0.00000000000E+00  0.17931322066E+04  0.17931322066E+04  0.25500000920E-02 0. -1.
        2   -1    0    0  501    0  0.00000000000E+00  0.00000000000E+00 -0.92071331495E+03  0.92071331495E+03  0.25500000920E-02 0.  1.
    10030    2    1    2    0    0  0.00000000000E+00  0.00000000000E+00  0.87241889166E+03  0.27138455216E+04  0.25697943094E+04 0.  0.
        2    1    3    3  502    0  0.10296445328E+04 -0.72343375608E+03  0.16196738679E+03  0.12687622700E+04  0.25500000920E-02 0.  1.
       -2    1    3    3    0  502 -0.10296445328E+04  0.72343375608E+03  0.71045150486E+03  0.14450832516E+04  0.25500000920E-02 0. -1.
</event>
<event>
 5   0  0.6346420E-06  0.2505307E+04  0.7818609E-02  0.8401097E-01
        1   -1    0    0  501    0  0.00000000000E+00  0.00000000000E+00  0.14801153360E+04  0.14801153360E+04  0.50400001928E-02 0. -1.
       -1   -1    0    0    0  501  0.00000000000E+00  0.00000000000E+00 -0.10601473900E+04  0.10601473901E+04  0.50400001928E-02 0.  1.
    10030    2    1    2    0    0  0.00000000000E+00  0.00000000000E+00  0.41996794595E+03  0.25402627261E+04  0.25053066962E+04 0.  0.
        4    1    3    3  502    0 -0.35038975823E+03 -0.86002601467E+03  0.10623806657E+04  0.14110535143E+04  0.12699999809E+01 0. -1.
       -4    1    3    3    0  502  0.35038975823E+03  0.86002601467E+03 -0.64241271970E+03  0.11292092118E+04  0.12699999809E+01 0.  1.
</event>
<event>
 5   0  0.6290861E-06  0.2480282E+04  0.7818609E-02  0.8410044E-01
        1   -1    0    0  501    0  0.00000000000E+00  0.00000000000E+00  0.61194124663E+03  0.61194124665E+03  0.50400001928E-02 0. -1.
       -1   -1    0    0    0  501  0.00000000000E+00  0.00000000000E+00 -0.25132300258E+04  0.25132300258E+04  0.50400001928E-02 0.  1.
    10030    2    1    2    0    0  0.00000000000E+00  0.00000000000E+00 -0.19012887792E+04  0.31251712725E+04  0.24802815285E+04 0.  0.
        1    1    3    3  502    0  0.64145339678E+03 -0.39472752944E+03 -0.21920399179E+04  0.23178246880E+04  0.50400001928E-02 0.  1.
       -1    1    3    3    0  502 -0.64145339678E+03  0.39472752944E+03  0.29075113870E+03  0.80734658445E+03  0.50400001928E-02 0. -1.
</event>
<event>
 5   0  0.1526824E-05  0.2498139E+04  0.7818609E-02  0.8403649E-01
        2   -1    0    0  501    0  0.00000000000E+00  0.00000000000E+00  0.16271825291E+04  0.16271825291E+04  0.25500000920E-02 0.  1.
       -2   -1    0    0    0  501  0.00000000000E+00  0.00000000000E+00 -0.95881988141E+03  0.95881988142E+03  0.25500000920E-02 0. -1.
    10030    2    1    2    0    0  0.00000000000E+00  0.00000000000E+00  0.66836264767E+03  0.25860024105E+04  0.24981392752E+04 0.  0.
        2    1    3    3  502    0  0.39704973763E+03  0.44251857871E+03  0.14713178593E+04  0.15868986829E+04  0.25500000920E-02 0.  1.
       -2    1    3    3    0  502 -0.39704973763E+03 -0.44251857871E+03 -0.80295521163E+03  0.99910372762E+03  0.25500000920E-02 0. -1.
</event>
<event>
 5   0  0.1468512E-05  0.2494488E+04  0.7818609E-02  0.8404952E-01
        2   -1    0    0  501    0  0.00000000000E+00  0.00000000000E+00  0.14542772033E+04  0.14542772033E+04  0.25500000920E-02 0.  1.
       -2   -1    0    0    0  501  0.00000000000E+00  0.00000000000E+00 -0.10696846641E+04  0.10696846641E+04  0.25500000920E-02 0. -1.
    10030    2    1    2    0    0  0.00000000000E+00  0.00000000000E+00  0.38459253921E+03  0.25239618675E+04  0.24944883418E+04 0.  0.
        4    1    3    3  502    0  0.39321292374E+03  0.33065166853E+03  0.13422411117E+04  0.14372055330E+04  0.12699999809E+01 0.  1.
       -4    1    3    3    0  502 -0.39321292374E+03 -0.33065166853E+03 -0.95764857246E+03  0.10867563345E+04  0.12699999809E+01 0. -1.
</event>
<event>
 5   0  0.6104486E-06  0.2483381E+04  0.7818609E-02  0.8408930E-01
       -1   -1    0    0    0  501  0.00000000000E+00  0.00000000000E+00  0.12161647269E+04  0.12161647269E+04  0.50400001928E-02 0. -1.
        1   -1    0    0  501    0  0.00000000000E+00  0.00000000000E+00 -0.12677520371E+04  0.12677520371E+04  0.50400001928E-02 0.  1.
    10030    2    1    2    0    0  0.00000000000E+00  0.00000000000E+00 -0.51587310233E+02  0.24839167640E+04  0.24833810098E+04 0.  0.
        2    1    3    3  502    0  0.10355454864E+04 -0.64458035531E+03  0.20654296375E+03  0.12371330910E+04  0.25500000920E-02 0.  1.
       -2    1    3    3    0  502 -0.10355454864E+04  0.64458035531E+03 -0.25813027398E+03  0.12467836730E+04  0.25500000920E-02 0. -1.
</event>
<event>
 5   0  0.6290861E-06  0.2488293E+04  0.7818609E-02  0.8407168E-01
        1   -1    0    0  501    0  0.00000000000E+00  0.00000000000E+00  0.24863165029E+04  0.24863165029E+04  0.50400001928E-02 0.  1.
       -1   -1    0    0    0  501  0.00000000000E+00  0.00000000000E+00 -0.62256781324E+03  0.62256781326E+03  0.50400001928E-02 0. -1.
    10030    2    1    2    0    0  0.00000000000E+00  0.00000000000E+00  0.18637486897E+04  0.31088843162E+04  0.24882930923E+04 0.  0.
        1    1    3    3  502    0 -0.62608620831E+03 -0.32424313044E+03 -0.34886149711E+03  0.78665233239E+03  0.50400001928E-02 0. -1.
       -1    1    3    3    0  502  0.62608620831E+03  0.32424313044E+03  0.22126101868E+04  0.23222319838E+04  0.50400001928E-02 0.  1.
</event>
<event>
 5   0  0.6290861E-06  0.2483418E+04  0.7818609E-02  0.8408917E-01
       -1   -1    0    0    0  501  0.00000000000E+00  0.00000000000E+00  0.13970141193E+04  0.13970141193E+04  0.50400001928E-02 0. -1.
        1   -1    0    0  501    0  0.00000000000E+00  0.00000000000E+00 -0.11036687219E+04  0.11036687219E+04  0.50400001928E-02 0.  1.
    10030    2    1    2    0    0  0.00000000000E+00  0.00000000000E+00  0.29334539743E+03  0.25006828412E+04  0.24834176350E+04 0.  0.
        1    1    3    3  502    0 -0.35242402637E+03  0.54899397366E+03 -0.91719681939E+03  0.11255430170E+04  0.50400001928E-02 0.  1.
       -1    1    3    3    0  502  0.35242402637E+03 -0.54899397366E+03  0.12105422168E+04  0.13751398242E+04  0.50400001928E-02 0. -1.
</event>
<event>
 5   0  0.1468512E-05  0.2490147E+04  0.7818609E-02  0.8406504E-01
        2   -1    0    0  501    0  0.00000000000E+00  0.00000000000E+00  0.10931982288E+04  0.10931982288E+04  0.25500000920E-02 0. -1.
       -2   -1    0    0    0  501  0.00000000000E+00  0.00000000000E+00 -0.14180482563E+04  0.14180482563E+04  0.25500000920E-02 0.  1.
    10030    2    1    2    0    0  0.00000000000E+00  0.00000000000E+00 -0.32485002752E+03  0.25112464852E+04  0.24901468569E+04 0.  0.
        4    1    3    3  502    0  0.80066550243E+03 -0.55132333368E+03  0.62210207505E+03  0.11541383235E+04  0.12699999809E+01 0. -1.
       -4    1    3    3    0  502 -0.80066550243E+03  0.55132333368E+03 -0.94695210257E+03  0.13571081617E+04  0.12699999809E+01 0.  1.
</event>
<event>
 5   0  0.6105353E-06  0.2497803E+04  0.7818609E-02  0.8403769E-01
        1   -1    0    0  501    0  0.00000000000E+00  0.00000000000E+00  0.17712648036E+04  0.17712648036E+04  0.50400001928E-02 0.  1.
       -1   -1    0    0    0  501  0.00000000000E+00  0.00000000000E+00 -0.88058803704E+03  0.88058803705E+03  0.50400001928E-02 0. -1.
    10030    2    1    2    0    0  0.00000000000E+00  0.00000000000E+00  0.89067676653E+03  0.26518528406E+04  0.24978027116E+04 0.  0.
        3    1    3    3  502    0  0.27251163887E+02 -0.12405545835E+04  0.59561793618E+03  0.13764007544E+04  0.10100000352E+00 0.  1.
       -3    1    3    3    0  502 -0.27251163887E+02  0.12405545835E+04  0.29505883035E+03  0.12754520862E+04  0.10100000352E+00 0. -1.
</event>
<event>
 5   0  0.6290861E-06  0.2520801E+04  0.7818609E-02  0.8395612E-01
        1   -1    0    0  501    0  0.00000000000E+00  0.00000000000E+00  0.13094913732E+04  0.13094913733E+04  0.50400001928E-02 0. -1.
       -1   -1    0    0    0  501  0.00000000000E+00  0.00000000000E+00 -0.12131496537E+04  0.12131496537E+04  0.50400001928E-02 0.  1.
    10030    2    1    2    0    0  0.00000000000E+00  0.00000000000E+00  0.96341719574E+02  0.25226410269E+04  0.25208006712E+04 0.  0.
        1    1    3    3  502    0 -0.68172946591E+03  0.40765356291E+03  0.10274927458E+04  0.12987216155E+04  0.50400001928E-02 0. -1.
       -1    1    3    3    0  502  0.68172946591E+03 -0.40765356291E+03 -0.93115102618E+03  0.12239194114E+04  0.50400001928E-02 0.  1.
</event>
<event>
 5   0  0.6290861E-06  0.2497005E+04  0.7818609E-02  0.8404053E-01
        1   -1    0    0  501    0  0.00000000000E+00  0.00000000000E+00  0.11968834889E+04  0.11968834889E+04  0.50400001928E-02 0. -1.
       -1   -1    0    0    0  501  0.00000000000E+00  0.00000000000E+00 -0.13023479182E+04  0.13023479182E+04  0.50400001928E-02 0.  1.
    10030    2    1    2    0    0  0.00000000000E+00  0.00000000000E+00 -0.10546442928E+03  0.24992314070E+04  0.24970051822E+04 0.  0.
        1    1    3    3  502    0  0.79522515551E+03  0.88518251848E+03 -0.43099452136E+03  0.12655778982E+04  0.50400001928E-02 0.  1.
       -1    1    3    3    0  502 -0.79522515551E+03 -0.88518251848E+03  0.32553009207E+03  0.12336535088E+04  0.50400001928E-02 0. -1.
</event>
<event>
 5   0  0.1468512E-05  0.2500198E+04  0.7818609E-02  0.8402915E-01
       -2   -1    0    0    0  501  0.00000000000E+00  0.00000000000E+00  0.13496759462E+04  0.13496759462E+04  0.25500000920E-02 0.  1.
        2   -1    0    0  501    0  0.00000000000E+00  0.00000000000E+00 -0.11578691109E+04  0.11578691109E+04  0.25500000920E-02 0. -1.
    10030    2    1    2    0    0  0.00000000000E+00  0.00000000000E+00  0.19180683527E+03  0.25075450571E+04  0.25001984624E+04 0.  0.
        4    1    3    3  502    0 -0.95979777631E+03 -0.29262710003E+03  0.84368401772E+03  0.13109716724E+04  0.12699999809E+01 0.  1.
       -4    1    3    3    0  502  0.95979777631E+03  0.29262710003E+03 -0.65187718246E+03  0.11965733847E+04  0.12699999809E+01 0. -1.
</event>
<event>
 5   0  0.1501947E-05  0.2703974E+04  0.7818609E-02  0.8333717E-01
        2   -1    0    0  501    0  0.00000000000E+00  0.00000000000E+00  0.17505670868E+04  0.17505670868E+04  0.25500000920E-02 0.  1.
       -2   -1    0    0    0  501  0.00000000000E+00  0.00000000000E+00 -0.10441579835E+04  0.10441579835E+04  0.25500000920E-02 0. -1.
    10030    2    1    2    0    0  0.00000000000E+00  0.00000000000E+00  0.70640910330E+03  0.27947250703E+04  0.27039738159E+04 0.  0.
        3    1    3    3  502    0  0.31222651733E+03  0.11960421442E+04 -0.21277468309E+03  0.12543027086E+04  0.10100000352E+00 0. -1.
       -3    1    3    3    0  502 -0.31222651733E+03 -0.11960421442E+04  0.91918378639E+03  0.15404223616E+04  0.10100000352E+00 0.  1.
</event>
<event>
 5   0  0.1550483E-05  0.2505873E+04  0.7818609E-02  0.8400896E-01
        2   -1    0    0  501    0  0.00000000000E+00  0.00000000000E+00  0.19586967623E+04  0.19586967623E+04  0.25500000920E-02 0.  1.
       -2   -1    0    0    0  501  0.00000000000E+00  0.00000000000E+00 -0.80147656771E+03  0.80147656771E+03  0.25500000920E-02 0. -1.
    10030    2    1    2    0    0  0.00000000000E+00  0.00000000000E+00  0.11572201946E+04  0.27601733300E+04  0.25058727488E+04 0.  0.
        5    1    3    3  502    0  0.11805389237E+03  0.76439987496E+03  0.16643290642E+04  0.18352812358E+04  0.46999998093E+01 0.  1.
       -5    1    3    3    0  502 -0.11805389237E+03 -0.76439987496E+03 -0.50710886963E+03  0.92489209425E+03  0.46999998093E+01 0. -1.
</event>
<event>
 5   0  0.1501947E-05  0.2471895E+04  0.7818609E-02  0.8413067E-01
       -2   -1    0    0    0  501  0.00000000000E+00  0.00000000000E+00  0.94143889279E+03  0.94143889279E+03  0.25500000920E-02 0. -1.
        2   -1    0    0  501    0  0.00000000000E+00  0.00000000000E+00 -0.16225868465E+04  0.16225868465E+04  0.25500000920E-02 0.  1.
    10030    2    1    2    0    0  0.00000000000E+00  0.00000000000E+00 -0.68114795368E+03  0.25640257393E+04  0.24718951144E+04 0.  0.
        3    1    3    3  502    0  0.38381865840E+02  0.26947591335E+03  0.90996220514E+03  0.94980085307E+03  0.10100000352E+00 0. -1.
       -3    1    3    3    0  502 -0.38381865840E+02 -0.26947591335E+03 -0.15911101588E+04  0.16142248862E+04  0.10100000352E+00 0.  1.
</event>
<event>
 5   0  0.6477703E-06  0.2503720E+04  0.7818609E-02  0.8401661E-01
        1   -1    0    0  501    0  0.00000000000E+00  0.00000000000E+00  0.19745128038E+04  0.19745128038E+04  0.50400001928E-02 0. -1.
       -1   -1    0    0    0  501  0.00000000000E+00  0.00000000000E+00 -0.79369146133E+03  0.79369146135E+03  0.50400001928E-02 0.  1.
    10030    2    1    2    0    0  0.00000000000E+00  0.00000000000E+00  0.11808213424E+04  0.27682042651E+04  0.25037203939E+04 0.  0.
        5    1    3    3  502    0  0.74586217875E+02 -0.88811885496E+03  0.15623736001E+04  0.17987083034E+04  0.46999998093E+01 0. -1.
       -5    1    3    3    0  502 -0.74586217875E+02  0.88811885496E+03 -0.38155225767E+03  0.96949596171E+03  0.46999998093E+01 0.  1.
</event>
<event>
 5   0  0.1550483E-05  0.2473150E+04  0.7818609E-02  0.8412614E-01
       -2   -1    0    0    0  501  0.00000000000E+00  0.00000000000E+00  0.75087194853E+03  0.75087194853E+03  0.25500000920E-02 0. -1.
        2   -1    0    0  501    0  0.00000000000E+00  0.00000000000E+00 -0.20364567369E+04  0.20364567369E+04  0.25500000920E-02 0.  1.
    10030    2    1    2    0    0  0.00000000000E+00  0.00000000000E+00 -0.12855847884E+04  0.27873286854E+04  0.24731504104E+04 0.  0.
        5    1    3    3  502    0  0.93698874341E+03  0.73624981277E+03 -0.10150290087E+04  0.15653490571E+04  0.46999998093E+01 0. -1.
       -5    1    3    3    0  502 -0.93698874341E+03 -0.73624981277E+03 -0.27055577965E+03  0.12219796283E+04  0.46999998093E+01 0.  1.
</event>
<event>
 5   0  0.1526824E-05  0.2494138E+04  0.7818609E-02  0.8405077E-01
       -2   -1    0    0    0  501  0.00000000000E+00  0.00000000000E+00  0.10370610790E+04  0.10370610790E+04  0.25500000920E-02 0. -1.
        2   -1    0    0  501    0  0.00000000000E+00  0.00000000000E+00 -0.14996042783E+04  0.14996042783E+04  0.25500000920E-02 0.  1.
    10030    2    1    2    0    0  0.00000000000E+00  0.00000000000E+00 -0.46254319931E+03  0.25366653572E+04  0.24941381123E+04 0.  0.
        2    1    3    3  502    0  0.67297676835E+03 -0.68286040868E+03  0.57981302899E+03  0.11204370652E+04  0.25500000920E-02 0. -1.
       -2    1    3    3    0  502 -0.67297676835E+03  0.68286040868E+03 -0.10423562283E+04  0.14162282920E+04  0.25500000920E-02 0.  1.
</event>
<event>
 5   0  0.1550483E-05  0.2498819E+04  0.7818609E-02  0.8403407E-01
        2   -1    0    0  501    0  0.00000000000E+00  0.00000000000E+00  0.26225168641E+04  0.26225168641E+04  0.25500000920E-02 0. -1.
       -2   -1    0    0    0  501  0.00000000000E+00  0.00000000000E+00 -0.59523874550E+03  0.59523874551E+03  0.25500000920E-02 0.  1.
    10030    2    1    2    0    0  0.00000000000E+00  0.00000000000E+00  0.20272781186E+04  0.32177556096E+04  0.24988186395E+04 0.  0.
        5    1    3    3  502    0  0.10196282948E+04 -0.45677073854E+03  0.17337448125E+04  0.20625650370E+04  0.46999998093E+01 0. -1.
       -5    1    3    3    0  502 -0.10196282948E+04  0.45677073854E+03  0.29353330610E+03  0.11551905726E+04  0.46999998093E+01 0.  1.
</event>
<event>
 5   0  0.6290861E-06  0.2434288E+04  0.7818609E-02  0.8426777E-01
       -1   -1    0    0    0  501  0.00000000000E+00  0.00000000000E+00  0.16263144564E+04  0.16263144564E+04  0.50400001928E-02 0. -1.
        1   -1    0    0  501    0  0.00000000000E+00  0.00000000000E+00 -0.91091849506E+03  0.91091849508E+03  0.50400001928E-02 0.  1.
    10030    2    1    2    0    0  0.00000000000E+00  0.00000000000E+00  0.71539596131E+03  0.25372329515E+04  0.24342883290E+04 0.  0.
        1    1    3    3  502    0 -0.28115495440E+03  0.11763518129E+03 -0.87050367228E+03  0.92231382280E+03  0.50400001928E-02 0.  1.
       -1    1    3    3    0  502  0.28115495440E+03 -0.11763518129E+03  0.15858996336E+04  0.16149191287E+04  0.50400001928E-02 0. -1.
</event>
<event>
 5   0  0.1526824E-05  0.2522627E+04  0.7818609E-02  0.8394969E-01
       -2   -1    0    0    0  501  0.00000000000E+00  0.00000000000E+00  0.16794149386E+04  0.16794149386E+04  0.25500000920E-02 0. -1.
        2   -1    0    0  501    0  0.00000000000E+00  0.00000000000E+00 -0.94730081786E+03  0.94730081786E+03  0.25500000920E-02 0.  1.
    10030    2    1    2    0    0  0.00000000000E+00  0.00000000000E+00  0.73211412074E+03  0.26267157565E+04  0.25226265240E+04 0.  0.
        2    1    3    3  502    0  0.10652636986E+04 -0.32265296485E+03  0.98385073669E+03  0.14855483686E+04  0.25500000920E-02 0. -1.
       -2    1    3    3    0  502 -0.10652636986E+04  0.32265296485E+03 -0.25173661596E+03  0.11411673879E+04  0.25500000920E-02 0.  1.
</event>
<event>
 5   0  0.6477703E-06  0.2506163E+04  0.7818609E-02  0.8400793E-01
        1   -1    0    0  501    0  0.00000000000E+00  0.00000000000E+00  0.21355476177E+04  0.21355476177E+04  0.50400001928E-02 0.  1.
       -1   -1    0    0    0  501  0.00000000000E+00  0.00000000000E+00 -0.73527400172E+03  0.73527400173E+03  0.50400001928E-02 0. -1.
    10030    2    1    2    0    0  0.00000000000E+00  0.00000000000E+00  0.14002736159E+04  0.28708216194E+04  0.25061625188E+04 0.  0.
        5    1    3    3  502    0  0.34207818461E+03 -0.12044963912E+04  0.75580306940E+03  0.14625626176E+04  0.46999998093E+01 0. -1.
       -5    1    3    3    0  502 -0.34207818461E+03  0.12044963912E+04  0.64447054654E+03  0.14082590018E+04  0.46999998093E+01 0.  1.
</event>
<event>
 5   0  0.6105353E-06  0.2513425E+04  0.7818609E-02  0.8398218E-01
        1   -1    0    0  501    0  0.00000000000E+00  0.00000000000E+00  0.15858319656E+04  0.15858319656E+04  0.50400001928E-02 0. -1.
       -1   -1    0    0    0  501  0.00000000000E+00  0.00000000000E+00 -0.99589795194E+03  0.99589795195E+03  0.50400001928E-02 0.  1.
    10030    2    1    2    0    0  0.00000000000E+00  0.00000000000E+00  0.58993401369E+03  0.25817299176E+04  0.25134253971E+04 0.  0.
        3    1    3    3  502    0 -0.77673614353E+03  0.65027260897E+03  0.10589216236E+04  0.14654311713E+04  0.10100000352E+00 0. -1.
       -3    1    3    3    0  502  0.77673614353E+03 -0.65027260897E+03 -0.46898760988E+03  0.11162987463E+04  0.10100000352E+00 0.  1.
</event>
<event>
 5   0  0.1468512E-05  0.2422766E+04  0.7818609E-02  0.8431029E-01
        2   -1    0    0  501    0  0.00000000000E+00  0.00000000000E+00  0.11749739386E+04  0.11749739386E+04  0.25500000920E-02 0.  1.
       -2   -1    0    0    0  501  0.00000000000E+00  0.00000000000E+00 -0.12489200445E+04  0.12489200445E+04  0.25500000920E-02 0. -1.
    10030    2    1    2    0    0  0.00000000000E+00  0.00000000000E+00 -0.73946105892E+02  0.24238939832E+04  0.24227657780E+04 0.  0.
        4    1    3    3  502    0 -0.31341112792E+03 -0.10989560219E+04 -0.43905075496E+03  0.12242132378E+04  0.12699999809E+01 0. -1.
       -4    1    3    3    0  502  0.31341112792E+03  0.10989560219E+04  0.36510464907E+03  0.11996807454E+04  0.12699999809E+01 0.  1.
</event>
<event>
 5   0  0.6477703E-06  0.2495175E+04  0.7818609E-02  0.8404707E-01
        1   -1    0    0  501    0  0.00000000000E+00  0.00000000000E+00  0.91074888990E+03  0.91074888991E+03  0.50400001928E-02 0.  1.
       -1   -1    0    0    0  501  0.00000000000E+00  0.00000000000E+00 -0.17090049786E+04  0.17090049786E+04  0.50400001928E-02 0. -1.
    10030    2    1    2    0    0  0.00000000000E+00  0.00000000000E+00 -0.79825608866E+03  0.26197538685E+04  0.24951748533E+04 0.  0.
        5    1    3    3  502    0 -0.39233920806E+03  0.11817530676E+04 -0.48033255915E+03  0.13346204795E+04  0.46999998093E+01 0. -1.
       -5    1    3    3    0  502  0.39233920806E+03 -0.11817530676E+04 -0.31792352951E+03  0.12851333890E+04  0.46999998093E+01 0.  1.
</event>
<event>
 5   0  0.6290861E-06  0.2586042E+04  0.7818609E-02  0.8372958E-01
       -1   -1    0    0    0  501  0.00000000000E+00  0.00000000000E+00  0.13060596812E+04  0.13060596812E+04  0.50400001928E-02 0.  1.
        1   -1    0    0  501    0  0.00000000000E+00  0.00000000000E+00 -0.12801129037E+04  0.12801129037E+04  0.50400001928E-02 0. -1.
    10030    2    1    2    0    0  0.00000000000E+00  0.00000000000E+00  0.25946777552E+02  0.25861725849E+04  0.25860424211E+04 0.  0.
        1    1    3    3  502    0 -0.92745998806E+01 -0.11515544761E+04  0.60099968628E+03  0.12989858939E+04  0.50400001928E-02 0.  1.
       -1    1    3    3    0  502  0.92745998806E+01  0.11515544761E+04 -0.57505290873E+03  0.12871866910E+04  0.50400001928E-02 0. -1.
</event>
<event>
 5   0  0.6105353E-06  0.2495492E+04  0.7818609E-02  0.8404593E-01
        1   -1    0    0  501    0  0.00000000000E+00  0.00000000000E+00  0.14895660074E+04  0.14895660074E+04  0.50400001928E-02 0. -1.
       -1   -1    0    0    0  501  0.00000000000E+00  0.00000000000E+00 -0.10451833473E+04  0.10451833473E+04  0.50400001928E-02 0.  1.
    10030    2    1    2    0    0  0.00000000000E+00  0.00000000000E+00  0.44438266004E+03  0.25347493547E+04  0.24954916034E+04 0.  0.
        3    1    3    3  502    0  0.57932165599E+03  0.78152314289E+03 -0.57143079110E+03  0.11282398518E+04  0.10100000352E+00 0.  1.
       -3    1    3    3    0  502 -0.57932165599E+03 -0.78152314289E+03  0.10158134511E+04  0.14065095029E+04  0.10100000352E+00 0. -1.
</event>
<event>
 5   0  0.1550483E-05  0.2491176E+04  0.7818609E-02  0.8406136E-01
       -2   -1    0    0    0  501  0.00000000000E+00  0.00000000000E+00  0.13004155401E+04  0.13004155401E+04  0.25500000920E-02 0.  1.
        2   -1    0    0  501    0  0.00000000000E+00  0.00000000000E+00 -0.11930724634E+04  0.11930724634E+04  0.25500000920E-02 0. -1.
    10030    2    1    2    0    0  0.00000000000E+00  0.00000000000E+00  0.10734307671E+03  0.24934880034E+04  0.24911764063E+04 0.  0.
        5    1    3    3  502    0  0.46961960307E+02 -0.92080923275E+03 -0.78458560835E+03  0.12106575633E+04  0.46999998093E+01 0. -1.
       -5    1    3    3    0  502 -0.46961960307E+02  0.92080923275E+03  0.89192868507E+03  0.12828304401E+04  0.46999998093E+01 0.  1.
</event>
<event>
 5   0  0.6346420E-06  0.2503343E+04  0.7818609E-02  0.8401795E-01
        1   -1    0    0  501    0  0.00000000000E+00  0.00000000000E+00  0.18584309554E+04  0.18584309554E+04  0.50400001928E-02 0. -1.
       -1   -1    0    0    0  501  0.00000000000E+00  0.00000000000E+00 -0.84301313431E+03  0.84301313432E+03  0.50400001928E-02 0.  1.
    10030    2    1    2    0    0  0.00000000000E+00  0.00000000000E+00  0.10154178211E+04  0.27014440897E+04  0.25033431284E+04 0.  0.
        4    1    3    3  502    0  0.82297890742E+03 -0.51978109277E+03 -0.34146332077E+03  0.10315354957E+04  0.12699999809E+01 0. -1.
       -4    1    3    3    0  502 -0.82297890742E+03  0.51978109277E+03  0.13568811418E+04  0.16699085940E+04  0.12699999809E+01 0.  1.
</event>
<event>
 5   0  0.5164625E-06  0.2429386E+04  0.7818609E-02  0.8428583E-01
        3   -1    0    0  501    0  0.00000000000E+00  0.00000000000E+00  0.61991358139E+03  0.61991358961E+03  0.10100000352E+00 0. -1.
       -3   -1    0    0    0  501  0.00000000000E+00  0.00000000000E+00 -0.23801366297E+04  0.23801366318E+04  0.10100000352E+00 0.  1.
    10030    2    1    2    0    0  0.00000000000E+00  0.00000000000E+00 -0.17602230483E+04  0.30000502214E+04  0.24293859618E+04 0.  0.
        2    1    3    3  502    0  0.86078637191E+02  0.20997267094E+03  0.59350370854E+03  0.63540908584E+03  0.25500000920E-02 0. -1.
       -2    1    3    3    0  502 -0.86078637191E+02 -0.20997267094E+03 -0.23537267568E+04  0.23646411356E+04  0.25500000920E-02 0.  1.
</event>
<event>
 5   0  0.1550483E-05  0.2493407E+04  0.7818609E-02  0.8405338E-01
       -2   -1    0    0    0  501  0.00000000000E+00  0.00000000000E+00  0.92988388433E+03  0.92988388433E+03  0.25500000920E-02 0.  1.
        2   -1    0    0  501    0  0.00000000000E+00  0.00000000000E+00 -0.16714664697E+04  0.16714664697E+04  0.25500000920E-02 0. -1.
    10030    2    1    2    0    0  0.00000000000E+00  0.00000000000E+00 -0.74158258534E+03  0.26013503540E+04  0.24934070934E+04 0.  0.
        5    1    3    3  502    0 -0.71984301861E+01  0.77451829778E+03  0.64839139986E+03  0.10101306393E+04  0.46999998093E+01 0.  1.
       -5    1    3    3    0  502  0.71984301861E+01 -0.77451829778E+03 -0.13899739852E+04  0.15912197147E+04  0.46999998093E+01 0. -1.
</event>
<event>
 5   0  0.6477703E-06  0.2476177E+04  0.7818609E-02  0.8411522E-01
        1   -1    0    0  501    0  0.00000000000E+00  0.00000000000E+00  0.98748769228E+03  0.98748769229E+03  0.50400001928E-02 0. -1.
       -1   -1    0    0    0  501  0.00000000000E+00  0.00000000000E+00 -0.15522852685E+04  0.15522852685E+04  0.50400001928E-02 0.  1.
    10030    2    1    2    0    0  0.00000000000E+00  0.00000000000E+00 -0.56479757623E+03  0.25397729608E+04  0.24761765669E+04 0.  0.
        5    1    3    3  502    0  0.16036509836E+02  0.12245846674E+04 -0.96142691369E+02  0.12284666395E+04  0.46999998093E+01 0. -1.
       -5    1    3    3    0  502 -0.16036509836E+02 -0.12245846674E+04 -0.46865488486E+03  0.13113063213E+04  0.46999998093E+01 0.  1.
</event>
<event>
 5   0  0.1468512E-05  0.2466243E+04  0.7818609E-02  0.8415111E-01
        2   -1    0    0  501    0  0.00000000000E+00  0.00000000000E+00  0.17097007042E+04  0.17097007043E+04  0.25500000920E-02 0.  1.
       -2   -1    0    0    0  501  0.00000000000E+00  0.00000000000E+00 -0.88938879570E+03  0.88938879571E+03  0.25500000920E-02 0. -1.
    10030    2    1    2    0    0  0.00000000000E+00  0.00000000000E+00  0.82031190855E+03  0.25990895000E+04  0.24662430135E+04 0.  0.
        4    1    3    3  502    0 -0.42693223293E+03 -0.45601268742E+03  0.15306133777E+04  0.16531780387E+04  0.12699999809E+01 0.  1.
       -4    1    3    3    0  502  0.42693223293E+03  0.45601268742E+03 -0.71030146916E+03  0.94591146129E+03  0.12699999809E+01 0. -1.
</event>
<event>
 5   0  0.6346420E-06  0.2236195E+04  0.7818609E-02  0.8503512E-01
       -1   -1    0    0    0  501  0.00000000000E+00  0.00000000000E+00  0.90807346950E+03  0.90807346952E+03  0.50400001928E-02 0.  1.
        1   -1    0    0  501    0  0.00000000000E+00  0.00000000000E+00 -0.13766974933E+04  0.13766974933E+04  0.50400001928E-02 0. -1.
    10030    2    1    2    0    0  0.00000000000E+00  0.00000000000E+00 -0.46862402379E+03  0.22847709628E+04  0.22361954022E+04 0.  0.
        4    1    3    3  502    0  0.10683903170E+04 -0.43560035448E+02 -0.56819099641E+03  0.12108666183E+04  0.12699999809E+01 0. -1.
       -4    1    3    3    0  502 -0.10683903170E+04  0.43560035448E+02  0.99566972625E+02  0.10739043445E+04  0.12699999809E+01 0.  1.
</event>
<event>
 5   0  0.6104486E-06  0.2499574E+04  0.7818609E-02  0.8403137E-01
        1   -1    0    0  501    0  0.00000000000E+00  0.00000000000E+00  0.11598918845E+04  0.11598918846E+04  0.50400001928E-02 0. -1.
       -1   -1    0    0    0  501  0.00000000000E+00  0.00000000000E+00 -0.13466489163E+04  0.13466489163E+04  0.50400001928E-02 0.  1.
    10030    2    1    2    0    0  0.00000000000E+00  0.00000000000E+00 -0.18675703179E+03  0.25065408009E+04  0.24995736832E+04 0.  0.
        2    1    3    3  502    0  0.19876041251E+02  0.61119318948E+03  0.99962055498E+03  0.11718333609E+04  0.25500000920E-02 0. -1.
       -2    1    3    3    0  502 -0.19876041251E+02 -0.61119318948E+03 -0.11863775868E+04  0.13347074400E+04  0.25500000920E-02 0.  1.
</event>
<event>
 5   0  0.6105353E-06  0.2499576E+04  0.7818609E-02  0.8403136E-01
        1   -1    0    0  501    0  0.00000000000E+00  0.00000000000E+00  0.21988940803E+04  0.21988940803E+04  0.50400001928E-02 0.  1.
       -1   -1    0    0    0  501  0.00000000000E+00  0.00000000000E+00 -0.71034367258E+03  0.71034367260E+03  0.50400001928E-02 0. -1.
    10030    2    1    2    0    0  0.00000000000E+00  0.00000000000E+00  0.14885504077E+04  0.29092377529E+04  0.24995763614E+04 0.  0.
        3    1    3    3  502    0  0.38938457576E+03 -0.11867375132E+04  0.79638084998E+03  0.14812794272E+04  0.10100000352E+00 0.  1.
       -3    1    3    3    0  502 -0.38938457576E+03  0.11867375132E+04  0.69216955776E+03  0.14279583257E+04  0.10100000352E+00 0. -1.
</event>
<event>
 5   0  0.1501947E-05  0.2450750E+04  0.7818609E-02  0.8420744E-01
       -2   -1    0    0    0  501  0.00000000000E+00  0.00000000000E+00  0.10795131449E+04  0.10795131449E+04  0.25500000920E-02 0.  1.
        2   -1    0    0  501    0  0.00000000000E+00  0.00000000000E+00 -0.13909459763E+04  0.13909459763E+04  0.25500000920E-02 0. -1.
    10030    2    1    2    0    0  0.00000000000E+00  0.00000000000E+00 -0.31143283145E+03  0.24704591212E+04  0.24507504689E+04 0.  0.
        3    1    3    3  502    0 -0.12172779290E+04  0.10571484910E+03 -0.62216689658E+02  0.12234427295E+04  0.10100000352E+00 0.  1.
       -3    1    3    3    0  502  0.12172779290E+04 -0.10571484910E+03 -0.24921614180E+03  0.12470163917E+04  0.10100000352E+00 0. -1.
</event>
<event>
 5   0  0.6104486E-06  0.2506856E+04  0.7818609E-02  0.8400547E-01
        1   -1    0    0  501    0  0.00000000000E+00  0.00000000000E+00  0.18530208289E+04  0.18530208289E+04  0.50400001928E-02 0.  1.
       -1   -1    0    0    0  501  0.00000000000E+00  0.00000000000E+00 -0.84784874055E+03  0.84784874057E+03  0.50400001928E-02 0. -1.
    10030    2    1    2    0    0  0.00000000000E+00  0.00000000000E+00  0.10051720884E+04  0.27008695695E+04  0.25068557007E+04 0.  0.
        2    1    3    3  502    0  0.10941033975E+04  0.25193975541E+03 -0.97808711325E+02  0.11269882114E+04  0.25500000920E-02 0.  1.
       -2    1    3    3    0  502 -0.10941033975E+04 -0.25193975541E+03  0.11029807997E+04  0.15738813580E+04  0.25500000920E-02 0. -1.
</event>
<event>
 5   0  0.6104486E-06  0.2474385E+04  0.7818609E-02  0.8412168E-01
        1   -1    0    0  501    0  0.00000000000E+00  0.00000000000E+00  0.13911867690E+04  0.13911867690E+04  0.50400001928E-02 0.  1.
       -1   -1    0    0    0  501  0.00000000000E+00  0.00000000000E+00 -0.11002440129E+04  0.11002440129E+04  0.50400001928E-02 0. -1.
    10030    2    1    2    0    0  0.00000000000E+00  0.00000000000E+00  0.29094275605E+03  0.24914307819E+04  0.24743847021E+04 0.  0.
        2    1    3    3  502    0 -0.34905797897E+02 -0.11969744635E+04  0.45854527087E+03  0.12822753395E+04  0.25500000920E-02 0. -1.
       -2    1    3    3    0  502  0.34905797897E+02  0.11969744635E+04 -0.16760251481E+03  0.12091554424E+04  0.25500000920E-02 0.  1.
</event>
<event>
 5   0  0.1550483E-05  0.2492198E+04  0.7818609E-02  0.8405770E-01
       -2   -1    0    0    0  501  0.00000000000E+00  0.00000000000E+00  0.12127444598E+04  0.12127444598E+04  0.25500000920E-02 0.  1.
        2   -1    0    0  501    0  0.00000000000E+00  0.00000000000E+00 -0.12803706507E+04  0.12803706507E+04  0.25500000920E-02 0. -1.
    10030    2    1    2    0    0  0.00000000000E+00  0.00000000000E+00 -0.67626190828E+02  0.24931151105E+04  0.24921977555E+04 0.  0.
        5    1    3    3  502    0 -0.11388296661E+04 -0.53136162586E+02  0.46934705725E+03  0.12329092466E+04  0.46999998093E+01 0. -1.
       -5    1    3    3    0  502  0.11388296661E+04  0.53136162586E+02 -0.53697324808E+03  0.12602058639E+04  0.46999998093E+01 0.  1.
</event>
<event>
 5   0  0.1468512E-05  0.2493888E+04  0.7818609E-02  0.8405166E-01
        2   -1    0    0  501    0  0.00000000000E+00  0.00000000000E+00  0.13859334553E+04  0.13859334553E+04  0.25500000920E-02 0. -1.
       -2   -1    0    0    0  501  0.00000000000E+00  0.00000000000E+00 -0.11218930850E+04  0.11218930850E+04  0.25500000920E-02 0.  1.
    10030    2    1    2    0    0  0.00000000000E+00  0.00000000000E+00  0.26404037035E+03  0.25078265403E+04  0.24938878562E+04 0.  0.
        4    1    3    3  502    0 -0.23115828679E+03 -0.42312593445E+03  0.12884030264E+04  0.13756648143E+04  0.12699999809E+01 0. -1.
       -4    1    3    3    0  502  0.23115828679E+03  0.42312593445E+03 -0.10243626560E+04  0.11321617260E+04  0.12699999809E+01 0.  1.
</event>
<event>
 5   0  0.6104486E-06  0.2280655E+04  0.7818609E-02  0.8485588E-01
       -1   -1    0    0    0  501  0.00000000000E+00  0.00000000000E+00  0.74528307281E+03  0.74528307283E+03  0.50400001928E-02 0. -1.
        1   -1    0    0  501    0  0.00000000000E+00  0.00000000000E+00 -0.17447687812E+04  0.17447687812E+04  0.50400001928E-02 0.  1.
    10030    2    1    2    0    0  0.00000000000E+00  0.00000000000E+00 -0.99948570839E+03  0.24900518540E+04  0.22806548521E+04 0.  0.
        2    1    3    3  502    0 -0.90264909220E+03  0.12916112975E+03 -0.12473676373E+04  0.15451161780E+04  0.25500000920E-02 0.  1.
       -2    1    3    3    0  502  0.90264909220E+03 -0.12916112975E+03  0.24788192889E+03  0.94493567600E+03  0.25500000920E-02 0. -1.
</event>
<event>
 5   0  0.6105353E-06  0.2490811E+04  0.7818609E-02  0.8406266E-01
        1   -1    0    0  501    0  0.00000000000E+00  0.00000000000E+00  0.22964375271E+04  0.22964375271E+04  0.50400001928E-02 0.  1.
       -1   -1    0    0    0  501  0.00000000000E+00  0.00000000000E+00 -0.67540933986E+03  0.67540933988E+03  0.50400001928E-02 0. -1.
    10030    2    1    2    0    0  0.00000000000E+00  0.00000000000E+00  0.16210281872E+04  0.29718468669E+04  0.24908113973E+04 0.  0.
        3    1    3    3  502    0  0.18301054685E+02  0.11043358465E+04  0.12393083274E+03  0.11114186664E+04  0.10100000352E+00 0. -1.
       -3    1    3    3    0  502 -0.18301054685E+02 -0.11043358465E+04  0.14970973545E+04  0.18604282006E+04  0.10100000352E+00 0.  1.
</event>
<event>
 5   0  0.6105353E-06  0.2491322E+04  0.7818609E-02  0.8406084E-01
        1   -1    0    0  501    0  0.00000000000E+00  0.00000000000E+00  0.11081045143E+04  0.11081045143E+04  0.50400001928E-02 0. -1.
       -1   -1    0    0    0  501  0.00000000000E+00  0.00000000000E+00 -0.14002937257E+04  0.14002937258E+04  0.50400001928E-02 0.  1.
    10030    2    1    2    0    0  0.00000000000E+00  0.00000000000E+00 -0.29218921144E+03  0.25083982401E+04  0.24913223789E+04 0.  0.
        3    1    3    3  502    0  0.51135546168E+03  0.58031042437E+03 -0.11292231942E+04  0.13687182432E+04  0.10100000352E+00 0.  1.
       -3    1    3    3    0  502 -0.51135546168E+03 -0.58031042437E+03  0.83703398273E+03  0.11396799969E+04  0.10100000352E+00 0. -1.
</event>
<event>
 5   0  0.1526824E-05  0.2478941E+04  0.7818609E-02  0.8410526E-01
        2   -1    0    0  501    0  0.00000000000E+00  0.00000000000E+00  0.11632263482E+04  0.11632263482E+04  0.25500000920E-02 0.  1.
       -2   -1    0    0    0  501  0.00000000000E+00  0.00000000000E+00 -0.13207122740E+04  0.13207122740E+04  0.25500000920E-02 0. -1.
    10030    2    1    2    0    0  0.00000000000E+00  0.00000000000E+00 -0.15748592584E+03  0.24839386222E+04  0.24789411574E+04 0.  0.
        2    1    3    3  502    0 -0.99793443138E+03 -0.89474768277E+02 -0.80987718588E+03  0.12883244621E+04  0.25500000920E-02 0. -1.
       -2    1    3    3    0  502  0.99793443138E+03  0.89474768277E+02  0.65239126004E+03  0.11956141600E+04  0.25500000920E-02 0.  1.
</event>
<event>
 5   0  0.6290861E-06  0.2196474E+04  0.7818609E-02  0.8519897E-01
        1   -1    0    0  501    0  0.00000000000E+00  0.00000000000E+00  0.12946684294E+04  0.12946684295E+04  0.50400001928E-02 0. -1.
       -1   -1    0    0    0  501  0.00000000000E+00  0.00000000000E+00 -0.93160842477E+03  0.93160842478E+03  0.50400001928E-02 0.  1.
    10030    2    1    2    0    0  0.00000000000E+00  0.00000000000E+00  0.36306000467E+03  0.22262768542E+04  0.21964735520E+04 0.  0.
        1    1    3    3  502    0  0.34059782203E+03  0.32437944450E+03  0.11874146615E+04  0.12771775440E+04  0.50400001928E-02 0. -1.
       -1    1    3    3    0  502 -0.34059782203E+03 -0.32437944450E+03 -0.82435465687E+03  0.94909931025E+03  0.50400001928E-02 0.  1.
</event>
<event>
 5   0  0.1550483E-05  0.2261458E+04  0.7818609E-02  0.8493274E-01
       -2   -1    0    0    0  501  0.00000000000E+00  0.00000000000E+00  0.77426677562E+03  0.77426677563E+03  0.25500000920E-02 0.  1.
        2   -1    0    0  501    0  0.00000000000E+00  0.00000000000E+00 -0.16513023607E+04  0.16513023607E+04  0.25500000920E-02 0. -1.
    10030    2    1    2    0    0  0.00000000000E+00  0.00000000000E+00 -0.87703558505E+03  0.24255691363E+04  0.22614584271E+04 0.  0.
        5    1    3    3  502    0 -0.29946205569E+03  0.76918882299E+03  0.39034766028E+03  0.91308397976E+03  0.46999998093E+01 0.  1.
       -5    1    3    3    0  502  0.29946205569E+03 -0.76918882299E+03 -0.12673832453E+04  0.15124851565E+04  0.46999998093E+01 0. -1.
</event>
<event>
 5   0  0.6105353E-06  0.2492409E+04  0.7818609E-02  0.8405695E-01
        1   -1    0    0  501    0  0.00000000000E+00  0.00000000000E+00  0.24399957189E+04  0.24399957189E+04  0.50400001928E-02 0.  1.
       -1   -1    0    0    0  501  0.00000000000E+00  0.00000000000E+00 -0.63648705422E+03  0.63648705424E+03  0.50400001928E-02 0. -1.
    10030    2    1    2    0    0  0.00000000000E+00  0.00000000000E+00  0.18035086647E+04  0.30764827731E+04  0.24924090254E+04 0.  0.
        3    1    3    3  502    0 -0.69609414936E+03 -0.38208184799E+03 -0.28378643865E+03  0.84324869184E+03  0.10100000352E+00 0. -1.
       -3    1    3    3    0  502  0.69609414936E+03  0.38208184799E+03  0.20872951033E+04  0.22332340813E+04  0.10100000352E+00 0.  1.
</event>
<event>
 5   0  0.1526824E-05  0.2399128E+04  0.7818609E-02  0.8439830E-01
       -2   -1    0    0    0  501  0.00000000000E+00  0.00000000000E+00  0.11657055727E+04  0.11657055727E+04  0.25500000920E-02 0. -1.
        2   -1    0    0  501    0  0.00000000000E+00  0.00000000000E+00 -0.12344055687E+04  0.12344055687E+04  0.25500000920E-02 0.  1.
    10030    2    1    2    0    0  0.00000000000E+00  0.00000000000E+00 -0.68699995963E+02  0.24001111414E+04  0.23991277169E+04 0.  0.
        2    1    3    3  502    0  0.11940099148E+03  0.11073224989E+04 -0.48010388972E+03  0.12128146843E+04  0.25500000920E-02 0.  1.
       -2    1    3    3    0  502 -0.11940099148E+03 -0.11073224989E+04  0.41140389375E+03  0.11872964572E+04  0.25500000920E-02 0. -1.
</event>
<event>
 5   0  0.1550483E-05  0.2501447E+04  0.7818609E-02  0.8402470E-01
       -2   -1    0    0    0  501  0.00000000000E+00  0.00000000000E+00  0.14871002071E+04  0.14871002071E+04  0.25500000920E-02 0. -1.
        2   -1    0    0  501    0  0.00000000000E+00  0.00000000000E+00 -0.10519191050E+04  0.10519191050E+04  0.25500000920E-02 0.  1.
    10030    2    1    2    0    0  0.00000000000E+00  0.00000000000E+00  0.43518110207E+03  0.25390193121E+04  0.25014468764E+04 0.  0.
        5    1    3    3  502    0 -0.24066112160E+03 -0.47933895444E+03  0.13644302600E+04  0.14660749071E+04  0.46999998093E+01 0. -1.
       -5    1    3    3    0  502  0.24066112160E+03  0.47933895444E+03 -0.92924915795E+03  0.10729444050E+04  0.46999998093E+01 0.  1.
</event>
<event>
 5   0  0.6290861E-06  0.2504591E+04  0.7818609E-02  0.8401352E-01
        1   -1    0    0  501    0  0.00000000000E+00  0.00000000000E+00  0.12640262088E+04  0.12640262088E+04  0.50400001928E-02 0. -1.
       -1   -1    0    0    0  501  0.00000000000E+00  0.00000000000E+00 -0.12406734361E+04  0.12406734361E+04  0.50400001928E-02 0.  1.
    10030    2    1    2    0    0  0.00000000000E+00  0.00000000000E+00  0.23352772760E+02  0.25046996449E+04  0.25045907768E+04 0.  0.
        1    1    3    3  502    0 -0.99570083501E+03  0.60157867434E+02 -0.74545930192E+03  0.12452906057E+04  0.50400001928E-02 0.  1.
       -1    1    3    3    0  502  0.99570083501E+03 -0.60157867434E+02  0.76881207468E+03  0.12594090392E+04  0.50400001928E-02 0. -1.
</event>
<event>
 5   0  0.6346420E-06  0.2439739E+04  0.7818609E-02  0.8424774E-01
        1   -1    0    0  501    0  0.00000000000E+00  0.00000000000E+00  0.17899420203E+04  0.17899420203E+04  0.50400001928E-02 0.  1.
       -1   -1    0    0    0  501  0.00000000000E+00  0.00000000000E+00 -0.83135742574E+03  0.83135742575E+03  0.50400001928E-02 0. -1.
    10030    2    1    2    0    0  0.00000000000E+00  0.00000000000E+00  0.95858459455E+03  0.26212994461E+04  0.24397389944E+04 0.  0.
        4    1    3    3  502    0 -0.28721258033E+03 -0.11854430697E+04  0.49832009851E+03  0.13176080113E+04  0.12699999809E+01 0. -1.
       -4    1    3    3    0  502  0.28721258033E+03  0.11854430697E+04  0.46026449605E+03  0.13036914348E+04  0.12699999809E+01 0.  1.
</event>
<event>
 5   0  0.1501947E-05  0.2468379E+04  0.7818609E-02  0.8414338E-01
       -2   -1    0    0    0  501  0.00000000000E+00  0.00000000000E+00  0.90019671570E+03  0.90019671571E+03  0.25500000920E-02 0. -1.
        2   -1    0    0  501    0  0.00000000000E+00  0.00000000000E+00 -0.16921013615E+04  0.16921013615E+04  0.25500000920E-02 0.  1.
    10030    2    1    2    0    0  0.00000000000E+00  0.00000000000E+00 -0.79190464583E+03  0.25922980772E+04  0.24683792969E+04 0.  0.
        3    1    3    3  502    0  0.62345332659E+03  0.36268208759E+03 -0.14477245987E+04  0.16174482591E+04  0.10100000352E+00 0.  1.
       -3    1    3    3    0  502 -0.62345332659E+03 -0.36268208759E+03  0.65581995286E+03  0.97484981811E+03  0.10100000352E+00 0. -1.
</event>
<event>
 5   0  0.6477703E-06  0.2489895E+04  0.7818609E-02  0.8406594E-01
       -1   -1    0    0    0  501  0.00000000000E+00  0.00000000000E+00  0.14505382941E+04  0.14505382941E+04  0.50400001928E-02 0. -1.
        1   -1    0    0  501    0  0.00000000000E+00  0.00000000000E+00 -0.10684958320E+04  0.10684958320E+04  0.50400001928E-02 0.  1.
    10030    2    1    2    0    0  0.00000000000E+00  0.00000000000E+00  0.38204246215E+03  0.25190341261E+04  0.24898948744E+04 0.  0.
        5    1    3    3  502    0  0.27299311863E+03 -0.11853136573E+04  0.45941504093E+03  0.13002222805E+04  0.46999998093E+01 0.  1.
       -5    1    3    3    0  502 -0.27299311863E+03  0.11853136573E+04 -0.77372578782E+02  0.12188118456E+04  0.46999998093E+01 0. -1.
</event>
<event>
 5   0  0.1572732E-05  0.2484560E+04  0.7818609E-02  0.8408507E-01
       -2   -1    0    0    0  501  0.00000000000E+00  0.00000000000E+00  0.69952659064E+03  0.69952659065E+03  0.25500000920E-02 0.  1.
        2   -1    0    0  501    0  0.00000000000E+00  0.00000000000E+00 -0.22061493913E+04  0.22061493913E+04  0.25500000920E-02 0. -1.
    10030    2    1    2    0    0  0.00000000000E+00  0.00000000000E+00 -0.15066228006E+04  0.29056759819E+04  0.24845604538E+04 0.  0.
        1    1    3    3  502    0  0.55083897146E+02  0.43236993075E+03 -0.21137902515E+04  0.21582602300E+04  0.50400001928E-02 0. -1.
       -1    1    3    3    0  502 -0.55083897146E+02 -0.43236993075E+03  0.60716745093E+03  0.74741575193E+03  0.50400001928E-02 0.  1.
</event>
<event>
 5   0  0.6290861E-06  0.2504947E+04  0.7818609E-02  0.8401225E-01
       -1   -1    0    0    0  501  0.00000000000E+00  0.00000000000E+00  0.88001368505E+03  0.88001368507E+03  0.50400001928E-02 0. -1.
        1   -1    0    0  501    0  0.00000000000E+00  0.00000000000E+00 -0.17825739782E+04  0.17825739782E+04  0.50400001928E-02 0.  1.
    10030    2    1    2    0    0  0.00000000000E+00  0.00000000000E+00 -0.90256029318E+03  0.26625876633E+04  0.25049467024E+04 0.  0.
        1    1    3    3  502    0  0.53346880583E+03  0.11066037325E+04 -0.19194065579E+03  0.12433832888E+04  0.50400001928E-02 0. -1.
       -1    1    3    3    0  502 -0.53346880583E+03 -0.11066037325E+04 -0.71061963739E+03  0.14192043745E+04  0.50400001928E-02 0.  1.
</event>
<event>
 5   0  0.1526824E-05  0.2398194E+04  0.7818609E-02  0.8440180E-01
        2   -1    0    0  501    0  0.00000000000E+00  0.00000000000E+00  0.85322627163E+03  0.85322627163E+03  0.25500000920E-02 0. -1.
       -2   -1    0    0    0  501  0.00000000000E+00  0.00000000000E+00 -0.16851727152E+04  0.16851727152E+04  0.25500000920E-02 0.  1.
    10030    2    1    2    0    0  0.00000000000E+00  0.00000000000E+00 -0.83194644354E+03  0.25383989868E+04  0.23981940145E+04 0.  0.
        2    1    3    3  502    0  0.59384854403E+03 -0.77777606251E+03  0.31753605648E+03  0.10287958222E+04  0.25500000920E-02 0. -1.
       -2    1    3    3    0  502 -0.59384854403E+03  0.77777606251E+03 -0.11494825000E+04  0.15096031646E+04  0.25500000920E-02 0.  1.
</event>
<event>
 5   0  0.6105353E-06  0.2487622E+04  0.7818609E-02  0.8407409E-01
       -1   -1    0    0    0  501  0.00000000000E+00  0.00000000000E+00  0.93328917651E+03  0.93328917653E+03  0.50400001928E-02 0.  1.
        1   -1    0    0  501    0  0.00000000000E+00  0.00000000000E+00 -0.16576483506E+04  0.16576483506E+04  0.50400001928E-02 0. -1.
    10030    2    1    2    0    0  0.00000000000E+00  0.00000000000E+00 -0.72435917405E+03  0.25909375271E+04  0.24876215661E+04 0.  0.
        3    1    3    3  502    0 -0.64346355050E+03  0.33734587464E+03  0.68931272369E+03  0.10014986876E+04  0.10100000352E+00 0.  1.
       -3    1    3    3    0  502  0.64346355050E+03 -0.33734587464E+03 -0.14136718977E+04  0.15894388395E+04  0.10100000352E+00 0. -1.
</event>
<event>
 5   0  0.1468512E-05  0.2506375E+04  0.7818609E-02  0.8400718E-01
       -2   -1    0    0    0  501  0.00000000000E+00  0.00000000000E+00  0.12111071902E+04  0.12111071902E+04  0.25500000920E-02 0.  1.
        2   -1    0    0  501    0  0.00000000000E+00  0.00000000000E+00 -0.12967297172E+04  0.12967297172E+04  0.25500000920E-02 0. -1.
    10030    2    1    2    0    0  0.00000000000E+00  0.00000000000E+00 -0.85622526994E+02  0.25078369074E+04  0.25063748197E+04 0.  0.
        4    1    3    3  502    0 -0.99065334549E+03  0.60968209891E+03 -0.50931360864E+03  0.12698457692E+04  0.12699999809E+01 0. -1.
       -4    1    3    3    0  502  0.99065334549E+03 -0.60968209891E+03  0.42369108165E+03  0.12379911382E+04  0.12699999809E+01 0.  1.
</event>
<event>
 5   0  0.1572732E-05  0.2495245E+04  0.7818609E-02  0.8404682E-01
       -2   -1    0    0    0  501  0.00000000000E+00  0.00000000000E+00  0.16384850639E+04  0.16384850639E+04  0.25500000920E-02 0. -1.
        2   -1    0    0  501    0  0.00000000000E+00  0.00000000000E+00 -0.95000043777E+03  0.95000043777E+03  0.25500000920E-02 0.  1.
    10030    2    1    2    0    0  0.00000000000E+00  0.00000000000E+00  0.68848462613E+03  0.25884855017E+04  0.24952446998E+04 0.  0.
        1    1    3    3  502    0  0.25720939153E+03  0.21486303762E+03 -0.90242935259E+03  0.96265338127E+03  0.50400001928E-02 0.  1.
       -1    1    3    3    0  502 -0.25720939153E+03 -0.21486303762E+03  0.15909139787E+04  0.16258321204E+04  0.50400001928E-02 0. -1.
</event>
<event>
 5   0  0.6105353E-06  0.2507058E+04  0.7818609E-02  0.8400476E-01
        1   -1    0    0  501    0  0.00000000000E+00  0.00000000000E+00  0.16456077068E+04  0.16456077068E+04  0.50400001928E-02 0.  1.
       -1   -1    0    0    0  501  0.00000000000E+00  0.00000000000E+00 -0.95486581897E+03  0.95486581899E+03  0.50400001928E-02 0. -1.
    10030    2    1    2    0    0  0.00000000000E+00  0.00000000000E+00  0.69074188778E+03  0.26004735257E+04  0.25070576784E+04 0.  0.
        3    1    3    3  502    0  0.82069199400E+03 -0.15701753487E+03 -0.62386880978E+03  0.10427857677E+04  0.10100000352E+00 0. -1.
       -3    1    3    3    0  502 -0.82069199400E+03  0.15701753487E+03  0.13146106976E+04  0.15576877581E+04  0.10100000352E+00 0.  1.
</event>
<event>
 5   0  0.6477703E-06  0.2500808E+04  0.7818609E-02  0.8402698E-01
        1   -1    0    0  501    0  0.00000000000E+00  0.00000000000E+00  0.12091925512E+04  0.12091925513E+04  0.50400001928E-02 0.  1.
       -1   -1    0    0    0  501  0.00000000000E+00  0.00000000000E+00 -0.12930197776E+04  0.12930197776E+04  0.50400001928E-02 0. -1.
    10030    2    1    2    0    0  0.00000000000E+00  0.00000000000E+00 -0.83827226378E+02  0.25022123289E+04  0.25008077765E+04 0.  0.
        5    1    3    3  502    0  0.26688097570E+03 -0.64524879550E+03 -0.10797600489E+04  0.12858753114E+04  0.46999998093E+01 0. -1.
       -5    1    3    3    0  502 -0.26688097570E+03  0.64524879550E+03  0.99593282249E+03  0.12163370175E+04  0.46999998093E+01 0.  1.
</event>
<event>
 5   0  0.6105353E-06  0.2488420E+04  0.7818609E-02  0.8407123E-01
       -1   -1    0    0    0  501  0.00000000000E+00  0.00000000000E+00  0.13229262271E+04  0.13229262271E+04  0.50400001928E-02 0.  1.
        1   -1    0    0  501    0  0.00000000000E+00  0.00000000000E+00 -0.11701771017E+04  0.11701771018E+04  0.50400001928E-02 0. -1.
    10030    2    1    2    0    0  0.00000000000E+00  0.00000000000E+00  0.15274912537E+03  0.24931033289E+04  0.24884195613E+04 0.  0.
        3    1    3    3  502    0 -0.98515413466E+03 -0.61344326107E+03 -0.37304155605E+03  0.12190165365E+04  0.10100000352E+00 0. -1.
       -3    1    3    3    0  502  0.98515413466E+03  0.61344326107E+03  0.52579068142E+03  0.12740867924E+04  0.10100000352E+00 0.  1.
</event>
<event>
 5   0  0.5164625E-06  0.2501611E+04  0.7818609E-02  0.8402412E-01
       -3   -1    0    0    0  501  0.00000000000E+00  0.00000000000E+00  0.69772995569E+03  0.69772996300E+03  0.10100000352E+00 0.  1.
        3   -1    0    0  501    0  0.00000000000E+00  0.00000000000E+00 -0.22422922588E+04  0.22422922611E+04  0.10100000352E+00 0. -1.
    10030    2    1    2    0    0  0.00000000000E+00  0.00000000000E+00 -0.15445623031E+04  0.29400222241E+04  0.25016110749E+04 0.  0.
        2    1    3    3  502    0 -0.26381092410E+03 -0.10020832877E+04 -0.15955843723E+04  0.19025395155E+04  0.25500000920E-02 0. -1.
       -2    1    3    3    0  502  0.26381092410E+03  0.10020832877E+04  0.51022069116E+02  0.10374827086E+04  0.25500000920E-02 0.  1.
</event>
<event>
 5   0  0.1526824E-05  0.2509738E+04  0.7818609E-02  0.8399524E-01
       -2   -1    0    0    0  501  0.00000000000E+00  0.00000000000E+00  0.91596132590E+03  0.91596132590E+03  0.25500000920E-02 0.  1.
        2   -1    0    0  501    0  0.00000000000E+00  0.00000000000E+00 -0.17191734371E+04  0.17191734371E+04  0.25500000920E-02 0. -1.
    10030    2    1    2    0    0  0.00000000000E+00  0.00000000000E+00 -0.80321211123E+03  0.26351347630E+04  0.25097381385E+04 0.  0.
        2    1    3    3  502    0 -0.82131199713E+03 -0.69750960915E+03  0.27366313139E+03  0.11117394303E+04  0.25500000920E-02 0.  1.
       -2    1    3    3    0  502  0.82131199713E+03  0.69750960915E+03 -0.10768752426E+04  0.15233953327E+04  0.25500000920E-02 0. -1.
</event>
<event>
 5   0  0.6105353E-06  0.2482295E+04  0.7818609E-02  0.8409320E-01
        1   -1    0    0  501    0  0.00000000000E+00  0.00000000000E+00  0.14368547050E+04  0.14368547050E+04  0.50400001928E-02 0.  1.
       -1   -1    0    0    0  501  0.00000000000E+00  0.00000000000E+00 -0.10720964053E+04  0.10720964053E+04  0.50400001928E-02 0. -1.
    10030    2    1    2    0    0  0.00000000000E+00  0.00000000000E+00  0.36475829968E+03  0.25089511103E+04  0.24822947160E+04 0.  0.
        3    1    3    3  502    0  0.40783520030E+03  0.99002355428E+03 -0.45203190739E+03  0.11622431089E+04  0.10100000352E+00 0. -1.
       -3    1    3    3    0  502 -0.40783520030E+03 -0.99002355428E+03  0.81679020707E+03  0.13467080015E+04  0.10100000352E+00 0.  1.
</event>
<event>
 5   0  0.1572732E-05  0.2443335E+04  0.7818609E-02  0.8423455E-01
        2   -1    0    0  501    0  0.00000000000E+00  0.00000000000E+00  0.20285122631E+04  0.20285122631E+04  0.25500000920E-02 0. -1.
       -2   -1    0    0    0  501  0.00000000000E+00  0.00000000000E+00 -0.73574704361E+03  0.73574704361E+03  0.25500000920E-02 0.  1.
    10030    2    1    2    0    0  0.00000000000E+00  0.00000000000E+00  0.12927652195E+04  0.27642593067E+04  0.24433353438E+04 0.  0.
        1    1    3    3  502    0  0.11607840082E+04  0.91199795660E+02  0.10647285179E+04  0.15777781001E+04  0.50400001928E-02 0. -1.
       -1    1    3    3    0  502 -0.11607840082E+04 -0.91199795660E+02  0.22803670158E+03  0.11864812066E+04  0.50400001928E-02 0.  1.
</event>
<event>
 5   0  0.1468512E-05  0.2368471E+04  0.7818609E-02  0.8451403E-01
        2   -1    0    0  501    0  0.00000000000E+00  0.00000000000E+00  0.15844087833E+04  0.15844087833E+04  0.25500000920E-02 0. -1.
       -2   -1    0    0    0  501  0.00000000000E+00  0.00000000000E+00 -0.88513377463E+03  0.88513377463E+03  0.25500000920E-02 0.  1.
    10030    2    1    2    0    0  0.00000000000E+00  0.00000000000E+00  0.69927500867E+03  0.24695425579E+04  0.23684710063E+04 0.  0.
        4    1    3    3  502    0 -0.53296991288E+03  0.40193486165E+03  0.13695427649E+04  0.15235673791E+04  0.12699999809E+01 0. -1.
       -4    1    3    3    0  502  0.53296991288E+03 -0.40193486165E+03 -0.67026775619E+03  0.94597517881E+03  0.12699999809E+01 0.  1.
</event>
<event>
 5   0  0.6477703E-06  0.2569872E+04  0.7818609E-02  0.8378508E-01
       -1   -1    0    0    0  501  0.00000000000E+00  0.00000000000E+00  0.79133855798E+03  0.79133855800E+03  0.50400001928E-02 0. -1.
        1   -1    0    0  501    0  0.00000000000E+00  0.00000000000E+00 -0.20864149279E+04  0.20864149279E+04  0.50400001928E-02 0.  1.
    10030    2    1    2    0    0  0.00000000000E+00  0.00000000000E+00 -0.12950763699E+04  0.28777534859E+04  0.25698720439E+04 0.  0.
        5    1    3    3  502    0  0.64785834711E+03 -0.52444613215E+03  0.44751025897E+03  0.94607172314E+03  0.46999998093E+01 0. -1.
       -5    1    3    3    0  502 -0.64785834711E+03  0.52444613215E+03 -0.17425866289E+04  0.19316817628E+04  0.46999998093E+01 0.  1.
</event>
<event>
 5   0  0.1501947E-05  0.2510891E+04  0.7818609E-02  0.8399116E-01
       -2   -1    0    0    0  501  0.00000000000E+00  0.00000000000E+00  0.79566388037E+03  0.79566388038E+03  0.25500000920E-02 0. -1.
        2   -1    0    0  501    0  0.00000000000E+00  0.00000000000E+00 -0.19809165789E+04  0.19809165789E+04  0.25500000920E-02 0.  1.
    10030    2    1    2    0    0  0.00000000000E+00  0.00000000000E+00 -0.11852526986E+04  0.27765804593E+04  0.25108912935E+04 0.  0.
        3    1    3    3  502    0  0.30317011392E+02  0.10509813521E+04 -0.13512690904E+04  0.17121358265E+04  0.10100000352E+00 0.  1.
       -3    1    3    3    0  502 -0.30317011392E+02 -0.10509813521E+04  0.16601639184E+03  0.10644446328E+04  0.10100000352E+00 0. -1.
</event>
<event>
 5   0  0.1501947E-05  0.2497711E+04  0.7818609E-02  0.8403802E-01
       -2   -1    0    0    0  501  0.00000000000E+00  0.00000000000E+00  0.60347237761E+03  0.60347237761E+03  0.25500000920E-02 0. -1.
        2   -1    0    0  501    0  0.00000000000E+00  0.00000000000E+00 -0.25844426725E+04  0.25844426725E+04  0.25500000920E-02 0.  1.
    10030    2    1    2    0    0  0.00000000000E+00  0.00000000000E+00 -0.19809702949E+04  0.31879150502E+04  0.24977107634E+04 0.  0.
        3    1    3    3  502    0 -0.48819020139E+03  0.23369147993E+03  0.44600020240E+03  0.70132558150E+03  0.10100000352E+00 0.  1.
       -3    1    3    3    0  502  0.48819020139E+03 -0.23369147993E+03 -0.24269704973E+04  0.24865894687E+04  0.10100000352E+00 0. -1.
</event>
<event>
 5   0  0.6104486E-06  0.2496758E+04  0.7818609E-02  0.8404141E-01
       -1   -1    0    0    0  501  0.00000000000E+00  0.00000000000E+00  0.12027172584E+04  0.12027172584E+04  0.50400001928E-02 0.  1.
        1   -1    0    0  501    0  0.00000000000E+00  0.00000000000E+00 -0.12957747691E+04  0.12957747691E+04  0.50400001928E-02 0. -1.
    10030    2    1    2    0    0  0.00000000000E+00  0.00000000000E+00 -0.93057510762E+02  0.24984920275E+04  0.24967584407E+04 0.  0.
        2    1    3    3  502    0  0.74018471436E+03 -0.17743561793E+03 -0.10367075161E+04  0.12861256875E+04  0.25500000920E-02 0. -1.
       -2    1    3    3    0  502 -0.74018471436E+03  0.17743561793E+03  0.94365000539E+03  0.12123663401E+04  0.25500000920E-02 0.  1.
</event>
<event>
 5   0  0.6477703E-06  0.2489270E+04  0.7818609E-02  0.8406818E-01
       -1   -1    0    0    0  501  0.00000000000E+00  0.00000000000E+00  0.14141534899E+04  0.14141534899E+04  0.50400001928E-02 0.  1.
        1   -1    0    0  501    0  0.00000000000E+00  0.00000000000E+00 -0.10954373730E+04  0.10954373730E+04  0.50400001928E-02 0. -1.
    10030    2    1    2    0    0  0.00000000000E+00  0.00000000000E+00  0.31871611691E+03  0.25095908629E+04  0.24892702417E+04 0.  0.
        5    1    3    3  502    0 -0.10627706761E+04 -0.85662793400E+02  0.80668593341E+03  0.13370055757E+04  0.46999998093E+01 0.  1.
       -5    1    3    3    0  502  0.10627706761E+04  0.85662793400E+02 -0.48796981651E+03  0.11725852873E+04  0.46999998093E+01 0. -1.
</event>
<event>
 5   0  0.6290861E-06  0.2500419E+04  0.7818609E-02  0.8402836E-01
       -1   -1    0    0    0  501  0.00000000000E+00  0.00000000000E+00  0.82555488663E+03  0.82555488664E+03  0.50400001928E-02 0.  1.
        1   -1    0    0  501    0  0.00000000000E+00  0.00000000000E+00 -0.18933007610E+04  0.18933007610E+04  0.50400001928E-02 0. -1.
    10030    2    1    2    0    0  0.00000000000E+00  0.00000000000E+00 -0.10677458743E+04  0.27188556476E+04  0.25004189210E+04 0.  0.
        1    1    3    3  502    0  0.51244703721E+03  0.23466545614E+03  0.67957111681E+03  0.88288546544E+03  0.50400001928E-02 0.  1.
       -1    1    3    3    0  502 -0.51244703721E+03 -0.23466545614E+03 -0.17473169911E+04  0.18359701822E+04  0.50400001928E-02 0. -1.
</event>
<event>
 5   0  0.1550483E-05  0.2445355E+04  0.7818609E-02  0.8422716E-01
       -2   -1    0    0    0  501  0.00000000000E+00  0.00000000000E+00  0.13713824881E+04  0.13713824881E+04  0.25500000920E-02 0. -1.
        2   -1    0    0  501    0  0.00000000000E+00  0.00000000000E+00 -0.10900973008E+04  0.10900973008E+04  0.25500000920E-02 0.  1.
    10030    2    1    2    0    0  0.00000000000E+00  0.00000000000E+00  0.28128518730E+03  0.24614797889E+04  0.24453550652E+04 0.  0.
        5    1    3    3  502    0  0.98615005205E+03  0.45561802928E+03  0.70544728443E+03  0.12952828552E+04  0.46999998093E+01 0. -1.
       -5    1    3    3    0  502 -0.98615005205E+03 -0.45561802928E+03 -0.42416209712E+03  0.11661969338E+04  0.46999998093E+01 0.  1.
</event>
<event>
 5   0  0.1501947E-05  0.2512238E+04  0.7818609E-02  0.8398639E-01
       -2   -1    0    0    0  501  0.00000000000E+00  0.00000000000E+00  0.12596778554E+04  0.12596778554E+04  0.25500000920E-02 0.  1.
        2   -1    0    0  501    0  0.00000000000E+00  0.00000000000E+00 -0.12525699006E+04  0.12525699006E+04  0.25500000920E-02 0. -1.
    10030    2    1    2    0    0  0.00000000000E+00  0.00000000000E+00  0.71079547985E+01  0.25122477560E+04  0.25122377007E+04 0.  0.
        3    1    3    3  502    0  0.11815804258E+04 -0.52064325079E+02 -0.41952165665E+03  0.12549268613E+04  0.10100000352E+00 0. -1.
       -3    1    3    3    0  502 -0.11815804258E+04  0.52064325079E+02  0.42662961145E+03  0.12573208947E+04  0.10100000352E+00 0.  1.
</event>
<event>
 5   0  0.1468512E-05  0.2511859E+04  0.7818609E-02  0.8398773E-01
       -2   -1    0    0    0  501  0.00000000000E+00  0.00000000000E+00  0.10799645718E+04  0.10799645718E+04  0.25500000920E-02 0.  1.
        2   -1    0    0  501    0  0.00000000000E+00  0.00000000000E+00 -0.14605655989E+04  0.14605655989E+04  0.25500000920E-02 0. -1.
    10030    2    1    2    0    0  0.00000000000E+00  0.00000000000E+00 -0.38060102707E+03  0.25405301707E+04  0.25118591534E+04 0.  0.
        4    1    3    3  502    0  0.55706380132E+02 -0.12027864880E+04  0.17093009657E+03  0.12161485301E+04  0.12699999809E+01 0.  1.
       -4    1    3    3    0  502 -0.55706380132E+02  0.12027864880E+04 -0.55153112364E+03  0.13243816405E+04  0.12699999809E+01 0. -1.
</event>
<event>
 5   0  0.1501947E-05  0.2482108E+04  0.7818609E-02  0.8409387E-01
        2   -1    0    0  501    0  0.00000000000E+00  0.00000000000E+00  0.10412854634E+04  0.10412854634E+04  0.25500000920E-02 0.  1.
       -2   -1    0    0    0  501  0.00000000000E+00  0.00000000000E+00 -0.14791481723E+04  0.14791481723E+04  0.25500000920E-02 0. -1.
    10030    2    1    2    0    0  0.00000000000E+00  0.00000000000E+00 -0.43786270892E+03  0.25204336357E+04  0.24821083699E+04 0.  0.
        3    1    3    3  502    0 -0.84191166240E+03 -0.78299454386E+03 -0.69339295218E+03  0.13426427296E+04  0.10100000352E+00 0.  1.
       -3    1    3    3    0  502  0.84191166240E+03  0.78299454386E+03  0.25553024326E+03  0.11777909061E+04  0.10100000352E+00 0. -1.
</event>
<event>
 5   0  0.6477703E-06  0.2505867E+04  0.7818609E-02  0.8400898E-01
       -1   -1    0    0    0  501  0.00000000000E+00  0.00000000000E+00  0.14255574983E+04  0.14255574983E+04  0.50400001928E-02 0.  1.
        1   -1    0    0  501    0  0.00000000000E+00  0.00000000000E+00 -0.11012128660E+04  0.11012128660E+04  0.50400001928E-02 0. -1.
    10030    2    1    2    0    0  0.00000000000E+00  0.00000000000E+00  0.32434463226E+03  0.25267703643E+04  0.25058669225E+04 0.  0.
        5    1    3    3  502    0 -0.74969156742E+03  0.77530736280E+03  0.80520763516E+03  0.13459273304E+04  0.46999998093E+01 0.  1.
       -5    1    3    3    0  502  0.74969156742E+03 -0.77530736280E+03 -0.48086300289E+03  0.11808430339E+04  0.46999998093E+01 0. -1.
</event>
<event>
 5   0  0.6346420E-06  0.2492924E+04  0.7818609E-02  0.8405511E-01
       -1   -1    0    0    0  501  0.00000000000E+00  0.00000000000E+00  0.33051586560E+04  0.33051586560E+04  0.50400001928E-02 0. -1.
        1   -1    0    0  501    0  0.00000000000E+00  0.00000000000E+00 -0.47007348159E+03  0.47007348162E+03  0.50400001928E-02 0.  1.
    10030    2    1    2    0    0  0.00000000000E+00  0.00000000000E+00  0.28350851744E+04  0.37752321377E+04  0.24929239352E+04 0.  0.
        4    1    3    3  502    0  0.11586566367E+04 -0.35612449301E+03  0.18573803762E+04  0.22179209479E+04  0.12699999809E+01 0.  1.
       -4    1    3    3    0  502 -0.11586566367E+04  0.35612449301E+03  0.97770479827E+03  0.15573111898E+04  0.12699999809E+01 0. -1.
</event>
<event>
 5   0  0.6477703E-06  0.2455701E+04  0.7818609E-02  0.8418939E-01
       -1   -1    0    0    0  501  0.00000000000E+00  0.00000000000E+00  0.61458628282E+03  0.61458628284E+03  0.50400001928E-02 0. -1.
        1   -1    0    0  501    0  0.00000000000E+00  0.00000000000E+00 -0.24530600874E+04  0.24530600874E+04  0.50400001928E-02 0.  1.
    10030    2    1    2    0    0  0.00000000000E+00  0.00000000000E+00 -0.18384738046E+04  0.30676463702E+04  0.24557011876E+04 0.  0.
        5    1    3    3  502    0  0.69106523413E+03 -0.51111142169E+03 -0.20145375366E+04  0.21902487574E+04  0.46999998093E+01 0.  1.
       -5    1    3    3    0  502 -0.69106523413E+03  0.51111142169E+03  0.17606373201E+03  0.87739761279E+03  0.46999998093E+01 0. -1.
</event>
<event>
 5   0  0.6346420E-06  0.2476415E+04  0.7818609E-02  0.8411436E-01
        1   -1    0    0  501    0  0.00000000000E+00  0.00000000000E+00  0.24235615256E+04  0.24235615256E+04  0.50400001928E-02 0.  1.
       -1   -1    0    0    0  501  0.00000000000E+00  0.00000000000E+00 -0.63260509762E+03  0.63260509764E+03  0.50400001928E-02 0. -1.
    10030    2    1    2    0    0  0.00000000000E+00  0.00000000000E+00  0.17909564279E+04  0.30561666232E+04  0.24764146466E+04 0.  0.
        4    1    3    3  502    0  0.98908242097E+03  0.84237134542E+02  0.18088657861E+04  0.20633412164E+04  0.12699999809E+01 0.  1.
       -4    1    3    3    0  502 -0.98908242097E+03 -0.84237134542E+02 -0.17909358188E+02  0.99282540677E+03  0.12699999809E+01 0. -1.
</event>
<event>
 5   0  0.1501947E-05  0.2533942E+04  0.7818609E-02  0.8390992E-01
        2   -1    0    0  501    0  0.00000000000E+00  0.00000000000E+00  0.11946342518E+04  0.11946342518E+04  0.25500000920E-02 0.  1.
       -2   -1    0    0    0  501  0.00000000000E+00  0.00000000000E+00 -0.13436878089E+04  0.13436878089E+04  0.25500000920E-02 0. -1.
    10030    2    1    2    0    0  0.00000000000E+00  0.00000000000E+00 -0.14905355708E+03  0.25383220606E+04  0.25339419726E+04 0.  0.
        3    1    3    3  502    0  0.11713623146E+04  0.44695773763E+03 -0.25747483002E+03  0.12799039767E+04  0.10100000352E+00 0. -1.
       -3    1    3    3    0  502 -0.11713623146E+04 -0.44695773763E+03  0.10842127294E+03  0.12584180839E+04  0.10100000352E+00 0.  1.
</event>
<event>
 5   0  0.6105353E-06  0.2487040E+04  0.7818609E-02  0.8407617E-01
        1   -1    0    0  501    0  0.00000000000E+00  0.00000000000E+00  0.25849022721E+04  0.25849022721E+04  0.50400001928E-02 0. -1.
       -1   -1    0    0    0  501  0.00000000000E+00  0.00000000000E+00 -0.59822057464E+03  0.59822057466E+03  0.50400001928E-02 0.  1.
    10030    2    1    2    0    0  0.00000000000E+00  0.00000000000E+00  0.19866816975E+04  0.31831228468E+04  0.24870397847E+04 0.  0.
        3    1    3    3  502    0 -0.68489429801E+03 -0.43036986401E+03 -0.21548470817E+03  0.83709741903E+03  0.10100000352E+00 0.  1.
       -3    1    3    3    0  502  0.68489429801E+03  0.43036986401E+03  0.22021664056E+04  0.23460254277E+04  0.10100000352E+00 0. -1.
</event>
<event>
 5   0  0.5164625E-06  0.2493784E+04  0.7818609E-02  0.8405203E-01
       -4   -1    0    0    0  501  0.00000000000E+00  0.00000000000E+00  0.12628352269E+04  0.12628358655E+04  0.12699999809E+01 0.  1.
        4   -1    0    0  501    0  0.00000000000E+00  0.00000000000E+00 -0.12311488232E+04  0.12311494783E+04  0.12699999809E+01 0. -1.
    10030    2    1    2    0    0  0.00000000000E+00  0.00000000000E+00  0.31686403705E+02  0.24939853438E+04  0.24937840458E+04 0.  0.
        4    1    3    3  502    0 -0.97499661057E+03  0.77030531205E+03  0.11953107421E+03  0.12483100396E+04  0.12699999809E+01 0.  1.
       -4    1    3    3    0  502  0.97499661057E+03 -0.77030531205E+03 -0.87844670502E+02  0.12456753042E+04  0.12699999809E+01 0. -1.
</event>
<event>
 5   0  0.1501947E-05  0.2495697E+04  0.7818609E-02  0.8404520E-01
        2   -1    0    0  501    0  0.00000000000E+00  0.00000000000E+00  0.19071739702E+04  0.19071739702E+04  0.25500000920E-02 0.  1.
       -2   -1    0    0    0  501  0.00000000000E+00  0.00000000000E+00 -0.81645722526E+03  0.81645722526E+03  0.25500000920E-02 0. -1.
    10030    2    1    2    0    0  0.00000000000E+00  0.00000000000E+00  0.10907167449E+04  0.27236311954E+04  0.24956970712E+04 0.  0.
        3    1    3    3  502    0 -0.22665064354E+03  0.55747006388E+03  0.17383495062E+04  0.18395658189E+04  0.10100000352E+00 0.  1.
       -3    1    3    3    0  502  0.22665064354E+03 -0.55747006388E+03 -0.64763276125E+03  0.88406537653E+03  0.10100000352E+00 0. -1.
</event>
<event>
 5   0  0.6105353E-06  0.2561284E+04  0.7818609E-02  0.8381472E-01
        1   -1    0    0  501    0  0.00000000000E+00  0.00000000000E+00  0.11054621379E+04  0.11054621379E+04  0.50400001928E-02 0. -1.
       -1   -1    0    0    0  501  0.00000000000E+00  0.00000000000E+00 -0.14835825451E+04  0.14835825451E+04  0.50400001928E-02 0.  1.
    10030    2    1    2    0    0  0.00000000000E+00  0.00000000000E+00 -0.37812040720E+03  0.25890446830E+04  0.25612843123E+04 0.  0.
        3    1    3    3  502    0  0.39353456467E+03 -0.83479207794E+03  0.70842378283E+03  0.11634481223E+04  0.10100000352E+00 0. -1.
       -3    1    3    3    0  502 -0.39353456467E+03  0.83479207794E+03 -0.10865441900E+04  0.14255965608E+04  0.10100000352E+00 0.  1.
</event>
<event>
 5   0  0.1468512E-05  0.2554384E+04  0.7818609E-02  0.8383863E-01
       -2   -1    0    0    0  501  0.00000000000E+00  0.00000000000E+00  0.10847261433E+04  0.10847261433E+04  0.25500000920E-02 0.  1.
        2   -1    0    0  501    0  0.00000000000E+00  0.00000000000E+00 -0.15038077612E+04  0.15038077612E+04  0.25500000920E-02 0. -1.
    10030    2    1    2    0    0  0.00000000000E+00  0.00000000000E+00 -0.41908161788E+03  0.25885339045E+04  0.25543841473E+04 0.  0.
        4    1    3    3  502    0  0.17438766709E+03  0.30624703728E+03  0.10344784632E+04  0.10928612035E+04  0.12699999809E+01 0.  1.
       -4    1    3    3    0  502 -0.17438766709E+03 -0.30624703728E+03 -0.14535600811E+04  0.14956727010E+04  0.12699999809E+01 0. -1.
</event>
<event>
 5   0  0.5164625E-06  0.2435591E+04  0.7818609E-02  0.8426298E-01
       -4   -1    0    0    0  501  0.00000000000E+00  0.00000000000E+00  0.14367097459E+04  0.14367103072E+04  0.12699999809E+01 0.  1.
        4   -1    0    0  501    0  0.00000000000E+00  0.00000000000E+00 -0.10322362720E+04  0.10322370533E+04  0.12699999809E+01 0. -1.
    10030    2    1    2    0    0  0.00000000000E+00  0.00000000000E+00  0.40447347388E+03  0.24689473605E+04  0.24355907452E+04 0.  0.
        3    1    3    3  502    0 -0.82438942735E+03  0.84002985793E+03 -0.11470723064E+03  0.11825505694E+04  0.10100000352E+00 0. -1.
       -3    1    3    3    0  502  0.82438942735E+03 -0.84002985793E+03  0.51918070451E+03  0.12863967912E+04  0.10100000352E+00 0.  1.
</event>
<event>
 5   0  0.6104486E-06  0.2543060E+04  0.7818609E-02  0.8387804E-01
        1   -1    0    0  501    0  0.00000000000E+00  0.00000000000E+00  0.25331997337E+04  0.25331997337E+04  0.50400001928E-02 0. -1.
       -1   -1    0    0    0  501  0.00000000000E+00  0.00000000000E+00 -0.63823984189E+03  0.63823984191E+03  0.50400001928E-02 0.  1.
    10030    2    1    2    0    0  0.00000000000E+00  0.00000000000E+00  0.18949598918E+04  0.31714395756E+04  0.25430603591E+04 0.  0.
        2    1    3    3  502    0  0.55859486100E+03 -0.11100366698E+04  0.61150540285E+03  0.13849723769E+04  0.25500000920E-02 0.  1.
       -2    1    3    3    0  502 -0.55859486100E+03  0.11100366698E+04  0.12834544889E+04  0.17864671987E+04  0.25500000920E-02 0. -1.
</event>
<event>
 5   0  0.6346420E-06  0.2368010E+04  0.7818609E-02  0.8451578E-01
       -1   -1    0    0    0  501  0.00000000000E+00  0.00000000000E+00  0.82081945955E+03  0.82081945956E+03  0.50400001928E-02 0.  1.
        1   -1    0    0  501    0  0.00000000000E+00  0.00000000000E+00 -0.17078888317E+04  0.17078888317E+04  0.50400001928E-02 0. -1.
    10030    2    1    2    0    0  0.00000000000E+00  0.00000000000E+00 -0.88706937215E+03  0.25287082913E+04  0.23680104627E+04 0.  0.
        4    1    3    3  502    0  0.11698084837E+03 -0.98863449268E+02 -0.16972647823E+04  0.17041619215E+04  0.12699999809E+01 0. -1.
       -4    1    3    3    0  502 -0.11698084837E+03  0.98863449268E+02  0.81019541012E+03  0.82454636981E+03  0.12699999809E+01 0.  1.
</event>
<event>
 5   0  0.6105353E-06  0.2432535E+04  0.7818609E-02  0.8427422E-01
       -1   -1    0    0    0  501  0.00000000000E+00  0.00000000000E+00  0.64912201501E+03  0.64912201503E+03  0.50400001928E-02 0. -1.
        1   -1    0    0  501    0  0.00000000000E+00  0.00000000000E+00 -0.22789354559E+04  0.22789354559E+04  0.50400001928E-02 0.  1.
    10030    2    1    2    0    0  0.00000000000E+00  0.00000000000E+00 -0.16298134409E+04  0.29280574709E+04  0.24325354470E+04 0.  0.
        3    1    3    3  502    0 -0.23507513493E+03 -0.48252713144E+03 -0.21286647667E+04  0.21952918828E+04  0.10100000352E+00 0.  1.
       -3    1    3    3    0  502  0.23507513493E+03  0.48252713144E+03  0.49885132581E+03  0.73276558810E+03  0.10100000352E+00 0. -1.
</event>
<event>
 5   0  0.6477703E-06  0.2490579E+04  0.7818609E-02  0.8406350E-01
       -1   -1    0    0    0  501  0.00000000000E+00  0.00000000000E+00  0.14009546632E+04  0.14009546632E+04  0.50400001928E-02 0.  1.
        1   -1    0    0  501    0  0.00000000000E+00  0.00000000000E+00 -0.11069207951E+04  0.11069207951E+04  0.50400001928E-02 0. -1.
    10030    2    1    2    0    0  0.00000000000E+00  0.00000000000E+00  0.29403386815E+03  0.25078754583E+04  0.24905789284E+04 0.  0.
        5    1    3    3  502    0 -0.42830407592E+03 -0.22089035929E+03 -0.10092112560E+04  0.11183766724E+04  0.46999998093E+01 0. -1.
       -5    1    3    3    0  502  0.42830407592E+03  0.22089035929E+03  0.13032451241E+04  0.13894987858E+04  0.46999998093E+01 0.  1.
</event>
<event>
 5   0  0.1501947E-05  0.2613493E+04  0.7818609E-02  0.8363632E-01
        2   -1    0    0  501    0  0.00000000000E+00  0.00000000000E+00  0.19182980731E+04  0.19182980731E+04  0.25500000920E-02 0. -1.
       -2   -1    0    0    0  501  0.00000000000E+00  0.00000000000E+00 -0.89015674443E+03  0.89015674444E+03  0.25500000920E-02 0.  1.
    10030    2    1    2    0    0  0.00000000000E+00  0.00000000000E+00  0.10281413287E+04  0.28084548176E+04  0.26134926574E+04 0.  0.
        3    1    3    3  502    0  0.99697607951E+03  0.28088334578E+03 -0.34206067726E+03  0.10908080831E+04  0.10100000352E+00 0.  1.
       -3    1    3    3    0  502 -0.99697607951E+03 -0.28088334578E+03  0.13702020060E+04  0.17176467345E+04  0.10100000352E+00 0. -1.
</event>
<event>
 5   0  0.6290861E-06  0.2468423E+04  0.7818609E-02  0.8414322E-01
        1   -1    0    0  501    0  0.00000000000E+00  0.00000000000E+00  0.18499809951E+04  0.18499809951E+04  0.50400001928E-02 0. -1.
       -1   -1    0    0    0  501  0.00000000000E+00  0.00000000000E+00 -0.82340173985E+03  0.82340173986E+03  0.50400001928E-02 0.  1.
    10030    2    1    2    0    0  0.00000000000E+00  0.00000000000E+00  0.10265792553E+04  0.26733827350E+04  0.24684226300E+04 0.  0.
        1    1    3    3  502    0  0.75260434272E+02 -0.42339089117E+03 -0.73964108157E+03  0.85556584157E+03  0.50400001928E-02 0.  1.
       -1    1    3    3    0  502 -0.75260434272E+02  0.42339089117E+03  0.17662203368E+04  0.18178168934E+04  0.50400001928E-02 0. -1.
</event>
<event>
 5   0  0.1572732E-05  0.2395356E+04  0.7818609E-02  0.8441244E-01
        2   -1    0    0  501    0  0.00000000000E+00  0.00000000000E+00  0.19281445893E+04  0.19281445893E+04  0.25500000920E-02 0. -1.
       -2   -1    0    0    0  501  0.00000000000E+00  0.00000000000E+00 -0.74394473705E+03  0.74394473706E+03  0.25500000920E-02 0.  1.
    10030    2    1    2    0    0  0.00000000000E+00  0.00000000000E+00  0.11841998522E+04  0.26720893263E+04  0.23953563572E+04 0.  0.
        1    1    3    3  502    0  0.64760168170E+03  0.51838015891E+02 -0.53030064275E+03  0.83862619191E+03  0.50400001928E-02 0. -1.
       -1    1    3    3    0  502 -0.64760168170E+03 -0.51838015891E+02  0.17145004949E+04  0.18334631344E+04  0.50400001928E-02 0.  1.
</event>
<event>
 5   0  0.6105353E-06  0.2472199E+04  0.7818609E-02  0.8412957E-01
        1   -1    0    0  501    0  0.00000000000E+00  0.00000000000E+00  0.47642017192E+03  0.47642017194E+03  0.50400001928E-02 0. -1.
       -1   -1    0    0    0  501  0.00000000000E+00  0.00000000000E+00 -0.32071314382E+04  0.32071314383E+04  0.50400001928E-02 0.  1.
    10030    2    1    2    0    0  0.00000000000E+00  0.00000000000E+00 -0.27307112663E+04  0.36835516102E+04  0.24721991111E+04 0.  0.
        3    1    3    3  502    0  0.55364888453E+02  0.69621460627E+03 -0.28849714875E+04  0.29683060056E+04  0.10100000352E+00 0.  1.
       -3    1    3    3    0  502 -0.55364888453E+02 -0.69621460627E+03  0.15426022119E+03  0.71524560460E+03  0.10100000352E+00 0. -1.
</event>
<event>
 5   0  0.6104486E-06  0.2486002E+04  0.7818609E-02  0.8407989E-01
        1   -1    0    0  501    0  0.00000000000E+00  0.00000000000E+00  0.14293099826E+04  0.14293099826E+04  0.50400001928E-02 0. -1.
       -1   -1    0    0    0  501  0.00000000000E+00  0.00000000000E+00 -0.10809774356E+04  0.10809774356E+04  0.50400001928E-02 0.  1.
    10030    2    1    2    0    0  0.00000000000E+00  0.00000000000E+00  0.34833254693E+03  0.25102874182E+04  0.24860022845E+04 0.  0.
        2    1    3    3  502    0  0.63947304395E+03  0.51907137552E+03 -0.76589045564E+03  0.11246995407E+04  0.25500000920E-02 0.  1.
       -2    1    3    3    0  502 -0.63947304395E+03 -0.51907137552E+03  0.11142230026E+04  0.13855878775E+04  0.25500000920E-02 0. -1.
</event>
<event>
 5   0  0.6477703E-06  0.2492304E+04  0.7818609E-02  0.8405732E-01
        1   -1    0    0  501    0  0.00000000000E+00  0.00000000000E+00  0.12277995616E+04  0.12277995616E+04  0.50400001928E-02 0.  1.
       -1   -1    0    0    0  501  0.00000000000E+00  0.00000000000E+00 -0.12647792118E+04  0.12647792118E+04  0.50400001928E-02 0. -1.
    10030    2    1    2    0    0  0.00000000000E+00  0.00000000000E+00 -0.36979650158E+02  0.24925787734E+04  0.24923044451E+04 0.  0.
        5    1    3    3  502    0  0.45511958525E+03  0.31445334801E+03 -0.11352409279E+04  0.12628573947E+04  0.46999998093E+01 0. -1.
       -5    1    3    3    0  502 -0.45511958525E+03 -0.31445334801E+03  0.10982612778E+04  0.12297213787E+04  0.46999998093E+01 0.  1.
</event>
<event>
 5   0  0.1550483E-05  0.2518744E+04  0.7818609E-02  0.8396338E-01
        2   -1    0    0  501    0  0.00000000000E+00  0.00000000000E+00  0.19043962749E+04  0.19043962749E+04  0.25500000920E-02 0.  1.
       -2   -1    0    0    0  501  0.00000000000E+00  0.00000000000E+00 -0.83281905568E+03  0.83281905568E+03  0.25500000920E-02 0. -1.
    10030    2    1    2    0    0  0.00000000000E+00  0.00000000000E+00  0.10715772192E+04  0.27372153306E+04  0.25187437403E+04 0.  0.
        5    1    3    3  502    0  0.86073387753E+03  0.91911829403E+03  0.55624040596E+03  0.13766142254E+04  0.46999998093E+01 0. -1.
       -5    1    3    3    0  502 -0.86073387753E+03 -0.91911829403E+03  0.51533681326E+03  0.13606011052E+04  0.46999998093E+01 0.  1.
</event>
<event>
 5   0  0.1550483E-05  0.2511751E+04  0.7818609E-02  0.8398811E-01
       -2   -1    0    0    0  501  0.00000000000E+00  0.00000000000E+00  0.11900349929E+04  0.11900349929E+04  0.25500000920E-02 0.  1.
        2   -1    0    0  501    0  0.00000000000E+00  0.00000000000E+00 -0.13253590710E+04  0.13253590710E+04  0.25500000920E-02 0. -1.
    10030    2    1    2    0    0  0.00000000000E+00  0.00000000000E+00 -0.13532407804E+03  0.25153940639E+04  0.25117513195E+04 0.  0.
        5    1    3    3  502    0 -0.73588588416E+03  0.33587060006E+03 -0.10297136252E+04  0.13094538305E+04  0.46999998093E+01 0. -1.
       -5    1    3    3    0  502  0.73588588416E+03 -0.33587060006E+03  0.89438954713E+03  0.12059402334E+04  0.46999998093E+01 0.  1.
</event>
<event>
 5   0  0.1550483E-05  0.2507581E+04  0.7818609E-02  0.8400290E-01
        2   -1    0    0  501    0  0.00000000000E+00  0.00000000000E+00  0.24535697521E+04  0.24535697521E+04  0.25500000920E-02 0.  1.
       -2   -1    0    0    0  501  0.00000000000E+00  0.00000000000E+00 -0.64069508243E+03  0.64069508243E+03  0.25500000920E-02 0. -1.
    10030    2    1    2    0    0  0.00000000000E+00  0.00000000000E+00  0.18128746697E+04  0.30942648345E+04  0.25075805667E+04 0.  0.
        5    1    3    3  502    0 -0.65689934575E+03 -0.29141381102E+03  0.21741992979E+04  0.22898915775E+04  0.46999998093E+01 0.  1.
       -5    1    3    3    0  502  0.65689934575E+03  0.29141381102E+03 -0.36132462821E+03  0.80437325705E+03  0.46999998093E+01 0. -1.
</event>
<event>
 5   0  0.6346420E-06  0.2509949E+04  0.7818609E-02  0.8399450E-01
       -1   -1    0    0    0  501  0.00000000000E+00  0.00000000000E+00  0.14629340753E+04  0.14629340753E+04  0.50400001928E-02 0.  1.
        1   -1    0    0  501    0  0.00000000000E+00  0.00000000000E+00 -0.10765767448E+04  0.10765767448E+04  0.50400001928E-02 0. -1.
    10030    2    1    2    0    0  0.00000000000E+00  0.00000000000E+00  0.38635733052E+03  0.25395108201E+04  0.25099488478E+04 0.  0.
        4    1    3    3  502    0  0.98621671263E+02  0.88041030777E+03 -0.70617219429E+03  0.11329295322E+04  0.12699999809E+01 0. -1.
       -4    1    3    3    0  502 -0.98621671263E+02 -0.88041030777E+03  0.10925295248E+04  0.14065812879E+04  0.12699999809E+01 0.  1.
</event>
<event>
 5   0  0.1526824E-05  0.2756777E+04  0.7818609E-02  0.8316815E-01
        2   -1    0    0  501    0  0.00000000000E+00  0.00000000000E+00  0.10726172751E+04  0.10726172751E+04  0.25500000920E-02 0. -1.
       -2   -1    0    0    0  501  0.00000000000E+00  0.00000000000E+00 -0.17713254001E+04  0.17713254001E+04  0.25500000920E-02 0.  1.
    10030    2    1    2    0    0  0.00000000000E+00  0.00000000000E+00 -0.69870812500E+03  0.28439426752E+04  0.27567765408E+04 0.  0.
        2    1    3    3  502    0 -0.84192293814E+03  0.71302874449E+03 -0.12017422170E+04  0.16313885437E+04  0.25500000920E-02 0.  1.
       -2    1    3    3    0  502  0.84192293814E+03 -0.71302874449E+03  0.50303409201E+03  0.12125541316E+04  0.25500000920E-02 0. -1.
</event>
<event>
 5   0  0.1501947E-05  0.2472273E+04  0.7818609E-02  0.8412930E-01
        2   -1    0    0  501    0  0.00000000000E+00  0.00000000000E+00  0.22485295095E+04  0.22485295095E+04  0.25500000920E-02 0. -1.
       -2   -1    0    0    0  501  0.00000000000E+00  0.00000000000E+00 -0.67957026649E+03  0.67957026649E+03  0.25500000920E-02 0.  1.
    10030    2    1    2    0    0  0.00000000000E+00  0.00000000000E+00  0.15689592430E+04  0.29280997760E+04  0.24722732842E+04 0.  0.
        3    1    3    3  502    0  0.65951053706E+03  0.97756396232E+03  0.34538396284E+03  0.12287699300E+04  0.10100000352E+00 0. -1.
       -3    1    3    3    0  502 -0.65951053706E+03 -0.97756396232E+03  0.12235752801E+04  0.16993298459E+04  0.10100000352E+00 0.  1.
</event>
<event>
 5   0  0.6105353E-06  0.2495544E+04  0.7818609E-02  0.8404575E-01
        1   -1    0    0  501    0  0.00000000000E+00  0.00000000000E+00  0.11302211626E+04  0.11302211626E+04  0.50400001928E-02 0. -1.
       -1   -1    0    0    0  501  0.00000000000E+00  0.00000000000E+00 -0.13775486991E+04  0.13775486991E+04  0.50400001928E-02 0.  1.
    10030    2    1    2    0    0  0.00000000000E+00  0.00000000000E+00 -0.24732753651E+03  0.25077698617E+04  0.24955437822E+04 0.  0.
        3    1    3    3  502    0 -0.21127885198E+03 -0.51055687634E+03 -0.12479064045E+04  0.13647627933E+04  0.10100000352E+00 0.  1.
       -3    1    3    3    0  502  0.21127885198E+03  0.51055687634E+03  0.10005788680E+04  0.11430070685E+04  0.10100000352E+00 0. -1.
</event>
<event>
 5   0  0.1501947E-05  0.2534675E+04  0.7818609E-02  0.8390736E-01
        2   -1    0    0  501    0  0.00000000000E+00  0.00000000000E+00  0.74527628355E+03  0.74527628355E+03  0.25500000920E-02 0.  1.
       -2   -1    0    0    0  501  0.00000000000E+00  0.00000000000E+00 -0.21550988357E+04  0.21550988357E+04  0.25500000920E-02 0. -1.
    10030    2    1    2    0    0  0.00000000000E+00  0.00000000000E+00 -0.14098225522E+04  0.29003751193E+04  0.25346747728E+04 0.  0.
        3    1    3    3  502    0 -0.73975901891E+03  0.97995427695E+03 -0.10642044051E+04  0.16248337813E+04  0.10100000352E+00 0. -1.
       -3    1    3    3    0  502  0.73975901891E+03 -0.97995427695E+03 -0.34561814709E+03  0.12755413379E+04  0.10100000352E+00 0.  1.
</event>
<event>
 5   0  0.6346420E-06  0.2498804E+04  0.7818609E-02  0.8403412E-01
        1   -1    0    0  501    0  0.00000000000E+00  0.00000000000E+00  0.30476765981E+04  0.30476765981E+04  0.50400001928E-02 0.  1.
       -1   -1    0    0    0  501  0.00000000000E+00  0.00000000000E+00 -0.51219505531E+03  0.51219505534E+03  0.50400001928E-02 0. -1.
    10030    2    1    2    0    0  0.00000000000E+00  0.00000000000E+00  0.25354815428E+04  0.35598716534E+04  0.24988036208E+04 0.  0.
        4    1    3    3  502    0 -0.70831352862E+02 -0.61800190771E+03 -0.27590386681E+03  0.68049099561E+03  0.12699999809E+01 0. -1.
       -4    1    3    3    0  502  0.70831352862E+02  0.61800190771E+03  0.28113854096E+04  0.28793806578E+04  0.12699999809E+01 0.  1.
</event>
<event>
 5   0  0.1550483E-05  0.2509707E+04  0.7818609E-02  0.8399535E-01
        2   -1    0    0  501    0  0.00000000000E+00  0.00000000000E+00  0.19973728057E+04  0.19973728057E+04  0.25500000920E-02 0. -1.
       -2   -1    0    0    0  501  0.00000000000E+00  0.00000000000E+00 -0.78836436387E+03  0.78836436387E+03  0.25500000920E-02 0.  1.
    10030    2    1    2    0    0  0.00000000000E+00  0.00000000000E+00  0.12090084419E+04  0.27857371696E+04  0.25097071872E+04 0.  0.
        5    1    3    3  502    0 -0.71924656543E+03  0.83817560412E+03 -0.56642059361E+02  0.11059314527E+04  0.46999998093E+01 0.  1.
       -5    1    3    3    0  502  0.71924656543E+03 -0.83817560412E+03  0.12656505012E+04  0.16798057169E+04  0.46999998093E+01 0. -1.
</event>
<event>
 5   0  0.6105353E-06  0.2499881E+04  0.7818609E-02  0.8403028E-01
        1   -1    0    0  501    0  0.00000000000E+00  0.00000000000E+00  0.22891326765E+04  0.22891326765E+04  0.50400001928E-02 0.  1.
       -1   -1    0    0    0  501  0.00000000000E+00  0.00000000000E+00 -0.68250793771E+03  0.68250793773E+03  0.50400001928E-02 0. -1.
    10030    2    1    2    0    0  0.00000000000E+00  0.00000000000E+00  0.16066247388E+04  0.29716406142E+04  0.24998809749E+04 0.  0.
        3    1    3    3  502    0  0.51362288966E+03  0.35050559896E+03  0.20922238762E+04  0.21826734538E+04  0.10100000352E+00 0.  1.
       -3    1    3    3    0  502 -0.51362288966E+03 -0.35050559896E+03 -0.48559913744E+03  0.78896716038E+03  0.10100000352E+00 0. -1.
</event>
<event>
 5   0  0.1526824E-05  0.2497940E+04  0.7818609E-02  0.8403720E-01
       -2   -1    0    0    0  501  0.00000000000E+00  0.00000000000E+00  0.11095557481E+04  0.11095557481E+04  0.25500000920E-02 0. -1.
        2   -1    0    0  501    0  0.00000000000E+00  0.00000000000E+00 -0.14059017612E+04  0.14059017612E+04  0.25500000920E-02 0.  1.
    10030    2    1    2    0    0  0.00000000000E+00  0.00000000000E+00 -0.29634601305E+03  0.25154575093E+04  0.24979402558E+04 0.  0.
        2    1    3    3  502    0 -0.77266962607E+03 -0.78438383406E+03 -0.74192635851E+03  0.13276788285E+04  0.25500000920E-02 0.  1.
       -2    1    3    3    0  502  0.77266962607E+03  0.78438383406E+03  0.44558034545E+03  0.11877786808E+04  0.25500000920E-02 0. -1.
</event>
<event>
 5   0  0.6477703E-06  0.2499502E+04  0.7818609E-02  0.8403163E-01
       -1   -1    0    0    0  501  0.00000000000E+00  0.00000000000E+00  0.68712742356E+03  0.68712742358E+03  0.50400001928E-02 0.  1.
        1   -1    0    0  501    0  0.00000000000E+00  0.00000000000E+00 -0.22730543198E+04  0.22730543198E+04  0.50400001928E-02 0. -1.
    10030    2    1    2    0    0  0.00000000000E+00  0.00000000000E+00 -0.15859268962E+04  0.29601817434E+04  0.24995023172E+04 0.  0.
        5    1    3    3  502    0  0.49447450399E+03  0.11382499934E+04 -0.61835209195E+03  0.13865422756E+04  0.46999998093E+01 0.  1.
       -5    1    3    3    0  502 -0.49447450399E+03 -0.11382499934E+04 -0.96757480426E+03  0.15736394677E+04  0.46999998093E+01 0. -1.
</event>
<event>
 5   0  0.6104486E-06  0.2501752E+04  0.7818609E-02  0.8402362E-01
       -1   -1    0    0    0  501  0.00000000000E+00  0.00000000000E+00  0.10153992614E+04  0.10153992614E+04  0.50400001928E-02 0. -1.
        1   -1    0    0  501    0  0.00000000000E+00  0.00000000000E+00 -0.15409609876E+04  0.15409609876E+04  0.50400001928E-02 0.  1.
    10030    2    1    2    0    0  0.00000000000E+00  0.00000000000E+00 -0.52556172619E+03  0.25563602490E+04  0.25017519051E+04 0.  0.
        2    1    3    3  502    0  0.94384488563E+03  0.19574602743E+03 -0.10773841857E+04  0.14456543014E+04  0.25500000920E-02 0.  1.
       -2    1    3    3    0  502 -0.94384488563E+03 -0.19574602743E+03  0.55182245953E+03  0.11107059477E+04  0.25500000920E-02 0. -1.
</event>
<event>
 5   0  0.6477703E-06  0.2504742E+04  0.7818609E-02  0.8401298E-01
        1   -1    0    0  501    0  0.00000000000E+00  0.00000000000E+00  0.10994087997E+04  0.10994087997E+04  0.50400001928E-02 0.  1.
       -1   -1    0    0    0  501  0.00000000000E+00  0.00000000000E+00 -0.14266145234E+04  0.14266145234E+04  0.50400001928E-02 0. -1.
    10030    2    1    2    0    0  0.00000000000E+00  0.00000000000E+00 -0.32720572368E+03  0.25260233231E+04  0.25047415522E+04 0.  0.
        5    1    3    3  502    0 -0.11945384313E+04  0.34735965449E+03 -0.30915403404E+03  0.12818654766E+04  0.46999998093E+01 0. -1.
       -5    1    3    3    0  502  0.11945384313E+04 -0.34735965449E+03 -0.18051689643E+02  0.12441578464E+04  0.46999998093E+01 0.  1.
</event>
<event>
 5   0  0.1550483E-05  0.2481705E+04  0.7818609E-02  0.8409532E-01
        2   -1    0    0  501    0  0.00000000000E+00  0.00000000000E+00  0.11848182816E+04  0.11848182816E+04  0.25500000920E-02 0. -1.
       -2   -1    0    0    0  501  0.00000000000E+00  0.00000000000E+00 -0.12995369465E+04  0.12995369465E+04  0.25500000920E-02 0.  1.
    10030    2    1    2    0    0  0.00000000000E+00  0.00000000000E+00 -0.11471866483E+03  0.24843552281E+04  0.24817051653E+04 0.  0.
        5    1    3    3  502    0  0.10094506063E+03 -0.59740512779E+03 -0.11413869640E+04  0.12922341443E+04  0.46999998093E+01 0.  1.
       -5    1    3    3    0  502 -0.10094506063E+03  0.59740512779E+03  0.10266682992E+04  0.11921210838E+04  0.46999998093E+01 0. -1.
</event>
<event>
 5   0  0.6477703E-06  0.2512532E+04  0.7818609E-02  0.8398534E-01
        1   -1    0    0  501    0  0.00000000000E+00  0.00000000000E+00  0.19614800716E+04  0.19614800716E+04  0.50400001928E-02 0. -1.
       -1   -1    0    0    0  501  0.00000000000E+00  0.00000000000E+00 -0.80459898047E+03  0.80459898048E+03  0.50400001928E-02 0.  1.
    10030    2    1    2    0    0  0.00000000000E+00  0.00000000000E+00  0.11568810911E+04  0.27660790521E+04  0.25125324801E+04 0.  0.
        5    1    3    3  502    0  0.46918114027E+03 -0.71569350992E+01  0.18613703241E+04  0.19196103088E+04  0.46999998093E+01 0. -1.
       -5    1    3    3    0  502 -0.46918114027E+03  0.71569350992E+01 -0.70448923295E+03  0.84646874334E+03  0.46999998093E+01 0.  1.
</event>
<event>
 5   0  0.1572732E-05  0.2492975E+04  0.7818609E-02  0.8405493E-01
        2   -1    0    0  501    0  0.00000000000E+00  0.00000000000E+00  0.24356251240E+04  0.24356251240E+04  0.25500000920E-02 0.  1.
       -2   -1    0    0    0  501  0.00000000000E+00  0.00000000000E+00 -0.63791879805E+03  0.63791879805E+03  0.25500000920E-02 0. -1.
    10030    2    1    2    0    0  0.00000000000E+00  0.00000000000E+00  0.17977063259E+04  0.30735439220E+04  0.24929749711E+04 0.  0.
        1    1    3    3  502    0  0.87290503399E+03 -0.87545380829E+03  0.70256347248E+03  0.14219627287E+04  0.50400001928E-02 0.  1.
       -1    1    3    3    0  502 -0.87290503399E+03  0.87545380829E+03  0.10951428535E+04  0.16515811934E+04  0.50400001928E-02 0. -1.
</event>
<event>
 5   0  0.1550483E-05  0.2502435E+04  0.7818609E-02  0.8402119E-01
        2   -1    0    0  501    0  0.00000000000E+00  0.00000000000E+00  0.13884350580E+04  0.13884350580E+04  0.25500000920E-02 0.  1.
       -2   -1    0    0    0  501  0.00000000000E+00  0.00000000000E+00 -0.11275606588E+04  0.11275606588E+04  0.25500000920E-02 0. -1.
    10030    2    1    2    0    0  0.00000000000E+00  0.00000000000E+00  0.26087439926E+03  0.25159957168E+04  0.25024346135E+04 0.  0.
        5    1    3    3  502    0  0.47850663067E+03 -0.87414049365E+03  0.89112996410E+03  0.13368713106E+04  0.46999998093E+01 0.  1.
       -5    1    3    3    0  502 -0.47850663067E+03  0.87414049365E+03 -0.63025556483E+03  0.11791244062E+04  0.46999998093E+01 0. -1.
</event>
<event>
 5   0  0.1550483E-05  0.2508000E+04  0.7818609E-02  0.8400141E-01
        2   -1    0    0  501    0  0.00000000000E+00  0.00000000000E+00  0.16380044650E+04  0.16380044650E+04  0.25500000920E-02 0.  1.
       -2   -1    0    0    0  501  0.00000000000E+00  0.00000000000E+00 -0.96001933821E+03  0.96001933821E+03  0.25500000920E-02 0. -1.
    10030    2    1    2    0    0  0.00000000000E+00  0.00000000000E+00  0.67798512681E+03  0.25980238032E+04  0.25079999701E+04 0.  0.
        5    1    3    3  502    0 -0.42781319529E+03 -0.87528032418E+03 -0.47887504393E+03  0.10855796487E+04  0.46999998093E+01 0. -1.
       -5    1    3    3    0  502  0.42781319529E+03  0.87528032418E+03  0.11568601707E+04  0.15124441545E+04  0.46999998093E+01 0.  1.
</event>
<event>
 5   0  0.6477703E-06  0.2498992E+04  0.7818609E-02  0.8403345E-01
       -1   -1    0    0    0  501  0.00000000000E+00  0.00000000000E+00  0.14362272216E+04  0.14362272216E+04  0.50400001928E-02 0. -1.
        1   -1    0    0  501    0  0.00000000000E+00  0.00000000000E+00 -0.10870428851E+04  0.10870428851E+04  0.50400001928E-02 0.  1.
    10030    2    1    2    0    0  0.00000000000E+00  0.00000000000E+00  0.34918433649E+03  0.25232701067E+04  0.24989922630E+04 0.  0.
        5    1    3    3  502    0 -0.67286135485E+03  0.10480167781E+04  0.72931748735E+02  0.12475667116E+04  0.46999998093E+01 0.  1.
       -5    1    3    3    0  502  0.67286135485E+03 -0.10480167781E+04  0.27625258776E+03  0.12757033951E+04  0.46999998093E+01 0. -1.
</event>
<event>
 5   0  0.6477703E-06  0.2514796E+04  0.7818609E-02  0.8397733E-01
        1   -1    0    0  501    0  0.00000000000E+00  0.00000000000E+00  0.81168301763E+03  0.81168301764E+03  0.50400001928E-02 0.  1.
       -1   -1    0    0    0  501  0.00000000000E+00  0.00000000000E+00 -0.19478667022E+04  0.19478667023E+04  0.50400001928E-02 0. -1.
    10030    2    1    2    0    0  0.00000000000E+00  0.00000000000E+00 -0.11361836846E+04  0.27595497199E+04  0.25147964712E+04 0.  0.
        5    1    3    3  502    0  0.92729231082E+03 -0.80943887050E+02  0.35952472071E+03  0.99784921574E+03  0.46999998093E+01 0.  1.
       -5    1    3    3    0  502 -0.92729231082E+03  0.80943887050E+02 -0.14957084053E+04  0.17617005041E+04  0.46999998093E+01 0. -1.
</event>
<event>
 5   0  0.1550483E-05  0.2504930E+04  0.7818609E-02  0.8401231E-01
        2   -1    0    0  501    0  0.00000000000E+00  0.00000000000E+00  0.19761994066E+04  0.19761994066E+04  0.25500000920E-02 0. -1.
       -2   -1    0    0    0  501  0.00000000000E+00  0.00000000000E+00 -0.79378039878E+03  0.79378039879E+03  0.25500000920E-02 0.  1.
    10030    2    1    2    0    0  0.00000000000E+00  0.00000000000E+00  0.11824190078E+04  0.27699798054E+04  0.25049298218E+04 0.  0.
        5    1    3    3  502    0  0.74966044969E+03 -0.83549443252E+03 -0.23092858618E+02  0.11227631570E+04  0.46999998093E+01 0.  1.
       -5    1    3    3    0  502 -0.74966044969E+03  0.83549443252E+03  0.12055118664E+04  0.16472166484E+04  0.46999998093E+01 0. -1.
</event>
<event>
 5   0  0.6346420E-06  0.2509931E+04  0.7818609E-02  0.8399456E-01
       -1   -1    0    0    0  501  0.00000000000E+00  0.00000000000E+00  0.79506305749E+03  0.79506305751E+03  0.50400001928E-02 0. -1.
        1   -1    0    0  501    0  0.00000000000E+00  0.00000000000E+00 -0.19808977227E+04  0.19808977227E+04  0.50400001928E-02 0.  1.
    10030    2    1    2    0    0  0.00000000000E+00  0.00000000000E+00 -0.11858346652E+04  0.27759607802E+04  0.25099311544E+04 0.  0.
        4    1    3    3  502    0 -0.13452576835E+03 -0.35994677436E+03 -0.19142306780E+04  0.19524189008E+04  0.12699999809E+01 0.  1.
       -4    1    3    3    0  502  0.13452576835E+03  0.35994677436E+03  0.72839601281E+03  0.82354187939E+03  0.12699999809E+01 0. -1.
</event>
<event>
 5   0  0.1572732E-05  0.2472491E+04  0.7818609E-02  0.8412852E-01
       -2   -1    0    0    0  501  0.00000000000E+00  0.00000000000E+00  0.11364667858E+04  0.11364667858E+04  0.25500000920E-02 0. -1.
        2   -1    0    0  501    0  0.00000000000E+00  0.00000000000E+00 -0.13447844262E+04  0.13447844262E+04  0.25500000920E-02 0.  1.
    10030    2    1    2    0    0  0.00000000000E+00  0.00000000000E+00 -0.20831764032E+03  0.24812512120E+04  0.24724909176E+04 0.  0.
        1    1    3    3  502    0 -0.44683956326E+03  0.50775929348E+03 -0.11426284733E+04  0.13278120814E+04  0.50400001928E-02 0.  1.
       -1    1    3    3    0  502  0.44683956326E+03 -0.50775929348E+03  0.93431083299E+03  0.11534391306E+04  0.50400001928E-02 0. -1.
</event>
<event>
 5   0  0.6477703E-06  0.2477426E+04  0.7818609E-02  0.8411072E-01
       -1   -1    0    0    0  501  0.00000000000E+00  0.00000000000E+00  0.98948777782E+03  0.98948777783E+03  0.50400001928E-02 0.  1.
        1   -1    0    0  501    0  0.00000000000E+00  0.00000000000E+00 -0.15507116396E+04  0.15507116396E+04  0.50400001928E-02 0. -1.
    10030    2    1    2    0    0  0.00000000000E+00  0.00000000000E+00 -0.56122386178E+03  0.25401994174E+04  0.24774262567E+04 0.  0.
        5    1    3    3  502    0  0.50972018119E+03 -0.33596839613E+03  0.82451923665E+03  0.10259354209E+04  0.46999998093E+01 0.  1.
       -5    1    3    3    0  502 -0.50972018119E+03  0.33596839613E+03 -0.13857430984E+04  0.15142639965E+04  0.46999998093E+01 0. -1.
</event>
<event>
 5   0  0.6290861E-06  0.2506287E+04  0.7818609E-02  0.8400749E-01
        1   -1    0    0  501    0  0.00000000000E+00  0.00000000000E+00  0.18329416378E+04  0.18329416378E+04  0.50400001928E-02 0. -1.
       -1   -1    0    0    0  501  0.00000000000E+00  0.00000000000E+00 -0.85674798506E+03  0.85674798508E+03  0.50400001928E-02 0.  1.
    10030    2    1    2    0    0  0.00000000000E+00  0.00000000000E+00  0.97619365275E+03  0.26896896229E+04  0.25062873378E+04 0.  0.
        1    1    3    3  502    0  0.68313184463E+03 -0.54413136593E+03 -0.47634293621E+03  0.99481186836E+03  0.50400001928E-02 0.  1.
       -1    1    3    3    0  502 -0.68313184463E+03  0.54413136593E+03  0.14525365890E+04  0.16948777545E+04  0.50400001928E-02 0. -1.
</event>
<event>
 5   0  0.6290861E-06  0.2498330E+04  0.7818609E-02  0.8403581E-01
        1   -1    0    0  501    0  0.00000000000E+00  0.00000000000E+00  0.18979321988E+04  0.18979321988E+04  0.50400001928E-02 0. -1.
       -1   -1    0    0    0  501  0.00000000000E+00  0.00000000000E+00 -0.82216458254E+03  0.82216458256E+03  0.50400001928E-02 0.  1.
    10030    2    1    2    0    0  0.00000000000E+00  0.00000000000E+00  0.10757676162E+04  0.27200967813E+04  0.24983295491E+04 0.  0.
        1    1    3    3  502    0 -0.67721012183E+03 -0.42454998964E+03 -0.50730701903E+03  0.94668719987E+03  0.50400001928E-02 0.  1.
       -1    1    3    3    0  502  0.67721012183E+03  0.42454998964E+03  0.15830746352E+04  0.17734095815E+04  0.50400001928E-02 0. -1.
</event>
<event>
 5   0  0.6346420E-06  0.2494664E+04  0.7818609E-02  0.8404889E-01
       -1   -1    0    0    0  501  0.00000000000E+00  0.00000000000E+00  0.98738784521E+03  0.98738784522E+03  0.50400001928E-02 0. -1.
        1   -1    0    0  501    0  0.00000000000E+00  0.00000000000E+00 -0.15757103463E+04  0.15757103463E+04  0.50400001928E-02 0.  1.
    10030    2    1    2    0    0  0.00000000000E+00  0.00000000000E+00 -0.58832250105E+03  0.25630981915E+04  0.24946641004E+04 0.  0.
        4    1    3    3  502    0 -0.69497243562E+03 -0.62035824447E+03 -0.11463755863E+04  0.14771626977E+04  0.12699999809E+01 0.  1.
       -4    1    3    3    0  502  0.69497243562E+03  0.62035824447E+03  0.55805308526E+03  0.10859354938E+04  0.12699999809E+01 0. -1.
</event>
<event>
 5   0  0.1468512E-05  0.2501240E+04  0.7818609E-02  0.8402544E-01
       -2   -1    0    0    0  501  0.00000000000E+00  0.00000000000E+00  0.10103859439E+04  0.10103859439E+04  0.25500000920E-02 0. -1.
        2   -1    0    0  501    0  0.00000000000E+00  0.00000000000E+00 -0.15479730719E+04  0.15479730719E+04  0.25500000920E-02 0.  1.
    10030    2    1    2    0    0  0.00000000000E+00  0.00000000000E+00 -0.53758712807E+03  0.25583590158E+04  0.25012398792E+04 0.  0.
        4    1    3    3  502    0  0.19285594449E+03  0.12311008110E+04 -0.16032468559E+03  0.12563869786E+04  0.12699999809E+01 0. -1.
       -4    1    3    3    0  502 -0.19285594449E+03 -0.12311008110E+04 -0.37726244248E+03  0.13019720372E+04  0.12699999809E+01 0.  1.
</event>
<event>
 5   0  0.1501947E-05  0.2486466E+04  0.7818609E-02  0.8407823E-01
       -2   -1    0    0    0  501  0.00000000000E+00  0.00000000000E+00  0.66946763031E+03  0.66946763031E+03  0.25500000920E-02 0.  1.
        2   -1    0    0  501    0  0.00000000000E+00  0.00000000000E+00 -0.23087427014E+04  0.23087427014E+04  0.25500000920E-02 0. -1.
    10030    2    1    2    0    0  0.00000000000E+00  0.00000000000E+00 -0.16392750711E+04  0.29782103317E+04  0.24864661714E+04 0.  0.
        3    1    3    3  502    0  0.50211718341E+03 -0.11161808412E+04 -0.55818592811E+03  0.13451962224E+04  0.10100000352E+00 0.  1.
       -3    1    3    3    0  502 -0.50211718341E+03  0.11161808412E+04 -0.10810891430E+04  0.16330141094E+04  0.10100000352E+00 0. -1.
</event>
<event>
 5   0  0.6346420E-06  0.2503490E+04  0.7818609E-02  0.8401743E-01
       -1   -1    0    0    0  501  0.00000000000E+00  0.00000000000E+00  0.61626001897E+03  0.61626001899E+03  0.50400001928E-02 0.  1.
        1   -1    0    0  501    0  0.00000000000E+00  0.00000000000E+00 -0.25425392795E+04  0.25425392796E+04  0.50400001928E-02 0. -1.
    10030    2    1    2    0    0  0.00000000000E+00  0.00000000000E+00 -0.19262792606E+04  0.31587992985E+04  0.25034898080E+04 0.  0.
        4    1    3    3  502    0 -0.67341609085E+03 -0.18160952654E+02  0.36802722796E+03  0.76763578931E+03  0.12699999809E+01 0.  1.
       -4    1    3    3    0  502  0.67341609085E+03  0.18160952654E+02 -0.22943064885E+04  0.23911635092E+04  0.12699999809E+01 0. -1.
</event>
<event>
 5   0  0.1550483E-05  0.2498195E+04  0.7818609E-02  0.8403629E-01
       -2   -1    0    0    0  501  0.00000000000E+00  0.00000000000E+00  0.12043771617E+04  0.12043771617E+04  0.25500000920E-02 0. -1.
        2   -1    0    0  501    0  0.00000000000E+00  0.00000000000E+00 -0.12954783565E+04  0.12954783565E+04  0.25500000920E-02 0.  1.
    10030    2    1    2    0    0  0.00000000000E+00  0.00000000000E+00 -0.91101194735E+02  0.24998555182E+04  0.24981949852E+04 0.  0.
        5    1    3    3  502    0 -0.14886893372E+03 -0.11257371387E+04  0.47515707238E+03  0.12309518261E+04  0.46999998093E+01 0.  1.
       -5    1    3    3    0  502  0.14886893372E+03  0.11257371387E+04 -0.56625826711E+03  0.12689036921E+04  0.46999998093E+01 0. -1.
</event>
<event>
 5   0  0.1501947E-05  0.2545449E+04  0.7818609E-02  0.8386971E-01
       -2   -1    0    0    0  501  0.00000000000E+00  0.00000000000E+00  0.66654285814E+03  0.66654285815E+03  0.25500000920E-02 0.  1.
        2   -1    0    0  501    0  0.00000000000E+00  0.00000000000E+00 -0.24301934080E+04  0.24301934080E+04  0.25500000920E-02 0. -1.
    10030    2    1    2    0    0  0.00000000000E+00  0.00000000000E+00 -0.17636505499E+04  0.30967362662E+04  0.25454493199E+04 0.  0.
        3    1    3    3  502    0  0.15807923216E+03  0.48248565602E+03 -0.23016533141E+04  0.23569873653E+04  0.10100000352E+00 0. -1.
       -3    1    3    3    0  502 -0.15807923216E+03 -0.48248565602E+03  0.53800276416E+03  0.73974890088E+03  0.10100000352E+00 0.  1.
</event>
<event>
 5   0  0.1468512E-05  0.2504542E+04  0.7818609E-02  0.8401369E-01
       -2   -1    0    0    0  501  0.00000000000E+00  0.00000000000E+00  0.10896218024E+04  0.10896218024E+04  0.25500000920E-02 0. -1.
        2   -1    0    0  501    0  0.00000000000E+00  0.00000000000E+00 -0.14391988370E+04  0.14391988370E+04  0.25500000920E-02 0.  1.
    10030    2    1    2    0    0  0.00000000000E+00  0.00000000000E+00 -0.34957703457E+03  0.25288206394E+04  0.25045418190E+04 0.  0.
        4    1    3    3  502    0  0.25812662445E+03  0.10901219631E+03  0.10575625787E+04  0.10940535791E+04  0.12699999809E+01 0. -1.
       -4    1    3    3    0  502 -0.25812662445E+03 -0.10901219631E+03 -0.14071396133E+04  0.14347670603E+04  0.12699999809E+01 0.  1.
</event>
<event>
 5   0  0.1526824E-05  0.2501271E+04  0.7818609E-02  0.8402533E-01
        2   -1    0    0  501    0  0.00000000000E+00  0.00000000000E+00  0.15556565693E+04  0.15556565693E+04  0.25500000920E-02 0. -1.
       -2   -1    0    0    0  501  0.00000000000E+00  0.00000000000E+00 -0.10054202457E+04  0.10054202457E+04  0.25500000920E-02 0.  1.
    10030    2    1    2    0    0  0.00000000000E+00  0.00000000000E+00  0.55023632355E+03  0.25610768150E+04  0.25012705653E+04 0.  0.
        2    1    3    3  502    0 -0.39295986049E+03 -0.95639699285E+03  0.99548544648E+03  0.14353062161E+04  0.25500000920E-02 0. -1.
       -2    1    3    3    0  502  0.39295986049E+03  0.95639699285E+03 -0.44524912294E+03  0.11257705989E+04  0.25500000920E-02 0.  1.
</event>
<event>
 5   0  0.1526824E-05  0.2504962E+04  0.7818609E-02  0.8401220E-01
       -2   -1    0    0    0  501  0.00000000000E+00  0.00000000000E+00  0.11990048469E+04  0.11990048469E+04  0.25500000920E-02 0. -1.
        2   -1    0    0  501    0  0.00000000000E+00  0.00000000000E+00 -0.13083423251E+04  0.13083423251E+04  0.25500000920E-02 0.  1.
    10030    2    1    2    0    0  0.00000000000E+00  0.00000000000E+00 -0.10933747819E+03  0.25073471720E+04  0.25049621068E+04 0.  0.
        2    1    3    3  502    0  0.10460196370E+04 -0.21371329983E+03 -0.71018031312E+03  0.12822583720E+04  0.25500000920E-02 0. -1.
       -2    1    3    3    0  502 -0.10460196370E+04  0.21371329983E+03  0.60084283493E+03  0.12250888000E+04  0.25500000920E-02 0.  1.
</event>
<event>
 5   0  0.1526824E-05  0.2494479E+04  0.7818609E-02  0.8404955E-01
       -2   -1    0    0    0  501  0.00000000000E+00  0.00000000000E+00  0.63604383565E+03  0.63604383566E+03  0.25500000920E-02 0.  1.
        2   -1    0    0  501    0  0.00000000000E+00  0.00000000000E+00 -0.24457528337E+04  0.24457528337E+04  0.25500000920E-02 0. -1.
    10030    2    1    2    0    0  0.00000000000E+00  0.00000000000E+00 -0.18097089981E+04  0.30817966694E+04  0.24944787138E+04 0.  0.
        2    1    3    3  502    0 -0.12067339277E+04 -0.31375500809E+03 -0.94307429030E+03  0.15633419634E+04  0.25500000920E-02 0. -1.
       -2    1    3    3    0  502  0.12067339277E+04  0.31375500809E+03 -0.86663470780E+03  0.15184547060E+04  0.25500000920E-02 0.  1.
</event>
<event>
 5   0  0.1501947E-05  0.2544346E+04  0.7818609E-02  0.8387355E-01
       -2   -1    0    0    0  501  0.00000000000E+00  0.00000000000E+00  0.10773114600E+04  0.10773114600E+04  0.25500000920E-02 0. -1.
        2   -1    0    0  501    0  0.00000000000E+00  0.00000000000E+00 -0.15022809494E+04  0.15022809494E+04  0.25500000920E-02 0.  1.
    10030    2    1    2    0    0  0.00000000000E+00  0.00000000000E+00 -0.42496948940E+03  0.25795924094E+04  0.25443462681E+04 0.  0.
        3    1    3    3  502    0 -0.10335268487E+04 -0.95160955643E+01  0.53951530398E+03  0.11659095490E+04  0.10100000352E+00 0. -1.
       -3    1    3    3    0  502  0.10335268487E+04  0.95160955643E+01 -0.96448479339E+03  0.14136828604E+04  0.10100000352E+00 0.  1.
</event>
<event>
 5   0  0.1468512E-05  0.2497059E+04  0.7818609E-02  0.8404034E-01
        2   -1    0    0  501    0  0.00000000000E+00  0.00000000000E+00  0.18439789099E+04  0.18439789099E+04  0.25500000920E-02 0.  1.
       -2   -1    0    0    0  501  0.00000000000E+00  0.00000000000E+00 -0.84536017537E+03  0.84536017537E+03  0.25500000920E-02 0. -1.
    10030    2    1    2    0    0  0.00000000000E+00  0.00000000000E+00  0.99861873457E+03  0.26893390853E+04  0.24970593382E+04 0.  0.
        4    1    3    3  502    0  0.29714913612E+03 -0.33455429895E+03 -0.75603417089E+03  0.87852915062E+03  0.12699999809E+01 0. -1.
       -4    1    3    3    0  502 -0.29714913612E+03  0.33455429895E+03  0.17546529055E+04  0.18108099347E+04  0.12699999809E+01 0.  1.
</event>
<event>
 5   0  0.1572732E-05  0.2500918E+04  0.7818609E-02  0.8402659E-01
       -2   -1    0    0    0  501  0.00000000000E+00  0.00000000000E+00  0.92931789413E+03  0.92931789413E+03  0.25500000920E-02 0.  1.
        2   -1    0    0  501    0  0.00000000000E+00  0.00000000000E+00 -0.16825751837E+04  0.16825751837E+04  0.25500000920E-02 0. -1.
    10030    2    1    2    0    0  0.00000000000E+00  0.00000000000E+00 -0.75325728955E+03  0.26118930778E+04  0.25009176127E+04 0.  0.
        1    1    3    3  502    0  0.39432592742E+03  0.48703188314E+03 -0.15067523118E+04  0.16318687206E+04  0.50400001928E-02 0. -1.
       -1    1    3    3    0  502 -0.39432592742E+03 -0.48703188314E+03  0.75349502221E+03  0.98002435722E+03  0.50400001928E-02 0.  1.
</event>
<event>
 5   0  0.6290861E-06  0.2506401E+04  0.7818609E-02  0.8400709E-01
        1   -1    0    0  501    0  0.00000000000E+00  0.00000000000E+00  0.12576659605E+04  0.12576659605E+04  0.50400001928E-02 0.  1.
       -1   -1    0    0    0  501  0.00000000000E+00  0.00000000000E+00 -0.12487508003E+04  0.12487508003E+04  0.50400001928E-02 0. -1.
    10030    2    1    2    0    0  0.00000000000E+00  0.00000000000E+00  0.89151601676E+01  0.25064167608E+04  0.25064009054E+04 0.  0.
        1    1    3    3  502    0 -0.93433508854E+03 -0.79385134104E+03 -0.25502308802E+03  0.12522854247E+04  0.50400001928E-02 0. -1.
       -1    1    3    3    0  502  0.93433508854E+03  0.79385134104E+03  0.26393824818E+03  0.12541313361E+04  0.50400001928E-02 0.  1.
</event>
<event>
 5   0  0.6105353E-06  0.2490537E+04  0.7818609E-02  0.8406364E-01
        1   -1    0    0  501    0  0.00000000000E+00  0.00000000000E+00  0.16779672479E+04  0.16779672480E+04  0.50400001928E-02 0.  1.
       -1   -1    0    0    0  501  0.00000000000E+00  0.00000000000E+00 -0.92415037353E+03  0.92415037355E+03  0.50400001928E-02 0. -1.
    10030    2    1    2    0    0  0.00000000000E+00  0.00000000000E+00  0.75381687441E+03  0.26021176215E+04  0.24905373388E+04 0.  0.
        3    1    3    3  502    0  0.41637339506E+03 -0.11056129200E+04 -0.34360487062E+02  0.11819168271E+04  0.10100000352E+00 0. -1.
       -3    1    3    3    0  502 -0.41637339506E+03  0.11056129200E+04  0.78817736147E+03  0.14202007944E+04  0.10100000352E+00 0.  1.
</event>
<event>
 5   0  0.6290861E-06  0.2498360E+04  0.7818609E-02  0.8403570E-01
        1   -1    0    0  501    0  0.00000000000E+00  0.00000000000E+00  0.23193437481E+04  0.23193437481E+04  0.50400001928E-02 0.  1.
       -1   -1    0    0    0  501  0.00000000000E+00  0.00000000000E+00 -0.67279821753E+03  0.67279821755E+03  0.50400001928E-02 0. -1.
    10030    2    1    2    0    0  0.00000000000E+00  0.00000000000E+00  0.16465455305E+04  0.29921419656E+04  0.24983597336E+04 0.  0.
        1    1    3    3  502    0 -0.54892112772E+03 -0.10312906274E+04  0.13529173467E+04  0.17875290514E+04  0.50400001928E-02 0.  1.
       -1    1    3    3    0  502  0.54892112772E+03  0.10312906274E+04  0.29362818382E+03  0.12046129142E+04  0.50400001928E-02 0. -1.
</event>
<event>
 5   0  0.1468512E-05  0.2517317E+04  0.7818609E-02  0.8396842E-01
       -2   -1    0    0    0  501  0.00000000000E+00  0.00000000000E+00  0.13173263974E+04  0.13173263974E+04  0.25500000920E-02 0. -1.
        2   -1    0    0  501    0  0.00000000000E+00  0.00000000000E+00 -0.12026033943E+04  0.12026033943E+04  0.25500000920E-02 0.  1.
    10030    2    1    2    0    0  0.00000000000E+00  0.00000000000E+00  0.11472300311E+03  0.25199297918E+04  0.25173169820E+04 0.  0.
        4    1    3    3  502    0 -0.91797068044E+03  0.70280168687E+03  0.55549149927E+03  0.12826428965E+04  0.12699999809E+01 0. -1.
       -4    1    3    3    0  502  0.91797068044E+03 -0.70280168687E+03 -0.44076849616E+03  0.12372868953E+04  0.12699999809E+01 0.  1.
</event>
<event>
 5   0  0.1526824E-05  0.2501382E+04  0.7818609E-02  0.8402493E-01
        2   -1    0    0  501    0  0.00000000000E+00  0.00000000000E+00  0.14731636663E+04  0.14731636663E+04  0.25500000920E-02 0.  1.
       -2   -1    0    0    0  501  0.00000000000E+00  0.00000000000E+00 -0.10618153969E+04  0.10618153969E+04  0.25500000920E-02 0. -1.
    10030    2    1    2    0    0  0.00000000000E+00  0.00000000000E+00  0.41134826939E+03  0.25349790632E+04  0.25013819085E+04 0.  0.
        2    1    3    3  502    0  0.15793083382E+03 -0.11347704020E+04  0.71399042159E+03  0.13499734574E+04  0.25500000920E-02 0. -1.
       -2    1    3    3    0  502 -0.15793083382E+03  0.11347704020E+04 -0.30264215220E+03  0.11850056058E+04  0.25500000920E-02 0.  1.
</event>
<event>
 5   0  0.1526824E-05  0.2496951E+04  0.7818609E-02  0.8404073E-01
       -2   -1    0    0    0  501  0.00000000000E+00  0.00000000000E+00  0.19026027543E+04  0.19026027543E+04  0.25500000920E-02 0. -1.
        2   -1    0    0  501    0  0.00000000000E+00  0.00000000000E+00 -0.81924155855E+03  0.81924155856E+03  0.25500000920E-02 0.  1.
    10030    2    1    2    0    0  0.00000000000E+00  0.00000000000E+00  0.10833611958E+04  0.27218443129E+04  0.24969511375E+04 0.  0.
        2    1    3    3  502    0 -0.61700327264E+03 -0.96509210212E+03  0.10829902347E+04  0.15763767482E+04  0.25500000920E-02 0.  1.
       -2    1    3    3    0  502  0.61700327264E+03  0.96509210212E+03  0.37096110725E+00  0.11454675646E+04  0.25500000920E-02 0. -1.
</event>
<event>
 5   0  0.1572732E-05  0.2524628E+04  0.7818609E-02  0.8394264E-01
        2   -1    0    0  501    0  0.00000000000E+00  0.00000000000E+00  0.21627762208E+04  0.21627762208E+04  0.25500000920E-02 0. -1.
       -2   -1    0    0    0  501  0.00000000000E+00  0.00000000000E+00 -0.73675538345E+03  0.73675538345E+03  0.25500000920E-02 0.  1.
    10030    2    1    2    0    0  0.00000000000E+00  0.00000000000E+00  0.14260208374E+04  0.28995316043E+04  0.25246283084E+04 0.  0.
        1    1    3    3  502    0 -0.36908010826E+02 -0.82708166874E+03  0.18074099312E+04  0.19880032564E+04  0.50400001928E-02 0. -1.
       -1    1    3    3    0  502  0.36908010826E+02  0.82708166874E+03 -0.38138909384E+03  0.91152834786E+03  0.50400001928E-02 0.  1.
</event>
<event>
 5   0  0.1550483E-05  0.2501342E+04  0.7818609E-02  0.8402508E-01
       -2   -1    0    0    0  501  0.00000000000E+00  0.00000000000E+00  0.71394840476E+03  0.71394840476E+03  0.25500000920E-02 0. -1.
        2   -1    0    0  501    0  0.00000000000E+00  0.00000000000E+00 -0.21908838360E+04  0.21908838360E+04  0.25500000920E-02 0.  1.
    10030    2    1    2    0    0  0.00000000000E+00  0.00000000000E+00 -0.14769354313E+04  0.29048322408E+04  0.25013420556E+04 0.  0.
        5    1    3    3  502    0 -0.45024032922E+03  0.57547884013E+03 -0.19172189651E+04  0.20517414310E+04  0.46999998093E+01 0.  1.
       -5    1    3    3    0  502  0.45024032922E+03 -0.57547884013E+03  0.44028353388E+03  0.85309080976E+03  0.46999998093E+01 0. -1.
</event>
<event>
 5   0  0.6104486E-06  0.2539713E+04  0.7818609E-02  0.8388972E-01
        1   -1    0    0  501    0  0.00000000000E+00  0.00000000000E+00  0.10936251260E+04  0.10936251261E+04  0.50400001928E-02 0.  1.
       -1   -1    0    0    0  501  0.00000000000E+00  0.00000000000E+00 -0.14744870253E+04  0.14744870253E+04  0.50400001928E-02 0. -1.
    10030    2    1    2    0    0  0.00000000000E+00  0.00000000000E+00 -0.38086189923E+03  0.25681121513E+04  0.25397134160E+04 0.  0.
        2    1    3    3  502    0 -0.27094566293E+03  0.10601990884E+04 -0.84191966046E+03  0.13806746083E+04  0.25500000920E-02 0. -1.
       -2    1    3    3    0  502  0.27094566293E+03 -0.10601990884E+04  0.46105776123E+03  0.11874375430E+04  0.25500000920E-02 0.  1.
</event>
<event>
 5   0  0.6105353E-06  0.2488009E+04  0.7818609E-02  0.8407270E-01
       -1   -1    0    0    0  501  0.00000000000E+00  0.00000000000E+00  0.83169029733E+03  0.83169029734E+03  0.50400001928E-02 0. -1.
        1   -1    0    0  501    0  0.00000000000E+00  0.00000000000E+00 -0.18607253193E+04  0.18607253193E+04  0.50400001928E-02 0.  1.
    10030    2    1    2    0    0  0.00000000000E+00  0.00000000000E+00 -0.10290350220E+04  0.26924156166E+04  0.24880089984E+04 0.  0.
        3    1    3    3  502    0 -0.95141565380E+03 -0.80147069579E+03 -0.51408280654E+03  0.13460416653E+04  0.10100000352E+00 0.  1.
       -3    1    3    3    0  502  0.95141565380E+03  0.80147069579E+03 -0.51495221542E+03  0.13463739514E+04  0.10100000352E+00 0. -1.
</event>
<event>
 5   0  0.6290861E-06  0.2493728E+04  0.7818609E-02  0.8405223E-01
        1   -1    0    0  501    0  0.00000000000E+00  0.00000000000E+00  0.14920007945E+04  0.14920007945E+04  0.50400001928E-02 0. -1.
       -1   -1    0    0    0  501  0.00000000000E+00  0.00000000000E+00 -0.10420031296E+04  0.10420031297E+04  0.50400001928E-02 0.  1.
    10030    2    1    2    0    0  0.00000000000E+00  0.00000000000E+00  0.44999766481E+03  0.25340039241E+04  0.24937277295E+04 0.  0.
        1    1    3    3  502    0  0.11739917470E+04  0.41499376879E+03  0.29079841148E+03  0.12786868914E+04  0.50400001928E-02 0. -1.
       -1    1    3    3    0  502 -0.11739917470E+04 -0.41499376879E+03  0.15919925333E+03  0.12553170327E+04  0.50400001928E-02 0.  1.
</event>
<event>
 5   0  0.6104486E-06  0.2491496E+04  0.7818609E-02  0.8406021E-01
        1   -1    0    0  501    0  0.00000000000E+00  0.00000000000E+00  0.93944841902E+03  0.93944841904E+03  0.50400001928E-02 0.  1.
       -1   -1    0    0    0  501  0.00000000000E+00  0.00000000000E+00 -0.16519145171E+04  0.16519145171E+04  0.50400001928E-02 0. -1.
    10030    2    1    2    0    0  0.00000000000E+00  0.00000000000E+00 -0.71246609809E+03  0.25913629362E+04  0.24914963227E+04 0.  0.
        2    1    3    3  502    0 -0.16883308337E+03 -0.25291594889E+03  0.90025323282E+03  0.95022469472E+03  0.25500000920E-02 0.  1.
       -2    1    3    3    0  502  0.16883308337E+03  0.25291594889E+03 -0.16127193309E+04  0.16411382414E+04  0.25500000920E-02 0. -1.
</event>
<event>
 5   0  0.1501947E-05  0.2520491E+04  0.7818609E-02  0.8395722E-01
       -2   -1    0    0    0  501  0.00000000000E+00  0.00000000000E+00  0.18016193501E+04  0.18016193501E+04  0.25500000920E-02 0. -1.
        2   -1    0    0  501    0  0.00000000000E+00  0.00000000000E+00 -0.88155099761E+03  0.88155099762E+03  0.25500000920E-02 0.  1.
    10030    2    1    2    0    0  0.00000000000E+00  0.00000000000E+00  0.92006835246E+03  0.26831703477E+04  0.25204914881E+04 0.  0.
        3    1    3    3  502    0 -0.21273924105E+03 -0.88285908319E+03  0.13902282215E+04  0.16605519154E+04  0.10100000352E+00 0. -1.
       -3    1    3    3    0  502  0.21273924105E+03  0.88285908319E+03 -0.47015986908E+03  0.10226184323E+04  0.10100000352E+00 0.  1.
</event>
<event>
 5   0  0.6104486E-06  0.2514557E+04  0.7818609E-02  0.8397818E-01
       -1   -1    0    0    0  501  0.00000000000E+00  0.00000000000E+00  0.12180894657E+04  0.12180894657E+04  0.50400001928E-02 0. -1.
        1   -1    0    0  501    0  0.00000000000E+00  0.00000000000E+00 -0.12977285891E+04  0.12977285891E+04  0.50400001928E-02 0.  1.
    10030    2    1    2    0    0  0.00000000000E+00  0.00000000000E+00 -0.79639123349E+02  0.25158180548E+04  0.25145572364E+04 0.  0.
        2    1    3    3  502    0 -0.29113995208E+02 -0.39022445214E+02 -0.12967851012E+04  0.12976987226E+04  0.25500000920E-02 0.  1.
       -2    1    3    3    0  502  0.29113995208E+02  0.39022445214E+02  0.12171459779E+04  0.12181193322E+04  0.25500000920E-02 0. -1.
</event>
<event>
 5   0  0.1550483E-05  0.2514578E+04  0.7818609E-02  0.8397810E-01
       -2   -1    0    0    0  501  0.00000000000E+00  0.00000000000E+00  0.68374672695E+03  0.68374672696E+03  0.25500000920E-02 0. -1.
        2   -1    0    0  501    0  0.00000000000E+00  0.00000000000E+00 -0.23119310229E+04  0.23119310229E+04  0.25500000920E-02 0.  1.
    10030    2    1    2    0    0  0.00000000000E+00  0.00000000000E+00 -0.16281842959E+04  0.29956777498E+04  0.25145777139E+04 0.  0.
        5    1    3    3  502    0 -0.97518306080E+03 -0.76704474773E+02  0.12689395376E+03  0.98640242499E+03  0.46999998093E+01 0. -1.
       -5    1    3    3    0  502  0.97518306080E+03  0.76704474773E+02 -0.17550782497E+04  0.20092753248E+04  0.46999998093E+01 0.  1.
</event>
<event>
 5   0  0.1468512E-05  0.2486060E+04  0.7818609E-02  0.8407969E-01
        2   -1    0    0  501    0  0.00000000000E+00  0.00000000000E+00  0.16707004470E+04  0.16707004470E+04  0.25500000920E-02 0. -1.
       -2   -1    0    0    0  501  0.00000000000E+00  0.00000000000E+00 -0.92483588637E+03  0.92483588637E+03  0.25500000920E-02 0.  1.
    10030    2    1    2    0    0  0.00000000000E+00  0.00000000000E+00  0.74586456061E+03  0.25955363334E+04  0.24860601189E+04 0.  0.
        4    1    3    3  502    0 -0.10415721266E+04 -0.54001941992E+03 -0.55795044183E+02  0.11745672261E+04  0.12699999809E+01 0.  1.
       -4    1    3    3    0  502  0.10415721266E+04  0.54001941992E+03  0.80165960479E+03  0.14209691072E+04  0.12699999809E+01 0. -1.
</event>
<event>
 5   0  0.6477703E-06  0.2509526E+04  0.7818609E-02  0.8399600E-01
       -1   -1    0    0    0  501  0.00000000000E+00  0.00000000000E+00  0.19462407567E+04  0.19462407567E+04  0.50400001928E-02 0. -1.
        1   -1    0    0  501    0  0.00000000000E+00  0.00000000000E+00 -0.80895970186E+03  0.80895970188E+03  0.50400001928E-02 0.  1.
    10030    2    1    2    0    0  0.00000000000E+00  0.00000000000E+00  0.11372810548E+04  0.27552004586E+04  0.25095261244E+04 0.  0.
        5    1    3    3  502    0 -0.92618492087E+03  0.81562417961E+03  0.81742242390E+03  0.14802914642E+04  0.46999998093E+01 0.  1.
       -5    1    3    3    0  502  0.92618492087E+03 -0.81562417961E+03  0.31985863091E+03  0.12749089943E+04  0.46999998093E+01 0. -1.
</event>
<event>
 5   0  0.6105353E-06  0.2500551E+04  0.7818609E-02  0.8402789E-01
        1   -1    0    0  501    0  0.00000000000E+00  0.00000000000E+00  0.12490003408E+04  0.12490003408E+04  0.50400001928E-02 0. -1.
       -1   -1    0    0    0  501  0.00000000000E+00  0.00000000000E+00 -0.12515518299E+04  0.12515518299E+04  0.50400001928E-02 0.  1.
    10030    2    1    2    0    0  0.00000000000E+00  0.00000000000E+00 -0.25514890307E+01  0.25005521707E+04  0.25005508690E+04 0.  0.
        3    1    3    3  502    0 -0.47887322917E+03  0.47445418971E+03 -0.10542541197E+04  0.12513505132E+04  0.10100000352E+00 0.  1.
       -3    1    3    3    0  502  0.47887322917E+03 -0.47445418971E+03  0.10517026306E+04  0.12492016576E+04  0.10100000352E+00 0. -1.
</event>
<event>
 5   0  0.6290861E-06  0.2537928E+04  0.7818609E-02  0.8389597E-01
       -1   -1    0    0    0  501  0.00000000000E+00  0.00000000000E+00  0.11791953423E+04  0.11791953424E+04  0.50400001928E-02 0. -1.
        1   -1    0    0  501    0  0.00000000000E+00  0.00000000000E+00 -0.13655669620E+04  0.13655669620E+04  0.50400001928E-02 0.  1.
    10030    2    1    2    0    0  0.00000000000E+00  0.00000000000E+00 -0.18637161964E+03  0.25447623043E+04  0.25379284476E+04 0.  0.
        1    1    3    3  502    0 -0.11392695233E+04 -0.26804561704E+03  0.39852910554E+03  0.12363692602E+04  0.50400001928E-02 0. -1.
       -1    1    3    3    0  502  0.11392695233E+04  0.26804561704E+03 -0.58490072517E+03  0.13083930441E+04  0.50400001928E-02 0.  1.
</event>
<event>
 5   0  0.6477703E-06  0.2499065E+04  0.7818609E-02  0.8403319E-01
       -1   -1    0    0    0  501  0.00000000000E+00  0.00000000000E+00  0.86061756442E+03  0.86061756443E+03  0.50400001928E-02 0. -1.
        1   -1    0    0  501    0  0.00000000000E+00  0.00000000000E+00 -0.18141983848E+04  0.18141983848E+04  0.50400001928E-02 0.  1.
    10030    2    1    2    0    0  0.00000000000E+00  0.00000000000E+00 -0.95358082043E+03  0.26748159493E+04  0.24990646213E+04 0.  0.
        5    1    3    3  502    0  0.84095560036E+03 -0.81143652688E+03 -0.33315437545E+01  0.11686183073E+04  0.46999998093E+01 0. -1.
       -5    1    3    3    0  502 -0.84095560036E+03  0.81143652688E+03 -0.95024927667E+03  0.15061976420E+04  0.46999998093E+01 0.  1.
</event>
<event>
 5   0  0.1526824E-05  0.2610971E+04  0.7818609E-02  0.8364484E-01
       -2   -1    0    0    0  501  0.00000000000E+00  0.00000000000E+00  0.14109873066E+04  0.14109873066E+04  0.25500000920E-02 0. -1.
        2   -1    0    0  501    0  0.00000000000E+00  0.00000000000E+00 -0.12078722033E+04  0.12078722033E+04  0.25500000920E-02 0.  1.
    10030    2    1    2    0    0  0.00000000000E+00  0.00000000000E+00  0.20311510334E+03  0.26188595099E+04  0.26109709664E+04 0.  0.
        2    1    3    3  502    0 -0.46378241503E+03 -0.10549855943E+04  0.71676507862E+03  0.13571443956E+04  0.25500000920E-02 0.  1.
       -2    1    3    3    0  502  0.46378241503E+03  0.10549855943E+04 -0.51364997528E+03  0.12617151143E+04  0.25500000920E-02 0. -1.
</event>
<event>
 5   0  0.6104486E-06  0.2501097E+04  0.7818609E-02  0.8402595E-01
       -1   -1    0    0    0  501  0.00000000000E+00  0.00000000000E+00  0.80716509815E+03  0.80716509816E+03  0.50400001928E-02 0. -1.
        1   -1    0    0  501    0  0.00000000000E+00  0.00000000000E+00 -0.19374867293E+04  0.19374867294E+04  0.50400001928E-02 0.  1.
    10030    2    1    2    0    0  0.00000000000E+00  0.00000000000E+00 -0.11303216312E+04  0.27446518275E+04  0.25010970921E+04 0.  0.
        2    1    3    3  502    0 -0.70025187375E+03 -0.88720085928E+03  0.22109939047E+02  0.11304719814E+04  0.25500000920E-02 0. -1.
       -2    1    3    3    0  502  0.70025187375E+03  0.88720085928E+03 -0.11524315702E+04  0.16141798461E+04  0.25500000920E-02 0.  1.
</event>
<event>
 5   0  0.1550483E-05  0.2501961E+04  0.7818609E-02  0.8402287E-01
       -2   -1    0    0    0  501  0.00000000000E+00  0.00000000000E+00  0.74602119284E+03  0.74602119284E+03  0.25500000920E-02 0.  1.
        2   -1    0    0  501    0  0.00000000000E+00  0.00000000000E+00 -0.20977312785E+04  0.20977312785E+04  0.25500000920E-02 0. -1.
    10030    2    1    2    0    0  0.00000000000E+00  0.00000000000E+00 -0.13517100857E+04  0.28437524714E+04  0.25019608236E+04 0.  0.
        5    1    3    3  502    0 -0.56069324211E+03  0.43933085120E+02  0.59421282726E+03  0.81817968797E+03  0.46999998093E+01 0.  1.
       -5    1    3    3    0  502  0.56069324211E+03 -0.43933085120E+02 -0.19459229130E+04  0.20255727834E+04  0.46999998093E+01 0. -1.
</event>
<event>
 5   0  0.6290861E-06  0.2594588E+04  0.7818609E-02  0.8370042E-01
       -1   -1    0    0    0  501  0.00000000000E+00  0.00000000000E+00  0.10395554366E+04  0.10395554366E+04  0.50400001928E-02 0. -1.
        1   -1    0    0  501    0  0.00000000000E+00  0.00000000000E+00 -0.16189337213E+04  0.16189337213E+04  0.50400001928E-02 0.  1.
    10030    2    1    2    0    0  0.00000000000E+00  0.00000000000E+00 -0.57937828477E+03  0.26584891579E+04  0.25945877140E+04 0.  0.
        1    1    3    3  502    0 -0.10102063452E+03 -0.10104240402E+04  0.53754196962E+03  0.11489618265E+04  0.50400001928E-02 0. -1.
       -1    1    3    3    0  502  0.10102063452E+03  0.10104240402E+04 -0.11169202544E+04  0.15095273314E+04  0.50400001928E-02 0.  1.
</event>
<event>
 5   0  0.1501947E-05  0.2502160E+04  0.7818609E-02  0.8402216E-01
       -2   -1    0    0    0  501  0.00000000000E+00  0.00000000000E+00  0.11243111801E+04  0.11243111801E+04  0.25500000920E-02 0. -1.
        2   -1    0    0  501    0  0.00000000000E+00  0.00000000000E+00 -0.13921424316E+04  0.13921424316E+04  0.25500000920E-02 0.  1.
    10030    2    1    2    0    0  0.00000000000E+00  0.00000000000E+00 -0.26783125152E+03  0.25164536116E+04  0.25021601068E+04 0.  0.
        3    1    3    3  502    0  0.10474448606E+04 -0.56835658941E+03 -0.51692090907E+03  0.12989908334E+04  0.10100000352E+00 0.  1.
       -3    1    3    3    0  502 -0.10474448606E+04  0.56835658941E+03  0.24908965755E+03  0.12174627783E+04  0.10100000352E+00 0. -1.
</event>
<event>
 5   0  0.1550483E-05  0.2500164E+04  0.7818609E-02  0.8402927E-01
        2   -1    0    0  501    0  0.00000000000E+00  0.00000000000E+00  0.17183557236E+04  0.17183557236E+04  0.25500000920E-02 0. -1.
       -2   -1    0    0    0  501  0.00000000000E+00  0.00000000000E+00 -0.90941878633E+03  0.90941878634E+03  0.25500000920E-02 0.  1.
    10030    2    1    2    0    0  0.00000000000E+00  0.00000000000E+00  0.80893693724E+03  0.26277745099E+04  0.25001639759E+04 0.  0.
        5    1    3    3  502    0  0.18231347607E+03 -0.72203355743E+02  0.17020810521E+04  0.17133457112E+04  0.46999998093E+01 0. -1.
       -5    1    3    3    0  502 -0.18231347607E+03  0.72203355743E+02 -0.89314411483E+03  0.91442879875E+03  0.46999998093E+01 0.  1.
</event>
<event>
 5   0  0.1550483E-05  0.2520553E+04  0.7818609E-02  0.8395700E-01
       -2   -1    0    0    0  501  0.00000000000E+00  0.00000000000E+00  0.69952190902E+03  0.69952190902E+03  0.25500000920E-02 0.  1.
        2   -1    0    0  501    0  0.00000000000E+00  0.00000000000E+00 -0.22705463618E+04  0.22705463618E+04  0.25500000920E-02 0. -1.
    10030    2    1    2    0    0  0.00000000000E+00  0.00000000000E+00 -0.15710244528E+04  0.29700682708E+04  0.25205530548E+04 0.  0.
        5    1    3    3  502    0 -0.14718527224E+03  0.49421621040E+03  0.56950780310E+03  0.76829316981E+03  0.46999998093E+01 0.  1.
       -5    1    3    3    0  502  0.14718527224E+03 -0.49421621040E+03 -0.21405322559E+04  0.22017751010E+04  0.46999998093E+01 0. -1.
</event>
<event>
 5   0  0.1501947E-05  0.2489406E+04  0.7818609E-02  0.8406769E-01
       -2   -1    0    0    0  501  0.00000000000E+00  0.00000000000E+00  0.11123860287E+04  0.11123860287E+04  0.25500000920E-02 0. -1.
        2   -1    0    0  501    0  0.00000000000E+00  0.00000000000E+00 -0.13927591976E+04  0.13927591976E+04  0.25500000920E-02 0.  1.
    10030    2    1    2    0    0  0.00000000000E+00  0.00000000000E+00 -0.28037316892E+03  0.25051452264E+04  0.24894062528E+04 0.  0.
        3    1    3    3  502    0 -0.58765547336E+03 -0.62042326677E+03 -0.10509066027E+04  0.13544994216E+04  0.10100000352E+00 0.  1.
       -3    1    3    3    0  502  0.58765547336E+03  0.62042326677E+03  0.77053343375E+03  0.11506458048E+04  0.10100000352E+00 0. -1.
</event>
<event>
 5   0  0.6290861E-06  0.2492921E+04  0.7818609E-02  0.8405512E-01
       -1   -1    0    0    0  501  0.00000000000E+00  0.00000000000E+00  0.63362211182E+03  0.63362211184E+03  0.50400001928E-02 0. -1.
        1   -1    0    0  501    0  0.00000000000E+00  0.00000000000E+00 -0.24520346702E+04  0.24520346702E+04  0.50400001928E-02 0.  1.
    10030    2    1    2    0    0  0.00000000000E+00  0.00000000000E+00 -0.18184125584E+04  0.30856567821E+04  0.24929206855E+04 0.  0.
        1    1    3    3  502    0 -0.33609584076E+03 -0.11565076561E+03 -0.23879776359E+04  0.24142851330E+04  0.50400001928E-02 0.  1.
       -1    1    3    3    0  502  0.33609584076E+03  0.11565076561E+03  0.56956507746E+03  0.67137164912E+03  0.50400001928E-02 0. -1.
</event>
<event>
 5   0  0.6346420E-06  0.2493333E+04  0.7818609E-02  0.8405365E-01
        1   -1    0    0  501    0  0.00000000000E+00  0.00000000000E+00  0.12732924892E+04  0.12732924892E+04  0.50400001928E-02 0. -1.
       -1   -1    0    0    0  501  0.00000000000E+00  0.00000000000E+00 -0.12205972874E+04  0.12205972874E+04  0.50400001928E-02 0.  1.
    10030    2    1    2    0    0  0.00000000000E+00  0.00000000000E+00  0.52695201763E+02  0.24938897766E+04  0.24933329969E+04 0.  0.
        4    1    3    3  502    0  0.10340650217E+04 -0.28908218897E+03 -0.60728953377E+03  0.12335563108E+04  0.12699999809E+01 0.  1.
       -4    1    3    3    0  502 -0.10340650217E+04  0.28908218897E+03  0.65998473554E+03  0.12603334659E+04  0.12699999809E+01 0. -1.
</event>
<event>
 5   0  0.6477703E-06  0.2494308E+04  0.7818609E-02  0.8405016E-01
       -1   -1    0    0    0  501  0.00000000000E+00  0.00000000000E+00  0.15899164385E+04  0.15899164385E+04  0.50400001928E-02 0. -1.
        1   -1    0    0  501    0  0.00000000000E+00  0.00000000000E+00 -0.97828630087E+03  0.97828630088E+03  0.50400001928E-02 0.  1.
    10030    2    1    2    0    0  0.00000000000E+00  0.00000000000E+00  0.61163013765E+03  0.25682027394E+04  0.24943082980E+04 0.  0.
        5    1    3    3  502    0  0.92248804606E+03 -0.83893913650E+03  0.33036059763E+03  0.12899470083E+04  0.46999998093E+01 0. -1.
       -5    1    3    3    0  502 -0.92248804606E+03  0.83893913650E+03  0.28126954002E+03  0.12782557311E+04  0.46999998093E+01 0.  1.
</event>
<event>
 5   0  0.1526824E-05  0.2483448E+04  0.7818609E-02  0.8408906E-01
        2   -1    0    0  501    0  0.00000000000E+00  0.00000000000E+00  0.17947214516E+04  0.17947214516E+04  0.25500000920E-02 0.  1.
       -2   -1    0    0    0  501  0.00000000000E+00  0.00000000000E+00 -0.85911864862E+03  0.85911864862E+03  0.25500000920E-02 0. -1.
    10030    2    1    2    0    0  0.00000000000E+00  0.00000000000E+00  0.93560280294E+03  0.26538401002E+04  0.24834481417E+04 0.  0.
        2    1    3    3  502    0 -0.10782843713E+04 -0.59266721795E+03  0.64638114710E+03  0.13898777658E+04  0.25500000920E-02 0.  1.
       -2    1    3    3    0  502  0.10782843713E+04  0.59266721795E+03  0.28922165584E+03  0.12639623344E+04  0.25500000920E-02 0. -1.
</event>
<event>
 5   0  0.6105353E-06  0.2502666E+04  0.7818609E-02  0.8402037E-01
        1   -1    0    0  501    0  0.00000000000E+00  0.00000000000E+00  0.62220418088E+03  0.62220418090E+03  0.50400001928E-02 0.  1.
       -1   -1    0    0    0  501  0.00000000000E+00  0.00000000000E+00 -0.25165914349E+04  0.25165914349E+04  0.50400001928E-02 0. -1.
    10030    2    1    2    0    0  0.00000000000E+00  0.00000000000E+00 -0.18943872540E+04  0.31387956158E+04  0.25026655489E+04 0.  0.
        3    1    3    3  502    0 -0.90846740276E+03  0.76989635022E+03 -0.46505882690E+03  0.12784103937E+04  0.10100000352E+00 0. -1.
       -3    1    3    3    0  502  0.90846740276E+03 -0.76989635022E+03 -0.14293284271E+04  0.18603852221E+04  0.10100000352E+00 0.  1.
</event>
<event>
 5   0  0.6346420E-06  0.2491936E+04  0.7818609E-02  0.8405864E-01
        1   -1    0    0  501    0  0.00000000000E+00  0.00000000000E+00  0.87243923271E+03  0.87243923272E+03  0.50400001928E-02 0. -1.
       -1   -1    0    0    0  501  0.00000000000E+00  0.00000000000E+00 -0.17794208795E+04  0.17794208795E+04  0.50400001928E-02 0.  1.
    10030    2    1    2    0    0  0.00000000000E+00  0.00000000000E+00 -0.90698164679E+03  0.26518601122E+04  0.24919362647E+04 0.  0.
        4    1    3    3  502    0  0.11240119326E+04 -0.24155454758E+01 -0.10256045568E+04  0.15216027666E+04  0.12699999809E+01 0.  1.
       -4    1    3    3    0  502 -0.11240119326E+04  0.24155454758E+01  0.11862291002E+03  0.11302573456E+04  0.12699999809E+01 0. -1.
</event>
<event>
 5   0  0.1468512E-05  0.2477130E+04  0.7818609E-02  0.8411179E-01
        2   -1    0    0  501    0  0.00000000000E+00  0.00000000000E+00  0.18480796351E+04  0.18480796351E+04  0.25500000920E-02 0.  1.
       -2   -1    0    0    0  501  0.00000000000E+00  0.00000000000E+00 -0.83007441912E+03  0.83007441912E+03  0.25500000920E-02 0. -1.
    10030    2    1    2    0    0  0.00000000000E+00  0.00000000000E+00  0.10180052160E+04  0.26781540542E+04  0.24771302990E+04 0.  0.
        4    1    3    3  502    0 -0.12268805715E+04  0.16661928757E+03  0.54393725153E+03  0.13523561920E+04  0.12699999809E+01 0.  1.
       -4    1    3    3    0  502  0.12268805715E+04 -0.16661928757E+03  0.47406796448E+03  0.13257978622E+04  0.12699999809E+01 0. -1.
</event>
<event>
 5   0  0.6346420E-06  0.2494117E+04  0.7818609E-02  0.8405084E-01
        1   -1    0    0  501    0  0.00000000000E+00  0.00000000000E+00  0.15331326609E+04  0.15331326609E+04  0.50400001928E-02 0. -1.
       -1   -1    0    0    0  501  0.00000000000E+00  0.00000000000E+00 -0.10143642775E+04  0.10143642776E+04  0.50400001928E-02 0.  1.
    10030    2    1    2    0    0  0.00000000000E+00  0.00000000000E+00  0.51876838335E+03  0.25474969384E+04  0.24941170814E+04 0.  0.
        4    1    3    3  502    0 -0.38887765987E+03  0.73519497579E+03  0.12084730085E+04  0.14670194654E+04  0.12699999809E+01 0. -1.
       -4    1    3    3    0  502  0.38887765987E+03 -0.73519497579E+03 -0.68970462517E+03  0.10804774730E+04  0.12699999809E+01 0.  1.
</event>
<event>
 5   0  0.6346420E-06  0.2436329E+04  0.7818609E-02  0.8426026E-01
       -1   -1    0    0    0  501  0.00000000000E+00  0.00000000000E+00  0.51002203546E+03  0.51002203548E+03  0.50400001928E-02 0.  1.
        1   -1    0    0  501    0  0.00000000000E+00  0.00000000000E+00 -0.29095311951E+04  0.29095311952E+04  0.50400001928E-02 0. -1.
    10030    2    1    2    0    0  0.00000000000E+00  0.00000000000E+00 -0.23995091597E+04  0.34195532306E+04  0.24363292244E+04 0.  0.
        4    1    3    3  502    0 -0.99983470075E+03  0.13981506834E+03 -0.24295184851E+03  0.10383857163E+04  0.12699999809E+01 0.  1.
       -4    1    3    3    0  502  0.99983470075E+03 -0.13981506834E+03 -0.21565573112E+04  0.23811675144E+04  0.12699999809E+01 0. -1.
</event>
<event>
 5   0  0.6290861E-06  0.2506389E+04  0.7818609E-02  0.8400713E-01
        1   -1    0    0  501    0  0.00000000000E+00  0.00000000000E+00  0.27603875551E+04  0.27603875551E+04  0.50400001928E-02 0. -1.
       -1   -1    0    0    0  501  0.00000000000E+00  0.00000000000E+00 -0.56894071335E+03  0.56894071337E+03  0.50400001928E-02 0.  1.
    10030    2    1    2    0    0  0.00000000000E+00  0.00000000000E+00  0.21914468417E+04  0.33293282685E+04  0.25063893271E+04 0.  0.
        1    1    3    3  502    0 -0.82040952717E+03  0.93073419255E+03  0.13301999572E+04  0.18190024342E+04  0.50400001928E-02 0.  1.
       -1    1    3    3    0  502  0.82040952717E+03 -0.93073419255E+03  0.86124688448E+03  0.15103258342E+04  0.50400001928E-02 0. -1.
</event>
<event>
 5   0  0.1572732E-05  0.2397929E+04  0.7818609E-02  0.8440279E-01
       -2   -1    0    0    0  501  0.00000000000E+00  0.00000000000E+00  0.92027021042E+03  0.92027021042E+03  0.25500000920E-02 0.  1.
        2   -1    0    0  501    0  0.00000000000E+00  0.00000000000E+00 -0.15620586697E+04  0.15620586697E+04  0.25500000920E-02 0. -1.
    10030    2    1    2    0    0  0.00000000000E+00  0.00000000000E+00 -0.64178845927E+03  0.24823288801E+04  0.23979291571E+04 0.  0.
        1    1    3    3  502    0 -0.50048549408E+03 -0.27971085790E+03  0.76915985380E+03  0.95933871731E+03  0.50400001928E-02 0.  1.
       -1    1    3    3    0  502  0.50048549408E+03  0.27971085790E+03 -0.14109483131E+04  0.15229901628E+04  0.50400001928E-02 0. -1.
</event>
<event>
 5   0  0.6105353E-06  0.2495564E+04  0.7818609E-02  0.8404567E-01
        1   -1    0    0  501    0  0.00000000000E+00  0.00000000000E+00  0.12360918397E+04  0.12360918397E+04  0.50400001928E-02 0. -1.
       -1   -1    0    0    0  501  0.00000000000E+00  0.00000000000E+00 -0.12595831108E+04  0.12595831109E+04  0.50400001928E-02 0.  1.
    10030    2    1    2    0    0  0.00000000000E+00  0.00000000000E+00 -0.23491271119E+02  0.24956749506E+04  0.24955643889E+04 0.  0.
        3    1    3    3  502    0 -0.11169383919E+04  0.27252581932E+03 -0.49667814253E+03  0.12524020445E+04  0.10100000352E+00 0.  1.
       -3    1    3    3    0  502  0.11169383919E+04 -0.27252581932E+03  0.47318687141E+03  0.12432729061E+04  0.10100000352E+00 0. -1.
</event>
<event>
 5   0  0.1526824E-05  0.2318009E+04  0.7818609E-02  0.8470854E-01
       -2   -1    0    0    0  501  0.00000000000E+00  0.00000000000E+00  0.11696026667E+04  0.11696026667E+04  0.25500000920E-02 0. -1.
        2   -1    0    0  501    0  0.00000000000E+00  0.00000000000E+00 -0.11485027826E+04  0.11485027826E+04  0.25500000920E-02 0.  1.
    10030    2    1    2    0    0  0.00000000000E+00  0.00000000000E+00  0.21099884120E+02  0.23181054493E+04  0.23180094195E+04 0.  0.
        2    1    3    3  502    0 -0.80962495077E+03 -0.79912795796E+03 -0.21125614259E+03  0.11570337989E+04  0.25500000920E-02 0.  1.
       -2    1    3    3    0  502  0.80962495077E+03  0.79912795796E+03  0.23235602670E+03  0.11610716504E+04  0.25500000920E-02 0. -1.
</event>
<event>
 5   0  0.1501947E-05  0.2496895E+04  0.7818609E-02  0.8404093E-01
        2   -1    0    0  501    0  0.00000000000E+00  0.00000000000E+00  0.16229135980E+04  0.16229135980E+04  0.25500000920E-02 0.  1.
       -2   -1    0    0    0  501  0.00000000000E+00  0.00000000000E+00 -0.96038452503E+03  0.96038452503E+03  0.25500000920E-02 0. -1.
    10030    2    1    2    0    0  0.00000000000E+00  0.00000000000E+00  0.66252907294E+03  0.25832981230E+04  0.24968949557E+04 0.  0.
        3    1    3    3  502    0  0.97762013153E+03 -0.57009223930E+03  0.87664408395E+03  0.14315205702E+04  0.10100000352E+00 0.  1.
       -3    1    3    3    0  502 -0.97762013153E+03  0.57009223930E+03 -0.21411501102E+03  0.11517775528E+04  0.10100000352E+00 0. -1.
</event>
<event>
 5   0  0.6477703E-06  0.2513246E+04  0.7818609E-02  0.8398282E-01
       -1   -1    0    0    0  501  0.00000000000E+00  0.00000000000E+00  0.16955061211E+04  0.16955061211E+04  0.50400001928E-02 0. -1.
        1   -1    0    0  501    0  0.00000000000E+00  0.00000000000E+00 -0.93134549399E+03  0.93134549400E+03  0.50400001928E-02 0.  1.
    10030    2    1    2    0    0  0.00000000000E+00  0.00000000000E+00  0.76416062708E+03  0.26268516151E+04  0.25132464948E+04 0.  0.
        5    1    3    3  502    0  0.36404368966E+03  0.12000599469E+04  0.46575014313E+03  0.13377656633E+04  0.46999998093E+01 0.  1.
       -5    1    3    3    0  502 -0.36404368966E+03 -0.12000599469E+04  0.29841048396E+03  0.12890859518E+04  0.46999998093E+01 0. -1.
</event>
<event>
 5   0  0.1468512E-05  0.2504993E+04  0.7818609E-02  0.8401209E-01
       -2   -1    0    0    0  501  0.00000000000E+00  0.00000000000E+00  0.13655627198E+04  0.13655627198E+04  0.25500000920E-02 0.  1.
        2   -1    0    0  501    0  0.00000000000E+00  0.00000000000E+00 -0.11487918005E+04  0.11487918005E+04  0.25500000920E-02 0. -1.
    10030    2    1    2    0    0  0.00000000000E+00  0.00000000000E+00  0.21677091938E+03  0.25143545203E+04  0.25049928188E+04 0.  0.
        4    1    3    3  502    0 -0.12218650873E+03 -0.89945422221E+03 -0.75785674038E+03  0.11824956205E+04  0.12699999809E+01 0. -1.
       -4    1    3    3    0  502  0.12218650873E+03  0.89945422221E+03  0.97462765976E+03  0.13318588997E+04  0.12699999809E+01 0.  1.
</event>
<event>
 5   0  0.1468512E-05  0.2484802E+04  0.7818609E-02  0.8408420E-01
       -2   -1    0    0    0  501  0.00000000000E+00  0.00000000000E+00  0.96927391647E+03  0.96927391647E+03  0.25500000920E-02 0.  1.
        2   -1    0    0  501    0  0.00000000000E+00  0.00000000000E+00 -0.15924906492E+04  0.15924906492E+04  0.25500000920E-02 0. -1.
    10030    2    1    2    0    0  0.00000000000E+00  0.00000000000E+00 -0.62321673273E+03  0.25617645657E+04  0.24848015200E+04 0.  0.
        4    1    3    3  502    0  0.11433614572E+04  0.32792986061E+03  0.58315247971E+02  0.11908886162E+04  0.12699999809E+01 0.  1.
       -4    1    3    3    0  502 -0.11433614572E+04 -0.32792986061E+03 -0.68153198070E+03  0.13708759495E+04  0.12699999809E+01 0. -1.
</event>
<event>
 5   0  0.1526824E-05  0.2526446E+04  0.7818609E-02  0.8393624E-01
       -2   -1    0    0    0  501  0.00000000000E+00  0.00000000000E+00  0.15827032509E+04  0.15827032509E+04  0.25500000920E-02 0. -1.
        2   -1    0    0  501    0  0.00000000000E+00  0.00000000000E+00 -0.10082321190E+04  0.10082321190E+04  0.25500000920E-02 0.  1.
    10030    2    1    2    0    0  0.00000000000E+00  0.00000000000E+00  0.57447113185E+03  0.25909353699E+04  0.25264459245E+04 0.  0.
        2    1    3    3  502    0  0.41086739590E+02 -0.66887036428E+02  0.15801995766E+04  0.15821481276E+04  0.25500000920E-02 0. -1.
       -2    1    3    3    0  502 -0.41086739590E+02  0.66887036428E+02 -0.10057284447E+04  0.10087872423E+04  0.25500000920E-02 0.  1.
</event>
<event>
 5   0  0.6477703E-06  0.2488779E+04  0.7818609E-02  0.8406994E-01
       -1   -1    0    0    0  501  0.00000000000E+00  0.00000000000E+00  0.77545193840E+03  0.77545193841E+03  0.50400001928E-02 0. -1.
        1   -1    0    0  501    0  0.00000000000E+00  0.00000000000E+00 -0.19969061424E+04  0.19969061425E+04  0.50400001928E-02 0.  1.
    10030    2    1    2    0    0  0.00000000000E+00  0.00000000000E+00 -0.12214542041E+04  0.27723580809E+04  0.24887786073E+04 0.  0.
        5    1    3    3  502    0 -0.55875298282E+03  0.88713192855E+03  0.13592628110E+03  0.10572161550E+04  0.46999998093E+01 0. -1.
       -5    1    3    3    0  502  0.55875298282E+03 -0.88713192855E+03 -0.13573804851E+04  0.17151419259E+04  0.46999998093E+01 0.  1.
</event>
<event>
 5   0  0.1501947E-05  0.2492370E+04  0.7818609E-02  0.8405709E-01
        2   -1    0    0  501    0  0.00000000000E+00  0.00000000000E+00  0.17474484072E+04  0.17474484072E+04  0.25500000920E-02 0.  1.
       -2   -1    0    0    0  501  0.00000000000E+00  0.00000000000E+00 -0.88871098609E+03  0.88871098610E+03  0.25500000920E-02 0. -1.
    10030    2    1    2    0    0  0.00000000000E+00  0.00000000000E+00  0.85873742115E+03  0.26361593933E+04  0.24923696332E+04 0.  0.
        3    1    3    3  502    0 -0.39391675695E+03 -0.36417499086E+03  0.16190642849E+04  0.17056268655E+04  0.10100000352E+00 0.  1.
       -3    1    3    3    0  502  0.39391675695E+03  0.36417499086E+03 -0.76032686379E+03  0.93053252784E+03  0.10100000352E+00 0. -1.
</event>
<event>
 5   0  0.5164625E-06  0.2507356E+04  0.7818609E-02  0.8400370E-01
       -3   -1    0    0    0  501  0.00000000000E+00  0.00000000000E+00  0.10171128465E+04  0.10171128516E+04  0.10100000352E+00 0.  1.
        3   -1    0    0  501    0  0.00000000000E+00  0.00000000000E+00 -0.15452641057E+04  0.15452641090E+04  0.10100000352E+00 0. -1.
    10030    2    1    2    0    0  0.00000000000E+00  0.00000000000E+00 -0.52815125920E+03  0.25623769606E+04  0.25073555663E+04 0.  0.
        1    1    3    3  502    0  0.10687847112E+04  0.42813661147E+03  0.24290157442E+03  0.11766915024E+04  0.50400001928E-02 0.  1.
       -1    1    3    3    0  502 -0.10687847112E+04 -0.42813661147E+03 -0.77105283362E+03  0.13856854582E+04  0.50400001928E-02 0. -1.
</event>
<event>
 5   0  0.6105353E-06  0.2507257E+04  0.7818609E-02  0.8400405E-01
       -1   -1    0    0    0  501  0.00000000000E+00  0.00000000000E+00  0.70139532084E+03  0.70139532086E+03  0.50400001928E-02 0.  1.
        1   -1    0    0  501    0  0.00000000000E+00  0.00000000000E+00 -0.22406545647E+04  0.22406545647E+04  0.50400001928E-02 0. -1.
    10030    2    1    2    0    0  0.00000000000E+00  0.00000000000E+00 -0.15392592439E+04  0.29420498856E+04  0.25072571686E+04 0.  0.
        3    1    3    3  502    0 -0.31383692857E+03 -0.21628608606E+03 -0.21710173707E+04  0.22042208879E+04  0.10100000352E+00 0. -1.
       -3    1    3    3    0  502  0.31383692857E+03  0.21628608606E+03  0.63175812682E+03  0.73782899765E+03  0.10100000352E+00 0.  1.
</event>
<event>
 5   0  0.5164625E-06  0.2506474E+04  0.7818609E-02  0.8400683E-01
        3   -1    0    0  501    0  0.00000000000E+00  0.00000000000E+00  0.21308471433E+04  0.21308471457E+04  0.10100000352E+00 0.  1.
       -3   -1    0    0    0  501  0.00000000000E+00  0.00000000000E+00 -0.73707913705E+03  0.73707914397E+03  0.10100000352E+00 0. -1.
    10030    2    1    2    0    0  0.00000000000E+00  0.00000000000E+00  0.13937680063E+04  0.28679262897E+04  0.25064740070E+04 0.  0.
        5    1    3    3  502    0  0.97342241683E+02 -0.10635938082E+03  0.21213157250E+04  0.21262150232E+04  0.46999998093E+01 0.  1.
       -5    1    3    3    0  502 -0.97342241683E+02  0.10635938082E+03 -0.72754771867E+03  0.74171126650E+03  0.46999998093E+01 0. -1.
</event>
<event>
 5   0  0.1468512E-05  0.2620730E+04  0.7818609E-02  0.8361194E-01
       -2   -1    0    0    0  501  0.00000000000E+00  0.00000000000E+00  0.14833458035E+04  0.14833458035E+04  0.25500000920E-02 0.  1.
        2   -1    0    0  501    0  0.00000000000E+00  0.00000000000E+00 -0.11575562921E+04  0.11575562921E+04  0.25500000920E-02 0. -1.
    10030    2    1    2    0    0  0.00000000000E+00  0.00000000000E+00  0.32578951142E+03  0.26409020956E+04  0.26207298741E+04 0.  0.
        4    1    3    3  502    0 -0.10006934462E+04 -0.53577473458E+03  0.82261918710E+03  0.14018366094E+04  0.12699999809E+01 0.  1.
       -4    1    3    3    0  502  0.10006934462E+04  0.53577473458E+03 -0.49682967568E+03  0.12390654862E+04  0.12699999809E+01 0. -1.
</event>
<event>
 5   0  0.6346420E-06  0.2469038E+04  0.7818609E-02  0.8414100E-01
        1   -1    0    0  501    0  0.00000000000E+00  0.00000000000E+00  0.11714198448E+04  0.11714198448E+04  0.50400001928E-02 0. -1.
       -1   -1    0    0    0  501  0.00000000000E+00  0.00000000000E+00 -0.13010169567E+04  0.13010169567E+04  0.50400001928E-02 0.  1.
    10030    2    1    2    0    0  0.00000000000E+00  0.00000000000E+00 -0.12959711194E+03  0.24724368015E+04  0.24690379353E+04 0.  0.
        4    1    3    3  502    0 -0.12047654413E+04 -0.17226032754E+03 -0.27221185959E+03  0.12470903329E+04  0.12699999809E+01 0.  1.
       -4    1    3    3    0  502  0.12047654413E+04  0.17226032754E+03  0.14261474766E+03  0.12253464686E+04  0.12699999809E+01 0. -1.
</event>
<event>
 5   0  0.6105353E-06  0.2501544E+04  0.7818609E-02  0.8402436E-01
       -1   -1    0    0    0  501  0.00000000000E+00  0.00000000000E+00  0.92272072093E+03  0.92272072094E+03  0.50400001928E-02 0. -1.
        1   -1    0    0  501    0  0.00000000000E+00  0.00000000000E+00 -0.16954545732E+04  0.16954545732E+04  0.50400001928E-02 0.  1.
    10030    2    1    2    0    0  0.00000000000E+00  0.00000000000E+00 -0.77273385224E+03  0.26181752941E+04  0.25015443758E+04 0.  0.
        3    1    3    3  502    0 -0.11055460228E+04 -0.17798107277E+03  0.19685863020E+03  0.11369532098E+04  0.10100000352E+00 0. -1.
       -3    1    3    3    0  502  0.11055460228E+04  0.17798107277E+03 -0.96959248244E+03  0.14812220843E+04  0.10100000352E+00 0.  1.
</event>
<event>
 5   0  0.1526824E-05  0.2505302E+04  0.7818609E-02  0.8401099E-01
       -2   -1    0    0    0  501  0.00000000000E+00  0.00000000000E+00  0.98512544805E+03  0.98512544806E+03  0.25500000920E-02 0. -1.
        2   -1    0    0  501    0  0.00000000000E+00  0.00000000000E+00 -0.15928275921E+04  0.15928275921E+04  0.25500000920E-02 0.  1.
    10030    2    1    2    0    0  0.00000000000E+00  0.00000000000E+00 -0.60770214408E+03  0.25779530402E+04  0.25053023733E+04 0.  0.
        2    1    3    3  502    0  0.75076578270E+03 -0.21406680138E+03 -0.13118818827E+04  0.15266001212E+04  0.25500000920E-02 0.  1.
       -2    1    3    3    0  502 -0.75076578270E+03  0.21406680138E+03  0.70417973863E+03  0.10513529190E+04  0.25500000920E-02 0. -1.
</event>
<event>
 5   0  0.6105353E-06  0.2505605E+04  0.7818609E-02  0.8400991E-01
       -1   -1    0    0    0  501  0.00000000000E+00  0.00000000000E+00  0.96082186334E+03  0.96082186336E+03  0.50400001928E-02 0. -1.
        1   -1    0    0  501    0  0.00000000000E+00  0.00000000000E+00 -0.16335125274E+04  0.16335125274E+04  0.50400001928E-02 0.  1.
    10030    2    1    2    0    0  0.00000000000E+00  0.00000000000E+00 -0.67269066407E+03  0.25943343908E+04  0.25056053563E+04 0.  0.
        3    1    3    3  502    0 -0.15707232102E+02 -0.45465668736E+03 -0.15449668552E+04  0.16105533255E+04  0.10100000352E+00 0.  1.
       -3    1    3    3    0  502  0.15707232102E+02  0.45465668736E+03  0.87227619114E+03  0.98378106524E+03  0.10100000352E+00 0. -1.
</event>
<event>
 5   0  0.1468512E-05  0.2458648E+04  0.7818609E-02  0.8417867E-01
       -2   -1    0    0    0  501  0.00000000000E+00  0.00000000000E+00  0.14911730878E+04  0.14911730878E+04  0.25500000920E-02 0.  1.
        2   -1    0    0  501    0  0.00000000000E+00  0.00000000000E+00 -0.10134551267E+04  0.10134551267E+04  0.25500000920E-02 0. -1.
    10030    2    1    2    0    0  0.00000000000E+00  0.00000000000E+00  0.47771796115E+03  0.25046282145E+04  0.24586476044E+04 0.  0.
        4    1    3    3  502    0  0.87726789173E+03 -0.86057668955E+03  0.20594048897E+03  0.12460354290E+04  0.12699999809E+01 0.  1.
       -4    1    3    3    0  502 -0.87726789173E+03  0.86057668955E+03  0.27177747218E+03  0.12585927855E+04  0.12699999809E+01 0. -1.
</event>
<event>
 5   0  0.1572732E-05  0.2500502E+04  0.7818609E-02  0.8402807E-01
        2   -1    0    0  501    0  0.00000000000E+00  0.00000000000E+00  0.20900355525E+04  0.20900355525E+04  0.25500000920E-02 0. -1.
       -2   -1    0    0    0  501  0.00000000000E+00  0.00000000000E+00 -0.74789526468E+03  0.74789526468E+03  0.25500000920E-02 0.  1.
    10030    2    1    2    0    0  0.00000000000E+00  0.00000000000E+00  0.13421402878E+04  0.28379308172E+04  0.25005021038E+04 0.  0.
        1    1    3    3  502    0  0.55215053170E+03 -0.91827067702E+03 -0.60098734860E+02  0.10731743120E+04  0.50400001928E-02 0.  1.
       -1    1    3    3    0  502 -0.55215053170E+03  0.91827067702E+03  0.14022390227E+04  0.17647565052E+04  0.50400001928E-02 0. -1.
</event>
<event>
 5   0  0.1501947E-05  0.2499187E+04  0.7818609E-02  0.8403275E-01
        2   -1    0    0  501    0  0.00000000000E+00  0.00000000000E+00  0.86589130152E+03  0.86589130153E+03  0.25500000920E-02 0.  1.
       -2   -1    0    0    0  501  0.00000000000E+00  0.00000000000E+00 -0.18033252678E+04  0.18033252678E+04  0.25500000920E-02 0. -1.
    10030    2    1    2    0    0  0.00000000000E+00  0.00000000000E+00 -0.93743396624E+03  0.26692165693E+04  0.24991867983E+04 0.  0.
        3    1    3    3  502    0 -0.17738135254E+03 -0.20803103053E+03  0.83355886620E+03  0.87724651467E+03  0.10100000352E+00 0.  1.
       -3    1    3    3    0  502  0.17738135254E+03  0.20803103053E+03 -0.17709928324E+04  0.17919700546E+04  0.10100000352E+00 0. -1.
</event>
<event>
 5   0  0.1501947E-05  0.2528235E+04  0.7818609E-02  0.8392995E-01
        2   -1    0    0  501    0  0.00000000000E+00  0.00000000000E+00  0.18669479225E+04  0.18669479225E+04  0.25500000920E-02 0.  1.
       -2   -1    0    0    0  501  0.00000000000E+00  0.00000000000E+00 -0.85593884366E+03  0.85593884366E+03  0.25500000920E-02 0. -1.
    10030    2    1    2    0    0  0.00000000000E+00  0.00000000000E+00  0.10110090788E+04  0.27228867662E+04  0.25282351520E+04 0.  0.
        3    1    3    3  502    0  0.11920585224E+04  0.41144185414E+03  0.60004274050E+03  0.13965454596E+04  0.10100000352E+00 0. -1.
       -3    1    3    3    0  502 -0.11920585224E+04 -0.41144185414E+03  0.41096633833E+03  0.13263413066E+04  0.10100000352E+00 0.  1.
</event>
<event>
 5   0  0.1550483E-05  0.2499139E+04  0.7818609E-02  0.8403292E-01
       -2   -1    0    0    0  501  0.00000000000E+00  0.00000000000E+00  0.50839662684E+03  0.50839662685E+03  0.25500000920E-02 0.  1.
        2   -1    0    0  501    0  0.00000000000E+00  0.00000000000E+00 -0.30712704426E+04  0.30712704426E+04  0.25500000920E-02 0. -1.
    10030    2    1    2    0    0  0.00000000000E+00  0.00000000000E+00 -0.25628738157E+04  0.35796670694E+04  0.24991386781E+04 0.  0.
        5    1    3    3  502    0  0.53540754151E+03  0.61010068677E+03 -0.26421922960E+04  0.27640706038E+04  0.46999998093E+01 0. -1.
       -5    1    3    3    0  502 -0.53540754151E+03 -0.61010068677E+03  0.79318480266E+02  0.81559646567E+03  0.46999998093E+01 0.  1.
</event>
<event>
 5   0  0.6105353E-06  0.2445289E+04  0.7818609E-02  0.8422740E-01
       -1   -1    0    0    0  501  0.00000000000E+00  0.00000000000E+00  0.16294861836E+04  0.16294861837E+04  0.50400001928E-02 0. -1.
        1   -1    0    0  501    0  0.00000000000E+00  0.00000000000E+00 -0.91738122558E+03  0.91738122559E+03  0.50400001928E-02 0.  1.
    10030    2    1    2    0    0  0.00000000000E+00  0.00000000000E+00  0.71210495807E+03  0.25468674092E+04  0.24452893753E+04 0.  0.
        3    1    3    3  502    0  0.83022739292E+03 -0.31761614305E+03 -0.51828476077E+03  0.10289687273E+04  0.10100000352E+00 0.  1.
       -3    1    3    3    0  502 -0.83022739292E+03  0.31761614305E+03  0.12303897188E+04  0.15178986820E+04  0.10100000352E+00 0. -1.
</event>
<event>
 5   0  0.6346420E-06  0.2527173E+04  0.7818609E-02  0.8393369E-01
        1   -1    0    0  501    0  0.00000000000E+00  0.00000000000E+00  0.30091325570E+04  0.30091325570E+04  0.50400001928E-02 0.  1.
       -1   -1    0    0    0  501  0.00000000000E+00  0.00000000000E+00 -0.53060161354E+03  0.53060161357E+03  0.50400001928E-02 0. -1.
    10030    2    1    2    0    0  0.00000000000E+00  0.00000000000E+00  0.24785309435E+04  0.35397341706E+04  0.25271727999E+04 0.  0.
        4    1    3    3  502    0  0.80446248889E+02 -0.28545122771E+03  0.29596931926E+04  0.29745149872E+04  0.12699999809E+01 0.  1.
       -4    1    3    3    0  502 -0.80446248889E+02  0.28545122771E+03 -0.48116224909E+03  0.56521918334E+03  0.12699999809E+01 0. -1.
</event>
<event>
 5   0  0.1468512E-05  0.2501513E+04  0.7818609E-02  0.8402447E-01
       -2   -1    0    0    0  501  0.00000000000E+00  0.00000000000E+00  0.53727063391E+03  0.53727063392E+03  0.25500000920E-02 0. -1.
        2   -1    0    0  501    0  0.00000000000E+00  0.00000000000E+00 -0.29117389679E+04  0.29117389679E+04  0.25500000920E-02 0.  1.
    10030    2    1    2    0    0  0.00000000000E+00  0.00000000000E+00 -0.23744683339E+04  0.34490096018E+04  0.25015130150E+04 0.  0.
        4    1    3    3  502    0 -0.79167625852E+03 -0.52433674933E+03 -0.23096489211E+04  0.24972304813E+04  0.12699999809E+01 0.  1.
       -4    1    3    3    0  502  0.79167625852E+03  0.52433674933E+03 -0.64819412820E+02  0.95177912048E+03  0.12699999809E+01 0. -1.
</event>
<event>
 5   0  0.6105353E-06  0.2523360E+04  0.7818609E-02  0.8394710E-01
        1   -1    0    0  501    0  0.00000000000E+00  0.00000000000E+00  0.28913095762E+04  0.28913095762E+04  0.50400001928E-02 0.  1.
       -1   -1    0    0    0  501  0.00000000000E+00  0.00000000000E+00 -0.55055904173E+03  0.55055904175E+03  0.50400001928E-02 0. -1.
    10030    2    1    2    0    0  0.00000000000E+00  0.00000000000E+00  0.23407505344E+04  0.34418686179E+04  0.25233601643E+04 0.  0.
        3    1    3    3  502    0 -0.15110838185E+02 -0.10571304788E+03  0.28851342838E+04  0.28871098752E+04  0.10100000352E+00 0.  1.
       -3    1    3    3    0  502  0.15110838185E+02  0.10571304788E+03 -0.54438374931E+03  0.55475874273E+03  0.10100000352E+00 0. -1.
</event>
<event>
 5   0  0.6104486E-06  0.2501052E+04  0.7818609E-02  0.8402611E-01
       -1   -1    0    0    0  501  0.00000000000E+00  0.00000000000E+00  0.12065325866E+04  0.12065325866E+04  0.50400001928E-02 0. -1.
        1   -1    0    0  501    0  0.00000000000E+00  0.00000000000E+00 -0.12961240453E+04  0.12961240453E+04  0.50400001928E-02 0.  1.
    10030    2    1    2    0    0  0.00000000000E+00  0.00000000000E+00 -0.89591458666E+02  0.25026566319E+04  0.25010524960E+04 0.  0.
        2    1    3    3  502    0  0.55878342298E+03 -0.25745733990E+03 -0.11342054985E+04  0.12903275974E+04  0.25500000920E-02 0.  1.
       -2    1    3    3    0  502 -0.55878342298E+03  0.25745733990E+03  0.10446140399E+04  0.12123290345E+04  0.25500000920E-02 0. -1.
</event>
<event>
 5   0  0.6105353E-06  0.2461013E+04  0.7818609E-02  0.8417008E-01
        1   -1    0    0  501    0  0.00000000000E+00  0.00000000000E+00  0.19047236323E+04  0.19047236323E+04  0.50400001928E-02 0. -1.
       -1   -1    0    0    0  501  0.00000000000E+00  0.00000000000E+00 -0.79494271892E+03  0.79494271894E+03  0.50400001928E-02 0.  1.
    10030    2    1    2    0    0  0.00000000000E+00  0.00000000000E+00  0.11097809134E+04  0.26996663513E+04  0.24610129484E+04 0.  0.
        3    1    3    3  502    0 -0.85577699337E+03  0.30869336124E+03  0.14637914259E+04  0.17234648829E+04  0.10100000352E+00 0. -1.
       -3    1    3    3    0  502  0.85577699337E+03 -0.30869336124E+03 -0.35401051255E+03  0.97620146838E+03  0.10100000352E+00 0.  1.
</event>
<event>
 5   0  0.6105353E-06  0.2444329E+04  0.7818609E-02  0.8423091E-01
        1   -1    0    0  501    0  0.00000000000E+00  0.00000000000E+00  0.12311096603E+04  0.12311096603E+04  0.50400001928E-02 0.  1.
       -1   -1    0    0    0  501  0.00000000000E+00  0.00000000000E+00 -0.12132843303E+04  0.12132843303E+04  0.50400001928E-02 0. -1.
    10030    2    1    2    0    0  0.00000000000E+00  0.00000000000E+00  0.17825329916E+02  0.24443939906E+04  0.24443289956E+04 0.  0.
        3    1    3    3  502    0 -0.28935561164E+03  0.11448224194E+04  0.32410513095E+03  0.12244954831E+04  0.10100000352E+00 0.  1.
       -3    1    3    3    0  502  0.28935561164E+03 -0.11448224194E+04 -0.30627980103E+03  0.12198985075E+04  0.10100000352E+00 0. -1.
</event>
<event>
 5   0  0.6477703E-06  0.2610025E+04  0.7818609E-02  0.8364804E-01
        1   -1    0    0  501    0  0.00000000000E+00  0.00000000000E+00  0.19432483921E+04  0.19432483921E+04  0.50400001928E-02 0.  1.
       -1   -1    0    0    0  501  0.00000000000E+00  0.00000000000E+00 -0.87639762145E+03  0.87639762147E+03  0.50400001928E-02 0. -1.
    10030    2    1    2    0    0  0.00000000000E+00  0.00000000000E+00  0.10668507707E+04  0.28196460136E+04  0.26100254932E+04 0.  0.
        5    1    3    3  502    0  0.89037944602E+03 -0.91912374691E+03  0.25699984308E+03  0.13052337068E+04  0.46999998093E+01 0. -1.
       -5    1    3    3    0  502 -0.89037944602E+03  0.91912374691E+03  0.80985092759E+03  0.15144123068E+04  0.46999998093E+01 0.  1.
</event>
<event>
 5   0  0.6104486E-06  0.2505009E+04  0.7818609E-02  0.8401203E-01
       -1   -1    0    0    0  501  0.00000000000E+00  0.00000000000E+00  0.20113931133E+04  0.20113931133E+04  0.50400001928E-02 0.  1.
        1   -1    0    0  501    0  0.00000000000E+00  0.00000000000E+00 -0.77994063662E+03  0.77994063664E+03  0.50400001928E-02 0. -1.
    10030    2    1    2    0    0  0.00000000000E+00  0.00000000000E+00  0.12314524767E+04  0.27913337500E+04  0.25050087627E+04 0.  0.
        2    1    3    3  502    0 -0.37471809370E+03  0.34422385450E+03  0.18910355766E+04  0.19582949889E+04  0.25500000920E-02 0.  1.
       -2    1    3    3    0  502  0.37471809370E+03 -0.34422385450E+03 -0.65958309988E+03  0.83303876104E+03  0.25500000920E-02 0. -1.
</event>
<event>
 5   0  0.6104486E-06  0.2500520E+04  0.7818609E-02  0.8402800E-01
       -1   -1    0    0    0  501  0.00000000000E+00  0.00000000000E+00  0.12500756604E+04  0.12500756604E+04  0.50400001928E-02 0. -1.
        1   -1    0    0  501    0  0.00000000000E+00  0.00000000000E+00 -0.12504439721E+04  0.12504439721E+04  0.50400001928E-02 0.  1.
    10030    2    1    2    0    0  0.00000000000E+00  0.00000000000E+00 -0.36831168811E+00  0.25005196324E+04  0.25005196053E+04 0.  0.
        2    1    3    3  502    0  0.60804509835E+02  0.86670699629E+03 -0.89922330174E+03  0.12503922394E+04  0.25500000920E-02 0.  1.
       -2    1    3    3    0  502 -0.60804509835E+02 -0.86670699629E+03  0.89885499005E+03  0.12501273931E+04  0.25500000920E-02 0. -1.
</event>
<event>
 5   0  0.1550483E-05  0.2498682E+04  0.7818609E-02  0.8403455E-01
        2   -1    0    0  501    0  0.00000000000E+00  0.00000000000E+00  0.13763773909E+04  0.13763773909E+04  0.25500000920E-02 0. -1.
       -2   -1    0    0    0  501  0.00000000000E+00  0.00000000000E+00 -0.11340299911E+04  0.11340299911E+04  0.25500000920E-02 0.  1.
    10030    2    1    2    0    0  0.00000000000E+00  0.00000000000E+00  0.24234739976E+03  0.25104073821E+04  0.24986822450E+04 0.  0.
        5    1    3    3  502    0 -0.25036781317E+02  0.54512224016E+03 -0.10079532300E+04  0.11462010736E+04  0.46999998093E+01 0.  1.
       -5    1    3    3    0  502  0.25036781317E+02 -0.54512224016E+03  0.12503006298E+04  0.13642063085E+04  0.46999998093E+01 0. -1.
</event>
<event>
 5   0  0.6105353E-06  0.2490872E+04  0.7818609E-02  0.8406244E-01
        1   -1    0    0  501    0  0.00000000000E+00  0.00000000000E+00  0.12746255575E+04  0.12746255575E+04  0.50400001928E-02 0.  1.
       -1   -1    0    0    0  501  0.00000000000E+00  0.00000000000E+00 -0.12169153637E+04  0.12169153637E+04  0.50400001928E-02 0. -1.
    10030    2    1    2    0    0  0.00000000000E+00  0.00000000000E+00  0.57710193809E+02  0.24915409212E+04  0.24908724768E+04 0.  0.
        3    1    3    3  502    0  0.92731249191E+03  0.56569270018E+03  0.63827611519E+03  0.12598861449E+04  0.10100000352E+00 0.  1.
       -3    1    3    3    0  502 -0.92731249191E+03 -0.56569270018E+03 -0.58056592138E+03  0.12316547763E+04  0.10100000352E+00 0. -1.
</event>
<event>
 5   0  0.1550483E-05  0.2511853E+04  0.7818609E-02  0.8398775E-01
        2   -1    0    0  501    0  0.00000000000E+00  0.00000000000E+00  0.14838465901E+04  0.14838465901E+04  0.25500000920E-02 0.  1.
       -2   -1    0    0    0  501  0.00000000000E+00  0.00000000000E+00 -0.10630150968E+04  0.10630150968E+04  0.25500000920E-02 0. -1.
    10030    2    1    2    0    0  0.00000000000E+00  0.00000000000E+00  0.42083149324E+03  0.25468616869E+04  0.25118529628E+04 0.  0.
        5    1    3    3  502    0  0.81152190926E+03 -0.66568871670E+03 -0.48884827386E+03  0.11578877327E+04  0.46999998093E+01 0. -1.
       -5    1    3    3    0  502 -0.81152190926E+03  0.66568871670E+03  0.90967976710E+03  0.13889739542E+04  0.46999998093E+01 0.  1.
</event>
<event>
 5   0  0.6105353E-06  0.2526161E+04  0.7818609E-02  0.8393725E-01
        1   -1    0    0  501    0  0.00000000000E+00  0.00000000000E+00  0.15299238972E+04  0.15299238972E+04  0.50400001928E-02 0.  1.
       -1   -1    0    0    0  501  0.00000000000E+00  0.00000000000E+00 -0.10427786326E+04  0.10427786326E+04  0.50400001928E-02 0. -1.
    10030    2    1    2    0    0  0.00000000000E+00  0.00000000000E+00  0.48714526467E+03  0.25727025298E+04  0.25261606833E+04 0.  0.
        3    1    3    3  502    0 -0.59668320732E+03 -0.50591752481E+03  0.12535024044E+04  0.14775830534E+04  0.10100000352E+00 0.  1.
       -3    1    3    3    0  502  0.59668320732E+03  0.50591752481E+03 -0.76635713970E+03  0.10951194764E+04  0.10100000352E+00 0. -1.
</event>
<event>
 5   0  0.1468512E-05  0.2507576E+04  0.7818609E-02  0.8400292E-01
       -2   -1    0    0    0  501  0.00000000000E+00  0.00000000000E+00  0.58021326950E+03  0.58021326950E+03  0.25500000920E-02 0.  1.
        2   -1    0    0  501    0  0.00000000000E+00  0.00000000000E+00 -0.27093208584E+04  0.27093208584E+04  0.25500000920E-02 0. -1.
    10030    2    1    2    0    0  0.00000000000E+00  0.00000000000E+00 -0.21291075889E+04  0.32895341279E+04  0.25075756526E+04 0.  0.
        4    1    3    3  502    0  0.67639795804E+03 -0.10068695750E+04 -0.64830234830E+03  0.13753538041E+04  0.12699999809E+01 0.  1.
       -4    1    3    3    0  502 -0.67639795804E+03  0.10068695750E+04 -0.14808052406E+04  0.19141803238E+04  0.12699999809E+01 0. -1.
</event>
<event>
 5   0  0.6346420E-06  0.2503708E+04  0.7818609E-02  0.8401666E-01
        1   -1    0    0  501    0  0.00000000000E+00  0.00000000000E+00  0.29609584112E+04  0.29609584112E+04  0.50400001928E-02 0.  1.
       -1   -1    0    0    0  501  0.00000000000E+00  0.00000000000E+00 -0.52926716980E+03  0.52926716982E+03  0.50400001928E-02 0. -1.
    10030    2    1    2    0    0  0.00000000000E+00  0.00000000000E+00  0.24316912414E+04  0.34902255810E+04  0.25037077131E+04 0.  0.
        4    1    3    3  502    0 -0.98558396321E+03  0.63209783107E+03  0.59835009805E+03  0.13148946229E+04  0.12699999809E+01 0.  1.
       -4    1    3    3    0  502  0.98558396321E+03 -0.63209783107E+03  0.18333411433E+04  0.21753309581E+04  0.12699999809E+01 0. -1.
</event>
<event>
 5   0  0.1468512E-05  0.2502121E+04  0.7818609E-02  0.8402230E-01
        2   -1    0    0  501    0  0.00000000000E+00  0.00000000000E+00  0.23857734955E+04  0.23857734955E+04  0.25500000920E-02 0.  1.
       -2   -1    0    0    0  501  0.00000000000E+00  0.00000000000E+00 -0.65603567472E+03  0.65603567472E+03  0.25500000920E-02 0. -1.
    10030    2    1    2    0    0  0.00000000000E+00  0.00000000000E+00  0.17297378207E+04  0.30418091702E+04  0.25021211200E+04 0.  0.
        4    1    3    3  502    0 -0.29354683442E+03 -0.47869167975E+03 -0.49422683950E+03  0.74804896233E+03  0.12699999809E+01 0. -1.
       -4    1    3    3    0  502  0.29354683442E+03  0.47869167975E+03  0.22239646602E+04  0.22937602079E+04  0.12699999809E+01 0.  1.
</event>
<event>
 5   0  0.1526824E-05  0.2392660E+04  0.7818609E-02  0.8442256E-01
        2   -1    0    0  501    0  0.00000000000E+00  0.00000000000E+00  0.14232091828E+04  0.14232091828E+04  0.25500000920E-02 0.  1.
       -2   -1    0    0    0  501  0.00000000000E+00  0.00000000000E+00 -0.10056188540E+04  0.10056188540E+04  0.25500000920E-02 0. -1.
    10030    2    1    2    0    0  0.00000000000E+00  0.00000000000E+00  0.41759032882E+03  0.24288280367E+04  0.23926604333E+04 0.  0.
        2    1    3    3  502    0  0.88203140604E+03 -0.44525600236E+03 -0.47591824895E+03  0.10966906987E+04  0.25500000920E-02 0. -1.
       -2    1    3    3    0  502 -0.88203140604E+03  0.44525600236E+03  0.89350857778E+03  0.13321373381E+04  0.25500000920E-02 0.  1.
</event>
<event>
 5   0  0.6290861E-06  0.2495755E+04  0.7818609E-02  0.8404499E-01
        1   -1    0    0  501    0  0.00000000000E+00  0.00000000000E+00  0.28604499076E+04  0.28604499076E+04  0.50400001928E-02 0. -1.
       -1   -1    0    0    0  501  0.00000000000E+00  0.00000000000E+00 -0.54438949250E+03  0.54438949252E+03  0.50400001928E-02 0.  1.
    10030    2    1    2    0    0  0.00000000000E+00  0.00000000000E+00  0.23160604151E+04  0.34048394002E+04  0.24957554957E+04 0.  0.
        1    1    3    3  502    0 -0.11505802211E+03 -0.98929464050E+03  0.13233711252E+03  0.10047165499E+04  0.50400001928E-02 0.  1.
       -1    1    3    3    0  502  0.11505802211E+03  0.98929464050E+03  0.21837233026E+04  0.24001228503E+04  0.50400001928E-02 0. -1.
</event>
<event>
 5   0  0.5164625E-06  0.2507413E+04  0.7818609E-02  0.8400349E-01
        3   -1    0    0  501    0  0.00000000000E+00  0.00000000000E+00  0.14298724356E+04  0.14298724392E+04  0.10100000352E+00 0. -1.
       -3   -1    0    0    0  501  0.00000000000E+00  0.00000000000E+00 -0.10992449256E+04  0.10992449302E+04  0.10100000352E+00 0.  1.
    10030    2    1    2    0    0  0.00000000000E+00  0.00000000000E+00  0.33062751001E+03  0.25291173694E+04  0.25074130330E+04 0.  0.
        5    1    3    3  502    0  0.58273588574E+02  0.12302396921E+04  0.40159007331E+03  0.12954467138E+04  0.46999998093E+01 0. -1.
       -5    1    3    3    0  502 -0.58273588574E+02 -0.12302396921E+04 -0.70962563294E+02  0.12336706557E+04  0.46999998093E+01 0.  1.
</event>
<event>
 5   0  0.6290861E-06  0.2348117E+04  0.7818609E-02  0.8459187E-01
        1   -1    0    0  501    0  0.00000000000E+00  0.00000000000E+00  0.22945166778E+04  0.22945166778E+04  0.50400001928E-02 0. -1.
       -1   -1    0    0    0  501  0.00000000000E+00  0.00000000000E+00 -0.60074221758E+03  0.60074221761E+03  0.50400001928E-02 0.  1.
    10030    2    1    2    0    0  0.00000000000E+00  0.00000000000E+00  0.16937744602E+04  0.28952588954E+04  0.23481167240E+04 0.  0.
        1    1    3    3  502    0  0.33764355440E+03  0.47196833610E+03  0.21053194589E+04  0.21838331677E+04  0.50400001928E-02 0. -1.
       -1    1    3    3    0  502 -0.33764355440E+03 -0.47196833610E+03 -0.41154499870E+03  0.71142572774E+03  0.50400001928E-02 0.  1.
</event>
<event>
 5   0  0.1550483E-05  0.2513130E+04  0.7818609E-02  0.8398323E-01
        2   -1    0    0  501    0  0.00000000000E+00  0.00000000000E+00  0.15995672683E+04  0.15995672683E+04  0.25500000920E-02 0. -1.
       -2   -1    0    0    0  501  0.00000000000E+00  0.00000000000E+00 -0.98711385536E+03  0.98711385536E+03  0.25500000920E-02 0.  1.
    10030    2    1    2    0    0  0.00000000000E+00  0.00000000000E+00  0.61245341299E+03  0.25866811237E+04  0.25131295336E+04 0.  0.
        5    1    3    3  502    0 -0.27538718763E+03 -0.10283246628E+04  0.99332942352E+03  0.14560271800E+04  0.46999998093E+01 0. -1.
       -5    1    3    3    0  502  0.27538718763E+03  0.10283246628E+04 -0.38087601053E+03  0.11306539438E+04  0.46999998093E+01 0.  1.
</event>
<event>
 5   0  0.1501947E-05  0.2508142E+04  0.7818609E-02  0.8400091E-01
       -2   -1    0    0    0  501  0.00000000000E+00  0.00000000000E+00  0.75237038672E+03  0.75237038673E+03  0.25500000920E-02 0.  1.
        2   -1    0    0  501    0  0.00000000000E+00  0.00000000000E+00 -0.20903193169E+04  0.20903193169E+04  0.25500000920E-02 0. -1.
    10030    2    1    2    0    0  0.00000000000E+00  0.00000000000E+00 -0.13379489302E+04  0.28426897036E+04  0.25081422231E+04 0.  0.
        3    1    3    3  502    0 -0.56437955765E+03  0.43261766974E+03 -0.18397184925E+04  0.19723707753E+04  0.10100000352E+00 0. -1.
       -3    1    3    3    0  502  0.56437955765E+03 -0.43261766974E+03  0.50176956230E+03  0.87031892839E+03  0.10100000352E+00 0.  1.
</event>
<event>
 5   0  0.1550483E-05  0.2496692E+04  0.7818609E-02  0.8404165E-01
        2   -1    0    0  501    0  0.00000000000E+00  0.00000000000E+00  0.84858054400E+03  0.84858054400E+03  0.25500000920E-02 0. -1.
       -2   -1    0    0    0  501  0.00000000000E+00  0.00000000000E+00 -0.18364399141E+04  0.18364399141E+04  0.25500000920E-02 0.  1.
    10030    2    1    2    0    0  0.00000000000E+00  0.00000000000E+00 -0.98785937012E+03  0.26850204581E+04  0.24966915559E+04 0.  0.
        5    1    3    3  502    0 -0.11765025806E+04 -0.21496184057E+03 -0.87865491259E+03  0.14840564209E+04  0.46999998093E+01 0.  1.
       -5    1    3    3    0  502  0.11765025806E+04  0.21496184057E+03 -0.10920445754E+03  0.12009640372E+04  0.46999998093E+01 0. -1.
</event>
<event>
 5   0  0.6104486E-06  0.2452475E+04  0.7818609E-02  0.8420115E-01
       -1   -1    0    0    0  501  0.00000000000E+00  0.00000000000E+00  0.95634124731E+03  0.95634124732E+03  0.50400001928E-02 0.  1.
        1   -1    0    0  501    0  0.00000000000E+00  0.00000000000E+00 -0.15723032090E+04  0.15723032090E+04  0.50400001928E-02 0. -1.
    10030    2    1    2    0    0  0.00000000000E+00  0.00000000000E+00 -0.61596196166E+03  0.25286444563E+04  0.24524750046E+04 0.  0.
        2    1    3    3  502    0 -0.73360004345E+03 -0.20166858318E+03 -0.12995240682E+04  0.15058559177E+04  0.25500000920E-02 0. -1.
       -2    1    3    3    0  502  0.73360004345E+03  0.20166858318E+03  0.68356210650E+03  0.10227885386E+04  0.25500000920E-02 0.  1.
</event>
<event>
 5   0  0.1468512E-05  0.2493913E+04  0.7818609E-02  0.8405157E-01
       -2   -1    0    0    0  501  0.00000000000E+00  0.00000000000E+00  0.12785257607E+04  0.12785257607E+04  0.25500000920E-02 0.  1.
        2   -1    0    0  501    0  0.00000000000E+00  0.00000000000E+00 -0.12161664614E+04  0.12161664614E+04  0.25500000920E-02 0. -1.
    10030    2    1    2    0    0  0.00000000000E+00  0.00000000000E+00  0.62359299223E+02  0.24946922221E+04  0.24939127091E+04 0.  0.
        4    1    3    3  502    0  0.95602417128E+02  0.12374522948E+04 -0.89151479732E+02  0.12443382190E+04  0.12699999809E+01 0. -1.
       -4    1    3    3    0  502 -0.95602417128E+02 -0.12374522948E+04  0.15151077896E+03  0.12503540031E+04  0.12699999809E+01 0.  1.
</event>
<event>
 5   0  0.6290861E-06  0.2347292E+04  0.7818609E-02  0.8459504E-01
       -1   -1    0    0    0  501  0.00000000000E+00  0.00000000000E+00  0.10793352003E+04  0.10793352003E+04  0.50400001928E-02 0.  1.
        1   -1    0    0  501    0  0.00000000000E+00  0.00000000000E+00 -0.12761980852E+04  0.12761980852E+04  0.50400001928E-02 0. -1.
    10030    2    1    2    0    0  0.00000000000E+00  0.00000000000E+00 -0.19686288493E+03  0.23555332855E+04  0.23472924964E+04 0.  0.
        1    1    3    3  502    0  0.62091022166E+03 -0.56329061852E+03  0.72580448684E+03  0.11088814082E+04  0.50400001928E-02 0.  1.
       -1    1    3    3    0  502 -0.62091022166E+03  0.56329061852E+03 -0.92266737177E+03  0.12466518773E+04  0.50400001928E-02 0. -1.
</event>
<event>
 5   0  0.1501947E-05  0.2494740E+04  0.7818609E-02  0.8404862E-01
        2   -1    0    0  501    0  0.00000000000E+00  0.00000000000E+00  0.17966785653E+04  0.17966785654E+04  0.25500000920E-02 0. -1.
       -2   -1    0    0    0  501  0.00000000000E+00  0.00000000000E+00 -0.86600452178E+03  0.86600452178E+03  0.25500000920E-02 0.  1.
    10030    2    1    2    0    0  0.00000000000E+00  0.00000000000E+00  0.93067404357E+03  0.26626830871E+04  0.24947398756E+04 0.  0.
        3    1    3    3  502    0  0.11068157224E+04  0.57440746223E+03  0.43249592039E+03  0.13198627608E+04  0.10100000352E+00 0.  1.
       -3    1    3    3    0  502 -0.11068157224E+04 -0.57440746223E+03  0.49817812318E+03  0.13428203263E+04  0.10100000352E+00 0. -1.
</event>
<event>
 5   0  0.6290861E-06  0.2493649E+04  0.7818609E-02  0.8405252E-01
        1   -1    0    0  501    0  0.00000000000E+00  0.00000000000E+00  0.19616046730E+04  0.19616046730E+04  0.50400001928E-02 0.  1.
       -1   -1    0    0    0  501  0.00000000000E+00  0.00000000000E+00 -0.79249989220E+03  0.79249989221E+03  0.50400001928E-02 0. -1.
    10030    2    1    2    0    0  0.00000000000E+00  0.00000000000E+00  0.11691047808E+04  0.27541045652E+04  0.24936491268E+04 0.  0.
        1    1    3    3  502    0 -0.90692072856E+03 -0.31080882075E+03  0.14649738323E+04  0.17507871545E+04  0.50400001928E-02 0.  1.
       -1    1    3    3    0  502  0.90692072856E+03  0.31080882075E+03 -0.29586905153E+03  0.10033174107E+04  0.50400001928E-02 0. -1.
</event>
<event>
 5   0  0.1550483E-05  0.2539561E+04  0.7818609E-02  0.8389026E-01
        2   -1    0    0  501    0  0.00000000000E+00  0.00000000000E+00  0.12728817940E+04  0.12728817940E+04  0.25500000920E-02 0. -1.
       -2   -1    0    0    0  501  0.00000000000E+00  0.00000000000E+00 -0.12666864008E+04  0.12666864008E+04  0.25500000920E-02 0.  1.
    10030    2    1    2    0    0  0.00000000000E+00  0.00000000000E+00  0.61953931986E+01  0.25395681947E+04  0.25395606377E+04 0.  0.
        5    1    3    3  502    0 -0.12204496227E+04 -0.31248045252E+03  0.16177599800E+03  0.12701712004E+04  0.46999998093E+01 0. -1.
       -5    1    3    3    0  502  0.12204496227E+04  0.31248045252E+03 -0.15558060480E+03  0.12693969944E+04  0.46999998093E+01 0.  1.
</event>
<event>
 5   0  0.6346420E-06  0.2501035E+04  0.7818609E-02  0.8402617E-01
        1   -1    0    0  501    0  0.00000000000E+00  0.00000000000E+00  0.14830311878E+04  0.14830311878E+04  0.50400001928E-02 0.  1.
       -1   -1    0    0    0  501  0.00000000000E+00  0.00000000000E+00 -0.10544577900E+04  0.10544577901E+04  0.50400001928E-02 0. -1.
    10030    2    1    2    0    0  0.00000000000E+00  0.00000000000E+00  0.42857339774E+03  0.25374889778E+04  0.25010348169E+04 0.  0.
        4    1    3    3  502    0 -0.46328280362E+03 -0.56017728617E+03  0.12466455111E+04  0.14431064380E+04  0.12699999809E+01 0.  1.
       -4    1    3    3    0  502  0.46328280362E+03  0.56017728617E+03 -0.81807211335E+03  0.10943825399E+04  0.12699999809E+01 0. -1.
</event>
<event>
 5   0  0.1526824E-05  0.2513836E+04  0.7818609E-02  0.8398073E-01
        2   -1    0    0  501    0  0.00000000000E+00  0.00000000000E+00  0.10107619611E+04  0.10107619611E+04  0.25500000920E-02 0. -1.
       -2   -1    0    0    0  501  0.00000000000E+00  0.00000000000E+00 -0.15630214139E+04  0.15630214139E+04  0.25500000920E-02 0.  1.
    10030    2    1    2    0    0  0.00000000000E+00  0.00000000000E+00 -0.55225945283E+03  0.25737833750E+04  0.25138357859E+04 0.  0.
        2    1    3    3  502    0  0.12331115191E+04  0.22816721549E+03 -0.36311632178E+03  0.13055564944E+04  0.25500000920E-02 0.  1.
       -2    1    3    3    0  502 -0.12331115191E+04 -0.22816721549E+03 -0.18914313106E+03  0.12682268807E+04  0.25500000920E-02 0. -1.
</event>
<event>
 5   0  0.1501947E-05  0.2497944E+04  0.7818609E-02  0.8403718E-01
        2   -1    0    0  501    0  0.00000000000E+00  0.00000000000E+00  0.19585051911E+04  0.19585051911E+04  0.25500000920E-02 0. -1.
       -2   -1    0    0    0  501  0.00000000000E+00  0.00000000000E+00 -0.79649046152E+03  0.79649046152E+03  0.25500000920E-02 0.  1.
    10030    2    1    2    0    0  0.00000000000E+00  0.00000000000E+00  0.11620147296E+04  0.27549956527E+04  0.24979437172E+04 0.  0.
        3    1    3    3  502    0  0.35953698744E+03 -0.10637000382E+04 -0.22278950333E+02  0.11230409513E+04  0.10100000352E+00 0.  1.
       -3    1    3    3    0  502 -0.35953698744E+03  0.10637000382E+04  0.11842936800E+04  0.16319547013E+04  0.10100000352E+00 0. -1.
</event>
<event>
 5   0  0.6477703E-06  0.2492982E+04  0.7818609E-02  0.8405490E-01
        1   -1    0    0  501    0  0.00000000000E+00  0.00000000000E+00  0.27557426177E+04  0.27557426177E+04  0.50400001928E-02 0. -1.
       -1   -1    0    0    0  501  0.00000000000E+00  0.00000000000E+00 -0.56381910899E+03  0.56381910902E+03  0.50400001928E-02 0.  1.
    10030    2    1    2    0    0  0.00000000000E+00  0.00000000000E+00  0.21919235087E+04  0.33195617267E+04  0.24929824286E+04 0.  0.
        5    1    3    3  502    0  0.11422442498E+04 -0.49295297238E+03  0.11990499572E+04  0.17278505285E+04  0.46999998093E+01 0.  1.
       -5    1    3    3    0  502 -0.11422442498E+04  0.49295297238E+03  0.99287355154E+03  0.15917111982E+04  0.46999998093E+01 0. -1.
</event>
<event>
 5   0  0.6104486E-06  0.2522691E+04  0.7818609E-02  0.8394946E-01
        1   -1    0    0  501    0  0.00000000000E+00  0.00000000000E+00  0.23580043301E+04  0.23580043301E+04  0.50400001928E-02 0. -1.
       -1   -1    0    0    0  501  0.00000000000E+00  0.00000000000E+00 -0.67471996005E+03  0.67471996007E+03  0.50400001928E-02 0.  1.
    10030    2    1    2    0    0  0.00000000000E+00  0.00000000000E+00  0.16832843700E+04  0.30327242901E+04  0.25226910928E+04 0.  0.
        2    1    3    3  502    0  0.73020201496E+03  0.10282623085E+04  0.81546257384E+03  0.15018314044E+04  0.25500000920E-02 0.  1.
       -2    1    3    3    0  502 -0.73020201496E+03 -0.10282623085E+04  0.86782179618E+03  0.15308928858E+04  0.25500000920E-02 0. -1.
</event>
<event>
 5   0  0.1468512E-05  0.2456802E+04  0.7818609E-02  0.8418539E-01
        2   -1    0    0  501    0  0.00000000000E+00  0.00000000000E+00  0.10482918864E+04  0.10482918864E+04  0.25500000920E-02 0. -1.
       -2   -1    0    0    0  501  0.00000000000E+00  0.00000000000E+00 -0.14394551776E+04  0.14394551776E+04  0.25500000920E-02 0.  1.
    10030    2    1    2    0    0  0.00000000000E+00  0.00000000000E+00 -0.39116329120E+03  0.24877470640E+04  0.24568021357E+04 0.  0.
        4    1    3    3  502    0 -0.77872052816E+03  0.86118506684E+03 -0.60178547085E+03  0.13077433793E+04  0.12699999809E+01 0. -1.
       -4    1    3    3    0  502  0.77872052816E+03 -0.86118506684E+03  0.21062217965E+03  0.11800036847E+04  0.12699999809E+01 0.  1.
</event>
<event>
 5   0  0.1526824E-05  0.2508930E+04  0.7818609E-02  0.8399811E-01
        2   -1    0    0  501    0  0.00000000000E+00  0.00000000000E+00  0.16665549050E+04  0.16665549050E+04  0.25500000920E-02 0. -1.
       -2   -1    0    0    0  501  0.00000000000E+00  0.00000000000E+00 -0.94427308971E+03  0.94427308971E+03  0.25500000920E-02 0.  1.
    10030    2    1    2    0    0  0.00000000000E+00  0.00000000000E+00  0.72228181528E+03  0.26108279947E+04  0.25089304090E+04 0.  0.
        2    1    3    3  502    0  0.11076547637E+04  0.54685753236E+02 -0.24901156622E+03  0.11366161917E+04  0.25500000920E-02 0.  1.
       -2    1    3    3    0  502 -0.11076547637E+04 -0.54685753236E+02  0.97129338151E+03  0.14742118030E+04  0.25500000920E-02 0. -1.
</event>
<event>
 5   0  0.6104486E-06  0.2542403E+04  0.7818609E-02  0.8388033E-01
        1   -1    0    0  501    0  0.00000000000E+00  0.00000000000E+00  0.29393909299E+04  0.29393909299E+04  0.50400001928E-02 0.  1.
       -1   -1    0    0    0  501  0.00000000000E+00  0.00000000000E+00 -0.54975788974E+03  0.54975788976E+03  0.50400001928E-02 0. -1.
    10030    2    1    2    0    0  0.00000000000E+00  0.00000000000E+00  0.23896330402E+04  0.34891488197E+04  0.25424030796E+04 0.  0.
        2    1    3    3  502    0 -0.92753229610E+03  0.26634884903E+03  0.59220610380E+02  0.96683243139E+03  0.25500000920E-02 0. -1.
       -2    1    3    3    0  502  0.92753229610E+03 -0.26634884903E+03  0.23304124298E+04  0.25223163883E+04  0.25500000920E-02 0.  1.
</event>
<event>
 5   0  0.1526824E-05  0.2465793E+04  0.7818609E-02  0.8415274E-01
        2   -1    0    0  501    0  0.00000000000E+00  0.00000000000E+00  0.16379811494E+04  0.16379811494E+04  0.25500000920E-02 0. -1.
       -2   -1    0    0    0  501  0.00000000000E+00  0.00000000000E+00 -0.92799207181E+03  0.92799207181E+03  0.25500000920E-02 0.  1.
    10030    2    1    2    0    0  0.00000000000E+00  0.00000000000E+00  0.70998907762E+03  0.25659732212E+04  0.24657927897E+04 0.  0.
        2    1    3    3  502    0  0.86131432894E+03 -0.85323128737E+02  0.12686702088E+04  0.15357950736E+04  0.25500000920E-02 0. -1.
       -2    1    3    3    0  502 -0.86131432894E+03  0.85323128737E+02 -0.55868113115E+03  0.10301781476E+04  0.25500000920E-02 0.  1.
</event>
<event>
 5   0  0.1550483E-05  0.2474814E+04  0.7818609E-02  0.8412014E-01
       -2   -1    0    0    0  501  0.00000000000E+00  0.00000000000E+00  0.15920104288E+04  0.15920104288E+04  0.25500000920E-02 0. -1.
        2   -1    0    0  501    0  0.00000000000E+00  0.00000000000E+00 -0.96178761508E+03  0.96178761508E+03  0.25500000920E-02 0.  1.
    10030    2    1    2    0    0  0.00000000000E+00  0.00000000000E+00  0.63022281373E+03  0.25537980439E+04  0.24748138625E+04 0.  0.
        5    1    3    3  502    0 -0.69950818473E+03  0.95477708686E+03 -0.57298250345E+02  0.11849962724E+04  0.46999998093E+01 0.  1.
       -5    1    3    3    0  502  0.69950818473E+03 -0.95477708686E+03  0.68752106408E+03  0.13688017715E+04  0.46999998093E+01 0. -1.
</event>
<event>
 5   0  0.1468512E-05  0.2349902E+04  0.7818609E-02  0.8458501E-01
       -2   -1    0    0    0  501  0.00000000000E+00  0.00000000000E+00  0.16492093801E+04  0.16492093801E+04  0.25500000920E-02 0.  1.
        2   -1    0    0  501    0  0.00000000000E+00  0.00000000000E+00 -0.83707361892E+03  0.83707361893E+03  0.25500000920E-02 0. -1.
    10030    2    1    2    0    0  0.00000000000E+00  0.00000000000E+00  0.81213576115E+03  0.24862829990E+04  0.23499018398E+04 0.  0.
        4    1    3    3  502    0 -0.49357649646E+03 -0.95185504806E+03 -0.10229907277E+03  0.10770851886E+04  0.12699999809E+01 0. -1.
       -4    1    3    3    0  502  0.49357649646E+03  0.95185504806E+03  0.91443483393E+03  0.14091978104E+04  0.12699999809E+01 0.  1.
</event>
<event>
 5   0  0.1526824E-05  0.2503418E+04  0.7818609E-02  0.8401769E-01
       -2   -1    0    0    0  501  0.00000000000E+00  0.00000000000E+00  0.20222598305E+04  0.20222598305E+04  0.25500000920E-02 0.  1.
        2   -1    0    0  501    0  0.00000000000E+00  0.00000000000E+00 -0.77476436682E+03  0.77476436682E+03  0.25500000920E-02 0. -1.
    10030    2    1    2    0    0  0.00000000000E+00  0.00000000000E+00  0.12474954637E+04  0.27970241973E+04  0.25034175498E+04 0.  0.
        2    1    3    3  502    0 -0.40242903336E+03  0.11825089873E+04  0.53368184964E+03  0.13583419852E+04  0.25500000920E-02 0.  1.
       -2    1    3    3    0  502  0.40242903336E+03 -0.11825089873E+04  0.71381361402E+03  0.14386822121E+04  0.25500000920E-02 0. -1.
</event>
<event>
 5   0  0.1550483E-05  0.2454325E+04  0.7818609E-02  0.8419440E-01
        2   -1    0    0  501    0  0.00000000000E+00  0.00000000000E+00  0.10205594179E+04  0.10205594179E+04  0.25500000920E-02 0. -1.
       -2   -1    0    0    0  501  0.00000000000E+00  0.00000000000E+00 -0.14755907809E+04  0.14755907809E+04  0.25500000920E-02 0.  1.
    10030    2    1    2    0    0  0.00000000000E+00  0.00000000000E+00 -0.45503136295E+03  0.24961501988E+04  0.24543252176E+04 0.  0.
        5    1    3    3  502    0 -0.11020640114E+04  0.54607014090E+02 -0.77367631759E+03  0.13476365035E+04  0.46999998093E+01 0.  1.
       -5    1    3    3    0  502  0.11020640114E+04 -0.54607014090E+02  0.31864495464E+03  0.11485136953E+04  0.46999998093E+01 0. -1.
</event>
<event>
 5   0  0.6290861E-06  0.2497375E+04  0.7818609E-02  0.8403921E-01
       -1   -1    0    0    0  501  0.00000000000E+00  0.00000000000E+00  0.69689685760E+03  0.69689685761E+03  0.50400001928E-02 0.  1.
        1   -1    0    0  501    0  0.00000000000E+00  0.00000000000E+00 -0.22373768349E+04  0.22373768349E+04  0.50400001928E-02 0. -1.
    10030    2    1    2    0    0  0.00000000000E+00  0.00000000000E+00 -0.15404799773E+04  0.29342736925E+04  0.24973753306E+04 0.  0.
        1    1    3    3  502    0  0.66414968157E+03 -0.91564057462E+03 -0.14882016718E+03  0.11408943437E+04  0.50400001928E-02 0.  1.
       -1    1    3    3    0  502 -0.66414968157E+03  0.91564057462E+03 -0.13916598101E+04  0.17933793487E+04  0.50400001928E-02 0. -1.
</event>
<event>
 5   0  0.1501947E-05  0.2507727E+04  0.7818609E-02  0.8400238E-01
        2   -1    0    0  501    0  0.00000000000E+00  0.00000000000E+00  0.13523223475E+04  0.13523223475E+04  0.25500000920E-02 0. -1.
       -2   -1    0    0    0  501  0.00000000000E+00  0.00000000000E+00 -0.11625733968E+04  0.11625733969E+04  0.25500000920E-02 0.  1.
    10030    2    1    2    0    0  0.00000000000E+00  0.00000000000E+00  0.18974895061E+03  0.25148957443E+04  0.25077272460E+04 0.  0.
        3    1    3    3  502    0  0.29641553502E+02  0.10407472060E+04  0.79554226921E+03  0.13103132758E+04  0.10100000352E+00 0.  1.
       -3    1    3    3    0  502 -0.29641553502E+02 -0.10407472060E+04 -0.60579331860E+03  0.12045824685E+04  0.10100000352E+00 0. -1.
</event>
<event>
 5   0  0.6290861E-06  0.2484663E+04  0.7818609E-02  0.8408470E-01
       -1   -1    0    0    0  501  0.00000000000E+00  0.00000000000E+00  0.13260533393E+04  0.13260533394E+04  0.50400001928E-02 0.  1.
        1   -1    0    0  501    0  0.00000000000E+00  0.00000000000E+00 -0.11638953647E+04  0.11638953647E+04  0.50400001928E-02 0. -1.
    10030    2    1    2    0    0  0.00000000000E+00  0.00000000000E+00  0.16215797462E+03  0.24899487041E+04  0.24846628222E+04 0.  0.
        1    1    3    3  502    0 -0.83751330888E+03 -0.66429618739E+03 -0.55325211911E+03  0.12036635221E+04  0.50400001928E-02 0. -1.
       -1    1    3    3    0  502  0.83751330888E+03  0.66429618739E+03  0.71541009373E+03  0.12862851820E+04  0.50400001928E-02 0.  1.
</event>
<event>
 5   0  0.1526824E-05  0.2499814E+04  0.7818609E-02  0.8403052E-01
        2   -1    0    0  501    0  0.00000000000E+00  0.00000000000E+00  0.25893422977E+04  0.25893422977E+04  0.25500000920E-02 0. -1.
       -2   -1    0    0    0  501  0.00000000000E+00  0.00000000000E+00 -0.60334541639E+03  0.60334541639E+03  0.25500000920E-02 0.  1.
    10030    2    1    2    0    0  0.00000000000E+00  0.00000000000E+00  0.19859968814E+04  0.31926877141E+04  0.24998142386E+04 0.  0.
        2    1    3    3  502    0 -0.71371109083E+03  0.79402749848E+03  0.18230652182E+04  0.21126831232E+04  0.25500000920E-02 0. -1.
       -2    1    3    3    0  502  0.71371109083E+03 -0.79402749848E+03  0.16293166320E+03  0.10800045909E+04  0.25500000920E-02 0.  1.
</event>
<event>
 5   0  0.1550483E-05  0.2482107E+04  0.7818609E-02  0.8409388E-01
       -2   -1    0    0    0  501  0.00000000000E+00  0.00000000000E+00  0.59882260663E+03  0.59882260664E+03  0.25500000920E-02 0.  1.
        2   -1    0    0  501    0  0.00000000000E+00  0.00000000000E+00 -0.25720705182E+04  0.25720705182E+04  0.25500000920E-02 0. -1.
    10030    2    1    2    0    0  0.00000000000E+00  0.00000000000E+00 -0.19732479116E+04  0.31708931248E+04  0.24821071469E+04 0.  0.
        5    1    3    3  502    0 -0.62092401330E+03  0.46766984705E+03  0.24927453506E+03  0.81634649504E+03  0.46999998093E+01 0.  1.
       -5    1    3    3    0  502  0.62092401330E+03 -0.46766984705E+03 -0.22225224466E+04  0.23545466298E+04  0.46999998093E+01 0. -1.
</event>
<event>
 5   0  0.6105353E-06  0.2475793E+04  0.7818609E-02  0.8411660E-01
        1   -1    0    0  501    0  0.00000000000E+00  0.00000000000E+00  0.81591914100E+03  0.81591914102E+03  0.50400001928E-02 0. -1.
       -1   -1    0    0    0  501  0.00000000000E+00  0.00000000000E+00 -0.18781122664E+04  0.18781122664E+04  0.50400001928E-02 0.  1.
    10030    2    1    2    0    0  0.00000000000E+00  0.00000000000E+00 -0.10621931254E+04  0.26940314075E+04  0.24757930020E+04 0.  0.
        3    1    3    3  502    0 -0.28122154168E+03 -0.11540728471E+04 -0.15193007868E+03  0.11975192904E+04  0.10100000352E+00 0. -1.
       -3    1    3    3    0  502  0.28122154168E+03  0.11540728471E+04 -0.91026304675E+03  0.14965121170E+04  0.10100000352E+00 0.  1.
</event>
<event>
 5   0  0.6290861E-06  0.2461808E+04  0.7818609E-02  0.8416719E-01
        1   -1    0    0  501    0  0.00000000000E+00  0.00000000000E+00  0.11182903662E+04  0.11182903662E+04  0.50400001928E-02 0. -1.
       -1   -1    0    0    0  501  0.00000000000E+00  0.00000000000E+00 -0.13548579350E+04  0.13548579350E+04  0.50400001928E-02 0.  1.
    10030    2    1    2    0    0  0.00000000000E+00  0.00000000000E+00 -0.23656756884E+03  0.24731483012E+04  0.24618079343E+04 0.  0.
        1    1    3    3  502    0 -0.27466063844E+03 -0.27541044694E+02  0.10867950644E+04  0.11213030311E+04  0.50400001928E-02 0. -1.
       -1    1    3    3    0  502  0.27466063844E+03  0.27541044694E+02 -0.13233626332E+04  0.13518452702E+04  0.50400001928E-02 0.  1.
</event>
<event>
 5   0  0.6477703E-06  0.2507412E+04  0.7818609E-02  0.8400350E-01
        1   -1    0    0  501    0  0.00000000000E+00  0.00000000000E+00  0.87726747090E+03  0.87726747092E+03  0.50400001928E-02 0.  1.
       -1   -1    0    0    0  501  0.00000000000E+00  0.00000000000E+00 -0.17916751272E+04  0.17916751272E+04  0.50400001928E-02 0. -1.
    10030    2    1    2    0    0  0.00000000000E+00  0.00000000000E+00 -0.91440765627E+03  0.26689425981E+04  0.25074116595E+04 0.  0.
        5    1    3    3  502    0  0.11743714374E+02  0.49400361329E+03 -0.16836365682E+04  0.17546599866E+04  0.46999998093E+01 0. -1.
       -5    1    3    3    0  502 -0.11743714374E+02 -0.49400361329E+03  0.76922891192E+03  0.91428261151E+03  0.46999998093E+01 0.  1.
</event>
<event>
 5   0  0.5164625E-06  0.2505214E+04  0.7818609E-02  0.8401130E-01
       -3   -1    0    0    0  501  0.00000000000E+00  0.00000000000E+00  0.66057702528E+03  0.66057703300E+03  0.10100000352E+00 0.  1.
        3   -1    0    0  501    0  0.00000000000E+00  0.00000000000E+00 -0.23752331888E+04  0.23752331909E+04  0.10100000352E+00 0. -1.
    10030    2    1    2    0    0  0.00000000000E+00  0.00000000000E+00 -0.17146561635E+04  0.30358102239E+04  0.25052141539E+04 0.  0.
        1    1    3    3  502    0  0.35165555513E+03 -0.92078711380E+03  0.79378964941E+02  0.98884354601E+03  0.50400001928E-02 0.  1.
       -1    1    3    3    0  502 -0.35165555513E+03  0.92078711380E+03 -0.17940351284E+04  0.20469666779E+04  0.50400001928E-02 0. -1.
</event>
<event>
 5   0  0.6105353E-06  0.2476679E+04  0.7818609E-02  0.8411341E-01
        1   -1    0    0  501    0  0.00000000000E+00  0.00000000000E+00  0.22332029092E+04  0.22332029092E+04  0.50400001928E-02 0.  1.
       -1   -1    0    0    0  501  0.00000000000E+00  0.00000000000E+00 -0.68667532070E+03  0.68667532071E+03  0.50400001928E-02 0. -1.
    10030    2    1    2    0    0  0.00000000000E+00  0.00000000000E+00  0.15465275885E+04  0.29198782299E+04  0.24766794899E+04 0.  0.
        3    1    3    3  502    0  0.46230323277E+03 -0.56519421669E+03 -0.40587154516E+03  0.83540439488E+03  0.10100000352E+00 0. -1.
       -3    1    3    3    0  502 -0.46230323277E+03  0.56519421669E+03  0.19523991337E+04  0.20844738350E+04  0.10100000352E+00 0.  1.
</event>
<event>
 5   0  0.1550483E-05  0.2483911E+04  0.7818609E-02  0.8408740E-01
        2   -1    0    0  501    0  0.00000000000E+00  0.00000000000E+00  0.19471122458E+04  0.19471122458E+04  0.25500000920E-02 0. -1.
       -2   -1    0    0    0  501  0.00000000000E+00  0.00000000000E+00 -0.79217494798E+03  0.79217494799E+03  0.25500000920E-02 0.  1.
    10030    2    1    2    0    0  0.00000000000E+00  0.00000000000E+00  0.11549372978E+04  0.27392871938E+04  0.24839110629E+04 0.  0.
        5    1    3    3  502    0  0.92074325192E+03 -0.43990041551E+02  0.14953424137E+04  0.17566372090E+04  0.46999998093E+01 0. -1.
       -5    1    3    3    0  502 -0.92074325192E+03  0.43990041551E+02 -0.34040511590E+03  0.98264998481E+03  0.46999998093E+01 0.  1.
</event>
<event>
 5   0  0.5164625E-06  0.2496753E+04  0.7818609E-02  0.8404143E-01
       -3   -1    0    0    0  501  0.00000000000E+00  0.00000000000E+00  0.94384926605E+03  0.94384927145E+03  0.10100000352E+00 0.  1.
        3   -1    0    0  501    0  0.00000000000E+00  0.00000000000E+00 -0.16511580038E+04  0.16511580069E+04  0.10100000352E+00 0. -1.
    10030    2    1    2    0    0  0.00000000000E+00  0.00000000000E+00 -0.70730873779E+03  0.25950072784E+04  0.24967533167E+04 0.  0.
        1    1    3    3  502    0  0.29253304138E+03  0.76936887815E+03 -0.13291743439E+04  0.15633964588E+04  0.50400001928E-02 0. -1.
       -1    1    3    3    0  502 -0.29253304138E+03 -0.76936887815E+03  0.62186560610E+03  0.10316108196E+04  0.50400001928E-02 0.  1.
</event>
<event>
 5   0  0.1550483E-05  0.2496069E+04  0.7818609E-02  0.8404387E-01
       -2   -1    0    0    0  501  0.00000000000E+00  0.00000000000E+00  0.12722600601E+04  0.12722600601E+04  0.25500000920E-02 0.  1.
        2   -1    0    0  501    0  0.00000000000E+00  0.00000000000E+00 -0.12242701296E+04  0.12242701296E+04  0.25500000920E-02 0. -1.
    10030    2    1    2    0    0  0.00000000000E+00  0.00000000000E+00  0.47989930443E+02  0.24965301897E+04  0.24960689002E+04 0.  0.
        5    1    3    3  502    0  0.41854466105E+03  0.11553139926E+04 -0.19430632460E+03  0.12440687652E+04  0.46999998093E+01 0. -1.
       -5    1    3    3    0  502 -0.41854466105E+03 -0.11553139926E+04  0.24229625504E+03  0.12524614245E+04  0.46999998093E+01 0.  1.
</event>
<event>
 5   0  0.6290861E-06  0.2497390E+04  0.7818609E-02  0.8403916E-01
        1   -1    0    0  501    0  0.00000000000E+00  0.00000000000E+00  0.26016343567E+04  0.26016343567E+04  0.50400001928E-02 0.  1.
       -1   -1    0    0    0  501  0.00000000000E+00  0.00000000000E+00 -0.59933068615E+03  0.59933068617E+03  0.50400001928E-02 0. -1.
    10030    2    1    2    0    0  0.00000000000E+00  0.00000000000E+00  0.20023036705E+04  0.32009650429E+04  0.24973900810E+04 0.  0.
        1    1    3    3  502    0 -0.91997833833E+02  0.11742639928E+04  0.46976971098E+03  0.12680863960E+04  0.50400001928E-02 0. -1.
       -1    1    3    3    0  502  0.91997833833E+02 -0.11742639928E+04  0.15325339596E+04  0.19328786469E+04  0.50400001928E-02 0.  1.
</event>
<event>
 5   0  0.6477703E-06  0.2532341E+04  0.7818609E-02  0.8391554E-01
        1   -1    0    0  501    0  0.00000000000E+00  0.00000000000E+00  0.20100045758E+04  0.20100045758E+04  0.50400001928E-02 0.  1.
       -1   -1    0    0    0  501  0.00000000000E+00  0.00000000000E+00 -0.79760374271E+03  0.79760374273E+03  0.50400001928E-02 0. -1.
    10030    2    1    2    0    0  0.00000000000E+00  0.00000000000E+00  0.12124008331E+04  0.28076083185E+04  0.25323405557E+04 0.  0.
        5    1    3    3  502    0 -0.10179820169E+04  0.68371534726E+03  0.25663241262E+03  0.12528512872E+04  0.46999998093E+01 0. -1.
       -5    1    3    3    0  502  0.10179820169E+04 -0.68371534726E+03  0.95576842043E+03  0.15547570313E+04  0.46999998093E+01 0.  1.
</event>
<event>
 5   0  0.1501947E-05  0.2494340E+04  0.7818609E-02  0.8405005E-01
       -2   -1    0    0    0  501  0.00000000000E+00  0.00000000000E+00  0.74861157125E+03  0.74861157125E+03  0.25500000920E-02 0. -1.
        2   -1    0    0  501    0  0.00000000000E+00  0.00000000000E+00 -0.20777573331E+04  0.20777573331E+04  0.25500000920E-02 0.  1.
    10030    2    1    2    0    0  0.00000000000E+00  0.00000000000E+00 -0.13291457619E+04  0.28263689044E+04  0.24943401386E+04 0.  0.
        3    1    3    3  502    0 -0.10441683364E+04  0.18795868179E+03  0.78300953242E+02  0.10638359978E+04  0.10100000352E+00 0. -1.
       -3    1    3    3    0  502  0.10441683364E+04 -0.18795868179E+03 -0.14074467151E+04  0.17625329066E+04  0.10100000352E+00 0.  1.
</event>
<event>
 5   0  0.1550483E-05  0.2456346E+04  0.7818609E-02  0.8418705E-01
       -2   -1    0    0    0  501  0.00000000000E+00  0.00000000000E+00  0.87977482835E+03  0.87977482836E+03  0.25500000920E-02 0.  1.
        2   -1    0    0  501    0  0.00000000000E+00  0.00000000000E+00 -0.17145400389E+04  0.17145400389E+04  0.25500000920E-02 0. -1.
    10030    2    1    2    0    0  0.00000000000E+00  0.00000000000E+00 -0.83476521058E+03  0.25943148673E+04  0.24563462040E+04 0.  0.
        5    1    3    3  502    0  0.57638407622E+03 -0.88130344410E+03 -0.10849216417E+04  0.15119495436E+04  0.46999998093E+01 0. -1.
       -5    1    3    3    0  502 -0.57638407622E+03  0.88130344410E+03  0.25015643107E+03  0.10823653237E+04  0.46999998093E+01 0.  1.
</event>
<event>
 5   0  0.5164625E-06  0.2510545E+04  0.7818609E-02  0.8399238E-01
        3   -1    0    0  501    0  0.00000000000E+00  0.00000000000E+00  0.93391980287E+03  0.93391980833E+03  0.10100000352E+00 0.  1.
       -3   -1    0    0    0  501  0.00000000000E+00  0.00000000000E+00 -0.16871998316E+04  0.16871998346E+04  0.10100000352E+00 0. -1.
    10030    2    1    2    0    0  0.00000000000E+00  0.00000000000E+00 -0.75328002875E+03  0.26211196430E+04  0.25105452358E+04 0.  0.
        5    1    3    3  502    0  0.63660710765E+03 -0.10496503330E+04 -0.65019711873E+03  0.13891770277E+04  0.46999998093E+01 0.  1.
       -5    1    3    3    0  502 -0.63660710765E+03  0.10496503330E+04 -0.10308291001E+03  0.12319426153E+04  0.46999998093E+01 0. -1.
</event>
<event>
 5   0  0.1468512E-05  0.2563261E+04  0.7818609E-02  0.8380789E-01
        2   -1    0    0  501    0  0.00000000000E+00  0.00000000000E+00  0.17453811472E+04  0.17453811472E+04  0.25500000920E-02 0.  1.
       -2   -1    0    0    0  501  0.00000000000E+00  0.00000000000E+00 -0.94109906892E+03  0.94109906892E+03  0.25500000920E-02 0. -1.
    10030    2    1    2    0    0  0.00000000000E+00  0.00000000000E+00  0.80428207832E+03  0.26864802162E+04  0.25632608705E+04 0.  0.
        4    1    3    3  502    0 -0.39994871027E+03  0.89092181923E+03 -0.46774193458E+03  0.10828133676E+04  0.12699999809E+01 0. -1.
       -4    1    3    3    0  502  0.39994871027E+03 -0.89092181923E+03  0.12720240129E+04  0.16036668485E+04  0.12699999809E+01 0.  1.
</event>
<event>
 5   0  0.6105353E-06  0.2464889E+04  0.7818609E-02  0.8415602E-01
       -1   -1    0    0    0  501  0.00000000000E+00  0.00000000000E+00  0.88891819263E+03  0.88891819265E+03  0.50400001928E-02 0.  1.
        1   -1    0    0  501    0  0.00000000000E+00  0.00000000000E+00 -0.17087274978E+04  0.17087274978E+04  0.50400001928E-02 0. -1.
    10030    2    1    2    0    0  0.00000000000E+00  0.00000000000E+00 -0.81980930513E+03  0.25976456904E+04  0.24648886052E+04 0.  0.
        3    1    3    3  502    0  0.96538672133E+03  0.37208712255E+03  0.29586529784E+03  0.10760839341E+04  0.10100000352E+00 0. -1.
       -3    1    3    3    0  502 -0.96538672133E+03 -0.37208712255E+03 -0.11156746030E+04  0.15215617563E+04  0.10100000352E+00 0.  1.
</event>
<event>
 5   0  0.6346420E-06  0.2433426E+04  0.7818609E-02  0.8427094E-01
        1   -1    0    0  501    0  0.00000000000E+00  0.00000000000E+00  0.19850537090E+04  0.19850537090E+04  0.50400001928E-02 0. -1.
       -1   -1    0    0    0  501  0.00000000000E+00  0.00000000000E+00 -0.74576846599E+03  0.74576846601E+03  0.50400001928E-02 0.  1.
    10030    2    1    2    0    0  0.00000000000E+00  0.00000000000E+00  0.12392852430E+04  0.27308221750E+04  0.24334259467E+04 0.  0.
        4    1    3    3  502    0  0.65558531494E+03  0.10221319092E+04  0.53386045622E+03  0.13264819428E+04  0.12699999809E+01 0.  1.
       -4    1    3    3    0  502 -0.65558531494E+03 -0.10221319092E+04  0.70542478678E+03  0.14043402322E+04  0.12699999809E+01 0. -1.
</event>
<event>
 5   0  0.6346420E-06  0.2498498E+04  0.7818609E-02  0.8403521E-01
       -1   -1    0    0    0  501  0.00000000000E+00  0.00000000000E+00  0.78336913670E+03  0.78336913672E+03  0.50400001928E-02 0.  1.
        1   -1    0    0  501    0  0.00000000000E+00  0.00000000000E+00 -0.19921938702E+04  0.19921938702E+04  0.50400001928E-02 0. -1.
    10030    2    1    2    0    0  0.00000000000E+00  0.00000000000E+00 -0.12088247335E+04  0.27755630070E+04  0.24984981027E+04 0.  0.
        4    1    3    3  502    0 -0.11094355705E+04 -0.34594629687E+03 -0.11136029862E+04  0.16095463178E+04  0.12699999809E+01 0.  1.
       -4    1    3    3    0  502  0.11094355705E+04  0.34594629687E+03 -0.95221747301E+02  0.11660166892E+04  0.12699999809E+01 0. -1.
</event>
<event>
 5   0  0.6346420E-06  0.2516772E+04  0.7818609E-02  0.8397035E-01
       -1   -1    0    0    0  501  0.00000000000E+00  0.00000000000E+00  0.81664971543E+03  0.81664971544E+03  0.50400001928E-02 0. -1.
        1   -1    0    0  501    0  0.00000000000E+00  0.00000000000E+00 -0.19390635927E+04  0.19390635927E+04  0.50400001928E-02 0.  1.
    10030    2    1    2    0    0  0.00000000000E+00  0.00000000000E+00 -0.11224138773E+04  0.27557133081E+04  0.25167723228E+04 0.  0.
        4    1    3    3  502    0  0.68764924004E+03  0.10479713906E+04 -0.68327479170E+03  0.14275754154E+04  0.12699999809E+01 0.  1.
       -4    1    3    3    0  502 -0.68764924004E+03 -0.10479713906E+04 -0.43913908556E+03  0.13281378927E+04  0.12699999809E+01 0. -1.
</event>
<event>
 5   0  0.6290861E-06  0.2550739E+04  0.7818609E-02  0.8385129E-01
       -1   -1    0    0    0  501  0.00000000000E+00  0.00000000000E+00  0.11171124407E+04  0.11171124407E+04  0.50400001928E-02 0.  1.
        1   -1    0    0  501    0  0.00000000000E+00  0.00000000000E+00 -0.14560457958E+04  0.14560457958E+04  0.50400001928E-02 0. -1.
    10030    2    1    2    0    0  0.00000000000E+00  0.00000000000E+00 -0.33893335512E+03  0.25731582365E+04  0.25507386167E+04 0.  0.
        1    1    3    3  502    0 -0.61929921921E+03 -0.72454534743E+03 -0.10243045280E+04  0.13991773474E+04  0.50400001928E-02 0. -1.
       -1    1    3    3    0  502  0.61929921921E+03  0.72454534743E+03  0.68537117286E+03  0.11739808891E+04  0.50400001928E-02 0.  1.
</event>
<event>
 5   0  0.6477703E-06  0.2507344E+04  0.7818609E-02  0.8400374E-01
        1   -1    0    0  501    0  0.00000000000E+00  0.00000000000E+00  0.71685139826E+03  0.71685139828E+03  0.50400001928E-02 0. -1.
       -1   -1    0    0    0  501  0.00000000000E+00  0.00000000000E+00 -0.21924949760E+04  0.21924949760E+04  0.50400001928E-02 0.  1.
    10030    2    1    2    0    0  0.00000000000E+00  0.00000000000E+00 -0.14756435778E+04  0.29093463743E+04  0.25073436855E+04 0.  0.
        5    1    3    3  502    0 -0.13490550140E+03  0.34859219771E+03  0.65067936470E+03  0.75041437903E+03  0.46999998093E+01 0. -1.
       -5    1    3    3    0  502  0.13490550140E+03 -0.34859219771E+03 -0.21263229425E+04  0.21589319953E+04  0.46999998093E+01 0.  1.
</event>
<event>
 5   0  0.1468512E-05  0.2499436E+04  0.7818609E-02  0.8403187E-01
       -2   -1    0    0    0  501  0.00000000000E+00  0.00000000000E+00  0.13694823291E+04  0.13694823291E+04  0.25500000920E-02 0. -1.
        2   -1    0    0  501    0  0.00000000000E+00  0.00000000000E+00 -0.11404269642E+04  0.11404269642E+04  0.25500000920E-02 0.  1.
    10030    2    1    2    0    0  0.00000000000E+00  0.00000000000E+00  0.22905536485E+03  0.25099092933E+04  0.24994355964E+04 0.  0.
        4    1    3    3  502    0  0.10227076106E+04  0.16947668659E+03  0.81540638605E+03  0.13189171283E+04  0.12699999809E+01 0. -1.
       -4    1    3    3    0  502 -0.10227076106E+04 -0.16947668659E+03 -0.58635102120E+03  0.11909921650E+04  0.12699999809E+01 0.  1.
</event>
<event>
 5   0  0.6477703E-06  0.2508111E+04  0.7818609E-02  0.8400102E-01
        1   -1    0    0  501    0  0.00000000000E+00  0.00000000000E+00  0.16636545345E+04  0.16636545345E+04  0.50400001928E-02 0.  1.
       -1   -1    0    0    0  501  0.00000000000E+00  0.00000000000E+00 -0.94530182584E+03  0.94530182586E+03  0.50400001928E-02 0. -1.
    10030    2    1    2    0    0  0.00000000000E+00  0.00000000000E+00  0.71835270862E+03  0.26089563603E+04  0.25081113763E+04 0.  0.
        5    1    3    3  502    0  0.43109314871E+03 -0.31563545276E+03  0.15393267792E+04  0.16294220034E+04  0.46999998093E+01 0.  1.
       -5    1    3    3    0  502 -0.43109314871E+03  0.31563545276E+03 -0.82097407058E+03  0.97953435696E+03  0.46999998093E+01 0. -1.
</event>
<event>
 5   0  0.1468512E-05  0.2502065E+04  0.7818609E-02  0.8402250E-01
        2   -1    0    0  501    0  0.00000000000E+00  0.00000000000E+00  0.62213375314E+03  0.62213375314E+03  0.25500000920E-02 0.  1.
       -2   -1    0    0    0  501  0.00000000000E+00  0.00000000000E+00 -0.25156688410E+04  0.25156688410E+04  0.25500000920E-02 0. -1.
    10030    2    1    2    0    0  0.00000000000E+00  0.00000000000E+00 -0.18935350879E+04  0.31378025941E+04  0.25020651452E+04 0.  0.
        4    1    3    3  502    0 -0.85573752512E+02  0.12443476754E+04 -0.82545867685E+03  0.14956963744E+04  0.12699999809E+01 0.  1.
       -4    1    3    3    0  502  0.85573752512E+02 -0.12443476754E+04 -0.10680764110E+04  0.16421062198E+04  0.12699999809E+01 0. -1.
</event>
<event>
 5   0  0.6290861E-06  0.2482259E+04  0.7818609E-02  0.8409333E-01
        1   -1    0    0  501    0  0.00000000000E+00  0.00000000000E+00  0.11362250247E+04  0.11362250247E+04  0.50400001928E-02 0. -1.
       -1   -1    0    0    0  501  0.00000000000E+00  0.00000000000E+00 -0.13557192265E+04  0.13557192265E+04  0.50400001928E-02 0.  1.
    10030    2    1    2    0    0  0.00000000000E+00  0.00000000000E+00 -0.21949420183E+03  0.24919442512E+04  0.24822587388E+04 0.  0.
        1    1    3    3  502    0 -0.47589782026E+02 -0.41095089220E+03 -0.12844653336E+04  0.13494430763E+04  0.50400001928E-02 0.  1.
       -1    1    3    3    0  502  0.47589782026E+02  0.41095089220E+03  0.10649711317E+04  0.11425011749E+04  0.50400001928E-02 0. -1.
</event>
<event>
 5   0  0.1572732E-05  0.2503120E+04  0.7818609E-02  0.8401875E-01
       -2   -1    0    0    0  501  0.00000000000E+00  0.00000000000E+00  0.64885973587E+03  0.64885973588E+03  0.25500000920E-02 0.  1.
        2   -1    0    0  501    0  0.00000000000E+00  0.00000000000E+00 -0.24140851355E+04  0.24140851355E+04  0.25500000920E-02 0. -1.
    10030    2    1    2    0    0  0.00000000000E+00  0.00000000000E+00 -0.17652253996E+04  0.30629448713E+04  0.25031201676E+04 0.  0.
        1    1    3    3  502    0  0.85171772789E+03 -0.26121533470E+03 -0.19582748644E+04  0.21513941953E+04  0.50400001928E-02 0. -1.
       -1    1    3    3    0  502 -0.85171772789E+03  0.26121533470E+03  0.19304946480E+03  0.91155067603E+03  0.50400001928E-02 0.  1.
</event>
<event>
 5   0  0.6105353E-06  0.2471402E+04  0.7818609E-02  0.8413245E-01
       -1   -1    0    0    0  501  0.00000000000E+00  0.00000000000E+00  0.96704578415E+03  0.96704578417E+03  0.50400001928E-02 0. -1.
        1   -1    0    0  501    0  0.00000000000E+00  0.00000000000E+00 -0.15789910971E+04  0.15789910971E+04  0.50400001928E-02 0.  1.
    10030    2    1    2    0    0  0.00000000000E+00  0.00000000000E+00 -0.61194531291E+03  0.25460368812E+04  0.24714017752E+04 0.  0.
        3    1    3    3  502    0  0.61326630301E+03  0.40220613180E+02  0.79842976092E+03  0.10075729996E+04  0.10100000352E+00 0. -1.
       -3    1    3    3    0  502 -0.61326630301E+03 -0.40220613180E+02 -0.14103750738E+04  0.15384638817E+04  0.10100000352E+00 0.  1.
</event>
<event>
 5   0  0.1526824E-05  0.2501506E+04  0.7818609E-02  0.8402449E-01
        2   -1    0    0  501    0  0.00000000000E+00  0.00000000000E+00  0.25155961943E+04  0.25155961943E+04  0.25500000920E-02 0. -1.
       -2   -1    0    0    0  501  0.00000000000E+00  0.00000000000E+00 -0.62187351963E+03  0.62187351963E+03  0.25500000920E-02 0.  1.
    10030    2    1    2    0    0  0.00000000000E+00  0.00000000000E+00  0.18937226747E+04  0.31374697140E+04  0.25015056741E+04 0.  0.
        2    1    3    3  502    0 -0.37364590905E+03 -0.31503059339E+02 -0.54971658445E+03  0.66542620276E+03  0.25500000920E-02 0.  1.
       -2    1    3    3    0  502  0.37364590905E+03  0.31503059339E+02  0.24434392591E+04  0.24720435112E+04  0.25500000920E-02 0. -1.
</event>
<event>
 5   0  0.6290861E-06  0.2481299E+04  0.7818609E-02  0.8409678E-01
        1   -1    0    0  501    0  0.00000000000E+00  0.00000000000E+00  0.19349380517E+04  0.19349380517E+04  0.50400001928E-02 0.  1.
       -1   -1    0    0    0  501  0.00000000000E+00  0.00000000000E+00 -0.79548315325E+03  0.79548315326E+03  0.50400001928E-02 0. -1.
    10030    2    1    2    0    0  0.00000000000E+00  0.00000000000E+00  0.11394548984E+04  0.27304212049E+04  0.24812985493E+04 0.  0.
        1    1    3    3  502    0 -0.11946767597E+04 -0.17755857916E+03  0.88180490495E+03  0.14954462544E+04  0.50400001928E-02 0.  1.
       -1    1    3    3    0  502  0.11946767597E+04  0.17755857916E+03  0.25764999345E+03  0.12349749505E+04  0.50400001928E-02 0. -1.
</event>
<event>
 5   0  0.6105353E-06  0.2513333E+04  0.7818609E-02  0.8398251E-01
        1   -1    0    0  501    0  0.00000000000E+00  0.00000000000E+00  0.19313306236E+04  0.19313306237E+04  0.50400001928E-02 0. -1.
       -1   -1    0    0    0  501  0.00000000000E+00  0.00000000000E+00 -0.81768009374E+03  0.81768009376E+03  0.50400001928E-02 0.  1.
    10030    2    1    2    0    0  0.00000000000E+00  0.00000000000E+00  0.11136505299E+04  0.27490107174E+04  0.25133329309E+04 0.  0.
        3    1    3    3  502    0 -0.99009317960E+03 -0.66716791693E+03  0.12785911831E+03  0.12007270706E+04  0.10100000352E+00 0.  1.
       -3    1    3    3    0  502  0.99009317960E+03  0.66716791693E+03  0.98579141159E+03  0.15482836468E+04  0.10100000352E+00 0. -1.
</event>
<event>
 5   0  0.6290861E-06  0.2500828E+04  0.7818609E-02  0.8402691E-01
        1   -1    0    0  501    0  0.00000000000E+00  0.00000000000E+00  0.19221088208E+04  0.19221088208E+04  0.50400001928E-02 0. -1.
       -1   -1    0    0    0  501  0.00000000000E+00  0.00000000000E+00 -0.81344747892E+03  0.81344747894E+03  0.50400001928E-02 0.  1.
    10030    2    1    2    0    0  0.00000000000E+00  0.00000000000E+00  0.11086613419E+04  0.27355562998E+04  0.25008275227E+04 0.  0.
        1    1    3    3  502    0  0.22867025565E+03  0.10745966852E+04 -0.98774966154E+02  0.11030886708E+04  0.50400001928E-02 0.  1.
       -1    1    3    3    0  502 -0.22867025565E+03 -0.10745966852E+04  0.12074363081E+04  0.16324676290E+04  0.50400001928E-02 0. -1.
</event>
<event>
 5   0  0.1550483E-05  0.2537113E+04  0.7818609E-02  0.8389882E-01
        2   -1    0    0  501    0  0.00000000000E+00  0.00000000000E+00  0.14257819474E+04  0.14257819474E+04  0.25500000920E-02 0. -1.
       -2   -1    0    0    0  501  0.00000000000E+00  0.00000000000E+00 -0.11286686306E+04  0.11286686306E+04  0.25500000920E-02 0.  1.
    10030    2    1    2    0    0  0.00000000000E+00  0.00000000000E+00  0.29711331680E+03  0.25544505779E+04  0.25371128142E+04 0.  0.
        5    1    3    3  502    0  0.54668368517E+03  0.93419439459E+03 -0.51750094353E+03  0.11997547812E+04  0.46999998093E+01 0.  1.
       -5    1    3    3    0  502 -0.54668368517E+03 -0.93419439459E+03  0.81461426033E+03  0.13546957967E+04  0.46999998093E+01 0. -1.
</event>
<event>
 5   0  0.1501947E-05  0.2534222E+04  0.7818609E-02  0.8390894E-01
       -2   -1    0    0    0  501  0.00000000000E+00  0.00000000000E+00  0.59143756938E+03  0.59143756939E+03  0.25500000920E-02 0.  1.
        2   -1    0    0  501    0  0.00000000000E+00  0.00000000000E+00 -0.27146908109E+04  0.27146908109E+04  0.25500000920E-02 0. -1.
    10030    2    1    2    0    0  0.00000000000E+00  0.00000000000E+00 -0.21232532415E+04  0.33061283803E+04  0.25342218804E+04 0.  0.
        3    1    3    3  502    0  0.59606928700E+03  0.34934549234E+03 -0.24473411038E+04  0.25429941715E+04  0.10100000352E+00 0. -1.
       -3    1    3    3    0  502 -0.59606928700E+03 -0.34934549234E+03  0.32408786226E+03  0.76313420877E+03  0.10100000352E+00 0.  1.
</event>
<event>
 5   0  0.1572732E-05  0.2515984E+04  0.7818609E-02  0.8397313E-01
        2   -1    0    0  501    0  0.00000000000E+00  0.00000000000E+00  0.12125090383E+04  0.12125090383E+04  0.25500000920E-02 0.  1.
       -2   -1    0    0    0  501  0.00000000000E+00  0.00000000000E+00 -0.13051811940E+04  0.13051811940E+04  0.25500000920E-02 0. -1.
    10030    2    1    2    0    0  0.00000000000E+00  0.00000000000E+00 -0.92672155733E+02  0.25176902324E+04  0.25159840973E+04 0.  0.
        1    1    3    3  502    0  0.74657004405E+03  0.71667889376E+03 -0.76204729276E+03  0.12851893027E+04  0.50400001928E-02 0. -1.
       -1    1    3    3    0  502 -0.74657004405E+03 -0.71667889376E+03  0.66937513703E+03  0.12325009296E+04  0.50400001928E-02 0.  1.
</event>
<event>
 5   0  0.6104486E-06  0.2468965E+04  0.7818609E-02  0.8414126E-01
       -1   -1    0    0    0  501  0.00000000000E+00  0.00000000000E+00  0.15862524788E+04  0.15862524788E+04  0.50400001928E-02 0. -1.
        1   -1    0    0  501    0  0.00000000000E+00  0.00000000000E+00 -0.96072185511E+03  0.96072185512E+03  0.50400001928E-02 0.  1.
    10030    2    1    2    0    0  0.00000000000E+00  0.00000000000E+00  0.62553062373E+03  0.25469743340E+04  0.24689653089E+04 0.  0.
        2    1    3    3  502    0  0.95881772777E+02  0.45951314136E+03 -0.86506317429E+03  0.98421539154E+03  0.25500000920E-02 0.  1.
       -2    1    3    3    0  502 -0.95881772777E+02 -0.45951314136E+03  0.14905937980E+04  0.15627589424E+04  0.25500000920E-02 0. -1.
</event>
<event>
 5   0  0.6290861E-06  0.2501948E+04  0.7818609E-02  0.8402292E-01
       -1   -1    0    0    0  501  0.00000000000E+00  0.00000000000E+00  0.81926675917E+03  0.81926675919E+03  0.50400001928E-02 0. -1.
        1   -1    0    0  501    0  0.00000000000E+00  0.00000000000E+00 -0.19101668257E+04  0.19101668257E+04  0.50400001928E-02 0.  1.
    10030    2    1    2    0    0  0.00000000000E+00  0.00000000000E+00 -0.10909000665E+04  0.27294335849E+04  0.25019481888E+04 0.  0.
        1    1    3    3  502    0 -0.49607950690E+03 -0.15995861988E+03 -0.17860627436E+04  0.18605649038E+04  0.50400001928E-02 0.  1.
       -1    1    3    3    0  502  0.49607950690E+03  0.15995861988E+03  0.69516267710E+03  0.86886868105E+03  0.50400001928E-02 0. -1.
</event>
<event>
 5   0  0.1550483E-05  0.2518062E+04  0.7818609E-02  0.8396579E-01
       -2   -1    0    0    0  501  0.00000000000E+00  0.00000000000E+00  0.80451496430E+03  0.80451496431E+03  0.25500000920E-02 0.  1.
        2   -1    0    0  501    0  0.00000000000E+00  0.00000000000E+00 -0.19703292595E+04  0.19703292595E+04  0.25500000920E-02 0. -1.
    10030    2    1    2    0    0  0.00000000000E+00  0.00000000000E+00 -0.11658142952E+04  0.27748442238E+04  0.25180622501E+04 0.  0.
        5    1    3    3  502    0  0.41365426100E+03 -0.44466876563E+03 -0.17982308981E+04  0.18980243971E+04  0.46999998093E+01 0. -1.
       -5    1    3    3    0  502 -0.41365426100E+03  0.44466876563E+03  0.63241660300E+03  0.87681982671E+03  0.46999998093E+01 0.  1.
</event>
<event>
 5   0  0.6477703E-06  0.2507249E+04  0.7818609E-02  0.8400407E-01
        1   -1    0    0  501    0  0.00000000000E+00  0.00000000000E+00  0.13686041112E+04  0.13686041112E+04  0.50400001928E-02 0.  1.
       -1   -1    0    0    0  501  0.00000000000E+00  0.00000000000E+00 -0.11483049052E+04  0.11483049052E+04  0.50400001928E-02 0. -1.
    10030    2    1    2    0    0  0.00000000000E+00  0.00000000000E+00  0.22029920606E+03  0.25169090164E+04  0.25072493408E+04 0.  0.
        5    1    3    3  502    0  0.72745157603E+03  0.94032368907E+03 -0.28907377866E+03  0.12235114120E+04  0.46999998093E+01 0. -1.
       -5    1    3    3    0  502 -0.72745157603E+03 -0.94032368907E+03  0.50937298473E+03  0.12933976045E+04  0.46999998093E+01 0.  1.
</event>
<event>
 5   0  0.6346420E-06  0.2496253E+04  0.7818609E-02  0.8404322E-01
       -1   -1    0    0    0  501  0.00000000000E+00  0.00000000000E+00  0.62011323899E+03  0.62011323901E+03  0.50400001928E-02 0.  1.
        1   -1    0    0  501    0  0.00000000000E+00  0.00000000000E+00 -0.25121542088E+04  0.25121542088E+04  0.50400001928E-02 0. -1.
    10030    2    1    2    0    0  0.00000000000E+00  0.00000000000E+00 -0.18920409698E+04  0.31322674478E+04  0.24962532590E+04 0.  0.
        4    1    3    3  502    0  0.79018863274E+03 -0.93118772835E+03 -0.62290402440E+03  0.13709557605E+04  0.12699999809E+01 0.  1.
       -4    1    3    3    0  502 -0.79018863274E+03  0.93118772835E+03 -0.12691369454E+04  0.17613116873E+04  0.12699999809E+01 0. -1.
</event>
<event>
 5   0  0.1550483E-05  0.2486386E+04  0.7818609E-02  0.8407852E-01
        2   -1    0    0  501    0  0.00000000000E+00  0.00000000000E+00  0.18574685833E+04  0.18574685833E+04  0.25500000920E-02 0.  1.
       -2   -1    0    0    0  501  0.00000000000E+00  0.00000000000E+00 -0.83206211938E+03  0.83206211939E+03  0.25500000920E-02 0. -1.
    10030    2    1    2    0    0  0.00000000000E+00  0.00000000000E+00  0.10254064640E+04  0.26895307027E+04  0.24863863305E+04 0.  0.
        5    1    3    3  502    0 -0.66302840306E+03 -0.71731099671E+03 -0.31912922559E+03  0.10276221494E+04  0.46999998093E+01 0. -1.
       -5    1    3    3    0  502  0.66302840306E+03  0.71731099671E+03  0.13445356895E+04  0.16619085534E+04  0.46999998093E+01 0.  1.
</event>
<event>
 5   0  0.5164625E-06  0.2506693E+04  0.7818609E-02  0.8400605E-01
        3   -1    0    0  501    0  0.00000000000E+00  0.00000000000E+00  0.98765415497E+03  0.98765416013E+03  0.10100000352E+00 0. -1.
       -3   -1    0    0    0  501  0.00000000000E+00  0.00000000000E+00 -0.15905140664E+04  0.15905140696E+04  0.10100000352E+00 0.  1.
    10030    2    1    2    0    0  0.00000000000E+00  0.00000000000E+00 -0.60285991142E+03  0.25781682297E+04  0.25066933095E+04 0.  0.
        4    1    3    3  502    0  0.94331680977E+03 -0.38681472504E+03 -0.10511902814E+04  0.14644025593E+04  0.12699999809E+01 0.  1.
       -4    1    3    3    0  502 -0.94331680977E+03  0.38681472504E+03  0.44833036996E+03  0.11137656704E+04  0.12699999809E+01 0. -1.
</event>
<event>
 5   0  0.1550483E-05  0.2502068E+04  0.7818609E-02  0.8402249E-01
        2   -1    0    0  501    0  0.00000000000E+00  0.00000000000E+00  0.13133197165E+04  0.13133197165E+04  0.25500000920E-02 0.  1.
       -2   -1    0    0    0  501  0.00000000000E+00  0.00000000000E+00 -0.11917021770E+04  0.11917021770E+04  0.25500000920E-02 0. -1.
    10030    2    1    2    0    0  0.00000000000E+00  0.00000000000E+00  0.12161753942E+03  0.25050218935E+04  0.25020679170E+04 0.  0.
        5    1    3    3  502    0  0.25731584609E+03  0.12029627543E+04  0.28852628753E+03  0.12635665165E+04  0.46999998093E+01 0.  1.
       -5    1    3    3    0  502 -0.25731584609E+03 -0.12029627543E+04 -0.16690874811E+03  0.12414553770E+04  0.46999998093E+01 0. -1.
</event>
<event>
 5   0  0.1468512E-05  0.2492544E+04  0.7818609E-02  0.8405647E-01
        2   -1    0    0  501    0  0.00000000000E+00  0.00000000000E+00  0.23069253331E+04  0.23069253331E+04  0.25500000920E-02 0.  1.
       -2   -1    0    0    0  501  0.00000000000E+00  0.00000000000E+00 -0.67327433275E+03  0.67327433275E+03  0.25500000920E-02 0. -1.
    10030    2    1    2    0    0  0.00000000000E+00  0.00000000000E+00  0.16336510004E+04  0.29801996659E+04  0.24925437724E+04 0.  0.
        4    1    3    3  502    0 -0.25809463057E+03 -0.89018999172E+03 -0.17932830486E+03  0.94403988979E+03  0.12699999809E+01 0. -1.
       -4    1    3    3    0  502  0.25809463057E+03  0.89018999172E+03  0.18129793052E+04  0.20361597761E+04  0.12699999809E+01 0.  1.
</event>
<event>
 5   0  0.1572732E-05  0.2498562E+04  0.7818609E-02  0.8403498E-01
       -2   -1    0    0    0  501  0.00000000000E+00  0.00000000000E+00  0.71549915139E+03  0.71549915140E+03  0.25500000920E-02 0.  1.
        2   -1    0    0  501    0  0.00000000000E+00  0.00000000000E+00 -0.21812782969E+04  0.21812782969E+04  0.25500000920E-02 0. -1.
    10030    2    1    2    0    0  0.00000000000E+00  0.00000000000E+00 -0.14657791455E+04  0.28967774483E+04  0.24985618027E+04 0.  0.
        1    1    3    3  502    0 -0.39096320146E+03 -0.10735723069E+04 -0.14709610002E+03  0.11519752539E+04  0.50400001928E-02 0.  1.
       -1    1    3    3    0  502  0.39096320146E+03  0.10735723069E+04 -0.13186830455E+04  0.17448021944E+04  0.50400001928E-02 0. -1.
</event>
<event>
 5   0  0.1572732E-05  0.2500580E+04  0.7818609E-02  0.8402779E-01
        2   -1    0    0  501    0  0.00000000000E+00  0.00000000000E+00  0.15436682838E+04  0.15436682838E+04  0.25500000920E-02 0. -1.
       -2   -1    0    0    0  501  0.00000000000E+00  0.00000000000E+00 -0.10126687383E+04  0.10126687383E+04  0.25500000920E-02 0.  1.
    10030    2    1    2    0    0  0.00000000000E+00  0.00000000000E+00  0.53099954551E+03  0.25563370221E+04  0.25005796234E+04 0.  0.
        1    1    3    3  502    0  0.94865670946E+03  0.32410513208E+03  0.10293080624E+04  0.14368259381E+04  0.50400001928E-02 0. -1.
       -1    1    3    3    0  502 -0.94865670946E+03 -0.32410513208E+03 -0.49830851692E+03  0.11195110840E+04  0.50400001928E-02 0.  1.
</event>
<event>
 5   0  0.6104486E-06  0.2501451E+04  0.7818609E-02  0.8402469E-01
        1   -1    0    0  501    0  0.00000000000E+00  0.00000000000E+00  0.14448918662E+04  0.14448918662E+04  0.50400001928E-02 0. -1.
       -1   -1    0    0    0  501  0.00000000000E+00  0.00000000000E+00 -0.10826510192E+04  0.10826510192E+04  0.50400001928E-02 0.  1.
    10030    2    1    2    0    0  0.00000000000E+00  0.00000000000E+00  0.36224084703E+03  0.25275428854E+04  0.25014505004E+04 0.  0.
        2    1    3    3  502    0 -0.10872028307E+03  0.29788816110E+03 -0.10413574094E+04  0.10885691115E+04  0.25500000920E-02 0.  1.
       -2    1    3    3    0  502  0.10872028307E+03 -0.29788816110E+03  0.14035982564E+04  0.14389737739E+04  0.25500000920E-02 0. -1.
</event>
<event>
 5   0  0.1572732E-05  0.2503697E+04  0.7818609E-02  0.8401670E-01
        2   -1    0    0  501    0  0.00000000000E+00  0.00000000000E+00  0.14150972390E+04  0.14150972390E+04  0.25500000920E-02 0.  1.
       -2   -1    0    0    0  501  0.00000000000E+00  0.00000000000E+00 -0.11074321346E+04  0.11074321346E+04  0.25500000920E-02 0. -1.
    10030    2    1    2    0    0  0.00000000000E+00  0.00000000000E+00  0.30766510440E+03  0.25225293735E+04  0.25036965918E+04 0.  0.
        1    1    3    3  502    0 -0.36544083707E+03 -0.31458068684E+03 -0.10101131487E+04  0.11193018302E+04  0.50400001928E-02 0. -1.
       -1    1    3    3    0  502  0.36544083707E+03  0.31458068684E+03  0.13177782531E+04  0.14032275433E+04  0.50400001928E-02 0.  1.
</event>
<event>
 5   0  0.6477703E-06  0.2509026E+04  0.7818609E-02  0.8399777E-01
        1   -1    0    0  501    0  0.00000000000E+00  0.00000000000E+00  0.10690624495E+04  0.10690624495E+04  0.50400001928E-02 0. -1.
       -1   -1    0    0    0  501  0.00000000000E+00  0.00000000000E+00 -0.14721337416E+04  0.14721337416E+04  0.50400001928E-02 0.  1.
    10030    2    1    2    0    0  0.00000000000E+00  0.00000000000E+00 -0.40307129207E+03  0.25411961911E+04  0.25090260292E+04 0.  0.
        5    1    3    3  502    0  0.10726807039E+03  0.10637987477E+04  0.46308429816E+03  0.11651795448E+04  0.46999998093E+01 0. -1.
       -5    1    3    3    0  502 -0.10726807039E+03 -0.10637987477E+04 -0.86615559023E+03  0.13760166463E+04  0.46999998093E+01 0.  1.
</event>
<event>
 5   0  0.6105353E-06  0.2528183E+04  0.7818609E-02  0.8393013E-01
        1   -1    0    0  501    0  0.00000000000E+00  0.00000000000E+00  0.12513495756E+04  0.12513495756E+04  0.50400001928E-02 0.  1.
       -1   -1    0    0    0  501  0.00000000000E+00  0.00000000000E+00 -0.12769632740E+04  0.12769632740E+04  0.50400001928E-02 0. -1.
    10030    2    1    2    0    0  0.00000000000E+00  0.00000000000E+00 -0.25613698326E+02  0.25283128496E+04  0.25281831033E+04 0.  0.
        3    1    3    3  502    0  0.51652104965E+03  0.71696689469E+03 -0.91678460684E+03  0.12733143949E+04  0.10100000352E+00 0. -1.
       -3    1    3    3    0  502 -0.51652104965E+03 -0.71696689469E+03  0.89117090851E+03  0.12549984547E+04  0.10100000352E+00 0.  1.
</event>
<event>
 5   0  0.1468512E-05  0.2488005E+04  0.7818609E-02  0.8407271E-01
        2   -1    0    0  501    0  0.00000000000E+00  0.00000000000E+00  0.11328636989E+04  0.11328636989E+04  0.25500000920E-02 0. -1.
       -2   -1    0    0    0  501  0.00000000000E+00  0.00000000000E+00 -0.13660445686E+04  0.13660445686E+04  0.25500000920E-02 0.  1.
    10030    2    1    2    0    0  0.00000000000E+00  0.00000000000E+00 -0.23318086976E+03  0.24989082675E+04  0.24880050666E+04 0.  0.
        4    1    3    3  502    0  0.25334373927E+03  0.11883042653E+04  0.15158267447E+03  0.12244300704E+04  0.12699999809E+01 0. -1.
       -4    1    3    3    0  502 -0.25334373927E+03 -0.11883042653E+04 -0.38476354423E+03  0.12744781971E+04  0.12699999809E+01 0.  1.
</event>
<event>
 5   0  0.6290861E-06  0.2497451E+04  0.7818609E-02  0.8403894E-01
        1   -1    0    0  501    0  0.00000000000E+00  0.00000000000E+00  0.12780763184E+04  0.12780763184E+04  0.50400001928E-02 0.  1.
       -1   -1    0    0    0  501  0.00000000000E+00  0.00000000000E+00 -0.12200489485E+04  0.12200489485E+04  0.50400001928E-02 0. -1.
    10030    2    1    2    0    0  0.00000000000E+00  0.00000000000E+00  0.58027369935E+02  0.24981252669E+04  0.24974512354E+04 0.  0.
        1    1    3    3  502    0  0.30006621230E+03  0.12116380311E+04  0.63796885473E+02  0.12498705904E+04  0.50400001928E-02 0.  1.
       -1    1    3    3    0  502 -0.30006621230E+03 -0.12116380311E+04 -0.57695155375E+01  0.12482546765E+04  0.50400001928E-02 0. -1.
</event>
<event>
 5   0  0.1501947E-05  0.2496131E+04  0.7818609E-02  0.8404365E-01
        2   -1    0    0  501    0  0.00000000000E+00  0.00000000000E+00  0.13741591865E+04  0.13741591865E+04  0.25500000920E-02 0. -1.
       -2   -1    0    0    0  501  0.00000000000E+00  0.00000000000E+00 -0.11335425090E+04  0.11335425090E+04  0.25500000920E-02 0.  1.
    10030    2    1    2    0    0  0.00000000000E+00  0.00000000000E+00  0.24061667755E+03  0.25077016955E+04  0.24961312883E+04 0.  0.
        3    1    3    3  502    0 -0.36279734412E+03  0.58467179708E+02  0.13185765884E+04  0.13688259764E+04  0.10100000352E+00 0. -1.
       -3    1    3    3    0  502  0.36279734412E+03 -0.58467179708E+02 -0.10779599108E+04  0.11388757191E+04  0.10100000352E+00 0.  1.
</event>
<event>
 5   0  0.1501947E-05  0.2492271E+04  0.7818609E-02  0.8405744E-01
       -2   -1    0    0    0  501  0.00000000000E+00  0.00000000000E+00  0.20124698150E+04  0.20124698150E+04  0.25500000920E-02 0. -1.
        2   -1    0    0  501    0  0.00000000000E+00  0.00000000000E+00 -0.77161575572E+03  0.77161575572E+03  0.25500000920E-02 0.  1.
    10030    2    1    2    0    0  0.00000000000E+00  0.00000000000E+00  0.12408540592E+04  0.27840855707E+04  0.24922707856E+04 0.  0.
        3    1    3    3  502    0  0.58222384014E+03 -0.12118393843E+03  0.18437190180E+04  0.19372583654E+04  0.10100000352E+00 0. -1.
       -3    1    3    3    0  502 -0.58222384014E+03  0.12118393843E+03 -0.60286495872E+03  0.84682720528E+03  0.10100000352E+00 0.  1.
</event>
<event>
 5   0  0.1501947E-05  0.2507096E+04  0.7818609E-02  0.8400462E-01
       -2   -1    0    0    0  501  0.00000000000E+00  0.00000000000E+00  0.62936857256E+03  0.62936857256E+03  0.25500000920E-02 0. -1.
        2   -1    0    0  501    0  0.00000000000E+00  0.00000000000E+00 -0.24967600306E+04  0.24967600306E+04  0.25500000920E-02 0.  1.
    10030    2    1    2    0    0  0.00000000000E+00  0.00000000000E+00 -0.18673914581E+04  0.31261286032E+04  0.25070957672E+04 0.  0.
        3    1    3    3  502    0 -0.30531410163E+03  0.40269662256E+03 -0.23641172275E+04  0.24175259143E+04  0.10100000352E+00 0.  1.
       -3    1    3    3    0  502  0.30531410163E+03 -0.40269662256E+03  0.49672576947E+03  0.70860268891E+03  0.10100000352E+00 0. -1.
</event>
<event>
 5   0  0.6104486E-06  0.2489702E+04  0.7818609E-02  0.8406664E-01
       -1   -1    0    0    0  501  0.00000000000E+00  0.00000000000E+00  0.11798492573E+04  0.11798492574E+04  0.50400001928E-02 0. -1.
        1   -1    0    0  501    0  0.00000000000E+00  0.00000000000E+00 -0.13134334088E+04  0.13134334088E+04  0.50400001928E-02 0.  1.
    10030    2    1    2    0    0  0.00000000000E+00  0.00000000000E+00 -0.13358415149E+03  0.24932826662E+04  0.24897015339E+04 0.  0.
        2    1    3    3  502    0 -0.17933138182E+03  0.85859155180E+03 -0.95141664185E+03  0.12940374120E+04  0.25500000920E-02 0.  1.
       -2    1    3    3    0  502  0.17933138182E+03 -0.85859155180E+03  0.81783249037E+03  0.11992452542E+04  0.25500000920E-02 0. -1.
</event>
<event>
 5   0  0.1550483E-05  0.2504228E+04  0.7818609E-02  0.8401481E-01
       -2   -1    0    0    0  501  0.00000000000E+00  0.00000000000E+00  0.80584149256E+03  0.80584149256E+03  0.25500000920E-02 0.  1.
        2   -1    0    0  501    0  0.00000000000E+00  0.00000000000E+00 -0.19455315810E+04  0.19455315810E+04  0.25500000920E-02 0. -1.
    10030    2    1    2    0    0  0.00000000000E+00  0.00000000000E+00 -0.11396900885E+04  0.27513730736E+04  0.25042284825E+04 0.  0.
        5    1    3    3  502    0  0.82597053636E+03 -0.22790089696E+03  0.43327951560E+03  0.96016632643E+03  0.46999998093E+01 0.  1.
       -5    1    3    3    0  502 -0.82597053636E+03  0.22790089696E+03 -0.15729696041E+04  0.17912067472E+04  0.46999998093E+01 0. -1.
</event>
<event>
 5   0  0.1550483E-05  0.2502304E+04  0.7818609E-02  0.8402165E-01
        2   -1    0    0  501    0  0.00000000000E+00  0.00000000000E+00  0.16970238635E+04  0.16970238635E+04  0.25500000920E-02 0.  1.
       -2   -1    0    0    0  501  0.00000000000E+00  0.00000000000E+00 -0.92242725386E+03  0.92242725387E+03  0.25500000920E-02 0. -1.
    10030    2    1    2    0    0  0.00000000000E+00  0.00000000000E+00  0.77459660965E+03  0.26194511174E+04  0.25023037882E+04 0.  0.
        5    1    3    3  502    0 -0.65234439449E+03 -0.14661029476E+03 -0.71971183568E+03  0.98237213110E+03  0.46999998093E+01 0. -1.
       -5    1    3    3    0  502  0.65234439449E+03  0.14661029476E+03  0.14943084453E+04  0.16370789863E+04  0.46999998093E+01 0.  1.
</event>
<event>
 5   0  0.1468512E-05  0.2499034E+04  0.7818609E-02  0.8403330E-01
       -2   -1    0    0    0  501  0.00000000000E+00  0.00000000000E+00  0.12188057447E+04  0.12188057447E+04  0.25500000920E-02 0.  1.
        2   -1    0    0  501    0  0.00000000000E+00  0.00000000000E+00 -0.12810020193E+04  0.12810020193E+04  0.25500000920E-02 0. -1.
    10030    2    1    2    0    0  0.00000000000E+00  0.00000000000E+00 -0.62196274614E+02  0.24998077640E+04  0.24990339094E+04 0.  0.
        4    1    3    3  502    0 -0.33442214850E+03 -0.10848219825E+04  0.49118814658E+03  0.12369091783E+04  0.12699999809E+01 0.  1.
       -4    1    3    3    0  502  0.33442214850E+03  0.10848219825E+04 -0.55338442119E+03  0.12628985857E+04  0.12699999809E+01 0. -1.
</event>
<event>
 5   0  0.1468512E-05  0.2492255E+04  0.7818609E-02  0.8405750E-01
        2   -1    0    0  501    0  0.00000000000E+00  0.00000000000E+00  0.19064093443E+04  0.19064093443E+04  0.25500000920E-02 0. -1.
       -2   -1    0    0    0  501  0.00000000000E+00  0.00000000000E+00 -0.81453323079E+03  0.81453323079E+03  0.25500000920E-02 0.  1.
    10030    2    1    2    0    0  0.00000000000E+00  0.00000000000E+00  0.10918761135E+04  0.27209425751E+04  0.24922550130E+04 0.  0.
        4    1    3    3  502    0 -0.89848762298E+03  0.42476937920E+03 -0.27478840066E+03  0.10311252650E+04  0.12699999809E+01 0.  1.
       -4    1    3    3    0  502  0.89848762298E+03 -0.42476937920E+03  0.13666645142E+04  0.16898173101E+04  0.12699999809E+01 0. -1.
</event>
<event>
 5   0  0.6104486E-06  0.2427550E+04  0.7818609E-02  0.8429261E-01
        1   -1    0    0  501    0  0.00000000000E+00  0.00000000000E+00  0.12753564531E+04  0.12753564531E+04  0.50400001928E-02 0.  1.
       -1   -1    0    0    0  501  0.00000000000E+00  0.00000000000E+00 -0.11551675097E+04  0.11551675097E+04  0.50400001928E-02 0. -1.
    10030    2    1    2    0    0  0.00000000000E+00  0.00000000000E+00  0.12018894342E+03  0.24305239629E+04  0.24275504839E+04 0.  0.
        2    1    3    3  502    0  0.38741221146E+03  0.22056334632E+03  0.11904210237E+04  0.12711564125E+04  0.25500000920E-02 0.  1.
       -2    1    3    3    0  502 -0.38741221146E+03 -0.22056334632E+03 -0.10702320803E+04  0.11593675504E+04  0.25500000920E-02 0. -1.
</event>
<event>
 5   0  0.1501947E-05  0.2489533E+04  0.7818609E-02  0.8406724E-01
       -2   -1    0    0    0  501  0.00000000000E+00  0.00000000000E+00  0.99839973721E+03  0.99839973721E+03  0.25500000920E-02 0.  1.
        2   -1    0    0  501    0  0.00000000000E+00  0.00000000000E+00 -0.15519276301E+04  0.15519276301E+04  0.25500000920E-02 0. -1.
    10030    2    1    2    0    0  0.00000000000E+00  0.00000000000E+00 -0.55352789287E+03  0.25503273673E+04  0.24895334005E+04 0.  0.
        3    1    3    3  502    0 -0.38798775240E+03  0.73824938679E+03  0.66986730656E+03  0.10697050396E+04  0.10100000352E+00 0.  1.
       -3    1    3    3    0  502  0.38798775240E+03 -0.73824938679E+03 -0.12233951994E+04  0.14806223277E+04  0.10100000352E+00 0. -1.
</event>
<event>
 5   0  0.6346420E-06  0.2517222E+04  0.7818609E-02  0.8396876E-01
       -1   -1    0    0    0  501  0.00000000000E+00  0.00000000000E+00  0.91437723970E+03  0.91437723972E+03  0.50400001928E-02 0. -1.
        1   -1    0    0  501    0  0.00000000000E+00  0.00000000000E+00 -0.17324379830E+04  0.17324379830E+04  0.50400001928E-02 0.  1.
    10030    2    1    2    0    0  0.00000000000E+00  0.00000000000E+00 -0.81806074326E+03  0.26468152227E+04  0.25172221681E+04 0.  0.
        4    1    3    3  502    0  0.79489098890E+03 -0.95488844748E+03 -0.62047150644E+03  0.13887584868E+04  0.12699999809E+01 0. -1.
       -4    1    3    3    0  502 -0.79489098890E+03  0.95488844748E+03 -0.19758923682E+03  0.12580567359E+04  0.12699999809E+01 0.  1.
</event>
<event>
 5   0  0.1572732E-05  0.2497991E+04  0.7818609E-02  0.8403701E-01
        2   -1    0    0  501    0  0.00000000000E+00  0.00000000000E+00  0.27589345782E+04  0.27589345782E+04  0.25500000920E-02 0. -1.
       -2   -1    0    0    0  501  0.00000000000E+00  0.00000000000E+00 -0.56543211415E+03  0.56543211415E+03  0.25500000920E-02 0.  1.
    10030    2    1    2    0    0  0.00000000000E+00  0.00000000000E+00  0.21935024640E+04  0.33243666923E+04  0.24979913621E+04 0.  0.
        1    1    3    3  502    0  0.21424711594E+02  0.82748045154E+03 -0.14797599150E+03  0.84088037795E+03  0.50400001928E-02 0.  1.
       -1    1    3    3    0  502 -0.21424711594E+02 -0.82748045154E+03  0.23414784555E+04  0.24834863144E+04  0.50400001928E-02 0. -1.
</event>
<event>
 5   0  0.1526824E-05  0.2496583E+04  0.7818609E-02  0.8404204E-01
        2   -1    0    0  501    0  0.00000000000E+00  0.00000000000E+00  0.10013365679E+04  0.10013365679E+04  0.25500000920E-02 0.  1.
       -2   -1    0    0    0  501  0.00000000000E+00  0.00000000000E+00 -0.15561519209E+04  0.15561519209E+04  0.25500000920E-02 0. -1.
    10030    2    1    2    0    0  0.00000000000E+00  0.00000000000E+00 -0.55481535305E+03  0.25574884888E+04  0.24965831239E+04 0.  0.
        2    1    3    3  502    0  0.11056864849E+04  0.30086223063E+03 -0.78463463700E+03  0.13887808316E+04  0.25500000920E-02 0. -1.
       -2    1    3    3    0  502 -0.11056864849E+04 -0.30086223063E+03  0.22981928395E+03  0.11687076572E+04  0.25500000920E-02 0.  1.
</event>
<event>
 5   0  0.6346420E-06  0.2471984E+04  0.7818609E-02  0.8413035E-01
        1   -1    0    0  501    0  0.00000000000E+00  0.00000000000E+00  0.15349821915E+04  0.15349821915E+04  0.50400001928E-02 0. -1.
       -1   -1    0    0    0  501  0.00000000000E+00  0.00000000000E+00 -0.99524012063E+03  0.99524012064E+03  0.50400001928E-02 0.  1.
    10030    2    1    2    0    0  0.00000000000E+00  0.00000000000E+00  0.53974207089E+03  0.25302223122E+04  0.24719837066E+04 0.  0.
        4    1    3    3  502    0 -0.63854060470E+03  0.38195983833E+02 -0.81262776509E+03  0.10341946309E+04  0.12699999809E+01 0.  1.
       -4    1    3    3    0  502  0.63854060470E+03 -0.38195983833E+02  0.13523698360E+04  0.14960276813E+04  0.12699999809E+01 0. -1.
</event>
<event>
 5   0  0.6104486E-06  0.2488227E+04  0.7818609E-02  0.8407192E-01
        1   -1    0    0  501    0  0.00000000000E+00  0.00000000000E+00  0.23939287351E+04  0.23939287351E+04  0.50400001928E-02 0. -1.
       -1   -1    0    0    0  501  0.00000000000E+00  0.00000000000E+00 -0.64655992958E+03  0.64655992960E+03  0.50400001928E-02 0.  1.
    10030    2    1    2    0    0  0.00000000000E+00  0.00000000000E+00  0.17473688055E+04  0.30404886647E+04  0.24882269948E+04 0.  0.
        2    1    3    3  502    0  0.47345121846E+03  0.89526750059E+03  0.17566718763E+04  0.20276972247E+04  0.25500000920E-02 0.  1.
       -2    1    3    3    0  502 -0.47345121846E+03 -0.89526750059E+03 -0.93030707982E+01  0.10127914400E+04  0.25500000920E-02 0. -1.
</event>
<event>
 5   0  0.1468512E-05  0.2515973E+04  0.7818609E-02  0.8397317E-01
        2   -1    0    0  501    0  0.00000000000E+00  0.00000000000E+00  0.17609734120E+04  0.17609734120E+04  0.25500000920E-02 0. -1.
       -2   -1    0    0    0  501  0.00000000000E+00  0.00000000000E+00 -0.89866808503E+03  0.89866808504E+03  0.25500000920E-02 0.  1.
    10030    2    1    2    0    0  0.00000000000E+00  0.00000000000E+00  0.86230532701E+03  0.26596414971E+04  0.25159734530E+04 0.  0.
        4    1    3    3  502    0 -0.10319420044E+04 -0.59046308343E+03 -0.33897552384E+01  0.11889340001E+04  0.12699999809E+01 0. -1.
       -4    1    3    3    0  502  0.10319420044E+04  0.59046308343E+03  0.86569508225E+03  0.14707074970E+04  0.12699999809E+01 0.  1.
</event>
<event>
 5   0  0.1468512E-05  0.2508711E+04  0.7818609E-02  0.8399889E-01
       -2   -1    0    0    0  501  0.00000000000E+00  0.00000000000E+00  0.14676899297E+04  0.14676899297E+04  0.25500000920E-02 0. -1.
        2   -1    0    0  501    0  0.00000000000E+00  0.00000000000E+00 -0.10720298021E+04  0.10720298021E+04  0.25500000920E-02 0.  1.
    10030    2    1    2    0    0  0.00000000000E+00  0.00000000000E+00  0.39566012766E+03  0.25397197318E+04  0.25087107006E+04 0.  0.
        4    1    3    3  502    0  0.93612519866E+03 -0.81989603150E+03  0.35740404120E+03  0.12947197193E+04  0.12699999809E+01 0.  1.
       -4    1    3    3    0  502 -0.93612519866E+03  0.81989603150E+03  0.38256086462E+02  0.12450000125E+04  0.12699999809E+01 0. -1.
</event>
<event>
 5   0  0.6346420E-06  0.2230787E+04  0.7818609E-02  0.8505722E-01
       -1   -1    0    0    0  501  0.00000000000E+00  0.00000000000E+00  0.94165017480E+03  0.94165017481E+03  0.50400001928E-02 0.  1.
        1   -1    0    0  501    0  0.00000000000E+00  0.00000000000E+00 -0.13211943783E+04  0.13211943783E+04  0.50400001928E-02 0. -1.
    10030    2    1    2    0    0  0.00000000000E+00  0.00000000000E+00 -0.37954420347E+03  0.22628445531E+04  0.22307872308E+04 0.  0.
        4    1    3    3  502    0 -0.37311501922E+03  0.64994839354E+03  0.64820688213E+03  0.99086906641E+03  0.12699999809E+01 0.  1.
       -4    1    3    3    0  502  0.37311501922E+03 -0.64994839354E+03 -0.10277510856E+04  0.12719754867E+04  0.12699999809E+01 0. -1.
</event>
<event>
 5   0  0.6104486E-06  0.2505307E+04  0.7818609E-02  0.8401097E-01
        1   -1    0    0  501    0  0.00000000000E+00  0.00000000000E+00  0.16831311146E+04  0.16831311146E+04  0.50400001928E-02 0.  1.
       -1   -1    0    0    0  501  0.00000000000E+00  0.00000000000E+00 -0.93227480981E+03  0.93227480982E+03  0.50400001928E-02 0. -1.
    10030    2    1    2    0    0  0.00000000000E+00  0.00000000000E+00  0.75085630481E+03  0.26154059245E+04  0.25053069591E+04 0.  0.
        2    1    3    3  502    0  0.11785805891E+04 -0.32303779909E+03  0.66272231618E+03  0.13901821798E+04  0.25500000920E-02 0. -1.
       -2    1    3    3    0  502 -0.11785805891E+04  0.32303779909E+03  0.88133988633E+02  0.12252237447E+04  0.25500000920E-02 0.  1.
</event>
<event>
 5   0  0.1550483E-05  0.2504609E+04  0.7818609E-02  0.8401345E-01
       -2   -1    0    0    0  501  0.00000000000E+00  0.00000000000E+00  0.10244433039E+04  0.10244433039E+04  0.25500000920E-02 0.  1.
        2   -1    0    0  501    0  0.00000000000E+00  0.00000000000E+00 -0.15308476601E+04  0.15308476601E+04  0.25500000920E-02 0. -1.
    10030    2    1    2    0    0  0.00000000000E+00  0.00000000000E+00 -0.50640435627E+03  0.25552909640E+04  0.25046090591E+04 0.  0.
        5    1    3    3  502    0 -0.10050903237E+04 -0.59603995314E+03 -0.71261904114E+03  0.13686921393E+04  0.46999998093E+01 0. -1.
       -5    1    3    3    0  502  0.10050903237E+04  0.59603995314E+03  0.20621468487E+03  0.11865988247E+04  0.46999998093E+01 0.  1.
</event>
<event>
 5   0  0.1550483E-05  0.2501194E+04  0.7818609E-02  0.8402560E-01
        2   -1    0    0  501    0  0.00000000000E+00  0.00000000000E+00  0.14344294717E+04  0.14344294717E+04  0.25500000920E-02 0.  1.
       -2   -1    0    0    0  501  0.00000000000E+00  0.00000000000E+00 -0.10903240072E+04  0.10903240072E+04  0.25500000920E-02 0. -1.
    10030    2    1    2    0    0  0.00000000000E+00  0.00000000000E+00  0.34410546450E+03  0.25247534790E+04  0.25011940267E+04 0.  0.
        5    1    3    3  502    0 -0.65615139566E+03  0.52694951812E+03  0.11058394172E+04  0.13896450465E+04  0.46999998093E+01 0.  1.
       -5    1    3    3    0  502  0.65615139566E+03 -0.52694951812E+03 -0.76173395273E+03  0.11351084324E+04  0.46999998093E+01 0. -1.
</event>
<event>
 5   0  0.6477703E-06  0.2518787E+04  0.7818609E-02  0.8396323E-01
       -1   -1    0    0    0  501  0.00000000000E+00  0.00000000000E+00  0.85650778569E+03  0.85650778570E+03  0.50400001928E-02 0. -1.
        1   -1    0    0  501    0  0.00000000000E+00  0.00000000000E+00 -0.18517889944E+04  0.18517889944E+04  0.50400001928E-02 0.  1.
    10030    2    1    2    0    0  0.00000000000E+00  0.00000000000E+00 -0.99528120869E+03  0.27082967801E+04  0.25187867644E+04 0.  0.
        5    1    3    3  502    0 -0.24169304216E+03 -0.24599958855E+03 -0.18000196934E+04  0.18327641176E+04  0.46999998093E+01 0.  1.
       -5    1    3    3    0  502  0.24169304216E+03  0.24599958855E+03  0.80473848473E+03  0.87553266244E+03  0.46999998093E+01 0. -1.
</event>
<event>
 5   0  0.1526824E-05  0.2490991E+04  0.7818609E-02  0.8406202E-01
       -2   -1    0    0    0  501  0.00000000000E+00  0.00000000000E+00  0.98975413722E+03  0.98975413723E+03  0.25500000920E-02 0.  1.
        2   -1    0    0  501    0  0.00000000000E+00  0.00000000000E+00 -0.15673176362E+04  0.15673176362E+04  0.25500000920E-02 0. -1.
    10030    2    1    2    0    0  0.00000000000E+00  0.00000000000E+00 -0.57756349895E+03  0.25570717734E+04  0.24909910596E+04 0.  0.
        2    1    3    3  502    0 -0.48838832051E+03  0.26785394256E+03 -0.14323311495E+04  0.15368283600E+04  0.25500000920E-02 0. -1.
       -2    1    3    3    0  502  0.48838832051E+03 -0.26785394256E+03  0.85476765057E+03  0.10202434134E+04  0.25500000920E-02 0.  1.
</event>
<event>
 5   0  0.6346420E-06  0.2520133E+04  0.7818609E-02  0.8395848E-01
        1   -1    0    0  501    0  0.00000000000E+00  0.00000000000E+00  0.15432824917E+04  0.15432824917E+04  0.50400001928E-02 0. -1.
       -1   -1    0    0    0  501  0.00000000000E+00  0.00000000000E+00 -0.10288250908E+04  0.10288250908E+04  0.50400001928E-02 0.  1.
    10030    2    1    2    0    0  0.00000000000E+00  0.00000000000E+00  0.51445740094E+03  0.25721075825E+04  0.25201331311E+04 0.  0.
        4    1    3    3  502    0 -0.85099382550E+03  0.91136720893E+03  0.71864060081E+02  0.12489782771E+04  0.12699999809E+01 0.  1.
       -4    1    3    3    0  502  0.85099382550E+03 -0.91136720893E+03  0.44259334086E+03  0.13231293054E+04  0.12699999809E+01 0. -1.
</event>
<event>
 5   0  0.1501947E-05  0.2508787E+04  0.7818609E-02  0.8399862E-01
       -2   -1    0    0    0  501  0.00000000000E+00  0.00000000000E+00  0.13787588701E+04  0.13787588701E+04  0.25500000920E-02 0. -1.
        2   -1    0    0  501    0  0.00000000000E+00  0.00000000000E+00 -0.11412458140E+04  0.11412458140E+04  0.25500000920E-02 0.  1.
    10030    2    1    2    0    0  0.00000000000E+00  0.00000000000E+00  0.23751305603E+03  0.25200046841E+04  0.25087867897E+04 0.  0.
        3    1    3    3  502    0  0.38319309373E+02 -0.10422041570E+04  0.81889899414E+03  0.13259914959E+04  0.10100000352E+00 0.  1.
       -3    1    3    3    0  502 -0.38319309373E+02  0.10422041570E+04 -0.58138593811E+03  0.11940131882E+04  0.10100000352E+00 0. -1.
</event>
<event>
 5   0  0.5164625E-06  0.2506729E+04  0.7818609E-02  0.8400592E-01
       -4   -1    0    0    0  501  0.00000000000E+00  0.00000000000E+00  0.12184846838E+04  0.12184853457E+04  0.12699999809E+01 0. -1.
        4   -1    0    0  501    0  0.00000000000E+00  0.00000000000E+00 -0.12892417702E+04  0.12892423958E+04  0.12699999809E+01 0.  1.
    10030    2    1    2    0    0  0.00000000000E+00  0.00000000000E+00 -0.70757086431E+02  0.25077277414E+04  0.25067293152E+04 0.  0.
        3    1    3    3  502    0  0.12152591916E+04  0.76424856081E+02 -0.33252764550E+03  0.12622481161E+04  0.10100000352E+00 0.  1.
       -3    1    3    3    0  502 -0.12152591916E+04 -0.76424856081E+02  0.26177055907E+03  0.12454796253E+04  0.10100000352E+00 0. -1.
</event>
<event>
 5   0  0.1526824E-05  0.2527720E+04  0.7818609E-02  0.8393176E-01
        2   -1    0    0  501    0  0.00000000000E+00  0.00000000000E+00  0.11293184689E+04  0.11293184689E+04  0.25500000920E-02 0.  1.
       -2   -1    0    0    0  501  0.00000000000E+00  0.00000000000E+00 -0.14144305277E+04  0.14144305277E+04  0.25500000920E-02 0. -1.
    10030    2    1    2    0    0  0.00000000000E+00  0.00000000000E+00 -0.28511205884E+03  0.25437489966E+04  0.25277203310E+04 0.  0.
        2    1    3    3  502    0 -0.52419767277E+03  0.35019920097E+03 -0.12449107097E+04  0.13954301686E+04  0.25500000920E-02 0. -1.
       -2    1    3    3    0  502  0.52419767277E+03 -0.35019920097E+03  0.95979865083E+03  0.11483188280E+04  0.25500000920E-02 0.  1.
</event>
<event>
 5   0  0.6105353E-06  0.2488021E+04  0.7818609E-02  0.8407265E-01
        1   -1    0    0  501    0  0.00000000000E+00  0.00000000000E+00  0.18653798798E+04  0.18653798798E+04  0.50400001928E-02 0. -1.
       -1   -1    0    0    0  501  0.00000000000E+00  0.00000000000E+00 -0.82962319155E+03  0.82962319156E+03  0.50400001928E-02 0.  1.
    10030    2    1    2    0    0  0.00000000000E+00  0.00000000000E+00  0.10357566882E+04  0.26950030713E+04  0.24880212293E+04 0.  0.
        3    1    3    3  502    0  0.34318927278E+03  0.10277368825E+04 -0.14414603954E+03  0.10930691046E+04  0.10100000352E+00 0. -1.
       -3    1    3    3    0  502 -0.34318927278E+03 -0.10277368825E+04  0.11799027277E+04  0.16019339667E+04  0.10100000352E+00 0.  1.
</event>
<event>
 5   0  0.1526824E-05  0.2500065E+04  0.7818609E-02  0.8402962E-01
        2   -1    0    0  501    0  0.00000000000E+00  0.00000000000E+00  0.20245720835E+04  0.20245720835E+04  0.25500000920E-02 0.  1.
       -2   -1    0    0    0  501  0.00000000000E+00  0.00000000000E+00 -0.77180838950E+03  0.77180838950E+03  0.25500000920E-02 0. -1.
    10030    2    1    2    0    0  0.00000000000E+00  0.00000000000E+00  0.12527636940E+04  0.27963804730E+04  0.25000653745E+04 0.  0.
        2    1    3    3  502    0 -0.33530476445E+03  0.11893875253E+04  0.41560704249E+03  0.13037642364E+04  0.25500000920E-02 0. -1.
       -2    1    3    3    0  502  0.33530476445E+03 -0.11893875253E+04  0.83715665151E+03  0.14926162366E+04  0.25500000920E-02 0.  1.
</event>
<event>
 5   0  0.6477703E-06  0.2504314E+04  0.7818609E-02  0.8401450E-01
       -1   -1    0    0    0  501  0.00000000000E+00  0.00000000000E+00  0.16357378685E+04  0.16357378686E+04  0.50400001928E-02 0. -1.
        1   -1    0    0  501    0  0.00000000000E+00  0.00000000000E+00 -0.95852593866E+03  0.95852593867E+03  0.50400001928E-02 0.  1.
    10030    2    1    2    0    0  0.00000000000E+00  0.00000000000E+00  0.67721192989E+03  0.25942638072E+04  0.25043140185E+04 0.  0.
        5    1    3    3  502    0  0.75502660956E+03  0.45803546140E+03 -0.58097962945E+03  0.10570813994E+04  0.46999998093E+01 0.  1.
       -5    1    3    3    0  502 -0.75502660956E+03 -0.45803546140E+03  0.12581915593E+04  0.15371824079E+04  0.46999998093E+01 0. -1.
</event>
<event>
 5   0  0.6346420E-06  0.2505005E+04  0.7818609E-02  0.8401205E-01
        1   -1    0    0  501    0  0.00000000000E+00  0.00000000000E+00  0.11819295763E+04  0.11819295763E+04  0.50400001928E-02 0. -1.
       -1   -1    0    0    0  501  0.00000000000E+00  0.00000000000E+00 -0.13272888738E+04  0.13272888738E+04  0.50400001928E-02 0.  1.
    10030    2    1    2    0    0  0.00000000000E+00  0.00000000000E+00 -0.14535929751E+03  0.25092184501E+04  0.25050045718E+04 0.  0.
        4    1    3    3  502    0 -0.10351960786E+03 -0.79760517559E+03 -0.10344354163E+04  0.13103238412E+04  0.12699999809E+01 0.  1.
       -4    1    3    3    0  502  0.10351960786E+03  0.79760517559E+03  0.88907611879E+03  0.11988946089E+04  0.12699999809E+01 0. -1.
</event>
<event>
 5   0  0.1501947E-05  0.2541097E+04  0.7818609E-02  0.8388489E-01
        2   -1    0    0  501    0  0.00000000000E+00  0.00000000000E+00  0.12772204405E+04  0.12772204405E+04  0.25500000920E-02 0.  1.
       -2   -1    0    0    0  501  0.00000000000E+00  0.00000000000E+00 -0.12639113867E+04  0.12639113867E+04  0.25500000920E-02 0. -1.
    10030    2    1    2    0    0  0.00000000000E+00  0.00000000000E+00  0.13309053887E+02  0.25411318272E+04  0.25410969742E+04 0.  0.
        3    1    3    3  502    0 -0.47515934937E+03 -0.61698391796E+03 -0.99727551668E+03  0.12653078790E+04  0.10100000352E+00 0. -1.
       -3    1    3    3    0  502  0.47515934937E+03  0.61698391796E+03  0.10105845706E+04  0.12758239482E+04  0.10100000352E+00 0.  1.
</event>
<event>
 5   0  0.6105353E-06  0.2496015E+04  0.7818609E-02  0.8404407E-01
       -1   -1    0    0    0  501  0.00000000000E+00  0.00000000000E+00  0.15964514735E+04  0.15964514735E+04  0.50400001928E-02 0.  1.
        1   -1    0    0  501    0  0.00000000000E+00  0.00000000000E+00 -0.97561525116E+03  0.97561525117E+03  0.50400001928E-02 0. -1.
    10030    2    1    2    0    0  0.00000000000E+00  0.00000000000E+00  0.62083622232E+03  0.25720667247E+04  0.24960147478E+04 0.  0.
        3    1    3    3  502    0  0.29188568240E+03  0.84442653751E+03  0.12083283182E+04  0.15027677011E+04  0.10100000352E+00 0.  1.
       -3    1    3    3    0  502 -0.29188568240E+03 -0.84442653751E+03 -0.58749209585E+03  0.10692990235E+04  0.10100000352E+00 0. -1.
</event>
<event>
 5   0  0.6104486E-06  0.2511726E+04  0.7818609E-02  0.8398820E-01
       -1   -1    0    0    0  501  0.00000000000E+00  0.00000000000E+00  0.15057687396E+04  0.15057687396E+04  0.50400001928E-02 0.  1.
        1   -1    0    0  501    0  0.00000000000E+00  0.00000000000E+00 -0.10474327330E+04  0.10474327330E+04  0.50400001928E-02 0. -1.
    10030    2    1    2    0    0  0.00000000000E+00  0.00000000000E+00  0.45833600661E+03  0.25532014725E+04  0.25117256746E+04 0.  0.
        2    1    3    3  502    0  0.10726185019E+04  0.28511203436E+03  0.82657335460E+03  0.13838435003E+04  0.25500000920E-02 0.  1.
       -2    1    3    3    0  502 -0.10726185019E+04 -0.28511203436E+03 -0.36823734798E+03  0.11693579722E+04  0.25500000920E-02 0. -1.
</event>
<event>
 5   0  0.6104486E-06  0.2518107E+04  0.7818609E-02  0.8396563E-01
        1   -1    0    0  501    0  0.00000000000E+00  0.00000000000E+00  0.16316858894E+04  0.16316858894E+04  0.50400001928E-02 0. -1.
       -1   -1    0    0    0  501  0.00000000000E+00  0.00000000000E+00 -0.97152000833E+03  0.97152000835E+03  0.50400001928E-02 0.  1.
    10030    2    1    2    0    0  0.00000000000E+00  0.00000000000E+00  0.66016588111E+03  0.26032058978E+04  0.25181068198E+04 0.  0.
        2    1    3    3  502    0 -0.64718180568E+03 -0.48182781663E+03  0.13292942926E+04  0.15550002092E+04  0.25500000920E-02 0. -1.
       -2    1    3    3    0  502  0.64718180568E+03  0.48182781663E+03 -0.66912841146E+03  0.10482056886E+04  0.25500000920E-02 0.  1.
</event>
<event>
 5   0  0.1468512E-05  0.2479585E+04  0.7818609E-02  0.8410295E-01
       -2   -1    0    0    0  501  0.00000000000E+00  0.00000000000E+00  0.14242380357E+04  0.14242380357E+04  0.25500000920E-02 0. -1.
        2   -1    0    0  501    0  0.00000000000E+00  0.00000000000E+00 -0.10792332685E+04  0.10792332685E+04  0.25500000920E-02 0.  1.
    10030    2    1    2    0    0  0.00000000000E+00  0.00000000000E+00  0.34500476719E+03  0.25034713042E+04  0.24795846994E+04 0.  0.
        4    1    3    3  502    0 -0.11612459752E+04 -0.26616502702E+03  0.51895143113E+03  0.12994799873E+04  0.12699999809E+01 0. -1.
       -4    1    3    3    0  502  0.11612459752E+04  0.26616502702E+03 -0.17394666395E+03  0.12039913170E+04  0.12699999809E+01 0.  1.
</event>
<event>
 5   0  0.6290861E-06  0.2498607E+04  0.7818609E-02  0.8403482E-01
        1   -1    0    0  501    0  0.00000000000E+00  0.00000000000E+00  0.16016088683E+04  0.16016088684E+04  0.50400001928E-02 0.  1.
       -1   -1    0    0    0  501  0.00000000000E+00  0.00000000000E+00 -0.97449452438E+03  0.97449452439E+03  0.50400001928E-02 0. -1.
    10030    2    1    2    0    0  0.00000000000E+00  0.00000000000E+00  0.62711434396E+03  0.25761033927E+04  0.24986068698E+04 0.  0.
        1    1    3    3  502    0  0.14195032693E+02  0.97396231489E+02  0.15976052217E+04  0.16006342397E+04  0.50400001928E-02 0.  1.
       -1    1    3    3    0  502 -0.14195032693E+02 -0.97396231489E+02 -0.97049087771E+03  0.97546915307E+03  0.50400001928E-02 0. -1.
</event>
<event>
 5   0  0.6290861E-06  0.2496646E+04  0.7818609E-02  0.8404181E-01
       -1   -1    0    0    0  501  0.00000000000E+00  0.00000000000E+00  0.13702671947E+04  0.13702671947E+04  0.50400001928E-02 0. -1.
        1   -1    0    0  501    0  0.00000000000E+00  0.00000000000E+00 -0.11372310611E+04  0.11372310611E+04  0.50400001928E-02 0.  1.
    10030    2    1    2    0    0  0.00000000000E+00  0.00000000000E+00  0.23303613352E+03  0.25074982558E+04  0.24966460829E+04 0.  0.
        1    1    3    3  502    0 -0.17841550855E+03  0.11643681607E+04 -0.29846689188E+03  0.12151822057E+04  0.50400001928E-02 0.  1.
       -1    1    3    3    0  502  0.17841550855E+03 -0.11643681607E+04  0.53150302540E+03  0.12923160501E+04  0.50400001928E-02 0. -1.
</event>
<event>
 5   0  0.1550483E-05  0.2506615E+04  0.7818609E-02  0.8400633E-01
       -2   -1    0    0    0  501  0.00000000000E+00  0.00000000000E+00  0.83431950474E+03  0.83431950474E+03  0.25500000920E-02 0.  1.
        2   -1    0    0  501    0  0.00000000000E+00  0.00000000000E+00 -0.18827082103E+04  0.18827082103E+04  0.25500000920E-02 0. -1.
    10030    2    1    2    0    0  0.00000000000E+00  0.00000000000E+00 -0.10483887056E+04  0.27170277151E+04  0.25066153926E+04 0.  0.
        5    1    3    3  502    0 -0.11079038195E+04 -0.45881491542E+03 -0.91919609658E+03  0.15109287058E+04  0.46999998093E+01 0. -1.
       -5    1    3    3    0  502  0.11079038195E+04  0.45881491542E+03 -0.12919260899E+03  0.12060990093E+04  0.46999998093E+01 0.  1.
</event>
<event>
 5   0  0.1572732E-05  0.2508794E+04  0.7818609E-02  0.8399859E-01
        2   -1    0    0  501    0  0.00000000000E+00  0.00000000000E+00  0.31308403294E+04  0.31308403294E+04  0.25500000920E-02 0.  1.
       -2   -1    0    0    0  501  0.00000000000E+00  0.00000000000E+00 -0.50258435010E+03  0.50258435011E+03  0.25500000920E-02 0. -1.
    10030    2    1    2    0    0  0.00000000000E+00  0.00000000000E+00  0.26282559793E+04  0.36334246795E+04  0.25087936163E+04 0.  0.
        1    1    3    3  502    0  0.19485739121E+03  0.28736778575E+03 -0.43160697296E+03  0.55392619213E+03  0.50400001928E-02 0. -1.
       -1    1    3    3    0  502 -0.19485739121E+03 -0.28736778575E+03  0.30598629523E+04  0.30794984874E+04  0.50400001928E-02 0.  1.
</event>
<event>
 5   0  0.1572732E-05  0.2496638E+04  0.7818609E-02  0.8404184E-01
       -2   -1    0    0    0  501  0.00000000000E+00  0.00000000000E+00  0.94877924041E+03  0.94877924042E+03  0.25500000920E-02 0.  1.
        2   -1    0    0  501    0  0.00000000000E+00  0.00000000000E+00 -0.16424262355E+04  0.16424262355E+04  0.25500000920E-02 0. -1.
    10030    2    1    2    0    0  0.00000000000E+00  0.00000000000E+00 -0.69364699508E+03  0.25912054759E+04  0.24966376719E+04 0.  0.
        1    1    3    3  502    0 -0.98128538706E+03  0.69603434113E+03 -0.11694287396E+01  0.12030736397E+04  0.50400001928E-02 0.  1.
       -1    1    3    3    0  502  0.98128538706E+03 -0.69603434113E+03 -0.69247756634E+03  0.13881318362E+04  0.50400001928E-02 0. -1.
</event>
<event>
 5   0  0.6105353E-06  0.2492169E+04  0.7818609E-02  0.8405781E-01
        1   -1    0    0  501    0  0.00000000000E+00  0.00000000000E+00  0.18008584127E+04  0.18008584127E+04  0.50400001928E-02 0. -1.
       -1   -1    0    0    0  501  0.00000000000E+00  0.00000000000E+00 -0.86221475010E+03  0.86221475012E+03  0.50400001928E-02 0.  1.
    10030    2    1    2    0    0  0.00000000000E+00  0.00000000000E+00  0.93864366256E+03  0.26630731628E+04  0.24921690844E+04 0.  0.
        3    1    3    3  502    0  0.91145042826E+03  0.76935450808E+03  0.83924907913E+02  0.11956971367E+04  0.10100000352E+00 0.  1.
       -3    1    3    3    0  502 -0.91145042826E+03 -0.76935450808E+03  0.85471875465E+03  0.14673760261E+04  0.10100000352E+00 0. -1.
</event>
<event>
 5   0  0.1550483E-05  0.2477516E+04  0.7818609E-02  0.8411039E-01
       -2   -1    0    0    0  501  0.00000000000E+00  0.00000000000E+00  0.77954736685E+03  0.77954736685E+03  0.25500000920E-02 0. -1.
        2   -1    0    0  501    0  0.00000000000E+00  0.00000000000E+00 -0.19684780204E+04  0.19684780204E+04  0.25500000920E-02 0.  1.
    10030    2    1    2    0    0  0.00000000000E+00  0.00000000000E+00 -0.11889306535E+04  0.27480253872E+04  0.24775163834E+04 0.  0.
        5    1    3    3  502    0 -0.14321326907E+03 -0.37811536601E+03  0.70428557628E+03  0.81210931124E+03  0.46999998093E+01 0. -1.
       -5    1    3    3    0  502  0.14321326907E+03  0.37811536601E+03 -0.18932162298E+04  0.19359160760E+04  0.46999998093E+01 0.  1.
</event>
<event>
 5   0  0.1526824E-05  0.2506307E+04  0.7818609E-02  0.8400742E-01
       -2   -1    0    0    0  501  0.00000000000E+00  0.00000000000E+00  0.14129326671E+04  0.14129326671E+04  0.25500000920E-02 0.  1.
        2   -1    0    0  501    0  0.00000000000E+00  0.00000000000E+00 -0.11114423286E+04  0.11114423286E+04  0.25500000920E-02 0. -1.
    10030    2    1    2    0    0  0.00000000000E+00  0.00000000000E+00  0.30149033844E+03  0.25243749957E+04  0.25063065843E+04 0.  0.
        2    1    3    3  502    0  0.78400549440E+03  0.89605872787E+03  0.54446904040E+03  0.13092105999E+04  0.25500000920E-02 0.  1.
       -2    1    3    3    0  502 -0.78400549440E+03 -0.89605872787E+03 -0.24297870196E+03  0.12151643957E+04  0.25500000920E-02 0. -1.
</event>
<event>
 5   0  0.6477703E-06  0.2494907E+04  0.7818609E-02  0.8404802E-01
        1   -1    0    0  501    0  0.00000000000E+00  0.00000000000E+00  0.20438219382E+04  0.20438219382E+04  0.50400001928E-02 0.  1.
       -1   -1    0    0    0  501  0.00000000000E+00  0.00000000000E+00 -0.76138713027E+03  0.76138713029E+03  0.50400001928E-02 0. -1.
    10030    2    1    2    0    0  0.00000000000E+00  0.00000000000E+00  0.12824348079E+04  0.28052090685E+04  0.24949065877E+04 0.  0.
        5    1    3    3  502    0  0.10112241302E+04  0.56774403936E+03  0.11579528814E+04  0.16388363254E+04  0.46999998093E+01 0.  1.
       -5    1    3    3    0  502 -0.10112241302E+04 -0.56774403936E+03  0.12448192651E+03  0.11663727431E+04  0.46999998093E+01 0. -1.
</event>
<event>
 5   0  0.1572732E-05  0.2499717E+04  0.7818609E-02  0.8403086E-01
        2   -1    0    0  501    0  0.00000000000E+00  0.00000000000E+00  0.11090130773E+04  0.11090130773E+04  0.25500000920E-02 0.  1.
       -2   -1    0    0    0  501  0.00000000000E+00  0.00000000000E+00 -0.14085913399E+04  0.14085913399E+04  0.25500000920E-02 0. -1.
    10030    2    1    2    0    0  0.00000000000E+00  0.00000000000E+00 -0.29957826254E+03  0.25176044172E+04  0.24997169572E+04 0.  0.
        1    1    3    3  502    0  0.10206437493E+04  0.24236168886E+03 -0.83413156881E+03  0.13402344292E+04  0.50400001928E-02 0. -1.
       -1    1    3    3    0  502 -0.10206437493E+04 -0.24236168886E+03  0.53455330627E+03  0.11773699879E+04  0.50400001928E-02 0.  1.
</event>
<event>
 5   0  0.1468512E-05  0.2427633E+04  0.7818609E-02  0.8429230E-01
        2   -1    0    0  501    0  0.00000000000E+00  0.00000000000E+00  0.13974791685E+04  0.13974791685E+04  0.25500000920E-02 0.  1.
       -2   -1    0    0    0  501  0.00000000000E+00  0.00000000000E+00 -0.10542911740E+04  0.10542911740E+04  0.25500000920E-02 0. -1.
    10030    2    1    2    0    0  0.00000000000E+00  0.00000000000E+00  0.34318799449E+03  0.24517703425E+04  0.24276325531E+04 0.  0.
        4    1    3    3  502    0 -0.70339136171E+03  0.42508398901E+03 -0.73053581669E+03  0.10996090204E+04  0.12699999809E+01 0. -1.
       -4    1    3    3    0  502  0.70339136171E+03 -0.42508398901E+03  0.10737238112E+04  0.13521613221E+04  0.12699999809E+01 0.  1.
</event>
<event>
 5   0  0.1572732E-05  0.2455786E+04  0.7818609E-02  0.8418908E-01
       -2   -1    0    0    0  501  0.00000000000E+00  0.00000000000E+00  0.93035665095E+03  0.93035665095E+03  0.25500000920E-02 0. -1.
        2   -1    0    0  501    0  0.00000000000E+00  0.00000000000E+00 -0.16205843658E+04  0.16205843658E+04  0.25500000920E-02 0.  1.
    10030    2    1    2    0    0  0.00000000000E+00  0.00000000000E+00 -0.69022771483E+03  0.25509410167E+04  0.24557861822E+04 0.  0.
        1    1    3    3  502    0 -0.29101306141E+03  0.40521258408E+03  0.82033809603E+03  0.96012521685E+03  0.50400001928E-02 0. -1.
       -1    1    3    3    0  502  0.29101306141E+03 -0.40521258408E+03 -0.15105658109E+04  0.15908157999E+04  0.50400001928E-02 0.  1.
</event>
<event>
 5   0  0.1526824E-05  0.2479621E+04  0.7818609E-02  0.8410282E-01
       -2   -1    0    0    0  501  0.00000000000E+00  0.00000000000E+00  0.83752179481E+03  0.83752179482E+03  0.25500000920E-02 0.  1.
        2   -1    0    0  501    0  0.00000000000E+00  0.00000000000E+00 -0.18353318815E+04  0.18353318815E+04  0.25500000920E-02 0. -1.
    10030    2    1    2    0    0  0.00000000000E+00  0.00000000000E+00 -0.99781008665E+03  0.26728536763E+04  0.24796213029E+04 0.  0.
        2    1    3    3  502    0  0.71674630293E+02 -0.48781709899E+03 -0.17251058796E+04  0.17941831207E+04  0.25500000920E-02 0. -1.
       -2    1    3    3    0  502 -0.71674630293E+02  0.48781709899E+03  0.72729579300E+03  0.87867055556E+03  0.25500000920E-02 0.  1.
</event>
<event>
 5   0  0.6104486E-06  0.2508123E+04  0.7818609E-02  0.8400097E-01
        1   -1    0    0  501    0  0.00000000000E+00  0.00000000000E+00  0.16955884576E+04  0.16955884576E+04  0.50400001928E-02 0. -1.
       -1   -1    0    0    0  501  0.00000000000E+00  0.00000000000E+00 -0.92750699297E+03  0.92750699299E+03  0.50400001928E-02 0.  1.
    10030    2    1    2    0    0  0.00000000000E+00  0.00000000000E+00  0.76808146464E+03  0.26230954506E+04  0.25081229250E+04 0.  0.
        2    1    3    3  502    0 -0.56494917148E+03 -0.32199292360E+02  0.15544781917E+04  0.16542692675E+04  0.25500000920E-02 0. -1.
       -2    1    3    3    0  502  0.56494917148E+03  0.32199292360E+02 -0.78639672707E+03  0.96882618314E+03  0.25500000920E-02 0.  1.
</event>
<event>
 5   0  0.6104486E-06  0.2429321E+04  0.7818609E-02  0.8428607E-01
       -1   -1    0    0    0  501  0.00000000000E+00  0.00000000000E+00  0.73915527720E+03  0.73915527722E+03  0.50400001928E-02 0. -1.
        1   -1    0    0  501    0  0.00000000000E+00  0.00000000000E+00 -0.19960632220E+04  0.19960632220E+04  0.50400001928E-02 0.  1.
    10030    2    1    2    0    0  0.00000000000E+00  0.00000000000E+00 -0.12569079448E+04  0.27352184992E+04  0.24293214396E+04 0.  0.
        2    1    3    3  502    0  0.27770789744E+03 -0.83396714726E+03  0.31542444264E+03  0.93387122133E+03  0.25500000920E-02 0. -1.
       -2    1    3    3    0  502 -0.27770789744E+03  0.83396714726E+03 -0.15723323874E+04  0.18013472779E+04  0.25500000920E-02 0.  1.
</event>
<event>
 5   0  0.1572732E-05  0.2449097E+04  0.7818609E-02  0.8421348E-01
       -2   -1    0    0    0  501  0.00000000000E+00  0.00000000000E+00  0.80699906440E+03  0.80699906441E+03  0.25500000920E-02 0.  1.
        2   -1    0    0  501    0  0.00000000000E+00  0.00000000000E+00 -0.18581428327E+04  0.18581428327E+04  0.25500000920E-02 0. -1.
    10030    2    1    2    0    0  0.00000000000E+00  0.00000000000E+00 -0.10511437683E+04  0.26651418971E+04  0.24490974072E+04 0.  0.
        1    1    3    3  502    0 -0.52908046721E+03  0.51322348318E+02  0.67490091338E+03  0.85909916024E+03  0.50400001928E-02 0.  1.
       -1    1    3    3    0  502  0.52908046721E+03 -0.51322348318E+02 -0.17260446817E+04  0.18060427369E+04  0.50400001928E-02 0. -1.
</event>
<event>
 5   0  0.6290861E-06  0.2617570E+04  0.7818609E-02  0.8362258E-01
       -1   -1    0    0    0  501  0.00000000000E+00  0.00000000000E+00  0.14677441793E+04  0.14677441793E+04  0.50400001928E-02 0.  1.
        1   -1    0    0  501    0  0.00000000000E+00  0.00000000000E+00 -0.11670411429E+04  0.11670411429E+04  0.50400001928E-02 0. -1.
    10030    2    1    2    0    0  0.00000000000E+00  0.00000000000E+00  0.30070303638E+03  0.26347853221E+04  0.26175697465E+04 0.  0.
        1    1    3    3  502    0  0.24016591013E+02 -0.34616824970E+03 -0.11198945661E+04  0.11724218920E+04  0.50400001928E-02 0. -1.
       -1    1    3    3    0  502 -0.24016591013E+02  0.34616824970E+03  0.14205976024E+04  0.14623634301E+04  0.50400001928E-02 0.  1.
</event>
<event>
 5   0  0.6477703E-06  0.2563197E+04  0.7818609E-02  0.8380811E-01
       -1   -1    0    0    0  501  0.00000000000E+00  0.00000000000E+00  0.11820254584E+04  0.11820254584E+04  0.50400001928E-02 0. -1.
        1   -1    0    0  501    0  0.00000000000E+00  0.00000000000E+00 -0.13895596875E+04  0.13895596875E+04  0.50400001928E-02 0.  1.
    10030    2    1    2    0    0  0.00000000000E+00  0.00000000000E+00 -0.20753422909E+03  0.25715851458E+04  0.25631971649E+04 0.  0.
        5    1    3    3  502    0  0.72322001201E+03  0.42706167015E+03 -0.10749452180E+04  0.13641694057E+04  0.46999998093E+01 0.  1.
       -5    1    3    3    0  502 -0.72322001201E+03 -0.42706167015E+03  0.86741098888E+03  0.12074157401E+04  0.46999998093E+01 0. -1.
</event>
<event>
 5   0  0.1572732E-05  0.2470424E+04  0.7818609E-02  0.8413599E-01
       -2   -1    0    0    0  501  0.00000000000E+00  0.00000000000E+00  0.91106293802E+03  0.91106293802E+03  0.25500000920E-02 0. -1.
        2   -1    0    0  501    0  0.00000000000E+00  0.00000000000E+00 -0.16746904095E+04  0.16746904095E+04  0.25500000920E-02 0.  1.
    10030    2    1    2    0    0  0.00000000000E+00  0.00000000000E+00 -0.76362747152E+03  0.25857533476E+04  0.24704237408E+04 0.  0.
        1    1    3    3  502    0 -0.12144397746E+04 -0.13726451224E+03 -0.56917561229E+03  0.13482085855E+04  0.50400001928E-02 0. -1.
       -1    1    3    3    0  502  0.12144397746E+04  0.13726451224E+03 -0.19445185923E+03  0.12375447620E+04  0.50400001928E-02 0.  1.
</event>
<event>
 5   0  0.6346420E-06  0.2490617E+04  0.7818609E-02  0.8406336E-01
        1   -1    0    0  501    0  0.00000000000E+00  0.00000000000E+00  0.17119158445E+04  0.17119158445E+04  0.50400001928E-02 0.  1.
       -1   -1    0    0    0  501  0.00000000000E+00  0.00000000000E+00 -0.90588176828E+03  0.90588176830E+03  0.50400001928E-02 0. -1.
    10030    2    1    2    0    0  0.00000000000E+00  0.00000000000E+00  0.80603407623E+03  0.26177976128E+04  0.24906170741E+04 0.  0.
        4    1    3    3  502    0  0.11666187915E+04 -0.40477149886E+03  0.57234068177E+03  0.13610344742E+04  0.12699999809E+01 0.  1.
       -4    1    3    3    0  502 -0.11666187915E+04  0.40477149886E+03  0.23369339446E+03  0.12567631386E+04  0.12699999809E+01 0. -1.
</event>
<event>
 5   0  0.1526824E-05  0.2497789E+04  0.7818609E-02  0.8403774E-01
        2   -1    0    0  501    0  0.00000000000E+00  0.00000000000E+00  0.89441612349E+03  0.89441612350E+03  0.25500000920E-02 0. -1.
       -2   -1    0    0    0  501  0.00000000000E+00  0.00000000000E+00 -0.17438611799E+04  0.17438611799E+04  0.25500000920E-02 0.  1.
    10030    2    1    2    0    0  0.00000000000E+00  0.00000000000E+00 -0.84944505642E+03  0.26382773034E+04  0.24977890675E+04 0.  0.
        2    1    3    3  502    0  0.88692763045E+03  0.74507364508E+03  0.68400484675E+02  0.11603680384E+04  0.25500000920E-02 0.  1.
       -2    1    3    3    0  502 -0.88692763045E+03 -0.74507364508E+03 -0.91784554109E+03  0.14779092650E+04  0.25500000920E-02 0. -1.
</event>
<event>
 5   0  0.6346420E-06  0.2498684E+04  0.7818609E-02  0.8403454E-01
        1   -1    0    0  501    0  0.00000000000E+00  0.00000000000E+00  0.57402981308E+03  0.57402981310E+03  0.50400001928E-02 0.  1.
       -1   -1    0    0    0  501  0.00000000000E+00  0.00000000000E+00 -0.27191200699E+04  0.27191200699E+04  0.50400001928E-02 0. -1.
    10030    2    1    2    0    0  0.00000000000E+00  0.00000000000E+00 -0.21450902568E+04  0.32931498830E+04  0.24986844423E+04 0.  0.
        4    1    3    3  502    0 -0.80270234651E+03  0.10590625278E+03 -0.23265466613E+04  0.24634058073E+04  0.12699999809E+01 0. -1.
       -4    1    3    3    0  502  0.80270234651E+03 -0.10590625278E+03  0.18145640449E+03  0.82974407567E+03  0.12699999809E+01 0.  1.
</event>
<event>
 5   0  0.6290861E-06  0.2504874E+04  0.7818609E-02  0.8401251E-01
        1   -1    0    0  501    0  0.00000000000E+00  0.00000000000E+00  0.11568660150E+04  0.11568660151E+04  0.50400001928E-02 0. -1.
       -1   -1    0    0    0  501  0.00000000000E+00  0.00000000000E+00 -0.13559035767E+04  0.13559035767E+04  0.50400001928E-02 0.  1.
    10030    2    1    2    0    0  0.00000000000E+00  0.00000000000E+00 -0.19903756165E+03  0.25127695918E+04  0.25048742624E+04 0.  0.
        1    1    3    3  502    0  0.10929976922E+04 -0.55928867509E+03  0.14854792807E+03  0.12367353250E+04  0.50400001928E-02 0. -1.
       -1    1    3    3    0  502 -0.10929976922E+04  0.55928867509E+03 -0.34758548972E+03  0.12760342667E+04  0.50400001928E-02 0.  1.
</event>
<event>
 5   0  0.1550483E-05  0.2519442E+04  0.7818609E-02  0.8396092E-01
       -2   -1    0    0    0  501  0.00000000000E+00  0.00000000000E+00  0.90710835414E+03  0.90710835414E+03  0.25500000920E-02 0.  1.
        2   -1    0    0  501    0  0.00000000000E+00  0.00000000000E+00 -0.17494017830E+04  0.17494017830E+04  0.25500000920E-02 0. -1.
    10030    2    1    2    0    0  0.00000000000E+00  0.00000000000E+00 -0.84229342885E+03  0.26565101371E+04  0.25194419796E+04 0.  0.
        5    1    3    3  502    0  0.84196216843E+03  0.42287615663E+03  0.46049555600E+03  0.10487148249E+04  0.46999998093E+01 0.  1.
       -5    1    3    3    0  502 -0.84196216843E+03 -0.42287615663E+03 -0.13027889849E+04  0.16077953122E+04  0.46999998093E+01 0. -1.
</event>
<event>
 5   0  0.6105353E-06  0.2479428E+04  0.7818609E-02  0.8410351E-01
        1   -1    0    0  501    0  0.00000000000E+00  0.00000000000E+00  0.10086878771E+04  0.10086878772E+04  0.50400001928E-02 0. -1.
       -1   -1    0    0    0  501  0.00000000000E+00  0.00000000000E+00 -0.15236532141E+04  0.15236532141E+04  0.50400001928E-02 0.  1.
    10030    2    1    2    0    0  0.00000000000E+00  0.00000000000E+00 -0.51496533698E+03  0.25323410913E+04  0.24794277776E+04 0.  0.
        3    1    3    3  502    0 -0.10186063479E+03  0.58802349744E+03  0.85232694764E+03  0.10404847228E+04  0.10100000352E+00 0. -1.
       -3    1    3    3    0  502  0.10186063479E+03 -0.58802349744E+03 -0.13672922846E+04  0.14918563685E+04  0.10100000352E+00 0.  1.
</event>
<event>
 5   0  0.6105353E-06  0.2497030E+04  0.7818609E-02  0.8404044E-01
       -1   -1    0    0    0  501  0.00000000000E+00  0.00000000000E+00  0.11713241491E+04  0.11713241491E+04  0.50400001928E-02 0.  1.
        1   -1    0    0  501    0  0.00000000000E+00  0.00000000000E+00 -0.13307929804E+04  0.13307929804E+04  0.50400001928E-02 0. -1.
    10030    2    1    2    0    0  0.00000000000E+00  0.00000000000E+00 -0.15946883130E+03  0.25021171295E+04  0.24970302003E+04 0.  0.
        3    1    3    3  502    0  0.85173847449E+02  0.43179797139E+03  0.10910146699E+04  0.11764425581E+04  0.10100000352E+00 0.  1.
       -3    1    3    3    0  502 -0.85173847449E+02 -0.43179797139E+03 -0.12504835012E+04  0.13256745714E+04  0.10100000352E+00 0. -1.
</event>
<event>
 5   0  0.1526824E-05  0.2494320E+04  0.7818609E-02  0.8405012E-01
        2   -1    0    0  501    0  0.00000000000E+00  0.00000000000E+00  0.12089437746E+04  0.12089437746E+04  0.25500000920E-02 0.  1.
       -2   -1    0    0    0  501  0.00000000000E+00  0.00000000000E+00 -0.12865846433E+04  0.12865846433E+04  0.25500000920E-02 0. -1.
    10030    2    1    2    0    0  0.00000000000E+00  0.00000000000E+00 -0.77640868672E+02  0.24955284179E+04  0.24943203443E+04 0.  0.
        2    1    3    3  502    0 -0.44561885050E+03 -0.79343566446E+03  0.81440688035E+03  0.12212186046E+04  0.25500000920E-02 0.  1.
       -2    1    3    3    0  502  0.44561885050E+03  0.79343566446E+03 -0.89204774902E+03  0.12743098132E+04  0.25500000920E-02 0. -1.
</event>
<event>
 5   0  0.1468512E-05  0.2506432E+04  0.7818609E-02  0.8400698E-01
        2   -1    0    0  501    0  0.00000000000E+00  0.00000000000E+00  0.22375522920E+04  0.22375522920E+04  0.25500000920E-02 0. -1.
       -2   -1    0    0    0  501  0.00000000000E+00  0.00000000000E+00 -0.70190567090E+03  0.70190567091E+03  0.25500000920E-02 0.  1.
    10030    2    1    2    0    0  0.00000000000E+00  0.00000000000E+00  0.15356466211E+04  0.29394579629E+04  0.25064322394E+04 0.  0.
        4    1    3    3  502    0  0.96552499163E+03  0.21620271470E+03  0.16698371917E+04  0.19409636738E+04  0.12699999809E+01 0. -1.
       -4    1    3    3    0  502 -0.96552499163E+03 -0.21620271470E+03 -0.13419057057E+03  0.99849428914E+03  0.12699999809E+01 0.  1.
</event>
<event>
 5   0  0.6105353E-06  0.2491506E+04  0.7818609E-02  0.8406018E-01
       -1   -1    0    0    0  501  0.00000000000E+00  0.00000000000E+00  0.11538978651E+04  0.11538978651E+04  0.50400001928E-02 0.  1.
        1   -1    0    0  501    0  0.00000000000E+00  0.00000000000E+00 -0.13449198922E+04  0.13449198922E+04  0.50400001928E-02 0. -1.
    10030    2    1    2    0    0  0.00000000000E+00  0.00000000000E+00 -0.19102202713E+03  0.24988177573E+04  0.24915057233E+04 0.  0.
        3    1    3    3  502    0 -0.62105025734E+03  0.48548281454E+03 -0.10629679196E+04  0.13233660845E+04  0.10100000352E+00 0. -1.
       -3    1    3    3    0  502  0.62105025734E+03 -0.48548281454E+03  0.87194589249E+03  0.11754516728E+04  0.10100000352E+00 0.  1.
</event>
<event>
 5   0  0.1526824E-05  0.2500895E+04  0.7818609E-02  0.8402667E-01
       -2   -1    0    0    0  501  0.00000000000E+00  0.00000000000E+00  0.10878644333E+04  0.10878644333E+04  0.25500000920E-02 0.  1.
        2   -1    0    0  501    0  0.00000000000E+00  0.00000000000E+00 -0.14373291717E+04  0.14373291717E+04  0.25500000920E-02 0. -1.
    10030    2    1    2    0    0  0.00000000000E+00  0.00000000000E+00 -0.34946473837E+03  0.25251936050E+04  0.25008952676E+04 0.  0.
        2    1    3    3  502    0 -0.47758631980E+03 -0.26773912646E+03  0.96039949716E+03  0.11055044671E+04  0.25500000920E-02 0.  1.
       -2    1    3    3    0  502  0.47758631980E+03  0.26773912646E+03 -0.13098642355E+04  0.14196891379E+04  0.25500000920E-02 0. -1.
</event>
<event>
 5   0  0.1468512E-05  0.2569733E+04  0.7818609E-02  0.8378556E-01
        2   -1    0    0  501    0  0.00000000000E+00  0.00000000000E+00  0.91086083645E+03  0.91086083645E+03  0.25500000920E-02 0.  1.
       -2   -1    0    0    0  501  0.00000000000E+00  0.00000000000E+00 -0.18124410164E+04  0.18124410164E+04  0.25500000920E-02 0. -1.
    10030    2    1    2    0    0  0.00000000000E+00  0.00000000000E+00 -0.90158017994E+03  0.27233018528E+04  0.25697327022E+04 0.  0.
        4    1    3    3  502    0  0.26987443941E+03  0.10885989114E+04  0.21357097732E+03  0.11417066077E+04  0.12699999809E+01 0.  1.
       -4    1    3    3    0  502 -0.26987443941E+03 -0.10885989114E+04 -0.11151511573E+04  0.15815952451E+04  0.12699999809E+01 0. -1.
</event>
<event>
 5   0  0.1501947E-05  0.2388645E+04  0.7818609E-02  0.8443767E-01
        2   -1    0    0  501    0  0.00000000000E+00  0.00000000000E+00  0.17992311259E+04  0.17992311259E+04  0.25500000920E-02 0. -1.
       -2   -1    0    0    0  501  0.00000000000E+00  0.00000000000E+00 -0.79278682015E+03  0.79278682015E+03  0.25500000920E-02 0.  1.
    10030    2    1    2    0    0  0.00000000000E+00  0.00000000000E+00  0.10064443057E+04  0.25920179460E+04  0.23886454094E+04 0.  0.
        3    1    3    3  502    0  0.66533637153E+03  0.14110939045E+03 -0.56210947285E+03  0.88235560690E+03  0.10100000352E+00 0.  1.
       -3    1    3    3    0  502 -0.66533637153E+03 -0.14110939045E+03  0.15685537786E+04  0.17096623391E+04  0.10100000352E+00 0. -1.
</event>
<event>
 5   0  0.6105353E-06  0.2498640E+04  0.7818609E-02  0.8403470E-01
        1   -1    0    0  501    0  0.00000000000E+00  0.00000000000E+00  0.14398400565E+04  0.14398400565E+04  0.50400001928E-02 0. -1.
       -1   -1    0    0    0  501  0.00000000000E+00  0.00000000000E+00 -0.10840094262E+04  0.10840094262E+04  0.50400001928E-02 0.  1.
    10030    2    1    2    0    0  0.00000000000E+00  0.00000000000E+00  0.35583063034E+03  0.25238494827E+04  0.24986397847E+04 0.  0.
        3    1    3    3  502    0 -0.74940996094E+03 -0.99958938136E+03  0.17544889151E+03  0.12615770070E+04  0.10100000352E+00 0. -1.
       -3    1    3    3    0  502  0.74940996094E+03  0.99958938136E+03  0.18038173884E+03  0.12622724757E+04  0.10100000352E+00 0.  1.
</event>
<event>
 5   0  0.1526824E-05  0.2503997E+04  0.7818609E-02  0.8401563E-01
       -2   -1    0    0    0  501  0.00000000000E+00  0.00000000000E+00  0.84687517486E+03  0.84687517486E+03  0.25500000920E-02 0.  1.
        2   -1    0    0  501    0  0.00000000000E+00  0.00000000000E+00 -0.18509225917E+04  0.18509225917E+04  0.25500000920E-02 0. -1.
    10030    2    1    2    0    0  0.00000000000E+00  0.00000000000E+00 -0.10040474168E+04  0.26977977665E+04  0.25039971194E+04 0.  0.
        2    1    3    3  502    0 -0.37219534106E+03  0.21980891985E+03  0.76393097667E+03  0.87774476374E+03  0.25500000920E-02 0.  1.
       -2    1    3    3    0  502  0.37219534106E+03 -0.21980891985E+03 -0.17679783935E+04  0.18200530028E+04  0.25500000920E-02 0. -1.
</event>
<event>
 5   0  0.5164625E-06  0.2492414E+04  0.7818609E-02  0.8405693E-01
       -3   -1    0    0    0  501  0.00000000000E+00  0.00000000000E+00  0.10028011463E+04  0.10028011514E+04  0.10100000352E+00 0.  1.
        3   -1    0    0  501    0  0.00000000000E+00  0.00000000000E+00 -0.15486939434E+04  0.15486939467E+04  0.10100000352E+00 0. -1.
    10030    2    1    2    0    0  0.00000000000E+00  0.00000000000E+00 -0.54589279708E+03  0.25514950981E+04  0.24924141490E+04 0.  0.
        4    1    3    3  502    0  0.44928987706E+03 -0.11130208991E+04 -0.61608368992E+03  0.13491618292E+04  0.12699999809E+01 0. -1.
       -4    1    3    3    0  502 -0.44928987706E+03  0.11130208991E+04  0.70190892842E+02  0.12023332690E+04  0.12699999809E+01 0.  1.
</event>
<event>
 5   0  0.6346420E-06  0.2492776E+04  0.7818609E-02  0.8405564E-01
       -1   -1    0    0    0  501  0.00000000000E+00  0.00000000000E+00  0.77623040753E+03  0.77623040754E+03  0.50400001928E-02 0.  1.
        1   -1    0    0  501    0  0.00000000000E+00  0.00000000000E+00 -0.20013169852E+04  0.20013169852E+04  0.50400001928E-02 0. -1.
    10030    2    1    2    0    0  0.00000000000E+00  0.00000000000E+00 -0.12250865777E+04  0.27775473928E+04  0.24927760421E+04 0.  0.
        4    1    3    3  502    0 -0.13099337576E+03 -0.12315637251E+04 -0.45665730966E+03  0.13200174184E+04  0.12699999809E+01 0.  1.
       -4    1    3    3    0  502  0.13099337576E+03  0.12315637251E+04 -0.76842926804E+03  0.14575299744E+04  0.12699999809E+01 0. -1.
</event>
<event>
 5   0  0.1526824E-05  0.2536799E+04  0.7818609E-02  0.8389992E-01
        2   -1    0    0  501    0  0.00000000000E+00  0.00000000000E+00  0.24616416355E+04  0.24616416355E+04  0.25500000920E-02 0. -1.
       -2   -1    0    0    0  501  0.00000000000E+00  0.00000000000E+00 -0.65356261049E+03  0.65356261050E+03  0.25500000920E-02 0.  1.
    10030    2    1    2    0    0  0.00000000000E+00  0.00000000000E+00  0.18080790251E+04  0.31152042460E+04  0.25367987176E+04 0.  0.
        2    1    3    3  502    0  0.59673118259E+03  0.91856007422E+03  0.16893839343E+04  0.20134196760E+04  0.25500000920E-02 0. -1.
       -2    1    3    3    0  502 -0.59673118259E+03 -0.91856007422E+03  0.11869509076E+03  0.11017845701E+04  0.25500000920E-02 0.  1.
</event>
<event>
 5   0  0.6477703E-06  0.2611345E+04  0.7818609E-02  0.8364358E-01
        1   -1    0    0  501    0  0.00000000000E+00  0.00000000000E+00  0.18470346358E+04  0.18470346358E+04  0.50400001928E-02 0.  1.
       -1   -1    0    0    0  501  0.00000000000E+00  0.00000000000E+00 -0.92298269665E+03  0.92298269667E+03  0.50400001928E-02 0. -1.
    10030    2    1    2    0    0  0.00000000000E+00  0.00000000000E+00  0.92405193915E+03  0.27700173325E+04  0.26113452541E+04 0.  0.
        5    1    3    3  502    0  0.12293554394E+03 -0.21223221961E+03 -0.89831808969E+03  0.93121057944E+03  0.46999998093E+01 0. -1.
       -5    1    3    3    0  502 -0.12293554394E+03  0.21223221961E+03  0.18223700288E+04  0.18388067530E+04  0.46999998093E+01 0.  1.
</event>
<event>
 5   0  0.6477703E-06  0.2650798E+04  0.7818609E-02  0.8351148E-01
       -1   -1    0    0    0  501  0.00000000000E+00  0.00000000000E+00  0.20351574700E+04  0.20351574701E+04  0.50400001928E-02 0. -1.
        1   -1    0    0  501    0  0.00000000000E+00  0.00000000000E+00 -0.86316788154E+03  0.86316788155E+03  0.50400001928E-02 0.  1.
    10030    2    1    2    0    0  0.00000000000E+00  0.00000000000E+00  0.11719895885E+04  0.28983253516E+04  0.26507980399E+04 0.  0.
        5    1    3    3  502    0  0.27501066047E+02  0.61325995202E+03 -0.69834856714E+03  0.92981551321E+03  0.46999998093E+01 0.  1.
       -5    1    3    3    0  502 -0.27501066047E+02 -0.61325995202E+03  0.18703381556E+04  0.19685098384E+04  0.46999998093E+01 0. -1.
</event>
<event>
 5   0  0.6105353E-06  0.2508117E+04  0.7818609E-02  0.8400100E-01
        1   -1    0    0  501    0  0.00000000000E+00  0.00000000000E+00  0.19000275300E+04  0.19000275300E+04  0.50400001928E-02 0. -1.
       -1   -1    0    0    0  501  0.00000000000E+00  0.00000000000E+00 -0.82770514029E+03  0.82770514030E+03  0.50400001928E-02 0.  1.
    10030    2    1    2    0    0  0.00000000000E+00  0.00000000000E+00  0.10723223898E+04  0.27277326704E+04  0.25081168660E+04 0.  0.
        3    1    3    3  502    0  0.57902084268E+03  0.74907048007E+03  0.14305385274E+04  0.17154626807E+04  0.10100000352E+00 0. -1.
       -3    1    3    3    0  502 -0.57902084268E+03 -0.74907048007E+03 -0.35821613767E+03  0.10122699896E+04  0.10100000352E+00 0.  1.
</event>
<event>
 5   0  0.6104486E-06  0.2547109E+04  0.7818609E-02  0.8386392E-01
       -1   -1    0    0    0  501  0.00000000000E+00  0.00000000000E+00  0.16062262322E+04  0.16062262322E+04  0.50400001928E-02 0.  1.
        1   -1    0    0  501    0  0.00000000000E+00  0.00000000000E+00 -0.10097837213E+04  0.10097837213E+04  0.50400001928E-02 0. -1.
    10030    2    1    2    0    0  0.00000000000E+00  0.00000000000E+00  0.59644251086E+03  0.26160099535E+04  0.25471090295E+04 0.  0.
        2    1    3    3  502    0 -0.11353577161E+04  0.33020360834E+03 -0.18772624864E+03  0.11972103871E+04  0.25500000920E-02 0. -1.
       -2    1    3    3    0  502  0.11353577161E+04 -0.33020360834E+03  0.78416875950E+03  0.14187995665E+04  0.25500000920E-02 0.  1.
</event>
<event>
 5   0  0.1550483E-05  0.2520849E+04  0.7818609E-02  0.8395595E-01
       -2   -1    0    0    0  501  0.00000000000E+00  0.00000000000E+00  0.12093843587E+04  0.12093843587E+04  0.25500000920E-02 0.  1.
        2   -1    0    0  501    0  0.00000000000E+00  0.00000000000E+00 -0.13136191197E+04  0.13136191197E+04  0.25500000920E-02 0. -1.
    10030    2    1    2    0    0  0.00000000000E+00  0.00000000000E+00 -0.10423476101E+03  0.25230034785E+04  0.25208493939E+04 0.  0.
        5    1    3    3  502    0  0.55127360056E+03 -0.92879093136E+03 -0.70235950583E+03  0.12883656865E+04  0.46999998093E+01 0. -1.
       -5    1    3    3    0  502 -0.55127360056E+03  0.92879093136E+03  0.59812474481E+03  0.12346377919E+04  0.46999998093E+01 0.  1.
</event>
<event>
 5   0  0.6346420E-06  0.2503212E+04  0.7818609E-02  0.8401842E-01
       -1   -1    0    0    0  501  0.00000000000E+00  0.00000000000E+00  0.97995432581E+03  0.97995432583E+03  0.50400001928E-02 0.  1.
        1   -1    0    0  501    0  0.00000000000E+00  0.00000000000E+00 -0.15985617999E+04  0.15985617999E+04  0.50400001928E-02 0. -1.
    10030    2    1    2    0    0  0.00000000000E+00  0.00000000000E+00 -0.61860747404E+03  0.25785161257E+04  0.25032119773E+04 0.  0.
        4    1    3    3  502    0 -0.80431642035E+03 -0.21664192937E+03 -0.12715674054E+04  0.15201131238E+04  0.12699999809E+01 0. -1.
       -4    1    3    3    0  502  0.80431642035E+03  0.21664192937E+03  0.65295993137E+03  0.10584030019E+04  0.12699999809E+01 0.  1.
</event>
<event>
 5   0  0.6477703E-06  0.2484509E+04  0.7818609E-02  0.8408525E-01
       -1   -1    0    0    0  501  0.00000000000E+00  0.00000000000E+00  0.73288827661E+03  0.73288827662E+03  0.50400001928E-02 0. -1.
        1   -1    0    0  501    0  0.00000000000E+00  0.00000000000E+00 -0.21056359085E+04  0.21056359085E+04  0.50400001928E-02 0.  1.
    10030    2    1    2    0    0  0.00000000000E+00  0.00000000000E+00 -0.13727476319E+04  0.28385241851E+04  0.24845087017E+04 0.  0.
        5    1    3    3  502    0  0.88880056569E+03  0.72237938004E+03 -0.12359281508E+04  0.16850337974E+04  0.46999998093E+01 0. -1.
       -5    1    3    3    0  502 -0.88880056569E+03 -0.72237938004E+03 -0.13681948107E+03  0.11534903878E+04  0.46999998093E+01 0.  1.
</event>
<event>
 5   0  0.1526824E-05  0.2629236E+04  0.7818609E-02  0.8358338E-01
       -2   -1    0    0    0  501  0.00000000000E+00  0.00000000000E+00  0.12891800020E+04  0.12891800020E+04  0.25500000920E-02 0. -1.
        2   -1    0    0  501    0  0.00000000000E+00  0.00000000000E+00 -0.13405578959E+04  0.13405578959E+04  0.25500000920E-02 0.  1.
    10030    2    1    2    0    0  0.00000000000E+00  0.00000000000E+00 -0.51377893981E+02  0.26297378979E+04  0.26292359582E+04 0.  0.
        2    1    3    3  502    0  0.94827827811E+03 -0.86897480875E+03 -0.29753399075E+03  0.13201800584E+04  0.25500000920E-02 0.  1.
       -2    1    3    3    0  502 -0.94827827811E+03  0.86897480875E+03  0.24615609677E+03  0.13095578395E+04  0.25500000920E-02 0. -1.
</event>
<event>
 5   0  0.6104486E-06  0.2413867E+04  0.7818609E-02  0.8434330E-01
        1   -1    0    0  501    0  0.00000000000E+00  0.00000000000E+00  0.27249773984E+04  0.27249773984E+04  0.50400001928E-02 0. -1.
       -1   -1    0    0    0  501  0.00000000000E+00  0.00000000000E+00 -0.53456922555E+03  0.53456922558E+03  0.50400001928E-02 0.  1.
    10030    2    1    2    0    0  0.00000000000E+00  0.00000000000E+00  0.21904081728E+04  0.32595466240E+04  0.24138674840E+04 0.  0.
        2    1    3    3  502    0 -0.26404282792E+03 -0.28383736685E+03  0.26386200493E+04  0.26669454495E+04  0.25500000920E-02 0. -1.
       -2    1    3    3    0  502  0.26404282792E+03  0.28383736685E+03 -0.44821187648E+03  0.59260117450E+03  0.25500000920E-02 0.  1.
</event>
<event>
 5   0  0.1550483E-05  0.2530682E+04  0.7818609E-02  0.8392136E-01
        2   -1    0    0  501    0  0.00000000000E+00  0.00000000000E+00  0.10490098651E+04  0.10490098651E+04  0.25500000920E-02 0. -1.
       -2   -1    0    0    0  501  0.00000000000E+00  0.00000000000E+00 -0.15262854305E+04  0.15262854305E+04  0.25500000920E-02 0.  1.
    10030    2    1    2    0    0  0.00000000000E+00  0.00000000000E+00 -0.47727556536E+03  0.25752952956E+04  0.25306824957E+04 0.  0.
        5    1    3    3  502    0  0.27987967652E+03  0.11536328184E+04 -0.68438365682E+03  0.13702570536E+04  0.46999998093E+01 0.  1.
       -5    1    3    3    0  502 -0.27987967652E+03 -0.11536328184E+04  0.20710809146E+03  0.12050382420E+04  0.46999998093E+01 0. -1.
</event>
<event>
 5   0  0.6290861E-06  0.2510233E+04  0.7818609E-02  0.8399349E-01
       -1   -1    0    0    0  501  0.00000000000E+00  0.00000000000E+00  0.84185465854E+03  0.84185465856E+03  0.50400001928E-02 0. -1.
        1   -1    0    0  501    0  0.00000000000E+00  0.00000000000E+00 -0.18712466585E+04  0.18712466585E+04  0.50400001928E-02 0.  1.
    10030    2    1    2    0    0  0.00000000000E+00  0.00000000000E+00 -0.10293919999E+04  0.27131013170E+04  0.25102332296E+04 0.  0.
        1    1    3    3  502    0 -0.89227448938E+02 -0.12465882164E+04 -0.38970390056E+03  0.13091267505E+04  0.50400001928E-02 0.  1.
       -1    1    3    3    0  502  0.89227448938E+02  0.12465882164E+04 -0.63968809939E+03  0.14039745665E+04  0.50400001928E-02 0. -1.
</event>
<event>
 5   0  0.1501947E-05  0.2478191E+04  0.7818609E-02  0.8410797E-01
       -2   -1    0    0    0  501  0.00000000000E+00  0.00000000000E+00  0.79778344284E+03  0.79778344285E+03  0.25500000920E-02 0.  1.
        2   -1    0    0  501    0  0.00000000000E+00  0.00000000000E+00 -0.19245292819E+04  0.19245292819E+04  0.25500000920E-02 0. -1.
    10030    2    1    2    0    0  0.00000000000E+00  0.00000000000E+00 -0.11267458391E+04  0.27223127247E+04  0.24781909502E+04 0.  0.
        3    1    3    3  502    0 -0.10965183568E+04 -0.52033808505E+03 -0.83745751861E+03  0.14745980250E+04  0.10100000352E+00 0.  1.
       -3    1    3    3    0  502  0.10965183568E+04  0.52033808505E+03 -0.28928832044E+03  0.12477146998E+04  0.10100000352E+00 0. -1.
</event>
<event>
 5   0  0.1550483E-05  0.2433057E+04  0.7818609E-02  0.8427230E-01
       -2   -1    0    0    0  501  0.00000000000E+00  0.00000000000E+00  0.70224890589E+03  0.70224890590E+03  0.25500000920E-02 0.  1.
        2   -1    0    0  501    0  0.00000000000E+00  0.00000000000E+00 -0.21074311416E+04  0.21074311416E+04  0.25500000920E-02 0. -1.
    10030    2    1    2    0    0  0.00000000000E+00  0.00000000000E+00 -0.14051822357E+04  0.28096800475E+04  0.24330566894E+04 0.  0.
        5    1    3    3  502    0 -0.72765387382E+03 -0.92208479257E+03 -0.33705065002E+03  0.12220252679E+04  0.46999998093E+01 0.  1.
       -5    1    3    3    0  502  0.72765387382E+03  0.92208479257E+03 -0.10681315857E+04  0.15876547796E+04  0.46999998093E+01 0. -1.
</event>
<event>
 5   0  0.6290861E-06  0.2510541E+04  0.7818609E-02  0.8399240E-01
        1   -1    0    0  501    0  0.00000000000E+00  0.00000000000E+00  0.66554195167E+03  0.66554195169E+03  0.50400001928E-02 0. -1.
       -1   -1    0    0    0  501  0.00000000000E+00  0.00000000000E+00 -0.23675503266E+04  0.23675503266E+04  0.50400001928E-02 0.  1.
    10030    2    1    2    0    0  0.00000000000E+00  0.00000000000E+00 -0.17020083750E+04  0.30330922783E+04  0.25105410294E+04 0.  0.
        1    1    3    3  502    0  0.64363075505E+03  0.55807293194E+03 -0.19648556574E+04  0.21415797208E+04  0.50400001928E-02 0. -1.
       -1    1    3    3    0  502 -0.64363075505E+03 -0.55807293194E+03  0.26284728246E+03  0.89151255747E+03  0.50400001928E-02 0.  1.
</event>
<event>
 5   0  0.1526824E-05  0.2503758E+04  0.7818609E-02  0.8401648E-01
       -2   -1    0    0    0  501  0.00000000000E+00  0.00000000000E+00  0.97600500840E+03  0.97600500840E+03  0.25500000920E-02 0.  1.
        2   -1    0    0  501    0  0.00000000000E+00  0.00000000000E+00 -0.16057303560E+04  0.16057303560E+04  0.25500000920E-02 0. -1.
    10030    2    1    2    0    0  0.00000000000E+00  0.00000000000E+00 -0.62972534765E+03  0.25817353644E+04  0.25037578714E+04 0.  0.
        2    1    3    3  502    0 -0.57747916617E+03 -0.43784642993E+03  0.73771746221E+03  0.10341270413E+04  0.25500000920E-02 0.  1.
       -2    1    3    3    0  502  0.57747916617E+03  0.43784642993E+03 -0.13674428099E+04  0.15476083231E+04  0.25500000920E-02 0. -1.
</event>
<event>
 5   0  0.1550483E-05  0.2492962E+04  0.7818609E-02  0.8405497E-01
       -2   -1    0    0    0  501  0.00000000000E+00  0.00000000000E+00  0.12221599550E+04  0.12221599550E+04  0.25500000920E-02 0.  1.
        2   -1    0    0  501    0  0.00000000000E+00  0.00000000000E+00 -0.12712865220E+04  0.12712865220E+04  0.25500000920E-02 0. -1.
    10030    2    1    2    0    0  0.00000000000E+00  0.00000000000E+00 -0.49126566983E+02  0.24934464771E+04  0.24929624776E+04 0.  0.
        5    1    3    3  502    0 -0.51161236544E+03  0.10343465382E+04 -0.49590143480E+03  0.12560096722E+04  0.46999998093E+01 0. -1.
       -5    1    3    3    0  502  0.51161236544E+03 -0.10343465382E+04  0.44677486782E+03  0.12374368049E+04  0.46999998093E+01 0.  1.
</event>
<event>
 5   0  0.6104486E-06  0.2480991E+04  0.7818609E-02  0.8409789E-01
        1   -1    0    0  501    0  0.00000000000E+00  0.00000000000E+00  0.19827504604E+04  0.19827504604E+04  0.50400001928E-02 0. -1.
       -1   -1    0    0    0  501  0.00000000000E+00  0.00000000000E+00 -0.77610852076E+03  0.77610852077E+03  0.50400001928E-02 0.  1.
    10030    2    1    2    0    0  0.00000000000E+00  0.00000000000E+00  0.12066419397E+04  0.27588589812E+04  0.24809913558E+04 0.  0.
        2    1    3    3  502    0  0.84081299904E+03  0.56921764943E+03  0.13957745210E+04  0.17260248391E+04  0.25500000920E-02 0. -1.
       -2    1    3    3    0  502 -0.84081299904E+03 -0.56921764943E+03 -0.18913258130E+03  0.10328341421E+04  0.25500000920E-02 0.  1.
</event>
<event>
 5   0  0.1550483E-05  0.2483959E+04  0.7818609E-02  0.8408723E-01
       -2   -1    0    0    0  501  0.00000000000E+00  0.00000000000E+00  0.89425260300E+03  0.89425260301E+03  0.25500000920E-02 0. -1.
        2   -1    0    0  501    0  0.00000000000E+00  0.00000000000E+00 -0.17249182654E+04  0.17249182654E+04  0.25500000920E-02 0.  1.
    10030    2    1    2    0    0  0.00000000000E+00  0.00000000000E+00 -0.83066566236E+03  0.26191708684E+04  0.24839586541E+04 0.  0.
        5    1    3    3  502    0  0.11869299266E+03  0.71412393021E+03  0.64877334493E+03  0.97210593933E+03  0.46999998093E+01 0. -1.
       -5    1    3    3    0  502 -0.11869299266E+03 -0.71412393021E+03 -0.14794390073E+04  0.16470649290E+04  0.46999998093E+01 0.  1.
</event>
<event>
 5   0  0.6346420E-06  0.2489006E+04  0.7818609E-02  0.8406913E-01
       -1   -1    0    0    0  501  0.00000000000E+00  0.00000000000E+00  0.10785889066E+04  0.10785889066E+04  0.50400001928E-02 0. -1.
        1   -1    0    0  501    0  0.00000000000E+00  0.00000000000E+00 -0.14359393809E+04  0.14359393809E+04  0.50400001928E-02 0.  1.
    10030    2    1    2    0    0  0.00000000000E+00  0.00000000000E+00 -0.35735047422E+03  0.25145282875E+04  0.24890064579E+04 0.  0.
        4    1    3    3  502    0  0.12145464729E+04  0.90993690257E+02  0.79649030545E+02  0.12205525665E+04  0.12699999809E+01 0. -1.
       -4    1    3    3    0  502 -0.12145464729E+04 -0.90993690257E+02 -0.43699950477E+03  0.12939757210E+04  0.12699999809E+01 0.  1.
</event>
<event>
 5   0  0.6477703E-06  0.2495268E+04  0.7818609E-02  0.8404673E-01
        1   -1    0    0  501    0  0.00000000000E+00  0.00000000000E+00  0.14875130060E+04  0.14875130060E+04  0.50400001928E-02 0.  1.
       -1   -1    0    0    0  501  0.00000000000E+00  0.00000000000E+00 -0.10464387109E+04  0.10464387109E+04  0.50400001928E-02 0. -1.
    10030    2    1    2    0    0  0.00000000000E+00  0.00000000000E+00  0.44107429503E+03  0.25339517169E+04  0.24952684765E+04 0.  0.
        5    1    3    3  502    0 -0.39591756905E+03  0.60304604832E+03  0.12542339591E+04  0.14469071055E+04  0.46999998093E+01 0.  1.
       -5    1    3    3    0  502  0.39591756905E+03 -0.60304604832E+03 -0.81315966406E+03  0.10870446114E+04  0.46999998093E+01 0. -1.
</event>
<event>
 5   0  0.6477703E-06  0.2497336E+04  0.7818609E-02  0.8403935E-01
        1   -1    0    0  501    0  0.00000000000E+00  0.00000000000E+00  0.16214356252E+04  0.16214356252E+04  0.50400001928E-02 0. -1.
       -1   -1    0    0    0  501  0.00000000000E+00  0.00000000000E+00 -0.96159926135E+03  0.96159926136E+03  0.50400001928E-02 0.  1.
    10030    2    1    2    0    0  0.00000000000E+00  0.00000000000E+00  0.65983636388E+03  0.25830348866E+04  0.24973356199E+04 0.  0.
        5    1    3    3  502    0  0.39924028829E+03 -0.28952284100E+03  0.15164249969E+04  0.15946106561E+04  0.46999998093E+01 0. -1.
       -5    1    3    3    0  502 -0.39924028829E+03  0.28952284100E+03 -0.85658863302E+03  0.98842423052E+03  0.46999998093E+01 0.  1.
</event>
<event>
 5   0  0.5164625E-06  0.2492506E+04  0.7818609E-02  0.8405660E-01
       -3   -1    0    0    0  501  0.00000000000E+00  0.00000000000E+00  0.17206552599E+04  0.17206552628E+04  0.10100000352E+00 0. -1.
        3   -1    0    0  501    0  0.00000000000E+00  0.00000000000E+00 -0.90264818386E+03  0.90264818951E+03  0.10100000352E+00 0.  1.
    10030    2    1    2    0    0  0.00000000000E+00  0.00000000000E+00  0.81800707601E+03  0.26233034523E+04  0.24925058529E+04 0.  0.
        3    1    3    3  502    0  0.29301245801E+03  0.38755131560E+03 -0.79886796050E+03  0.93500927872E+03  0.10100000352E+00 0.  1.
       -3    1    3    3    0  502 -0.29301245801E+03 -0.38755131560E+03  0.16168750365E+04  0.16882941736E+04  0.10100000352E+00 0. -1.
</event>
<event>
 5   0  0.1501947E-05  0.2481266E+04  0.7818609E-02  0.8409690E-01
        2   -1    0    0  501    0  0.00000000000E+00  0.00000000000E+00  0.16458171934E+04  0.16458171934E+04  0.25500000920E-02 0. -1.
       -2   -1    0    0    0  501  0.00000000000E+00  0.00000000000E+00 -0.93520085178E+03  0.93520085179E+03  0.25500000920E-02 0.  1.
    10030    2    1    2    0    0  0.00000000000E+00  0.00000000000E+00  0.71061634158E+03  0.25810180452E+04  0.24812655167E+04 0.  0.
        3    1    3    3  502    0 -0.68478603838E+03  0.27274626070E+02  0.14310472306E+04  0.15866858574E+04  0.10100000352E+00 0. -1.
       -3    1    3    3    0  502  0.68478603838E+03 -0.27274626070E+02 -0.72043088902E+03  0.99433218777E+03  0.10100000352E+00 0.  1.
</event>
<event>
 5   0  0.6477703E-06  0.2508020E+04  0.7818609E-02  0.8400134E-01
        1   -1    0    0  501    0  0.00000000000E+00  0.00000000000E+00  0.28502954273E+04  0.28502954273E+04  0.50400001928E-02 0. -1.
       -1   -1    0    0    0  501  0.00000000000E+00  0.00000000000E+00 -0.55171169314E+03  0.55171169317E+03  0.50400001928E-02 0.  1.
    10030    2    1    2    0    0  0.00000000000E+00  0.00000000000E+00  0.22985837342E+04  0.34020071205E+04  0.25080201883E+04 0.  0.
        5    1    3    3  502    0 -0.77787199015E+03  0.87333193232E+03  0.17630403103E+04  0.21156858753E+04  0.46999998093E+01 0. -1.
       -5    1    3    3    0  502  0.77787199015E+03 -0.87333193232E+03  0.53554342387E+03  0.12863212452E+04  0.46999998093E+01 0.  1.
</event>
<event>
 5   0  0.6477703E-06  0.2493340E+04  0.7818609E-02  0.8405362E-01
       -1   -1    0    0    0  501  0.00000000000E+00  0.00000000000E+00  0.10319751288E+04  0.10319751288E+04  0.50400001928E-02 0.  1.
        1   -1    0    0  501    0  0.00000000000E+00  0.00000000000E+00 -0.15060301552E+04  0.15060301552E+04  0.50400001928E-02 0. -1.
    10030    2    1    2    0    0  0.00000000000E+00  0.00000000000E+00 -0.47405502636E+03  0.25380052840E+04  0.24933396587E+04 0.  0.
        5    1    3    3  502    0 -0.47663798458E+03  0.29033686753E+03  0.89769973649E+03  0.10570554252E+04  0.46999998093E+01 0.  1.
       -5    1    3    3    0  502  0.47663798458E+03 -0.29033686753E+03 -0.13717547628E+04  0.14809498588E+04  0.46999998093E+01 0. -1.
</event>
<event>
 5   0  0.1501947E-05  0.2470434E+04  0.7818609E-02  0.8413595E-01
        2   -1    0    0  501    0  0.00000000000E+00  0.00000000000E+00  0.11457503667E+04  0.11457503667E+04  0.25500000920E-02 0.  1.
       -2   -1    0    0    0  501  0.00000000000E+00  0.00000000000E+00 -0.13316699496E+04  0.13316699496E+04  0.25500000920E-02 0. -1.
    10030    2    1    2    0    0  0.00000000000E+00  0.00000000000E+00 -0.18591958290E+03  0.24774203164E+04  0.24704342397E+04 0.  0.
        3    1    3    3  502    0  0.11791886280E+04 -0.93340806572E-02  0.27587847709E+03  0.12110304558E+04  0.10100000352E+00 0.  1.
       -3    1    3    3    0  502 -0.11791886280E+04  0.93340806572E-02 -0.46179806000E+03  0.12663898606E+04  0.10100000352E+00 0. -1.
</event>
<event>
 5   0  0.1572732E-05  0.2506809E+04  0.7818609E-02  0.8400564E-01
       -2   -1    0    0    0  501  0.00000000000E+00  0.00000000000E+00  0.92236880094E+03  0.92236880095E+03  0.25500000920E-02 0.  1.
        2   -1    0    0  501    0  0.00000000000E+00  0.00000000000E+00 -0.17032484547E+04  0.17032484547E+04  0.25500000920E-02 0. -1.
    10030    2    1    2    0    0  0.00000000000E+00  0.00000000000E+00 -0.78087965374E+03  0.26256172556E+04  0.25068093145E+04 0.  0.
        1    1    3    3  502    0 -0.21381960446E+03  0.61025090720E+03  0.73417966554E+03  0.97833776085E+03  0.50400001928E-02 0.  1.
       -1    1    3    3    0  502  0.21381960446E+03 -0.61025090720E+03 -0.15150593193E+04  0.16472794948E+04  0.50400001928E-02 0. -1.
</event>
<event>
 5   0  0.1468512E-05  0.2488595E+04  0.7818609E-02  0.8407060E-01
        2   -1    0    0  501    0  0.00000000000E+00  0.00000000000E+00  0.12771298918E+04  0.12771298918E+04  0.25500000920E-02 0. -1.
       -2   -1    0    0    0  501  0.00000000000E+00  0.00000000000E+00 -0.12123095195E+04  0.12123095195E+04  0.25500000920E-02 0.  1.
    10030    2    1    2    0    0  0.00000000000E+00  0.00000000000E+00  0.64820372317E+02  0.24894394113E+04  0.24885953672E+04 0.  0.
        4    1    3    3  502    0  0.11536323939E+04  0.12361144836E+03 -0.41732835406E+03  0.12330093505E+04  0.12699999809E+01 0.  1.
       -4    1    3    3    0  502 -0.11536323939E+04 -0.12361144836E+03  0.48214872638E+03  0.12564300608E+04  0.12699999809E+01 0. -1.
</event>
<event>
 5   0  0.6104486E-06  0.2495716E+04  0.7818609E-02  0.8404513E-01
        1   -1    0    0  501    0  0.00000000000E+00  0.00000000000E+00  0.17674431809E+04  0.17674431809E+04  0.50400001928E-02 0. -1.
       -1   -1    0    0    0  501  0.00000000000E+00  0.00000000000E+00 -0.88101811879E+03  0.88101811880E+03  0.50400001928E-02 0.  1.
    10030    2    1    2    0    0  0.00000000000E+00  0.00000000000E+00  0.88642506215E+03  0.26484612997E+04  0.24957159024E+04 0.  0.
        2    1    3    3  502    0 -0.26342992495E+03 -0.37528372518E+03 -0.78838492706E+03  0.91202192571E+03  0.25500000920E-02 0.  1.
       -2    1    3    3    0  502  0.26342992495E+03  0.37528372518E+03  0.16748099892E+04  0.17364393740E+04  0.25500000920E-02 0. -1.
</event>
<event>
 5   0  0.1550483E-05  0.2428453E+04  0.7818609E-02  0.8428927E-01
        2   -1    0    0  501    0  0.00000000000E+00  0.00000000000E+00  0.27446424372E+04  0.27446424372E+04  0.25500000920E-02 0.  1.
       -2   -1    0    0    0  501  0.00000000000E+00  0.00000000000E+00 -0.53717223266E+03  0.53717223267E+03  0.25500000920E-02 0. -1.
    10030    2    1    2    0    0  0.00000000000E+00  0.00000000000E+00  0.22074702045E+04  0.32818146699E+04  0.24284527633E+04 0.  0.
        5    1    3    3  502    0  0.20268028334E+03 -0.86764805067E+03 -0.11012365690E+02  0.89108686405E+03  0.46999998093E+01 0. -1.
       -5    1    3    3    0  502 -0.20268028334E+03  0.86764805067E+03  0.22184825702E+04  0.23907278058E+04  0.46999998093E+01 0.  1.
</event>
<event>
 5   0  0.6346420E-06  0.2496376E+04  0.7818609E-02  0.8404278E-01
       -1   -1    0    0    0  501  0.00000000000E+00  0.00000000000E+00  0.88819722012E+03  0.88819722013E+03  0.50400001928E-02 0.  1.
        1   -1    0    0  501    0  0.00000000000E+00  0.00000000000E+00 -0.17540845559E+04  0.17540845559E+04  0.50400001928E-02 0. -1.
    10030    2    1    2    0    0  0.00000000000E+00  0.00000000000E+00 -0.86588733573E+03  0.26422817760E+04  0.24963757941E+04 0.  0.
        4    1    3    3  502    0 -0.19829773404E+02  0.54407951020E+02  0.88677393068E+03  0.88866363833E+03  0.12699999809E+01 0.  1.
       -4    1    3    3    0  502  0.19829773404E+02 -0.54407951020E+02 -0.17526612664E+04  0.17536181377E+04  0.12699999809E+01 0. -1.
</event>
<event>
 5   0  0.1572732E-05  0.2504932E+04  0.7818609E-02  0.8401231E-01
        2   -1    0    0  501    0  0.00000000000E+00  0.00000000000E+00  0.12012173004E+04  0.12012173004E+04  0.25500000920E-02 0. -1.
       -2   -1    0    0    0  501  0.00000000000E+00  0.00000000000E+00 -0.13059007452E+04  0.13059007452E+04  0.25500000920E-02 0.  1.
    10030    2    1    2    0    0  0.00000000000E+00  0.00000000000E+00 -0.10468344481E+03  0.25071180457E+04  0.25049315902E+04 0.  0.
        1    1    3    3  502    0 -0.23875187906E+03  0.23011358515E+03  0.11564855886E+04  0.12030850504E+04  0.50400001928E-02 0. -1.
       -1    1    3    3    0  502  0.23875187906E+03 -0.23011358515E+03 -0.12611690334E+04  0.13040329953E+04  0.50400001928E-02 0.  1.
</event>
<event>
 5   0  0.1550483E-05  0.2509038E+04  0.7818609E-02  0.8399773E-01
       -2   -1    0    0    0  501  0.00000000000E+00  0.00000000000E+00  0.25308026724E+04  0.25308026724E+04  0.25500000920E-02 0.  1.
        2   -1    0    0  501    0  0.00000000000E+00  0.00000000000E+00 -0.62186521489E+03  0.62186521489E+03  0.25500000920E-02 0. -1.
    10030    2    1    2    0    0  0.00000000000E+00  0.00000000000E+00  0.19089374575E+04  0.31526678873E+04  0.25090381804E+04 0.  0.
        5    1    3    3  502    0 -0.12511907524E+04  0.71725164622E+02  0.10252508800E+04  0.16191924700E+04  0.46999998093E+01 0. -1.
       -5    1    3    3    0  502  0.12511907524E+04 -0.71725164622E+02  0.88368657756E+03  0.15334754173E+04  0.46999998093E+01 0.  1.
</event>
<event>
 5   0  0.1526824E-05  0.2454678E+04  0.7818609E-02  0.8419312E-01
       -2   -1    0    0    0  501  0.00000000000E+00  0.00000000000E+00  0.11963390341E+04  0.11963390341E+04  0.25500000920E-02 0. -1.
        2   -1    0    0  501    0  0.00000000000E+00  0.00000000000E+00 -0.12591419121E+04  0.12591419121E+04  0.25500000920E-02 0.  1.
    10030    2    1    2    0    0  0.00000000000E+00  0.00000000000E+00 -0.62802878010E+02  0.24554809463E+04  0.24546776725E+04 0.  0.
        2    1    3    3  502    0  0.17896214759E+03  0.74833478650E+03 -0.98791946142E+03  0.12522049613E+04  0.25500000920E-02 0.  1.
       -2    1    3    3    0  502 -0.17896214759E+03 -0.74833478650E+03  0.92511658341E+03  0.12032759849E+04  0.25500000920E-02 0. -1.
</event>
<event>
 5   0  0.6290861E-06  0.2548539E+04  0.7818609E-02  0.8385895E-01
        1   -1    0    0  501    0  0.00000000000E+00  0.00000000000E+00  0.15677957283E+04  0.15677957283E+04  0.50400001928E-02 0. -1.
       -1   -1    0    0    0  501  0.00000000000E+00  0.00000000000E+00 -0.10356975072E+04  0.10356975072E+04  0.50400001928E-02 0.  1.
    10030    2    1    2    0    0  0.00000000000E+00  0.00000000000E+00  0.53209822110E+03  0.26034932355E+04  0.25485385048E+04 0.  0.
        1    1    3    3  502    0  0.11445431909E+04  0.14782567982E+03  0.81800586104E+03  0.14145547484E+04  0.50400001928E-02 0. -1.
       -1    1    3    3    0  502 -0.11445431909E+04 -0.14782567982E+03 -0.28590763994E+03  0.11889384871E+04  0.50400001928E-02 0.  1.
</event>
<event>
 5   0  0.6346420E-06  0.2486109E+04  0.7818609E-02  0.8407951E-01
       -1   -1    0    0    0  501  0.00000000000E+00  0.00000000000E+00  0.58858213113E+03  0.58858213115E+03  0.50400001928E-02 0. -1.
        1   -1    0    0  501    0  0.00000000000E+00  0.00000000000E+00 -0.26252650320E+04  0.26252650320E+04  0.50400001928E-02 0.  1.
    10030    2    1    2    0    0  0.00000000000E+00  0.00000000000E+00 -0.20366829009E+04  0.32138471632E+04  0.24861086761E+04 0.  0.
        4    1    3    3  502    0 -0.87355448390E+03 -0.72712833407E+03 -0.36763934415E+03  0.11945598984E+04  0.12699999809E+01 0. -1.
       -4    1    3    3    0  502  0.87355448390E+03  0.72712833407E+03 -0.16690435568E+04  0.20192872648E+04  0.12699999809E+01 0.  1.
</event>
<event>
 5   0  0.1526824E-05  0.2491915E+04  0.7818609E-02  0.8405871E-01
       -2   -1    0    0    0  501  0.00000000000E+00  0.00000000000E+00  0.15443822845E+04  0.15443822845E+04  0.25500000920E-02 0. -1.
        2   -1    0    0  501    0  0.00000000000E+00  0.00000000000E+00 -0.10051983710E+04  0.10051983710E+04  0.25500000920E-02 0.  1.
    10030    2    1    2    0    0  0.00000000000E+00  0.00000000000E+00  0.53918391356E+03  0.25495806555E+04  0.24919153730E+04 0.  0.
        2    1    3    3  502    0  0.98254643482E+03  0.65785291400E+03  0.67141759169E+03  0.13597681918E+04  0.25500000920E-02 0. -1.
       -2    1    3    3    0  502 -0.98254643482E+03 -0.65785291400E+03 -0.13223367812E+03  0.11898124637E+04  0.25500000920E-02 0.  1.
</event>
<event>
 5   0  0.1550483E-05  0.2463717E+04  0.7818609E-02  0.8416027E-01
       -2   -1    0    0    0  501  0.00000000000E+00  0.00000000000E+00  0.12231686093E+04  0.12231686093E+04  0.25500000920E-02 0.  1.
        2   -1    0    0  501    0  0.00000000000E+00  0.00000000000E+00 -0.12406097575E+04  0.12406097575E+04  0.25500000920E-02 0. -1.
    10030    2    1    2    0    0  0.00000000000E+00  0.00000000000E+00 -0.17441148148E+02  0.24637783668E+04  0.24637166328E+04 0.  0.
        5    1    3    3  502    0  0.71007116146E+03 -0.14297192098E+03  0.98770330764E+03  0.12248354740E+04  0.46999998093E+01 0.  1.
       -5    1    3    3    0  502 -0.71007116146E+03  0.14297192098E+03 -0.10051444558E+04  0.12389428928E+04  0.46999998093E+01 0. -1.
</event>
<event>
 5   0  0.6290861E-06  0.2486332E+04  0.7818609E-02  0.8407871E-01
       -1   -1    0    0    0  501  0.00000000000E+00  0.00000000000E+00  0.14453779587E+04  0.14453779587E+04  0.50400001928E-02 0.  1.
        1   -1    0    0  501    0  0.00000000000E+00  0.00000000000E+00 -0.10692440685E+04  0.10692440686E+04  0.50400001928E-02 0. -1.
    10030    2    1    2    0    0  0.00000000000E+00  0.00000000000E+00  0.37613389013E+03  0.25146220272E+04  0.24863320849E+04 0.  0.
        1    1    3    3  502    0 -0.96212022853E+03 -0.13162189204E+03 -0.59694897756E+03  0.11398893536E+04  0.50400001928E-02 0. -1.
       -1    1    3    3    0  502  0.96212022853E+03  0.13162189204E+03  0.97308286769E+03  0.13747326737E+04  0.50400001928E-02 0.  1.
</event>
<event>
 5   0  0.6104486E-06  0.2437742E+04  0.7818609E-02  0.8425507E-01
       -1   -1    0    0    0  501  0.00000000000E+00  0.00000000000E+00  0.12756964365E+04  0.12756964365E+04  0.50400001928E-02 0. -1.
        1   -1    0    0  501    0  0.00000000000E+00  0.00000000000E+00 -0.11645765079E+04  0.11645765079E+04  0.50400001928E-02 0.  1.
    10030    2    1    2    0    0  0.00000000000E+00  0.00000000000E+00  0.11111992854E+03  0.24402729444E+04  0.24377416608E+04 0.  0.
        2    1    3    3  502    0  0.89957248782E+03  0.51373741718E+03 -0.58736023782E+03  0.11908605475E+04  0.25500000920E-02 0.  1.
       -2    1    3    3    0  502 -0.89957248782E+03 -0.51373741718E+03  0.69848016636E+03  0.12494123969E+04  0.25500000920E-02 0. -1.
</event>
<event>
 5   0  0.1468512E-05  0.2498681E+04  0.7818609E-02  0.8403456E-01
        2   -1    0    0  501    0  0.00000000000E+00  0.00000000000E+00  0.27028383661E+04  0.27028383661E+04  0.25500000920E-02 0. -1.
       -2   -1    0    0    0  501  0.00000000000E+00  0.00000000000E+00 -0.57748608655E+03  0.57748608656E+03  0.25500000920E-02 0.  1.
    10030    2    1    2    0    0  0.00000000000E+00  0.00000000000E+00  0.21253522795E+04  0.32803244526E+04  0.24986808925E+04 0.  0.
        4    1    3    3  502    0  0.54121226307E+03 -0.98017354467E+02 -0.40998760606E+03  0.68600988732E+03  0.12699999809E+01 0.  1.
       -4    1    3    3    0  502 -0.54121226307E+03  0.98017354467E+02  0.25353398856E+04  0.25943145653E+04  0.12699999809E+01 0. -1.
</event>
<event>
 5   0  0.5164625E-06  0.2494233E+04  0.7818609E-02  0.8405043E-01
       -3   -1    0    0    0  501  0.00000000000E+00  0.00000000000E+00  0.71071948033E+03  0.71071948751E+03  0.10100000352E+00 0. -1.
        3   -1    0    0  501    0  0.00000000000E+00  0.00000000000E+00 -0.21883445601E+04  0.21883445625E+04  0.10100000352E+00 0.  1.
    10030    2    1    2    0    0  0.00000000000E+00  0.00000000000E+00 -0.14776250798E+04  0.28990640500E+04  0.24942326454E+04 0.  0.
        2    1    3    3  502    0 -0.34857230201E+03 -0.11813155753E+04 -0.51137432141E+03  0.13336089512E+04  0.25500000920E-02 0. -1.
       -2    1    3    3    0  502  0.34857230201E+03  0.11813155753E+04 -0.96625075840E+03  0.15654550988E+04  0.25500000920E-02 0.  1.
</event>
<event>
 5   0  0.1468512E-05  0.2531840E+04  0.7818609E-02  0.8391729E-01
        2   -1    0    0  501    0  0.00000000000E+00  0.00000000000E+00  0.14944531556E+04  0.14944531556E+04  0.25500000920E-02 0. -1.
       -2   -1    0    0    0  501  0.00000000000E+00  0.00000000000E+00 -0.10723343249E+04  0.10723343249E+04  0.25500000920E-02 0.  1.
    10030    2    1    2    0    0  0.00000000000E+00  0.00000000000E+00  0.42211883068E+03  0.25667874805E+04  0.25318399758E+04 0.  0.
        4    1    3    3  502    0  0.13424782174E+03 -0.29276782893E+03  0.14522196898E+04  0.14875076873E+04  0.12699999809E+01 0. -1.
       -4    1    3    3    0  502 -0.13424782174E+03  0.29276782893E+03 -0.10301008591E+04  0.10792797933E+04  0.12699999809E+01 0.  1.
</event>
<event>
 5   0  0.1468512E-05  0.2545272E+04  0.7818609E-02  0.8387032E-01
       -2   -1    0    0    0  501  0.00000000000E+00  0.00000000000E+00  0.99589891628E+03  0.99589891628E+03  0.25500000920E-02 0.  1.
        2   -1    0    0  501    0  0.00000000000E+00  0.00000000000E+00 -0.16262725008E+04  0.16262725008E+04  0.25500000920E-02 0. -1.
    10030    2    1    2    0    0  0.00000000000E+00  0.00000000000E+00 -0.63037358450E+03  0.26221714171E+04  0.25452724971E+04 0.  0.
        4    1    3    3  502    0  0.35769083075E+03  0.67248216700E+03 -0.13655117095E+04  0.15635852510E+04  0.12699999809E+01 0. -1.
       -4    1    3    3    0  502 -0.35769083075E+03 -0.67248216700E+03  0.73513812500E+03  0.10585861661E+04  0.12699999809E+01 0.  1.
</event>
<event>
 5   0  0.1501947E-05  0.2563951E+04  0.7818609E-02  0.8380550E-01
        2   -1    0    0  501    0  0.00000000000E+00  0.00000000000E+00  0.57107789955E+03  0.57107789955E+03  0.25500000920E-02 0. -1.
       -2   -1    0    0    0  501  0.00000000000E+00  0.00000000000E+00 -0.28778229288E+04  0.28778229288E+04  0.25500000920E-02 0.  1.
    10030    2    1    2    0    0  0.00000000000E+00  0.00000000000E+00 -0.23067450292E+04  0.34489008283E+04  0.25639509149E+04 0.  0.
        3    1    3    3  502    0 -0.36584988906E+03 -0.99188994370E+03 -0.21287407231E+04  0.23768106526E+04  0.10100000352E+00 0. -1.
       -3    1    3    3    0  502  0.36584988906E+03  0.99188994370E+03 -0.17800430610E+03  0.10720901757E+04  0.10100000352E+00 0.  1.
</event>
<event>
 5   0  0.6104486E-06  0.2511032E+04  0.7818609E-02  0.8399066E-01
       -1   -1    0    0    0  501  0.00000000000E+00  0.00000000000E+00  0.86659182126E+03  0.86659182128E+03  0.50400001928E-02 0. -1.
        1   -1    0    0  501    0  0.00000000000E+00  0.00000000000E+00 -0.18189877761E+04  0.18189877761E+04  0.50400001928E-02 0.  1.
    10030    2    1    2    0    0  0.00000000000E+00  0.00000000000E+00 -0.95239595486E+03  0.26855795974E+04  0.25110316046E+04 0.  0.
        2    1    3    3  502    0 -0.36220661333E+02  0.16677763656E+03 -0.18065241208E+04  0.18145677489E+04  0.25500000920E-02 0.  1.
       -2    1    3    3    0  502  0.36220661333E+02 -0.16677763656E+03  0.85412816594E+03  0.87101184849E+03  0.25500000920E-02 0. -1.
</event>
<event>
 5   0  0.6290861E-06  0.2361864E+04  0.7818609E-02  0.8453921E-01
        1   -1    0    0  501    0  0.00000000000E+00  0.00000000000E+00  0.21994341541E+04  0.21994341541E+04  0.50400001928E-02 0.  1.
       -1   -1    0    0    0  501  0.00000000000E+00  0.00000000000E+00 -0.63407244609E+03  0.63407244611E+03  0.50400001928E-02 0. -1.
    10030    2    1    2    0    0  0.00000000000E+00  0.00000000000E+00  0.15653617080E+04  0.28335066002E+04  0.23618641740E+04 0.  0.
        1    1    3    3  502    0  0.66814771343E+03  0.19773984623E+03  0.19265330940E+04  0.20486708315E+04  0.50400001928E-02 0.  1.
       -1    1    3    3    0  502 -0.66814771343E+03 -0.19773984623E+03 -0.36117138596E+03  0.78483576869E+03  0.50400001928E-02 0. -1.
</event>
<event>
 5   0  0.6477703E-06  0.2496315E+04  0.7818609E-02  0.8404299E-01
       -1   -1    0    0    0  501  0.00000000000E+00  0.00000000000E+00  0.11966917671E+04  0.11966917671E+04  0.50400001928E-02 0.  1.
        1   -1    0    0  501    0  0.00000000000E+00  0.00000000000E+00 -0.13018368818E+04  0.13018368818E+04  0.50400001928E-02 0. -1.
    10030    2    1    2    0    0  0.00000000000E+00  0.00000000000E+00 -0.10514511470E+03  0.24985286490E+04  0.24963152675E+04 0.  0.
        5    1    3    3  502    0 -0.21302712295E+03  0.12295539007E+04 -0.78902515193E+02  0.12503723632E+04  0.46999998093E+01 0. -1.
       -5    1    3    3    0  502  0.21302712295E+03 -0.12295539007E+04 -0.26242599508E+02  0.12481562858E+04  0.46999998093E+01 0.  1.
</event>
<event>
 5   0  0.1572732E-05  0.2484039E+04  0.7818609E-02  0.8408694E-01
        2   -1    0    0  501    0  0.00000000000E+00  0.00000000000E+00  0.19667632665E+04  0.19667632666E+04  0.25500000920E-02 0.  1.
       -2   -1    0    0    0  501  0.00000000000E+00  0.00000000000E+00 -0.78434082884E+03  0.78434082884E+03  0.25500000920E-02 0. -1.
    10030    2    1    2    0    0  0.00000000000E+00  0.00000000000E+00  0.11824224377E+04  0.27511040954E+04  0.24840392353E+04 0.  0.
        1    1    3    3  502    0 -0.89753343082E+03  0.70968541289E+03  0.56163440296E+02  0.11455889214E+04  0.50400001928E-02 0. -1.
       -1    1    3    3    0  502  0.89753343082E+03 -0.70968541289E+03  0.11262589974E+04  0.16055151740E+04  0.50400001928E-02 0.  1.
</event>
<event>
 5   0  0.1550483E-05  0.2507622E+04  0.7818609E-02  0.8400275E-01
        2   -1    0    0  501    0  0.00000000000E+00  0.00000000000E+00  0.30661435923E+04  0.30661435923E+04  0.25500000920E-02 0.  1.
       -2   -1    0    0    0  501  0.00000000000E+00  0.00000000000E+00 -0.51270967124E+03  0.51270967125E+03  0.25500000920E-02 0. -1.
    10030    2    1    2    0    0  0.00000000000E+00  0.00000000000E+00  0.25534339210E+04  0.35788532635E+04  0.25076215609E+04 0.  0.
        5    1    3    3  502    0  0.37192045508E+03  0.30568772526E+03  0.29289630615E+04  0.29682682689E+04  0.46999998093E+01 0.  1.
       -5    1    3    3    0  502 -0.37192045508E+03 -0.30568772526E+03 -0.37552914052E+03  0.61058499462E+03  0.46999998093E+01 0. -1.
</event>
<event>
 5   0  0.1468512E-05  0.2499337E+04  0.7818609E-02  0.8403222E-01
       -2   -1    0    0    0  501  0.00000000000E+00  0.00000000000E+00  0.13221888206E+04  0.13221888206E+04  0.25500000920E-02 0. -1.
        2   -1    0    0  501    0  0.00000000000E+00  0.00000000000E+00 -0.11811260430E+04  0.11811260431E+04  0.25500000920E-02 0.  1.
    10030    2    1    2    0    0  0.00000000000E+00  0.00000000000E+00  0.14106277754E+03  0.25033148636E+04  0.24993372320E+04 0.  0.
        4    1    3    3  502    0 -0.63042754044E+03 -0.22426306665E+03 -0.98658055281E+03  0.11920887580E+04  0.12699999809E+01 0.  1.
       -4    1    3    3    0  502  0.63042754044E+03  0.22426306665E+03  0.11276433304E+04  0.13112261057E+04  0.12699999809E+01 0. -1.
</event>
<event>
 5   0  0.6477703E-06  0.2469551E+04  0.7818609E-02  0.8413914E-01
       -1   -1    0    0    0  501  0.00000000000E+00  0.00000000000E+00  0.10553423658E+04  0.10553423659E+04  0.50400001928E-02 0.  1.
        1   -1    0    0  501    0  0.00000000000E+00  0.00000000000E+00 -0.14447161426E+04  0.14447161426E+04  0.50400001928E-02 0. -1.
    10030    2    1    2    0    0  0.00000000000E+00  0.00000000000E+00 -0.38937377676E+03  0.25000585085E+04  0.24695506894E+04 0.  0.
        5    1    3    3  502    0  0.44334264067E+03 -0.57004737695E+03 -0.12086293125E+04  0.14079465949E+04  0.46999998093E+01 0. -1.
       -5    1    3    3    0  502 -0.44334264067E+03  0.57004737695E+03  0.81925553572E+03  0.10921119136E+04  0.46999998093E+01 0.  1.
</event>
<event>
 5   0  0.6290861E-06  0.2503947E+04  0.7818609E-02  0.8401581E-01
       -1   -1    0    0    0  501  0.00000000000E+00  0.00000000000E+00  0.93565418770E+03  0.93565418771E+03  0.50400001928E-02 0. -1.
        1   -1    0    0  501    0  0.00000000000E+00  0.00000000000E+00 -0.16752316600E+04  0.16752316600E+04  0.50400001928E-02 0.  1.
    10030    2    1    2    0    0  0.00000000000E+00  0.00000000000E+00 -0.73957747234E+03  0.26108858478E+04  0.25039468989E+04 0.  0.
        1    1    3    3  502    0 -0.14616087962E+03 -0.51276682242E+03  0.81134911427E+03  0.97086569728E+03  0.50400001928E-02 0. -1.
       -1    1    3    3    0  502  0.14616087962E+03  0.51276682242E+03 -0.15509265866E+04  0.16400201505E+04  0.50400001928E-02 0.  1.
</event>
<event>
 5   0  0.6104486E-06  0.2516541E+04  0.7818609E-02  0.8397116E-01
        1   -1    0    0  501    0  0.00000000000E+00  0.00000000000E+00  0.14518249668E+04  0.14518249669E+04  0.50400001928E-02 0.  1.
       -1   -1    0    0    0  501  0.00000000000E+00  0.00000000000E+00 -0.10905205535E+04  0.10905205535E+04  0.50400001928E-02 0. -1.
    10030    2    1    2    0    0  0.00000000000E+00  0.00000000000E+00  0.36130441335E+03  0.25423455203E+04  0.25165412506E+04 0.  0.
        2    1    3    3  502    0  0.43571100987E+03 -0.14782204590E+03  0.13637925596E+04  0.14393142766E+04  0.25500000920E-02 0.  1.
       -2    1    3    3    0  502 -0.43571100987E+03  0.14782204590E+03 -0.10024881462E+04  0.11030312437E+04  0.25500000920E-02 0. -1.
</event>
<event>
 5   0  0.6104486E-06  0.2503637E+04  0.7818609E-02  0.8401691E-01
       -1   -1    0    0    0  501  0.00000000000E+00  0.00000000000E+00  0.11674875388E+04  0.11674875388E+04  0.50400001928E-02 0.  1.
        1   -1    0    0  501    0  0.00000000000E+00  0.00000000000E+00 -0.13422411432E+04  0.13422411433E+04  0.50400001928E-02 0. -1.
    10030    2    1    2    0    0  0.00000000000E+00  0.00000000000E+00 -0.17475360446E+03  0.25097286820E+04  0.25036372012E+04 0.  0.
        2    1    3    3  502    0  0.91318131013E+03 -0.52980155801E+03 -0.76166487803E+03  0.13018153412E+04  0.25500000920E-02 0. -1.
       -2    1    3    3    0  502 -0.91318131013E+03  0.52980155801E+03  0.58691127357E+03  0.12079133409E+04  0.25500000920E-02 0.  1.
</event>
<event>
 5   0  0.6477703E-06  0.2500921E+04  0.7818609E-02  0.8402657E-01
        1   -1    0    0  501    0  0.00000000000E+00  0.00000000000E+00  0.12266754844E+04  0.12266754844E+04  0.50400001928E-02 0. -1.
       -1   -1    0    0    0  501  0.00000000000E+00  0.00000000000E+00 -0.12747070158E+04  0.12747070158E+04  0.50400001928E-02 0.  1.
    10030    2    1    2    0    0  0.00000000000E+00  0.00000000000E+00 -0.48031531420E+02  0.25013825002E+04  0.25009213071E+04 0.  0.
        5    1    3    3  502    0  0.64489673186E+03 -0.96624295056E+03 -0.48682403887E+03  0.12595780917E+04  0.46999998093E+01 0.  1.
       -5    1    3    3    0  502 -0.64489673186E+03  0.96624295056E+03  0.43879250745E+03  0.12418044085E+04  0.46999998093E+01 0. -1.
</event>
<event>
 5   0  0.1572732E-05  0.2307238E+04  0.7818609E-02  0.8475073E-01
       -2   -1    0    0    0  501  0.00000000000E+00  0.00000000000E+00  0.55575909556E+03  0.55575909557E+03  0.25500000920E-02 0.  1.
        2   -1    0    0  501    0  0.00000000000E+00  0.00000000000E+00 -0.23946282670E+04  0.23946282670E+04  0.25500000920E-02 0. -1.
    10030    2    1    2    0    0  0.00000000000E+00  0.00000000000E+00 -0.18388691714E+04  0.29503873625E+04  0.23072376903E+04 0.  0.
        1    1    3    3  502    0  0.56527442253E+03 -0.32565123018E+03 -0.21361011646E+04  0.22334977237E+04  0.50400001928E-02 0. -1.
       -1    1    3    3    0  502 -0.56527442253E+03  0.32565123018E+03  0.29723199316E+03  0.71688963884E+03  0.50400001928E-02 0.  1.
</event>
<event>
 5   0  0.6346420E-06  0.2516795E+04  0.7818609E-02  0.8397026E-01
        1   -1    0    0  501    0  0.00000000000E+00  0.00000000000E+00  0.20470531243E+04  0.20470531243E+04  0.50400001928E-02 0.  1.
       -1   -1    0    0    0  501  0.00000000000E+00  0.00000000000E+00 -0.77358258262E+03  0.77358258263E+03  0.50400001928E-02 0. -1.
    10030    2    1    2    0    0  0.00000000000E+00  0.00000000000E+00  0.12734705417E+04  0.28206357069E+04  0.25167952977E+04 0.  0.
        4    1    3    3  502    0  0.99283301661E+03  0.93982338974E+02 -0.22338964331E+03  0.10219856283E+04  0.12699999809E+01 0. -1.
       -4    1    3    3    0  502 -0.99283301661E+03 -0.93982338974E+02  0.14968601850E+04  0.17986500786E+04  0.12699999809E+01 0.  1.
</event>
<event>
 5   0  0.6290861E-06  0.2499361E+04  0.7818609E-02  0.8403213E-01
        1   -1    0    0  501    0  0.00000000000E+00  0.00000000000E+00  0.13893215522E+04  0.13893215522E+04  0.50400001928E-02 0.  1.
       -1   -1    0    0    0  501  0.00000000000E+00  0.00000000000E+00 -0.11240751303E+04  0.11240751303E+04  0.50400001928E-02 0. -1.
    10030    2    1    2    0    0  0.00000000000E+00  0.00000000000E+00  0.26524642195E+03  0.25133966825E+04  0.24993613623E+04 0.  0.
        1    1    3    3  502    0  0.60690091615E+03  0.53373290401E+01 -0.96591437593E+03  0.11407663173E+04  0.50400001928E-02 0. -1.
       -1    1    3    3    0  502 -0.60690091615E+03 -0.53373290401E+01  0.12311607979E+04  0.13726303652E+04  0.50400001928E-02 0.  1.
</event>
<event>
 5   0  0.1468512E-05  0.2498069E+04  0.7818609E-02  0.8403674E-01
       -2   -1    0    0    0  501  0.00000000000E+00  0.00000000000E+00  0.67999218290E+03  0.67999218290E+03  0.25500000920E-02 0.  1.
        2   -1    0    0  501    0  0.00000000000E+00  0.00000000000E+00 -0.22942721019E+04  0.22942721019E+04  0.25500000920E-02 0. -1.
    10030    2    1    2    0    0  0.00000000000E+00  0.00000000000E+00 -0.16142799190E+04  0.29742642848E+04  0.24980689300E+04 0.  0.
        4    1    3    3  502    0  0.94706206046E+03 -0.61301051607E+03 -0.16887474810E+03  0.11407141327E+04  0.12699999809E+01 0.  1.
       -4    1    3    3    0  502 -0.94706206046E+03  0.61301051607E+03 -0.14454051709E+04  0.18335501521E+04  0.12699999809E+01 0. -1.
</event>
<event>
 5   0  0.6477703E-06  0.2503486E+04  0.7818609E-02  0.8401745E-01
       -1   -1    0    0    0  501  0.00000000000E+00  0.00000000000E+00  0.11544616159E+04  0.11544616159E+04  0.50400001928E-02 0.  1.
        1   -1    0    0  501    0  0.00000000000E+00  0.00000000000E+00 -0.13572214581E+04  0.13572214581E+04  0.50400001928E-02 0. -1.
    10030    2    1    2    0    0  0.00000000000E+00  0.00000000000E+00 -0.20275984218E+03  0.25116830741E+04  0.25034856323E+04 0.  0.
        5    1    3    3  502    0 -0.24585493962E+03  0.11665502549E+04 -0.48414434755E+03  0.12867408394E+04  0.46999998093E+01 0.  1.
       -5    1    3    3    0  502  0.24585493962E+03 -0.11665502549E+04  0.28138450537E+03  0.12249422347E+04  0.46999998093E+01 0. -1.
</event>
<event>
 5   0  0.6477703E-06  0.2495231E+04  0.7818609E-02  0.8404686E-01
        1   -1    0    0  501    0  0.00000000000E+00  0.00000000000E+00  0.17527588758E+04  0.17527588758E+04  0.50400001928E-02 0.  1.
       -1   -1    0    0    0  501  0.00000000000E+00  0.00000000000E+00 -0.88805426703E+03  0.88805426704E+03  0.50400001928E-02 0. -1.
    10030    2    1    2    0    0  0.00000000000E+00  0.00000000000E+00  0.86470460879E+03  0.26408131429E+04  0.24952314512E+04 0.  0.
        5    1    3    3  502    0  0.87345167844E+03  0.51713767254E+03 -0.33534745767E+03  0.10690319052E+04  0.46999998093E+01 0. -1.
       -5    1    3    3    0  502 -0.87345167844E+03 -0.51713767254E+03  0.12000520665E+04  0.15717812377E+04  0.46999998093E+01 0.  1.
</event>
<event>
 5   0  0.6104486E-06  0.2519096E+04  0.7818609E-02  0.8396214E-01
       -1   -1    0    0    0  501  0.00000000000E+00  0.00000000000E+00  0.16933982052E+04  0.16933982052E+04  0.50400001928E-02 0. -1.
        1   -1    0    0  501    0  0.00000000000E+00  0.00000000000E+00 -0.93685049207E+03  0.93685049209E+03  0.50400001928E-02 0.  1.
    10030    2    1    2    0    0  0.00000000000E+00  0.00000000000E+00  0.75654771316E+03  0.26302486973E+04  0.25190958234E+04 0.  0.
        2    1    3    3  502    0  0.93449024898E+03  0.44749686567E+03 -0.36952275514E+03  0.11000329708E+04  0.25500000920E-02 0.  1.
       -2    1    3    3    0  502 -0.93449024898E+03 -0.44749686567E+03  0.11260704683E+04  0.15302157266E+04  0.25500000920E-02 0. -1.
</event>
<event>
 5   0  0.1572732E-05  0.2476130E+04  0.7818609E-02  0.8411539E-01
        2   -1    0    0  501    0  0.00000000000E+00  0.00000000000E+00  0.12998336632E+04  0.12998336632E+04  0.25500000920E-02 0.  1.
       -2   -1    0    0    0  501  0.00000000000E+00  0.00000000000E+00 -0.11792313164E+04  0.11792313164E+04  0.25500000920E-02 0. -1.
    10030    2    1    2    0    0  0.00000000000E+00  0.00000000000E+00  0.12060234680E+03  0.24790649796E+04  0.24761296910E+04 0.  0.
        1    1    3    3  502    0  0.10564873153E+04  0.63126397983E+03  0.19516386911E+03  0.12460933334E+04  0.50400001928E-02 0. -1.
       -1    1    3    3    0  502 -0.10564873153E+04 -0.63126397983E+03 -0.74561522314E+02  0.12329716462E+04  0.50400001928E-02 0.  1.
</event>
<event>
 5   0  0.6346420E-06  0.2692127E+04  0.7818609E-02  0.8337564E-01
        1   -1    0    0  501    0  0.00000000000E+00  0.00000000000E+00  0.18837180344E+04  0.18837180344E+04  0.50400001928E-02 0. -1.
       -1   -1    0    0    0  501  0.00000000000E+00  0.00000000000E+00 -0.96186744459E+03  0.96186744460E+03  0.50400001928E-02 0.  1.
    10030    2    1    2    0    0  0.00000000000E+00  0.00000000000E+00  0.92185058982E+03  0.28455854790E+04  0.26921270788E+04 0.  0.
        4    1    3    3  502    0 -0.55073055294E+03  0.12221260155E+04  0.59033497055E+03  0.14647160578E+04  0.12699999809E+01 0. -1.
       -4    1    3    3    0  502  0.55073055294E+03 -0.12221260155E+04  0.33151561927E+03  0.13808694212E+04  0.12699999809E+01 0.  1.
</event>
<event>
 5   0  0.1572732E-05  0.2513057E+04  0.7818609E-02  0.8398349E-01
       -2   -1    0    0    0  501  0.00000000000E+00  0.00000000000E+00  0.12203174570E+04  0.12203174570E+04  0.25500000920E-02 0. -1.
        2   -1    0    0  501    0  0.00000000000E+00  0.00000000000E+00 -0.12938144210E+04  0.12938144210E+04  0.25500000920E-02 0.  1.
    10030    2    1    2    0    0  0.00000000000E+00  0.00000000000E+00 -0.73496964053E+02  0.25141318780E+04  0.25130573603E+04 0.  0.
        1    1    3    3  502    0  0.70167382651E+03 -0.13618666736E+03 -0.10706173448E+04  0.12872895813E+04  0.50400001928E-02 0.  1.
       -1    1    3    3    0  502 -0.70167382651E+03  0.13618666736E+03  0.99712038073E+03  0.12268422967E+04  0.50400001928E-02 0. -1.
</event>
<event>
 5   0  0.1501947E-05  0.2511544E+04  0.7818609E-02  0.8398885E-01
       -2   -1    0    0    0  501  0.00000000000E+00  0.00000000000E+00  0.10100018119E+04  0.10100018119E+04  0.25500000920E-02 0.  1.
        2   -1    0    0  501    0  0.00000000000E+00  0.00000000000E+00 -0.15613467482E+04  0.15613467482E+04  0.25500000920E-02 0. -1.
    10030    2    1    2    0    0  0.00000000000E+00  0.00000000000E+00 -0.55134493629E+03  0.25713485600E+04  0.25115437839E+04 0.  0.
        3    1    3    3  502    0  0.84701952787E+03  0.69194953013E+03  0.35605087220E+03  0.11502210512E+04  0.10100000352E+00 0.  1.
       -3    1    3    3    0  502 -0.84701952787E+03 -0.69194953013E+03 -0.90739580849E+03  0.14211275088E+04  0.10100000352E+00 0. -1.
</event>
<event>
 5   0  0.1501947E-05  0.2495752E+04  0.7818609E-02  0.8404501E-01
       -2   -1    0    0    0  501  0.00000000000E+00  0.00000000000E+00  0.13970402348E+04  0.13970402348E+04  0.25500000920E-02 0.  1.
        2   -1    0    0  501    0  0.00000000000E+00  0.00000000000E+00 -0.11146378957E+04  0.11146378957E+04  0.25500000920E-02 0. -1.
    10030    2    1    2    0    0  0.00000000000E+00  0.00000000000E+00  0.28240233915E+03  0.25116781305E+04  0.24957515802E+04 0.  0.
        3    1    3    3  502    0  0.21315092204E+03 -0.12149319013E+04 -0.48952036798E+02  0.12344590526E+04  0.10100000352E+00 0. -1.
       -3    1    3    3    0  502 -0.21315092204E+03  0.12149319013E+04  0.33135437595E+03  0.12772190779E+04  0.10100000352E+00 0.  1.
</event>
<event>
 5   0  0.6290861E-06  0.2483023E+04  0.7818609E-02  0.8409059E-01
        1   -1    0    0  501    0  0.00000000000E+00  0.00000000000E+00  0.16549026854E+04  0.16549026854E+04  0.50400001928E-02 0.  1.
       -1   -1    0    0    0  501  0.00000000000E+00  0.00000000000E+00 -0.93138461672E+03  0.93138461674E+03  0.50400001928E-02 0. -1.
    10030    2    1    2    0    0  0.00000000000E+00  0.00000000000E+00  0.72351806869E+03  0.25862873022E+04  0.24830230795E+04 0.  0.
        1    1    3    3  502    0 -0.77787812420E+02 -0.19337639170E+03 -0.91302971932E+03  0.93651942906E+03  0.50400001928E-02 0. -1.
       -1    1    3    3    0  502  0.77787812420E+02  0.19337639170E+03  0.16365477880E+04  0.16497678731E+04  0.50400001928E-02 0.  1.
</event>
<event>
 5   0  0.6477703E-06  0.2491222E+04  0.7818609E-02  0.8406120E-01
        1   -1    0    0  501    0  0.00000000000E+00  0.00000000000E+00  0.19007402201E+04  0.19007402201E+04  0.50400001928E-02 0. -1.
       -1   -1    0    0    0  501  0.00000000000E+00  0.00000000000E+00 -0.81628535067E+03  0.81628535069E+03  0.50400001928E-02 0.  1.
    10030    2    1    2    0    0  0.00000000000E+00  0.00000000000E+00  0.10844548695E+04  0.27170255708E+04  0.24912217060E+04 0.  0.
        5    1    3    3  502    0  0.36123448810E+03  0.25718385771E+03  0.18117295584E+04  0.18652131178E+04  0.46999998093E+01 0. -1.
       -5    1    3    3    0  502 -0.36123448810E+03 -0.25718385771E+03 -0.72727468891E+03  0.85181245306E+03  0.46999998093E+01 0.  1.
</event>
<event>
 5   0  0.1501947E-05  0.2561345E+04  0.7818609E-02  0.8381451E-01
       -2   -1    0    0    0  501  0.00000000000E+00  0.00000000000E+00  0.84075757123E+03  0.84075757123E+03  0.25500000920E-02 0. -1.
        2   -1    0    0  501    0  0.00000000000E+00  0.00000000000E+00 -0.19507662924E+04  0.19507662924E+04  0.25500000920E-02 0.  1.
    10030    2    1    2    0    0  0.00000000000E+00  0.00000000000E+00 -0.11100087212E+04  0.27915238637E+04  0.25613445923E+04 0.  0.
        3    1    3    3  502    0  0.60643505503E+03 -0.81624533321E+02  0.67112967742E+03  0.90820762743E+03  0.10100000352E+00 0. -1.
       -3    1    3    3    0  502 -0.60643505503E+03  0.81624533321E+02 -0.17811383986E+04  0.18833162362E+04  0.10100000352E+00 0.  1.
</event>
<event>
 5   0  0.6477703E-06  0.2507968E+04  0.7818609E-02  0.8400152E-01
       -1   -1    0    0    0  501  0.00000000000E+00  0.00000000000E+00  0.99994379782E+03  0.99994379783E+03  0.50400001928E-02 0.  1.
        1   -1    0    0  501    0  0.00000000000E+00  0.00000000000E+00 -0.15725647217E+04  0.15725647217E+04  0.50400001928E-02 0. -1.
    10030    2    1    2    0    0  0.00000000000E+00  0.00000000000E+00 -0.57262092386E+03  0.25725085195E+04  0.25079683731E+04 0.  0.
        5    1    3    3  502    0  0.16206462698E+03  0.72514111774E+03  0.74981276090E+03  0.10556210733E+04  0.46999998093E+01 0.  1.
       -5    1    3    3    0  502 -0.16206462698E+03 -0.72514111774E+03 -0.13224336848E+04  0.15168874462E+04  0.46999998093E+01 0. -1.
</event>
<event>
 5   0  0.1526824E-05  0.2502662E+04  0.7818609E-02  0.8402038E-01
        2   -1    0    0  501    0  0.00000000000E+00  0.00000000000E+00  0.10258985189E+04  0.10258985189E+04  0.25500000920E-02 0.  1.
       -2   -1    0    0    0  501  0.00000000000E+00  0.00000000000E+00 -0.15263002847E+04  0.15263002847E+04  0.25500000920E-02 0. -1.
    10030    2    1    2    0    0  0.00000000000E+00  0.00000000000E+00 -0.50040176581E+03  0.25521988035E+04  0.25026619439E+04 0.  0.
        2    1    3    3  502    0  0.82456980637E+03 -0.53873161154E+03  0.53688039327E+03  0.11217787979E+04  0.25500000920E-02 0.  1.
       -2    1    3    3    0  502 -0.82456980637E+03  0.53873161154E+03 -0.10372821591E+04  0.14304200056E+04  0.25500000920E-02 0. -1.
</event>
<event>
 5   0  0.6105353E-06  0.2621151E+04  0.7818609E-02  0.8361052E-01
        1   -1    0    0  501    0  0.00000000000E+00  0.00000000000E+00  0.21406955916E+04  0.21406955916E+04  0.50400001928E-02 0. -1.
       -1   -1    0    0    0  501  0.00000000000E+00  0.00000000000E+00 -0.80236001651E+03  0.80236001653E+03  0.50400001928E-02 0.  1.
    10030    2    1    2    0    0  0.00000000000E+00  0.00000000000E+00  0.13383355751E+04  0.29430556081E+04  0.26211513121E+04 0.  0.
        3    1    3    3  502    0 -0.19090594163E+03 -0.18685456846E+02  0.21248488925E+04  0.21334894073E+04  0.10100000352E+00 0. -1.
       -3    1    3    3    0  502  0.19090594163E+03  0.18685456846E+02 -0.78651331743E+03  0.80956620084E+03  0.10100000352E+00 0.  1.
</event>
<event>
 5   0  0.6290861E-06  0.2527719E+04  0.7818609E-02  0.8393177E-01
        1   -1    0    0  501    0  0.00000000000E+00  0.00000000000E+00  0.18515350125E+04  0.18515350125E+04  0.50400001928E-02 0.  1.
       -1   -1    0    0    0  501  0.00000000000E+00  0.00000000000E+00 -0.86271135381E+03  0.86271135382E+03  0.50400001928E-02 0. -1.
    10030    2    1    2    0    0  0.00000000000E+00  0.00000000000E+00  0.98882365864E+03  0.27142463663E+04  0.25277185581E+04 0.  0.
        1    1    3    3  502    0  0.75287103103E+03 -0.96060933895E+03  0.14192764273E+03  0.12287101152E+04  0.50400001928E-02 0.  1.
       -1    1    3    3    0  502 -0.75287103103E+03  0.96060933895E+03  0.84689601591E+03  0.14855362511E+04  0.50400001928E-02 0. -1.
</event>
<event>
 5   0  0.6346420E-06  0.2444862E+04  0.7818609E-02  0.8422896E-01
       -1   -1    0    0    0  501  0.00000000000E+00  0.00000000000E+00  0.11144509796E+04  0.11144509796E+04  0.50400001928E-02 0. -1.
        1   -1    0    0  501    0  0.00000000000E+00  0.00000000000E+00 -0.13408736407E+04  0.13408736407E+04  0.50400001928E-02 0.  1.
    10030    2    1    2    0    0  0.00000000000E+00  0.00000000000E+00 -0.22642266108E+03  0.24553246203E+04  0.24448623212E+04 0.  0.
        4    1    3    3  502    0 -0.11038285837E+04 -0.52442980187E+03 -0.14287023813E+03  0.12303973655E+04  0.12699999809E+01 0. -1.
       -4    1    3    3    0  502  0.11038285837E+04  0.52442980187E+03 -0.83552422953E+02  0.12249272548E+04  0.12699999809E+01 0.  1.
</event>
<event>
 5   0  0.1468512E-05  0.2484626E+04  0.7818609E-02  0.8408483E-01
        2   -1    0    0  501    0  0.00000000000E+00  0.00000000000E+00  0.19739493214E+04  0.19739493214E+04  0.25500000920E-02 0. -1.
       -2   -1    0    0    0  501  0.00000000000E+00  0.00000000000E+00 -0.78185467735E+03  0.78185467735E+03  0.25500000920E-02 0.  1.
    10030    2    1    2    0    0  0.00000000000E+00  0.00000000000E+00  0.11920946440E+04  0.27558039987E+04  0.24846259355E+04 0.  0.
        4    1    3    3  502    0 -0.25155104337E+03 -0.45393493765E+03 -0.65586203398E+03  0.83635606984E+03  0.12699999809E+01 0.  1.
       -4    1    3    3    0  502  0.25155104337E+03  0.45393493765E+03  0.18479566780E+04  0.19194479289E+04  0.12699999809E+01 0. -1.
</event>
<event>
 5   0  0.6105353E-06  0.2483173E+04  0.7818609E-02  0.8409005E-01
        1   -1    0    0  501    0  0.00000000000E+00  0.00000000000E+00  0.14400868046E+04  0.14400868046E+04  0.50400001928E-02 0.  1.
       -1   -1    0    0    0  501  0.00000000000E+00  0.00000000000E+00 -0.10704473416E+04  0.10704473416E+04  0.50400001928E-02 0. -1.
    10030    2    1    2    0    0  0.00000000000E+00  0.00000000000E+00  0.36963946301E+03  0.25105341461E+04  0.24831730440E+04 0.  0.
        3    1    3    3  502    0 -0.22037682464E+03  0.79175539668E+03 -0.75607664275E+03  0.11167338326E+04  0.10100000352E+00 0. -1.
       -3    1    3    3    0  502  0.22037682464E+03 -0.79175539668E+03  0.11257161058E+04  0.13938003135E+04  0.10100000352E+00 0.  1.
</event>
<event>
 5   0  0.6477703E-06  0.2493734E+04  0.7818609E-02  0.8405221E-01
        1   -1    0    0  501    0  0.00000000000E+00  0.00000000000E+00  0.18257985599E+04  0.18257985599E+04  0.50400001928E-02 0. -1.
       -1   -1    0    0    0  501  0.00000000000E+00  0.00000000000E+00 -0.85150510756E+03  0.85150510758E+03  0.50400001928E-02 0.  1.
    10030    2    1    2    0    0  0.00000000000E+00  0.00000000000E+00  0.97429345237E+03  0.26773036675E+04  0.24937335858E+04 0.  0.
        5    1    3    3  502    0  0.10600351496E+04  0.50965329903E+03  0.42881617724E+02  0.11769800027E+04  0.46999998093E+01 0.  1.
       -5    1    3    3    0  502 -0.10600351496E+04 -0.50965329903E+03  0.93141183465E+03  0.15003236648E+04  0.46999998093E+01 0. -1.
</event>
<event>
 5   0  0.6346420E-06  0.2502368E+04  0.7818609E-02  0.8402142E-01
       -1   -1    0    0    0  501  0.00000000000E+00  0.00000000000E+00  0.16168283517E+04  0.16168283517E+04  0.50400001928E-02 0.  1.
        1   -1    0    0  501    0  0.00000000000E+00  0.00000000000E+00 -0.96823006995E+03  0.96823006996E+03  0.50400001928E-02 0. -1.
    10030    2    1    2    0    0  0.00000000000E+00  0.00000000000E+00  0.64859828171E+03  0.25850584216E+04  0.25023683406E+04 0.  0.
        4    1    3    3  502    0  0.31928861682E+03  0.12025569793E+04  0.18814202017E+03  0.12583670140E+04  0.12699999809E+01 0. -1.
       -4    1    3    3    0  502 -0.31928861682E+03 -0.12025569793E+04  0.46045626154E+03  0.13266914076E+04  0.12699999809E+01 0.  1.
</event>
<event>
 5   0  0.1526824E-05  0.2487781E+04  0.7818609E-02  0.8407352E-01
        2   -1    0    0  501    0  0.00000000000E+00  0.00000000000E+00  0.95086359465E+03  0.95086359465E+03  0.25500000920E-02 0. -1.
       -2   -1    0    0    0  501  0.00000000000E+00  0.00000000000E+00 -0.16272193690E+04  0.16272193690E+04  0.25500000920E-02 0.  1.
    10030    2    1    2    0    0  0.00000000000E+00  0.00000000000E+00 -0.67635577431E+03  0.25780829636E+04  0.24877810663E+04 0.  0.
        2    1    3    3  502    0  0.10903603312E+04 -0.28141446916E+03  0.20937984744E+03  0.11453906215E+04  0.25500000920E-02 0.  1.
       -2    1    3    3    0  502 -0.10903603312E+04  0.28141446916E+03 -0.88573562175E+03  0.14326923421E+04  0.25500000920E-02 0. -1.
</event>
<event>
 5   0  0.1468512E-05  0.2551985E+04  0.7818609E-02  0.8384696E-01
       -2   -1    0    0    0  501  0.00000000000E+00  0.00000000000E+00  0.11939910002E+04  0.11939910002E+04  0.25500000920E-02 0.  1.
        2   -1    0    0  501    0  0.00000000000E+00  0.00000000000E+00 -0.13636252948E+04  0.13636252948E+04  0.25500000920E-02 0. -1.
    10030    2    1    2    0    0  0.00000000000E+00  0.00000000000E+00 -0.16963429461E+03  0.25576162949E+04  0.25519845842E+04 0.  0.
        4    1    3    3  502    0  0.10980873833E+03  0.99894085068E+03  0.70318379802E+03  0.12265438634E+04  0.12699999809E+01 0.  1.
       -4    1    3    3    0  502 -0.10980873833E+03 -0.99894085068E+03 -0.87281809264E+03  0.13310724315E+04  0.12699999809E+01 0. -1.
</event>
<event>
 5   0  0.1468512E-05  0.2485424E+04  0.7818609E-02  0.8408197E-01
        2   -1    0    0  501    0  0.00000000000E+00  0.00000000000E+00  0.11545815403E+04  0.11545815403E+04  0.25500000920E-02 0. -1.
       -2   -1    0    0    0  501  0.00000000000E+00  0.00000000000E+00 -0.13375692811E+04  0.13375692811E+04  0.25500000920E-02 0.  1.
    10030    2    1    2    0    0  0.00000000000E+00  0.00000000000E+00 -0.18298774080E+03  0.24921508215E+04  0.24854237473E+04 0.  0.
        4    1    3    3  502    0  0.92569804790E+03 -0.82216528799E+03  0.15840480966E+02  0.12381943185E+04  0.12699999809E+01 0. -1.
       -4    1    3    3    0  502 -0.92569804790E+03  0.82216528799E+03 -0.19882822176E+03  0.12539565030E+04  0.12699999809E+01 0.  1.
</event>
<event>
 5   0  0.6346420E-06  0.2533097E+04  0.7818609E-02  0.8391289E-01
       -1   -1    0    0    0  501  0.00000000000E+00  0.00000000000E+00  0.10345701502E+04  0.10345701502E+04  0.50400001928E-02 0. -1.
        1   -1    0    0  501    0  0.00000000000E+00  0.00000000000E+00 -0.15505426502E+04  0.15505426502E+04  0.50400001928E-02 0.  1.
    10030    2    1    2    0    0  0.00000000000E+00  0.00000000000E+00 -0.51597249997E+03  0.25851128004E+04  0.25330970313E+04 0.  0.
        4    1    3    3  502    0 -0.11818838096E+04 -0.69246249061E+02  0.20125328813E+03  0.12008950334E+04  0.12699999809E+01 0. -1.
       -4    1    3    3    0  502  0.11818838096E+04  0.69246249061E+02 -0.71722578810E+03  0.13842177670E+04  0.12699999809E+01 0.  1.
</event>
<event>
 5   0  0.1526824E-05  0.2502634E+04  0.7818609E-02  0.8402048E-01
        2   -1    0    0  501    0  0.00000000000E+00  0.00000000000E+00  0.19996654024E+04  0.19996654024E+04  0.25500000920E-02 0. -1.
       -2   -1    0    0    0  501  0.00000000000E+00  0.00000000000E+00 -0.78302809241E+03  0.78302809242E+03  0.25500000920E-02 0.  1.
    10030    2    1    2    0    0  0.00000000000E+00  0.00000000000E+00  0.12166373100E+04  0.27826934949E+04  0.25026339609E+04 0.  0.
        2    1    3    3  502    0 -0.74870366185E+03 -0.98582996256E+03  0.81145475774E+03  0.14801610427E+04  0.25500000920E-02 0.  1.
       -2    1    3    3    0  502  0.74870366185E+03  0.98582996256E+03  0.40518255229E+03  0.13025324522E+04  0.25500000920E-02 0. -1.
</event>
<event>
 5   0  0.1468512E-05  0.2483620E+04  0.7818609E-02  0.8408844E-01
        2   -1    0    0  501    0  0.00000000000E+00  0.00000000000E+00  0.91963661585E+03  0.91963661585E+03  0.25500000920E-02 0.  1.
       -2   -1    0    0    0  501  0.00000000000E+00  0.00000000000E+00 -0.16768495694E+04  0.16768495694E+04  0.25500000920E-02 0. -1.
    10030    2    1    2    0    0  0.00000000000E+00  0.00000000000E+00 -0.75721295353E+03  0.25964861852E+04  0.24836201507E+04 0.  0.
        4    1    3    3  502    0  0.79695762095E+03  0.93666496202E+03 -0.19871731063E+03  0.12457820368E+04  0.12699999809E+01 0.  1.
       -4    1    3    3    0  502 -0.79695762095E+03 -0.93666496202E+03 -0.55849564290E+03  0.13507041485E+04  0.12699999809E+01 0. -1.
</event>
<event>
 5   0  0.1550483E-05  0.2494228E+04  0.7818609E-02  0.8405045E-01
       -2   -1    0    0    0  501  0.00000000000E+00  0.00000000000E+00  0.52416136324E+03  0.52416136324E+03  0.25500000920E-02 0.  1.
        2   -1    0    0  501    0  0.00000000000E+00  0.00000000000E+00 -0.29672040359E+04  0.29672040359E+04  0.25500000920E-02 0. -1.
    10030    2    1    2    0    0  0.00000000000E+00  0.00000000000E+00 -0.24430426727E+04  0.34913653991E+04  0.24942283075E+04 0.  0.
        5    1    3    3  502    0  0.12213724762E+04 -0.61675969269E+01 -0.15742066162E+04  0.19924701567E+04  0.46999998093E+01 0.  1.
       -5    1    3    3    0  502 -0.12213724762E+04  0.61675969269E+01 -0.86883605642E+03  0.14988952424E+04  0.46999998093E+01 0. -1.
</event>
<event>
 5   0  0.6104486E-06  0.2469858E+04  0.7818609E-02  0.8413803E-01
       -1   -1    0    0    0  501  0.00000000000E+00  0.00000000000E+00  0.92430587422E+03  0.92430587423E+03  0.50400001928E-02 0.  1.
        1   -1    0    0  501    0  0.00000000000E+00  0.00000000000E+00 -0.16499402673E+04  0.16499402673E+04  0.50400001928E-02 0. -1.
    10030    2    1    2    0    0  0.00000000000E+00  0.00000000000E+00 -0.72563439309E+03  0.25742461415E+04  0.24698578754E+04 0.  0.
        2    1    3    3  502    0 -0.58632166549E+03 -0.96866983682E+03  0.15092016019E+03  0.11423096091E+04  0.25500000920E-02 0. -1.
       -2    1    3    3    0  502  0.58632166549E+03  0.96866983682E+03 -0.87655455328E+03  0.14319365325E+04  0.25500000920E-02 0.  1.
</event>
<event>
 5   0  0.1550483E-05  0.2493363E+04  0.7818609E-02  0.8405354E-01
        2   -1    0    0  501    0  0.00000000000E+00  0.00000000000E+00  0.14934100032E+04  0.14934100032E+04  0.25500000920E-02 0.  1.
       -2   -1    0    0    0  501  0.00000000000E+00  0.00000000000E+00 -0.10407153306E+04  0.10407153306E+04  0.25500000920E-02 0. -1.
    10030    2    1    2    0    0  0.00000000000E+00  0.00000000000E+00  0.45269467260E+03  0.25341253338E+04  0.24933629381E+04 0.  0.
        5    1    3    3  502    0 -0.33276849914E+03  0.59588238643E+03  0.12866582871E+04  0.14564759971E+04  0.46999998093E+01 0.  1.
       -5    1    3    3    0  502  0.33276849914E+03 -0.59588238643E+03 -0.83396361452E+03  0.10776493367E+04  0.46999998093E+01 0. -1.
</event>
<event>
 5   0  0.6477703E-06  0.2505516E+04  0.7818609E-02  0.8401023E-01
        1   -1    0    0  501    0  0.00000000000E+00  0.00000000000E+00  0.87537939679E+03  0.87537939681E+03  0.50400001928E-02 0. -1.
       -1   -1    0    0    0  501  0.00000000000E+00  0.00000000000E+00 -0.17928259197E+04  0.17928259197E+04  0.50400001928E-02 0.  1.
    10030    2    1    2    0    0  0.00000000000E+00  0.00000000000E+00 -0.91744652290E+03  0.26682053165E+04  0.25055162120E+04 0.  0.
        5    1    3    3  502    0  0.83121029443E+01  0.12182717015E+03 -0.17864636826E+04  0.17906383023E+04  0.46999998093E+01 0.  1.
       -5    1    3    3    0  502 -0.83121029443E+01 -0.12182717015E+03  0.86901715973E+03  0.87756701417E+03  0.46999998093E+01 0. -1.
</event>
<event>
 5   0  0.6104486E-06  0.2515648E+04  0.7818609E-02  0.8397432E-01
       -1   -1    0    0    0  501  0.00000000000E+00  0.00000000000E+00  0.12512003885E+04  0.12512003885E+04  0.50400001928E-02 0.  1.
        1   -1    0    0  501    0  0.00000000000E+00  0.00000000000E+00 -0.12644822299E+04  0.12644822299E+04  0.50400001928E-02 0. -1.
    10030    2    1    2    0    0  0.00000000000E+00  0.00000000000E+00 -0.13281841414E+02  0.25156826184E+04  0.25156475567E+04 0.  0.
        2    1    3    3  502    0  0.10445649898E+04  0.28410831095E+03 -0.64718642564E+03  0.12612231443E+04  0.25500000920E-02 0. -1.
       -2    1    3    3    0  502 -0.10445649898E+04 -0.28410831095E+03  0.63390458423E+03  0.12544594741E+04  0.25500000920E-02 0.  1.
</event>
<event>
 5   0  0.1572732E-05  0.2508897E+04  0.7818609E-02  0.8399823E-01
        2   -1    0    0  501    0  0.00000000000E+00  0.00000000000E+00  0.20217408972E+04  0.20217408972E+04  0.25500000920E-02 0.  1.
       -2   -1    0    0    0  501  0.00000000000E+00  0.00000000000E+00 -0.77835937623E+03  0.77835937623E+03  0.25500000920E-02 0. -1.
    10030    2    1    2    0    0  0.00000000000E+00  0.00000000000E+00  0.12433815209E+04  0.28001002734E+04  0.25088969557E+04 0.  0.
        1    1    3    3  502    0  0.66806240509E+03  0.41223055099E+03  0.17137278167E+04  0.18849680194E+04  0.50400001928E-02 0.  1.
       -1    1    3    3    0  502 -0.66806240509E+03 -0.41223055099E+03 -0.47034629582E+03  0.91513225398E+03  0.50400001928E-02 0. -1.
</event>
<event>
 5   0  0.6346420E-06  0.2552229E+04  0.7818609E-02  0.8384611E-01
       -1   -1    0    0    0  501  0.00000000000E+00  0.00000000000E+00  0.15580030438E+04  0.15580030438E+04  0.50400001928E-02 0. -1.
        1   -1    0    0  501    0  0.00000000000E+00  0.00000000000E+00 -0.10452282623E+04  0.10452282623E+04  0.50400001928E-02 0.  1.
    10030    2    1    2    0    0  0.00000000000E+00  0.00000000000E+00  0.51277478146E+03  0.26032313061E+04  0.25522294679E+04 0.  0.
        4    1    3    3  502    0 -0.10695206675E+04  0.47436306120E+03 -0.26327623657E+03  0.11992542523E+04  0.12699999809E+01 0.  1.
       -4    1    3    3    0  502  0.10695206675E+04 -0.47436306120E+03  0.77605101803E+03  0.14039770538E+04  0.12699999809E+01 0. -1.
</event>
<event>
 5   0  0.1501947E-05  0.2500431E+04  0.7818609E-02  0.8402832E-01
        2   -1    0    0  501    0  0.00000000000E+00  0.00000000000E+00  0.11680306044E+04  0.11680306044E+04  0.25500000920E-02 0.  1.
       -2   -1    0    0    0  501  0.00000000000E+00  0.00000000000E+00 -0.13381833333E+04  0.13381833333E+04  0.25500000920E-02 0. -1.
    10030    2    1    2    0    0  0.00000000000E+00  0.00000000000E+00 -0.17015272895E+03  0.25062139377E+04  0.25004312329E+04 0.  0.
        3    1    3    3  502    0 -0.98457411337E+03 -0.21058405162E+03 -0.82794306516E+03  0.13035419275E+04  0.10100000352E+00 0. -1.
       -3    1    3    3    0  502  0.98457411337E+03  0.21058405162E+03  0.65779033621E+03  0.12026720102E+04  0.10100000352E+00 0.  1.
</event>
<event>
 5   0  0.6477703E-06  0.2421689E+04  0.7818609E-02  0.8431428E-01
        1   -1    0    0  501    0  0.00000000000E+00  0.00000000000E+00  0.10330567243E+04  0.10330567243E+04  0.50400001928E-02 0.  1.
       -1   -1    0    0    0  501  0.00000000000E+00  0.00000000000E+00 -0.14192296882E+04  0.14192296882E+04  0.50400001928E-02 0. -1.
    10030    2    1    2    0    0  0.00000000000E+00  0.00000000000E+00 -0.38617296395E+03  0.24522864125E+04  0.24216893052E+04 0.  0.
        5    1    3    3  502    0 -0.38394146142E+03 -0.96927095119E+03  0.43050692010E+03  0.11279430486E+04  0.46999998093E+01 0.  1.
       -5    1    3    3    0  502  0.38394146142E+03  0.96927095119E+03 -0.81667988405E+03  0.13243433639E+04  0.46999998093E+01 0. -1.
</event>
<event>
 5   0  0.6105353E-06  0.2519052E+04  0.7818609E-02  0.8396229E-01
       -1   -1    0    0    0  501  0.00000000000E+00  0.00000000000E+00  0.10839943299E+04  0.10839943299E+04  0.50400001928E-02 0.  1.
        1   -1    0    0  501    0  0.00000000000E+00  0.00000000000E+00 -0.14634817036E+04  0.14634817036E+04  0.50400001928E-02 0. -1.
    10030    2    1    2    0    0  0.00000000000E+00  0.00000000000E+00 -0.37948737375E+03  0.25474760336E+04  0.25190520984E+04 0.  0.
        3    1    3    3  502    0  0.36213906713E+03 -0.75343124450E+03  0.76301346881E+03  0.11318095723E+04  0.10100000352E+00 0.  1.
       -3    1    3    3    0  502 -0.36213906713E+03  0.75343124450E+03 -0.11425008426E+04  0.14156664613E+04  0.10100000352E+00 0. -1.
</event>
<event>
 5   0  0.5164625E-06  0.2510198E+04  0.7818609E-02  0.8399361E-01
        3   -1    0    0  501    0  0.00000000000E+00  0.00000000000E+00  0.60872328952E+03  0.60872329790E+03  0.10100000352E+00 0.  1.
       -3   -1    0    0    0  501  0.00000000000E+00  0.00000000000E+00 -0.25878318259E+04  0.25878318279E+04  0.10100000352E+00 0. -1.
    10030    2    1    2    0    0  0.00000000000E+00  0.00000000000E+00 -0.19791085364E+04  0.31965551258E+04  0.25101980148E+04 0.  0.
        3    1    3    3  502    0  0.59869626242E+03 -0.42022919680E+03  0.30924419787E+03  0.79414216397E+03  0.10100000352E+00 0.  1.
       -3    1    3    3    0  502 -0.59869626242E+03  0.42022919680E+03 -0.22883527343E+04  0.24024129618E+04  0.10100000352E+00 0. -1.
</event>
<event>
 5   0  0.1526824E-05  0.2580017E+04  0.7818609E-02  0.8375021E-01
       -2   -1    0    0    0  501  0.00000000000E+00  0.00000000000E+00  0.71190892406E+03  0.71190892406E+03  0.25500000920E-02 0. -1.
        2   -1    0    0  501    0  0.00000000000E+00  0.00000000000E+00 -0.23375491011E+04  0.23375491011E+04  0.25500000920E-02 0.  1.
    10030    2    1    2    0    0  0.00000000000E+00  0.00000000000E+00 -0.16256401771E+04  0.30494580252E+04  0.25800171050E+04 0.  0.
        2    1    3    3  502    0  0.20102644413E+03 -0.68834443714E+03 -0.20802637701E+04  0.22003924761E+04  0.25500000920E-02 0.  1.
       -2    1    3    3    0  502 -0.20102644413E+03  0.68834443714E+03  0.45462359305E+03  0.84906554914E+03  0.25500000920E-02 0. -1.
</event>
<event>
 5   0  0.1550483E-05  0.2519822E+04  0.7818609E-02  0.8395958E-01
        2   -1    0    0  501    0  0.00000000000E+00  0.00000000000E+00  0.20176718158E+04  0.20176718158E+04  0.25500000920E-02 0. -1.
       -2   -1    0    0    0  501  0.00000000000E+00  0.00000000000E+00 -0.78673654381E+03  0.78673654382E+03  0.25500000920E-02 0.  1.
    10030    2    1    2    0    0  0.00000000000E+00  0.00000000000E+00  0.12309352720E+04  0.28044083596E+04  0.25198223357E+04 0.  0.
        5    1    3    3  502    0 -0.67585946595E+02  0.57555232553E+03 -0.62959506131E+03  0.85571044801E+03  0.46999998093E+01 0.  1.
       -5    1    3    3    0  502  0.67585946595E+02 -0.57555232553E+03  0.18605303333E+04  0.19486979116E+04  0.46999998093E+01 0. -1.
</event>
<event>
 5   0  0.6346420E-06  0.2457465E+04  0.7818609E-02  0.8418297E-01
        1   -1    0    0  501    0  0.00000000000E+00  0.00000000000E+00  0.15155953108E+04  0.15155953108E+04  0.50400001928E-02 0. -1.
       -1   -1    0    0    0  501  0.00000000000E+00  0.00000000000E+00 -0.99616563613E+03  0.99616563615E+03  0.50400001928E-02 0.  1.
    10030    2    1    2    0    0  0.00000000000E+00  0.00000000000E+00  0.51942967464E+03  0.25117609469E+04  0.24574653340E+04 0.  0.
        4    1    3    3  502    0  0.22322986296E+02  0.27338733884E+02 -0.99564674491E+03  0.99627294234E+03  0.12699999809E+01 0.  1.
       -4    1    3    3    0  502 -0.22322986296E+02 -0.27338733884E+02  0.15150764195E+04  0.15154880046E+04  0.12699999809E+01 0. -1.
</event>
<event>
 5   0  0.1468512E-05  0.2505414E+04  0.7818609E-02  0.8401059E-01
        2   -1    0    0  501    0  0.00000000000E+00  0.00000000000E+00  0.98789780461E+03  0.98789780461E+03  0.25500000920E-02 0. -1.
       -2   -1    0    0    0  501  0.00000000000E+00  0.00000000000E+00 -0.15884988009E+04  0.15884988010E+04  0.25500000920E-02 0.  1.
    10030    2    1    2    0    0  0.00000000000E+00  0.00000000000E+00 -0.60060099634E+03  0.25763966056E+04  0.25054137208E+04 0.  0.
        4    1    3    3  502    0  0.42264572613E+03 -0.29344830921E+03 -0.14748208850E+04  0.15619985838E+04  0.12699999809E+01 0.  1.
       -4    1    3    3    0  502 -0.42264572613E+03  0.29344830921E+03  0.87421988865E+03  0.10143980218E+04  0.12699999809E+01 0. -1.
</event>
<event>
 5   0  0.6477703E-06  0.2502830E+04  0.7818609E-02  0.8401978E-01
       -1   -1    0    0    0  501  0.00000000000E+00  0.00000000000E+00  0.18427958878E+04  0.18427958878E+04  0.50400001928E-02 0. -1.
        1   -1    0    0  501    0  0.00000000000E+00  0.00000000000E+00 -0.84981700615E+03  0.84981700617E+03  0.50400001928E-02 0.  1.
    10030    2    1    2    0    0  0.00000000000E+00  0.00000000000E+00  0.99297888161E+03  0.26926128939E+04  0.25028298259E+04 0.  0.
        5    1    3    3  502    0 -0.77985158861E+03 -0.34311160525E+03  0.14825737943E+04  0.17099535723E+04  0.46999998093E+01 0. -1.
       -5    1    3    3    0  502  0.77985158861E+03  0.34311160525E+03 -0.48959491266E+03  0.98265932165E+03  0.46999998093E+01 0.  1.
</event>
<event>
 5   0  0.1526824E-05  0.2488532E+04  0.7818609E-02  0.8407082E-01
        2   -1    0    0  501    0  0.00000000000E+00  0.00000000000E+00  0.71164162171E+03  0.71164162171E+03  0.25500000920E-02 0.  1.
       -2   -1    0    0    0  501  0.00000000000E+00  0.00000000000E+00 -0.21755303639E+04  0.21755303639E+04  0.25500000920E-02 0. -1.
    10030    2    1    2    0    0  0.00000000000E+00  0.00000000000E+00 -0.14638887422E+04  0.28871719856E+04  0.24885320623E+04 0.  0.
        2    1    3    3  502    0  0.36117706809E+03  0.10151076025E+04 -0.99125741943E+01  0.10774927277E+04  0.25500000920E-02 0.  1.
       -2    1    3    3    0  502 -0.36117706809E+03 -0.10151076025E+04 -0.14539761680E+04  0.18096792579E+04  0.25500000920E-02 0. -1.
</event>
<event>
 5   0  0.1501947E-05  0.2505513E+04  0.7818609E-02  0.8401024E-01
        2   -1    0    0  501    0  0.00000000000E+00  0.00000000000E+00  0.91943420491E+03  0.91943420491E+03  0.25500000920E-02 0. -1.
       -2   -1    0    0    0  501  0.00000000000E+00  0.00000000000E+00 -0.17069177456E+04  0.17069177456E+04  0.25500000920E-02 0.  1.
    10030    2    1    2    0    0  0.00000000000E+00  0.00000000000E+00 -0.78748354072E+03  0.26263519505E+04  0.25055127701E+04 0.  0.
        3    1    3    3  502    0  0.10251329057E+04 -0.10062819434E+03  0.35365017730E+03  0.10890784939E+04  0.10100000352E+00 0. -1.
       -3    1    3    3    0  502 -0.10251329057E+04  0.10062819434E+03 -0.11411337180E+04  0.15372734566E+04  0.10100000352E+00 0.  1.
</event>
<event>
 5   0  0.6104486E-06  0.2490146E+04  0.7818609E-02  0.8406505E-01
       -1   -1    0    0    0  501  0.00000000000E+00  0.00000000000E+00  0.89428272377E+03  0.89428272379E+03  0.50400001928E-02 0. -1.
        1   -1    0    0  501    0  0.00000000000E+00  0.00000000000E+00 -0.17334634712E+04  0.17334634712E+04  0.50400001928E-02 0.  1.
    10030    2    1    2    0    0  0.00000000000E+00  0.00000000000E+00 -0.83918074745E+03  0.26277461950E+04  0.24901457264E+04 0.  0.
        2    1    3    3  502    0 -0.66844778732E+03 -0.70285558130E+03 -0.12433529274E+04  0.15769448039E+04  0.25500000920E-02 0.  1.
       -2    1    3    3    0  502  0.66844778732E+03  0.70285558130E+03  0.40417217992E+03  0.10508013911E+04  0.25500000920E-02 0. -1.
</event>
<event>
 5   0  0.6477703E-06  0.2520898E+04  0.7818609E-02  0.8395578E-01
       -1   -1    0    0    0  501  0.00000000000E+00  0.00000000000E+00  0.65081269238E+03  0.65081269240E+03  0.50400001928E-02 0. -1.
        1   -1    0    0  501    0  0.00000000000E+00  0.00000000000E+00 -0.24411511480E+04  0.24411511480E+04  0.50400001928E-02 0.  1.
    10030    2    1    2    0    0  0.00000000000E+00  0.00000000000E+00 -0.17903384556E+04  0.30919638404E+04  0.25208983726E+04 0.  0.
        5    1    3    3  502    0  0.75314730917E+03 -0.26625285137E+03  0.30067709327E+03  0.85355155357E+03  0.46999998093E+01 0. -1.
       -5    1    3    3    0  502 -0.75314730917E+03  0.26625285137E+03 -0.20910155489E+04  0.22384122869E+04  0.46999998093E+01 0.  1.
</event>
<event>
 5   0  0.1501947E-05  0.2536303E+04  0.7818609E-02  0.8390165E-01
       -2   -1    0    0    0  501  0.00000000000E+00  0.00000000000E+00  0.10844730650E+04  0.10844730650E+04  0.25500000920E-02 0.  1.
        2   -1    0    0  501    0  0.00000000000E+00  0.00000000000E+00 -0.14829399322E+04  0.14829399322E+04  0.25500000920E-02 0. -1.
    10030    2    1    2    0    0  0.00000000000E+00  0.00000000000E+00 -0.39846686718E+03  0.25674129971E+04  0.25363031470E+04 0.  0.
        3    1    3    3  502    0  0.75104560415E+03  0.94407233668E+03  0.19654350966E+03  0.12222812433E+04  0.10100000352E+00 0.  1.
       -3    1    3    3    0  502 -0.75104560415E+03 -0.94407233668E+03 -0.59501037684E+03  0.13451317538E+04  0.10100000352E+00 0. -1.
</event>
<event>
 5   0  0.1501947E-05  0.2535303E+04  0.7818609E-02  0.8390516E-01
        2   -1    0    0  501    0  0.00000000000E+00  0.00000000000E+00  0.13555650839E+04  0.13555650839E+04  0.25500000920E-02 0. -1.
       -2   -1    0    0    0  501  0.00000000000E+00  0.00000000000E+00 -0.11854390218E+04  0.11854390218E+04  0.25500000920E-02 0.  1.
    10030    2    1    2    0    0  0.00000000000E+00  0.00000000000E+00  0.17012606213E+03  0.25410041057E+04  0.25353025437E+04 0.  0.
        3    1    3    3  502    0 -0.20083877743E+03 -0.77215650052E+03 -0.90222987028E+03  0.12044005251E+04  0.10100000352E+00 0.  1.
       -3    1    3    3    0  502  0.20083877743E+03  0.77215650052E+03  0.10723559324E+04  0.13366035806E+04  0.10100000352E+00 0. -1.
</event>
<event>
 5   0  0.1526824E-05  0.2502219E+04  0.7818609E-02  0.8402195E-01
       -2   -1    0    0    0  501  0.00000000000E+00  0.00000000000E+00  0.94302026378E+03  0.94302026378E+03  0.25500000920E-02 0. -1.
        2   -1    0    0  501    0  0.00000000000E+00  0.00000000000E+00 -0.16598531431E+04  0.16598531431E+04  0.25500000920E-02 0.  1.
    10030    2    1    2    0    0  0.00000000000E+00  0.00000000000E+00 -0.71683287935E+03  0.26028734069E+04  0.25022191342E+04 0.  0.
        2    1    3    3  502    0 -0.12814503170E+03  0.77416590641E+03  0.65521489313E+03  0.10222820335E+04  0.25500000920E-02 0. -1.
       -2    1    3    3    0  502  0.12814503170E+03 -0.77416590641E+03 -0.13720477725E+04  0.15805913734E+04  0.25500000920E-02 0.  1.
</event>
<event>
 5   0  0.6290861E-06  0.2554746E+04  0.7818609E-02  0.8383738E-01
        1   -1    0    0  501    0  0.00000000000E+00  0.00000000000E+00  0.15742719905E+04  0.15742719905E+04  0.50400001928E-02 0.  1.
       -1   -1    0    0    0  501  0.00000000000E+00  0.00000000000E+00 -0.10364673957E+04  0.10364673957E+04  0.50400001928E-02 0. -1.
    10030    2    1    2    0    0  0.00000000000E+00  0.00000000000E+00  0.53780459482E+03  0.26107393862E+04  0.25547458504E+04 0.  0.
        1    1    3    3  502    0  0.85112832159E+03  0.75133755687E+03  0.86718591861E+03  0.14286143502E+04  0.50400001928E-02 0. -1.
       -1    1    3    3    0  502 -0.85112832159E+03 -0.75133755687E+03 -0.32938132380E+03  0.11821250360E+04  0.50400001928E-02 0.  1.
</event>
<event>
 5   0  0.1468512E-05  0.2489214E+04  0.7818609E-02  0.8406838E-01
        2   -1    0    0  501    0  0.00000000000E+00  0.00000000000E+00  0.16640628226E+04  0.16640628226E+04  0.25500000920E-02 0.  1.
       -2   -1    0    0    0  501  0.00000000000E+00  0.00000000000E+00 -0.93088214881E+03  0.93088214882E+03  0.25500000920E-02 0. -1.
    10030    2    1    2    0    0  0.00000000000E+00  0.00000000000E+00  0.73318067380E+03  0.25949449714E+04  0.24892138326E+04 0.  0.
        4    1    3    3  502    0 -0.80857197270E+03 -0.32015425207E+03  0.12947786472E+04  0.15597245713E+04  0.12699999809E+01 0.  1.
       -4    1    3    3    0  502  0.80857197270E+03  0.32015425207E+03 -0.56159797343E+03  0.10352204001E+04  0.12699999809E+01 0. -1.
</event>
<event>
 5   0  0.1501947E-05  0.2503763E+04  0.7818609E-02  0.8401646E-01
       -2   -1    0    0    0  501  0.00000000000E+00  0.00000000000E+00  0.88595774147E+03  0.88595774147E+03  0.25500000920E-02 0. -1.
        2   -1    0    0  501    0  0.00000000000E+00  0.00000000000E+00 -0.17689413829E+04  0.17689413829E+04  0.25500000920E-02 0.  1.
    10030    2    1    2    0    0  0.00000000000E+00  0.00000000000E+00 -0.88298364139E+03  0.26548991243E+04  0.25037630178E+04 0.  0.
        3    1    3    3  502    0  0.39141374365E+03 -0.11222342261E+04 -0.24574813620E+02  0.11887885887E+04  0.10100000352E+00 0. -1.
       -3    1    3    3    0  502 -0.39141374365E+03  0.11222342261E+04 -0.85840882777E+03  0.14661105356E+04  0.10100000352E+00 0.  1.
</event>
<event>
 5   0  0.6104486E-06  0.2463787E+04  0.7818609E-02  0.8416001E-01
       -1   -1    0    0    0  501  0.00000000000E+00  0.00000000000E+00  0.70959349389E+03  0.70959349391E+03  0.50400001928E-02 0.  1.
        1   -1    0    0  501    0  0.00000000000E+00  0.00000000000E+00 -0.21386349595E+04  0.21386349595E+04  0.50400001928E-02 0. -1.
    10030    2    1    2    0    0  0.00000000000E+00  0.00000000000E+00 -0.14290414656E+04  0.28482284534E+04  0.24637868845E+04 0.  0.
        2    1    3    3  502    0  0.80238499708E+02  0.85124711225E+01 -0.21355767912E+04  0.21371005849E+04  0.25500000920E-02 0. -1.
       -2    1    3    3    0  502 -0.80238499708E+02 -0.85124711225E+01  0.70653532560E+03  0.71112786848E+03  0.25500000920E-02 0.  1.
</event>
<event>
 5   0  0.6290861E-06  0.2482917E+04  0.7818609E-02  0.8409097E-01
        1   -1    0    0  501    0  0.00000000000E+00  0.00000000000E+00  0.23360336493E+04  0.23360336493E+04  0.50400001928E-02 0.  1.
       -1   -1    0    0    0  501  0.00000000000E+00  0.00000000000E+00 -0.65975909181E+03  0.65975909183E+03  0.50400001928E-02 0. -1.
    10030    2    1    2    0    0  0.00000000000E+00  0.00000000000E+00  0.16762745575E+04  0.29957927411E+04  0.24829171866E+04 0.  0.
        1    1    3    3  502    0  0.16846228505E+03 -0.60248106930E+03  0.21319497824E+04  0.22218399706E+04  0.50400001928E-02 0.  1.
       -1    1    3    3    0  502 -0.16846228505E+03  0.60248106930E+03 -0.45567522492E+03  0.77395277051E+03  0.50400001928E-02 0. -1.
</event>
<event>
 5   0  0.1572732E-05  0.2520388E+04  0.7818609E-02  0.8395758E-01
        2   -1    0    0  501    0  0.00000000000E+00  0.00000000000E+00  0.20948235126E+04  0.20948235126E+04  0.25500000920E-02 0.  1.
       -2   -1    0    0    0  501  0.00000000000E+00  0.00000000000E+00 -0.75810150789E+03  0.75810150790E+03  0.25500000920E-02 0. -1.
    10030    2    1    2    0    0  0.00000000000E+00  0.00000000000E+00  0.13367220047E+04  0.28529250205E+04  0.25203879572E+04 0.  0.
        1    1    3    3  502    0  0.47546893768E+02  0.64475638811E+03 -0.55607946006E+03  0.85275780445E+03  0.50400001928E-02 0. -1.
       -1    1    3    3    0  502 -0.47546893768E+02 -0.64475638811E+03  0.18928014648E+04  0.20001672161E+04  0.50400001928E-02 0.  1.
</event>
<event>
 5   0  0.6477703E-06  0.2500913E+04  0.7818609E-02  0.8402660E-01
        1   -1    0    0  501    0  0.00000000000E+00  0.00000000000E+00  0.17378125425E+04  0.17378125425E+04  0.50400001928E-02 0. -1.
       -1   -1    0    0    0  501  0.00000000000E+00  0.00000000000E+00 -0.89977548449E+03  0.89977548451E+03  0.50400001928E-02 0.  1.
    10030    2    1    2    0    0  0.00000000000E+00  0.00000000000E+00  0.83803705800E+03  0.26375880270E+04  0.25009127313E+04 0.  0.
        5    1    3    3  502    0  0.17007190323E+03 -0.24213692881E+03 -0.86231166961E+03  0.91167880863E+03  0.46999998093E+01 0.  1.
       -5    1    3    3    0  502 -0.17007190323E+03  0.24213692881E+03  0.17003487276E+04  0.17259092184E+04  0.46999998093E+01 0. -1.
</event>
<event>
 5   0  0.6290861E-06  0.2483404E+04  0.7818609E-02  0.8408922E-01
        1   -1    0    0  501    0  0.00000000000E+00  0.00000000000E+00  0.14306235477E+04  0.14306235477E+04  0.50400001928E-02 0.  1.
       -1   -1    0    0    0  501  0.00000000000E+00  0.00000000000E+00 -0.10777282285E+04  0.10777282285E+04  0.50400001928E-02 0. -1.
    10030    2    1    2    0    0  0.00000000000E+00  0.00000000000E+00  0.35289531927E+03  0.25083517762E+04  0.24834036174E+04 0.  0.
        1    1    3    3  502    0  0.12008342658E+04  0.21543835285E+03 -0.56972985399E+02  0.12213363742E+04  0.50400001928E-02 0. -1.
       -1    1    3    3    0  502 -0.12008342658E+04 -0.21543835285E+03  0.40986830467E+03  0.12870154020E+04  0.50400001928E-02 0.  1.
</event>
<event>
 5   0  0.1501947E-05  0.2507784E+04  0.7818609E-02  0.8400218E-01
       -2   -1    0    0    0  501  0.00000000000E+00  0.00000000000E+00  0.87285876847E+03  0.87285876848E+03  0.25500000920E-02 0. -1.
        2   -1    0    0  501    0  0.00000000000E+00  0.00000000000E+00 -0.18012588303E+04  0.18012588303E+04  0.25500000920E-02 0.  1.
    10030    2    1    2    0    0  0.00000000000E+00  0.00000000000E+00 -0.92840006182E+03  0.26741175988E+04  0.25077835348E+04 0.  0.
        3    1    3    3  502    0  0.50048406681E+03 -0.71717229155E+03 -0.14223672860E+04  0.16697152762E+04  0.10100000352E+00 0.  1.
       -3    1    3    3    0  502 -0.50048406681E+03  0.71717229155E+03  0.49396722420E+03  0.10044023226E+04  0.10100000352E+00 0. -1.
</event>
<event>
 5   0  0.6290861E-06  0.2498329E+04  0.7818609E-02  0.8403581E-01
       -1   -1    0    0    0  501  0.00000000000E+00  0.00000000000E+00  0.89043139999E+03  0.89043140000E+03  0.50400001928E-02 0.  1.
        1   -1    0    0  501    0  0.00000000000E+00  0.00000000000E+00 -0.17524218615E+04  0.17524218615E+04  0.50400001928E-02 0. -1.
    10030    2    1    2    0    0  0.00000000000E+00  0.00000000000E+00 -0.86199046152E+03  0.26428532615E+04  0.24983286025E+04 0.  0.
        1    1    3    3  502    0 -0.81775012949E+03  0.28657961208E+03  0.52081471483E+03  0.10109852202E+04  0.50400001928E-02 0.  1.
       -1    1    3    3    0  502  0.81775012949E+03 -0.28657961208E+03 -0.13828051764E+04  0.16318680413E+04  0.50400001928E-02 0. -1.
</event>
<event>
 5   0  0.6290861E-06  0.2508905E+04  0.7818609E-02  0.8399820E-01
        1   -1    0    0  501    0  0.00000000000E+00  0.00000000000E+00  0.12130892722E+04  0.12130892722E+04  0.50400001928E-02 0.  1.
       -1   -1    0    0    0  501  0.00000000000E+00  0.00000000000E+00 -0.12972259316E+04  0.12972259316E+04  0.50400001928E-02 0. -1.
    10030    2    1    2    0    0  0.00000000000E+00  0.00000000000E+00 -0.84136659447E+02  0.25103152038E+04  0.25089048298E+04 0.  0.
        1    1    3    3  502    0 -0.86790066336E+03 -0.71272984946E+03 -0.60132391283E+03  0.12739018204E+04  0.50400001928E-02 0. -1.
       -1    1    3    3    0  502  0.86790066336E+03  0.71272984946E+03  0.51718725338E+03  0.12364133835E+04  0.50400001928E-02 0.  1.
</event>
<event>
 5   0  0.6104486E-06  0.2514423E+04  0.7818609E-02  0.8397865E-01
       -1   -1    0    0    0  501  0.00000000000E+00  0.00000000000E+00  0.14612813580E+04  0.14612813580E+04  0.50400001928E-02 0. -1.
        1   -1    0    0  501    0  0.00000000000E+00  0.00000000000E+00 -0.10816403827E+04  0.10816403827E+04  0.50400001928E-02 0.  1.
    10030    2    1    2    0    0  0.00000000000E+00  0.00000000000E+00  0.37964097533E+03  0.25429217407E+04  0.25144231365E+04 0.  0.
        2    1    3    3  502    0 -0.39919001571E+03  0.11795219645E+04  0.36486074669E+03  0.12975931943E+04  0.25500000920E-02 0. -1.
       -2    1    3    3    0  502  0.39919001571E+03 -0.11795219645E+04  0.14780228642E+02  0.12453285464E+04  0.25500000920E-02 0.  1.
</event>
<event>
 5   0  0.1572732E-05  0.2484117E+04  0.7818609E-02  0.8408666E-01
        2   -1    0    0  501    0  0.00000000000E+00  0.00000000000E+00  0.14241370041E+04  0.14241370041E+04  0.25500000920E-02 0.  1.
       -2   -1    0    0    0  501  0.00000000000E+00  0.00000000000E+00 -0.10832589528E+04  0.10832589528E+04  0.25500000920E-02 0. -1.
    10030    2    1    2    0    0  0.00000000000E+00  0.00000000000E+00  0.34087805126E+03  0.25073959569E+04  0.24841168730E+04 0.  0.
        1    1    3    3  502    0 -0.63758729437E+03  0.50178817819E+03 -0.77879941880E+03  0.11246499315E+04  0.50400001928E-02 0. -1.
       -1    1    3    3    0  502  0.63758729437E+03 -0.50178817819E+03  0.11196774701E+04  0.13827460254E+04  0.50400001928E-02 0.  1.
</event>
<event>
 5   0  0.5164625E-06  0.2488208E+04  0.7818609E-02  0.8407198E-01
        3   -1    0    0  501    0  0.00000000000E+00  0.00000000000E+00  0.10095727305E+04  0.10095727356E+04  0.10100000352E+00 0.  1.
       -3   -1    0    0    0  501  0.00000000000E+00  0.00000000000E+00 -0.15331188957E+04  0.15331188991E+04  0.10100000352E+00 0. -1.
    10030    2    1    2    0    0  0.00000000000E+00  0.00000000000E+00 -0.52354616520E+03  0.25426916346E+04  0.24882082232E+04 0.  0.
        3    1    3    3  502    0  0.10853160108E+04  0.39840529774E+03  0.20780750180E+03  0.11746580747E+04  0.10100000352E+00 0. -1.
       -3    1    3    3    0  502 -0.10853160108E+04 -0.39840529774E+03 -0.73135366700E+03  0.13680335599E+04  0.10100000352E+00 0.  1.
</event>
<event>
 5   0  0.1501947E-05  0.2488787E+04  0.7818609E-02  0.8406991E-01
        2   -1    0    0  501    0  0.00000000000E+00  0.00000000000E+00  0.13403060657E+04  0.13403060657E+04  0.25500000920E-02 0.  1.
       -2   -1    0    0    0  501  0.00000000000E+00  0.00000000000E+00 -0.11553442655E+04  0.11553442655E+04  0.25500000920E-02 0. -1.
    10030    2    1    2    0    0  0.00000000000E+00  0.00000000000E+00  0.18496180024E+03  0.24956503312E+04  0.24887867944E+04 0.  0.
        3    1    3    3  502    0 -0.73179639848E+03 -0.48112641940E+03 -0.79398551869E+03  0.11821258877E+04  0.10100000352E+00 0. -1.
       -3    1    3    3    0  502  0.73179639848E+03  0.48112641940E+03  0.97894731892E+03  0.13135244435E+04  0.10100000352E+00 0.  1.
</event>
<event>
 5   0  0.1526824E-05  0.2504473E+04  0.7818609E-02  0.8401394E-01
        2   -1    0    0  501    0  0.00000000000E+00  0.00000000000E+00  0.18935335413E+04  0.18935335413E+04  0.25500000920E-02 0.  1.
       -2   -1    0    0    0  501  0.00000000000E+00  0.00000000000E+00 -0.82813219442E+03  0.82813219442E+03  0.25500000920E-02 0. -1.
    10030    2    1    2    0    0  0.00000000000E+00  0.00000000000E+00  0.10654013469E+04  0.27216657357E+04  0.25044728681E+04 0.  0.
        2    1    3    3  502    0  0.34550981190E+03  0.11484939395E+03 -0.76933951841E+03  0.85114670181E+03  0.25500000920E-02 0. -1.
       -2    1    3    3    0  502 -0.34550981190E+03 -0.11484939395E+03  0.18347408653E+04  0.18705190339E+04  0.25500000920E-02 0.  1.
</event>
<event>
 5   0  0.1468512E-05  0.2500525E+04  0.7818609E-02  0.8402798E-01
       -2   -1    0    0    0  501  0.00000000000E+00  0.00000000000E+00  0.87906414896E+03  0.87906414896E+03  0.25500000920E-02 0.  1.
        2   -1    0    0  501    0  0.00000000000E+00  0.00000000000E+00 -0.17782053000E+04  0.17782053000E+04  0.25500000920E-02 0. -1.
    10030    2    1    2    0    0  0.00000000000E+00  0.00000000000E+00 -0.89914115103E+03  0.26572694489E+04  0.25005251678E+04 0.  0.
        4    1    3    3  502    0  0.53694599695E+02 -0.13138007220E+03 -0.17696160331E+04  0.17752989469E+04  0.12699999809E+01 0. -1.
       -4    1    3    3    0  502 -0.53694599695E+02  0.13138007220E+03  0.87047488203E+03  0.88197050208E+03  0.12699999809E+01 0.  1.
</event>
<event>
 5   0  0.1501947E-05  0.2521916E+04  0.7818609E-02  0.8395219E-01
       -2   -1    0    0    0  501  0.00000000000E+00  0.00000000000E+00  0.90638420081E+03  0.90638420081E+03  0.25500000920E-02 0.  1.
        2   -1    0    0  501    0  0.00000000000E+00  0.00000000000E+00 -0.17542400069E+04  0.17542400069E+04  0.25500000920E-02 0. -1.
    10030    2    1    2    0    0  0.00000000000E+00  0.00000000000E+00 -0.84785580613E+03  0.26606242078E+04  0.25219162767E+04 0.  0.
        3    1    3    3  502    0 -0.37146589967E+03  0.97718960452E+03  0.31992560150E+03  0.10932697922E+04  0.10100000352E+00 0.  1.
       -3    1    3    3    0  502  0.37146589967E+03 -0.97718960452E+03 -0.11677814076E+04  0.15673544156E+04  0.10100000352E+00 0. -1.
</event>
<event>
 5   0  0.6290861E-06  0.2514321E+04  0.7818609E-02  0.8397901E-01
       -1   -1    0    0    0  501  0.00000000000E+00  0.00000000000E+00  0.15218802720E+04  0.15218802721E+04  0.50400001928E-02 0. -1.
        1   -1    0    0  501    0  0.00000000000E+00  0.00000000000E+00 -0.10384866128E+04  0.10384866128E+04  0.50400001928E-02 0.  1.
    10030    2    1    2    0    0  0.00000000000E+00  0.00000000000E+00  0.48339365923E+03  0.25603668849E+04  0.25143208139E+04 0.  0.
        1    1    3    3  502    0  0.16024188383E+03 -0.11120507033E+04  0.81604557154E+03  0.13886196754E+04  0.50400001928E-02 0. -1.
       -1    1    3    3    0  502 -0.16024188383E+03  0.11120507033E+04 -0.33265191231E+03  0.11717472095E+04  0.50400001928E-02 0.  1.
</event>
<event>
 5   0  0.5164625E-06  0.2495610E+04  0.7818609E-02  0.8404551E-01
        3   -1    0    0  501    0  0.00000000000E+00  0.00000000000E+00  0.68900731390E+03  0.68900732130E+03  0.10100000352E+00 0. -1.
       -3   -1    0    0    0  501  0.00000000000E+00  0.00000000000E+00 -0.22597973059E+04  0.22597973082E+04  0.10100000352E+00 0.  1.
    10030    2    1    2    0    0  0.00000000000E+00  0.00000000000E+00 -0.15707899920E+04  0.29488046295E+04  0.24956096537E+04 0.  0.
        1    1    3    3  502    0  0.11918623872E+04 -0.30157674705E+03 -0.53326203676E+03  0.13400943565E+04  0.50400001928E-02 0. -1.
       -1    1    3    3    0  502 -0.11918623872E+04  0.30157674705E+03 -0.10375279553E+04  0.16087102730E+04  0.50400001928E-02 0.  1.
</event>
<event>
 5   0  0.1468512E-05  0.2475970E+04  0.7818609E-02  0.8411597E-01
       -2   -1    0    0    0  501  0.00000000000E+00  0.00000000000E+00  0.67544726270E+03  0.67544726271E+03  0.25500000920E-02 0.  1.
        2   -1    0    0  501    0  0.00000000000E+00  0.00000000000E+00 -0.22690260494E+04  0.22690260494E+04  0.25500000920E-02 0. -1.
    10030    2    1    2    0    0  0.00000000000E+00  0.00000000000E+00 -0.15935787867E+04  0.29444733121E+04  0.24759704635E+04 0.  0.
        4    1    3    3  502    0 -0.38043815368E+03 -0.11650339407E+04 -0.10047109785E+04  0.15847659244E+04  0.12699999809E+01 0. -1.
       -4    1    3    3    0  502  0.38043815368E+03  0.11650339407E+04 -0.58886780820E+03  0.13597073877E+04  0.12699999809E+01 0.  1.
</event>
<event>
 5   0  0.1526824E-05  0.2514689E+04  0.7818609E-02  0.8397771E-01
       -2   -1    0    0    0  501  0.00000000000E+00  0.00000000000E+00  0.81947322824E+03  0.81947322824E+03  0.25500000920E-02 0.  1.
        2   -1    0    0  501    0  0.00000000000E+00  0.00000000000E+00 -0.19291843852E+04  0.19291843852E+04  0.25500000920E-02 0. -1.
    10030    2    1    2    0    0  0.00000000000E+00  0.00000000000E+00 -0.11097111570E+04  0.27486576135E+04  0.25146888126E+04 0.  0.
        2    1    3    3  502    0 -0.25235659037E+03 -0.18360803793E+03  0.77646602900E+03  0.83683645624E+03  0.25500000920E-02 0.  1.
       -2    1    3    3    0  502  0.25235659037E+03  0.18360803793E+03 -0.18861771860E+04  0.19118211572E+04  0.25500000920E-02 0. -1.
</event>
<event>
 5   0  0.6104486E-06  0.2513967E+04  0.7818609E-02  0.8398026E-01
       -1   -1    0    0    0  501  0.00000000000E+00  0.00000000000E+00  0.58725278896E+03  0.58725278899E+03  0.50400001928E-02 0.  1.
        1   -1    0    0  501    0  0.00000000000E+00  0.00000000000E+00 -0.26905076284E+04  0.26905076284E+04  0.50400001928E-02 0. -1.
    10030    2    1    2    0    0  0.00000000000E+00  0.00000000000E+00 -0.21032548395E+04  0.32777604174E+04  0.25139674688E+04 0.  0.
        2    1    3    3  502    0  0.43239204735E+03 -0.39327525454E+03  0.39929597219E+03  0.70785986032E+03  0.25500000920E-02 0.  1.
       -2    1    3    3    0  502 -0.43239204735E+03  0.39327525454E+03 -0.25025508116E+04  0.25699005571E+04  0.25500000920E-02 0. -1.
</event>
<event>
 5   0  0.6104486E-06  0.2502047E+04  0.7818609E-02  0.8402257E-01
        1   -1    0    0  501    0  0.00000000000E+00  0.00000000000E+00  0.94608755916E+03  0.94608755917E+03  0.50400001928E-02 0. -1.
       -1   -1    0    0    0  501  0.00000000000E+00  0.00000000000E+00 -0.16542445090E+04  0.16542445090E+04  0.50400001928E-02 0.  1.
    10030    2    1    2    0    0  0.00000000000E+00  0.00000000000E+00 -0.70815694980E+03  0.26003320681E+04  0.25020472815E+04 0.  0.
        2    1    3    3  502    0 -0.28772393297E+03  0.45126712351E+02 -0.16185212289E+04  0.16445158711E+04  0.25500000920E-02 0.  1.
       -2    1    3    3    0  502  0.28772393297E+03 -0.45126712351E+02  0.91036427914E+03  0.95581619703E+03  0.25500000920E-02 0. -1.
</event>
<event>
 5   0  0.1572732E-05  0.2508954E+04  0.7818609E-02  0.8399803E-01
        2   -1    0    0  501    0  0.00000000000E+00  0.00000000000E+00  0.16048952164E+04  0.16048952164E+04  0.25500000920E-02 0. -1.
       -2   -1    0    0    0  501  0.00000000000E+00  0.00000000000E+00 -0.98057028645E+03  0.98057028645E+03  0.25500000920E-02 0.  1.
    10030    2    1    2    0    0  0.00000000000E+00  0.00000000000E+00  0.62432492994E+03  0.25854655028E+04  0.25089540148E+04 0.  0.
        1    1    3    3  502    0  0.39082700103E+03 -0.60050975101E+03  0.13732999610E+04  0.15489707837E+04  0.50400001928E-02 0. -1.
       -1    1    3    3    0  502 -0.39082700103E+03  0.60050975101E+03 -0.74897503102E+03  0.10364947192E+04  0.50400001928E-02 0.  1.
</event>
<event>
 5   0  0.6290861E-06  0.2483407E+04  0.7818609E-02  0.8408921E-01
       -1   -1    0    0    0  501  0.00000000000E+00  0.00000000000E+00  0.87015214310E+03  0.87015214312E+03  0.50400001928E-02 0.  1.
        1   -1    0    0  501    0  0.00000000000E+00  0.00000000000E+00 -0.17719051149E+04  0.17719051149E+04  0.50400001928E-02 0. -1.
    10030    2    1    2    0    0  0.00000000000E+00  0.00000000000E+00 -0.90175297184E+03  0.26420572581E+04  0.24834065581E+04 0.  0.
        1    1    3    3  502    0  0.85132785378E+03  0.11526403422E+03  0.50293725011E+03  0.99548520320E+03  0.50400001928E-02 0.  1.
       -1    1    3    3    0  502 -0.85132785378E+03 -0.11526403422E+03 -0.14046902219E+04  0.16465720549E+04  0.50400001928E-02 0. -1.
</event>
<event>
 5   0  0.6477703E-06  0.2512723E+04  0.7818609E-02  0.8398467E-01
        1   -1    0    0  501    0  0.00000000000E+00  0.00000000000E+00  0.11493868203E+04  0.11493868203E+04  0.50400001928E-02 0.  1.
       -1   -1    0    0    0  501  0.00000000000E+00  0.00000000000E+00 -0.13732920370E+04  0.13732920371E+04  0.50400001928E-02 0. -1.
    10030    2    1    2    0    0  0.00000000000E+00  0.00000000000E+00 -0.22390521673E+03  0.25226788574E+04  0.25127226412E+04 0.  0.
        5    1    3    3  502    0  0.11570824229E+04  0.30652503580E+03 -0.49507224286E+03  0.12953439491E+04  0.46999998093E+01 0. -1.
       -5    1    3    3    0  502 -0.11570824229E+04 -0.30652503580E+03  0.27116702613E+03  0.12273349082E+04  0.46999998093E+01 0.  1.
</event>
<event>
 5   0  0.6290861E-06  0.2407759E+04  0.7818609E-02  0.8436605E-01
        1   -1    0    0  501    0  0.00000000000E+00  0.00000000000E+00  0.15427511590E+04  0.15427511590E+04  0.50400001928E-02 0.  1.
       -1   -1    0    0    0  501  0.00000000000E+00  0.00000000000E+00 -0.93944206903E+03  0.93944206904E+03  0.50400001928E-02 0. -1.
    10030    2    1    2    0    0  0.00000000000E+00  0.00000000000E+00  0.60330908999E+03  0.24821932281E+04  0.24077585766E+04 0.  0.
        1    1    3    3  502    0  0.32469285905E+03  0.68059183549E+03 -0.66581059399E+03  0.10059495248E+04  0.50400001928E-02 0. -1.
       -1    1    3    3    0  502 -0.32469285905E+03 -0.68059183549E+03  0.12691196840E+04  0.14762437033E+04  0.50400001928E-02 0.  1.
</event>
<event>
 5   0  0.6105353E-06  0.2504498E+04  0.7818609E-02  0.8401385E-01
       -1   -1    0    0    0  501  0.00000000000E+00  0.00000000000E+00  0.15996409488E+04  0.15996409488E+04  0.50400001928E-02 0.  1.
        1   -1    0    0  501    0  0.00000000000E+00  0.00000000000E+00 -0.98029990691E+03  0.98029990693E+03  0.50400001928E-02 0. -1.
    10030    2    1    2    0    0  0.00000000000E+00  0.00000000000E+00  0.61934104190E+03  0.25799408558E+04  0.25044982517E+04 0.  0.
        3    1    3    3  502    0 -0.73640023148E+03  0.67269965201E+03  0.10896563410E+04  0.14772139569E+04  0.10100000352E+00 0.  1.
       -3    1    3    3    0  502  0.73640023148E+03 -0.67269965201E+03 -0.47031529909E+03  0.11027268989E+04  0.10100000352E+00 0. -1.
</event>
<event>
 5   0  0.1501947E-05  0.2537125E+04  0.7818609E-02  0.8389878E-01
       -2   -1    0    0    0  501  0.00000000000E+00  0.00000000000E+00  0.91790815044E+03  0.91790815044E+03  0.25500000920E-02 0.  1.
        2   -1    0    0  501    0  0.00000000000E+00  0.00000000000E+00 -0.17531725939E+04  0.17531725939E+04  0.25500000920E-02 0. -1.
    10030    2    1    2    0    0  0.00000000000E+00  0.00000000000E+00 -0.83526444342E+03  0.26710807443E+04  0.25371254703E+04 0.  0.
        3    1    3    3  502    0  0.79563982900E+03 -0.92154247400E+03 -0.79277141462E+03  0.14528488548E+04  0.10100000352E+00 0. -1.
       -3    1    3    3    0  502 -0.79563982900E+03  0.92154247400E+03 -0.42493028805E+02  0.12182318895E+04  0.10100000352E+00 0.  1.
</event>
<event>
 5   0  0.1572732E-05  0.2511298E+04  0.7818609E-02  0.8398972E-01
       -2   -1    0    0    0  501  0.00000000000E+00  0.00000000000E+00  0.15110251464E+04  0.15110251464E+04  0.25500000920E-02 0.  1.
        2   -1    0    0  501    0  0.00000000000E+00  0.00000000000E+00 -0.10434336194E+04  0.10434336194E+04  0.25500000920E-02 0. -1.
    10030    2    1    2    0    0  0.00000000000E+00  0.00000000000E+00  0.46759152703E+03  0.25544587658E+04  0.25112980209E+04 0.  0.
        1    1    3    3  502    0 -0.42897585458E+03  0.73783572500E+03  0.11706200073E+04  0.14487142722E+04  0.50400001928E-02 0.  1.
       -1    1    3    3    0  502  0.42897585458E+03 -0.73783572500E+03 -0.70302848032E+03  0.11057444936E+04  0.50400001928E-02 0. -1.
</event>
<event>
 5   0  0.5164625E-06  0.2500704E+04  0.7818609E-02  0.8402735E-01
        3   -1    0    0  501    0  0.00000000000E+00  0.00000000000E+00  0.70588956996E+03  0.70588957719E+03  0.10100000352E+00 0.  1.
       -3   -1    0    0    0  501  0.00000000000E+00  0.00000000000E+00 -0.22147651772E+04  0.22147651795E+04  0.10100000352E+00 0. -1.
    10030    2    1    2    0    0  0.00000000000E+00  0.00000000000E+00 -0.15088756073E+04  0.29206547567E+04  0.25007036229E+04 0.  0.
        5    1    3    3  502    0  0.47702671597E+03  0.41469660625E+03  0.50553954126E+03  0.80939488555E+03  0.46999998093E+01 0.  1.
       -5    1    3    3    0  502 -0.47702671597E+03 -0.41469660625E+03 -0.20144151485E+04  0.21112598712E+04  0.46999998093E+01 0. -1.
</event>
<event>
 5   0  0.1468512E-05  0.2494224E+04  0.7818609E-02  0.8405046E-01
       -2   -1    0    0    0  501  0.00000000000E+00  0.00000000000E+00  0.10509096315E+04  0.10509096315E+04  0.25500000920E-02 0. -1.
        2   -1    0    0  501    0  0.00000000000E+00  0.00000000000E+00 -0.14799449959E+04  0.14799449959E+04  0.25500000920E-02 0.  1.
    10030    2    1    2    0    0  0.00000000000E+00  0.00000000000E+00 -0.42903536439E+03  0.25308546274E+04  0.24942240880E+04 0.  0.
        4    1    3    3  502    0  0.95950123753E+03  0.24354782567E+03  0.55512605329E+03  0.11349558212E+04  0.12699999809E+01 0.  1.
       -4    1    3    3    0  502 -0.95950123753E+03 -0.24354782567E+03 -0.98416141768E+03  0.13958988062E+04  0.12699999809E+01 0. -1.
</event>
<event>
 5   0  0.6104486E-06  0.2504332E+04  0.7818609E-02  0.8401444E-01
        1   -1    0    0  501    0  0.00000000000E+00  0.00000000000E+00  0.12777341751E+04  0.12777341751E+04  0.50400001928E-02 0. -1.
       -1   -1    0    0    0  501  0.00000000000E+00  0.00000000000E+00 -0.12271093235E+04  0.12271093235E+04  0.50400001928E-02 0.  1.
    10030    2    1    2    0    0  0.00000000000E+00  0.00000000000E+00  0.50624851559E+02  0.25048434986E+04  0.25043318624E+04 0.  0.
        2    1    3    3  502    0  0.75958562992E+02  0.12034548104E+04  0.36279258474E+03  0.12592424880E+04  0.25500000920E-02 0.  1.
       -2    1    3    3    0  502 -0.75958562992E+02 -0.12034548104E+04 -0.31216773318E+03  0.12456010106E+04  0.25500000920E-02 0. -1.
</event>
<event>
 5   0  0.1550483E-05  0.2516103E+04  0.7818609E-02  0.8397271E-01
       -2   -1    0    0    0  501  0.00000000000E+00  0.00000000000E+00  0.11118598678E+04  0.11118598679E+04  0.25500000920E-02 0.  1.
        2   -1    0    0  501    0  0.00000000000E+00  0.00000000000E+00 -0.14234654130E+04  0.14234654130E+04  0.25500000920E-02 0. -1.
    10030    2    1    2    0    0  0.00000000000E+00  0.00000000000E+00 -0.31160554513E+03  0.25353252808E+04  0.25161033890E+04 0.  0.
        5    1    3    3  502    0 -0.42423224012E+03  0.84768212328E+03  0.67764001303E+03  0.11652278974E+04  0.46999998093E+01 0.  1.
       -5    1    3    3    0  502  0.42423224012E+03 -0.84768212328E+03 -0.98924555816E+03  0.13700973834E+04  0.46999998093E+01 0. -1.
</event>
<event>
 5   0  0.1550483E-05  0.2510562E+04  0.7818609E-02  0.8399232E-01
       -2   -1    0    0    0  501  0.00000000000E+00  0.00000000000E+00  0.25365813594E+04  0.25365813594E+04  0.25500000920E-02 0. -1.
        2   -1    0    0  501    0  0.00000000000E+00  0.00000000000E+00 -0.62120240124E+03  0.62120240125E+03  0.25500000920E-02 0.  1.
    10030    2    1    2    0    0  0.00000000000E+00  0.00000000000E+00  0.19153789581E+04  0.31577837606E+04  0.25105620338E+04 0.  0.
        5    1    3    3  502    0 -0.42836947145E+03  0.77369790117E+03 -0.16281119340E+03  0.89924324909E+03  0.46999998093E+01 0.  1.
       -5    1    3    3    0  502  0.42836947145E+03 -0.77369790117E+03  0.20781901515E+04  0.22585405115E+04  0.46999998093E+01 0. -1.
</event>
<event>
 5   0  0.1501947E-05  0.2464068E+04  0.7818609E-02  0.8415899E-01
        2   -1    0    0  501    0  0.00000000000E+00  0.00000000000E+00  0.16739876053E+04  0.16739876053E+04  0.25500000920E-02 0.  1.
       -2   -1    0    0    0  501  0.00000000000E+00  0.00000000000E+00 -0.90676196538E+03  0.90676196538E+03  0.25500000920E-02 0. -1.
    10030    2    1    2    0    0  0.00000000000E+00  0.00000000000E+00  0.76722563992E+03  0.25807495707E+04  0.24640684171E+04 0.  0.
        3    1    3    3  502    0  0.11830027664E+03 -0.25330717235E+03 -0.87310121243E+03  0.91676890020E+03  0.10100000352E+00 0. -1.
       -3    1    3    3    0  502 -0.11830027664E+03  0.25330717235E+03  0.16403268524E+04  0.16639806705E+04  0.10100000352E+00 0.  1.
</event>
<event>
 5   0  0.1550483E-05  0.2498158E+04  0.7818609E-02  0.8403642E-01
       -2   -1    0    0    0  501  0.00000000000E+00  0.00000000000E+00  0.59340555198E+03  0.59340555199E+03  0.25500000920E-02 0.  1.
        2   -1    0    0  501    0  0.00000000000E+00  0.00000000000E+00 -0.26292267833E+04  0.26292267833E+04  0.25500000920E-02 0. -1.
    10030    2    1    2    0    0  0.00000000000E+00  0.00000000000E+00 -0.20358212313E+04  0.32226323352E+04  0.24981575376E+04 0.  0.
        5    1    3    3  502    0  0.66782128146E+03 -0.33554715967E+03  0.27312366855E+03  0.79573600438E+03  0.46999998093E+01 0.  1.
       -5    1    3    3    0  502 -0.66782128146E+03  0.33554715967E+03 -0.23089448998E+04  0.24268963309E+04  0.46999998093E+01 0. -1.
</event>
<event>
 5   0  0.1526824E-05  0.2500222E+04  0.7818609E-02  0.8402906E-01
       -2   -1    0    0    0  501  0.00000000000E+00  0.00000000000E+00  0.11162699422E+04  0.11162699422E+04  0.25500000920E-02 0. -1.
        2   -1    0    0  501    0  0.00000000000E+00  0.00000000000E+00 -0.13999996730E+04  0.13999996731E+04  0.25500000920E-02 0.  1.
    10030    2    1    2    0    0  0.00000000000E+00  0.00000000000E+00 -0.28372973089E+03  0.25162696152E+04  0.25002220334E+04 0.  0.
        2    1    3    3  502    0  0.86897602655E+03  0.48713854253E+03  0.61820049457E+03  0.11724312968E+04  0.25500000920E-02 0. -1.
       -2    1    3    3    0  502 -0.86897602655E+03 -0.48713854253E+03 -0.90193022545E+03  0.13438383184E+04  0.25500000920E-02 0.  1.
</event>
<event>
 5   0  0.1550483E-05  0.2479266E+04  0.7818609E-02  0.8410410E-01
        2   -1    0    0  501    0  0.00000000000E+00  0.00000000000E+00  0.25063558538E+04  0.25063558538E+04  0.25500000920E-02 0.  1.
       -2   -1    0    0    0  501  0.00000000000E+00  0.00000000000E+00 -0.61311699479E+03  0.61311699480E+03  0.25500000920E-02 0. -1.
    10030    2    1    2    0    0  0.00000000000E+00  0.00000000000E+00  0.18932388590E+04  0.31194728486E+04  0.24792655114E+04 0.  0.
        5    1    3    3  502    0 -0.59025352147E+03  0.51626285935E+03  0.21546072559E+04  0.22928761582E+04  0.46999998093E+01 0.  1.
       -5    1    3    3    0  502  0.59025352147E+03 -0.51626285935E+03 -0.26136839698E+03  0.82659669034E+03  0.46999998093E+01 0. -1.
</event>
<event>
 5   0  0.1526824E-05  0.2502174E+04  0.7818609E-02  0.8402211E-01
        2   -1    0    0  501    0  0.00000000000E+00  0.00000000000E+00  0.18584054838E+04  0.18584054838E+04  0.25500000920E-02 0.  1.
       -2   -1    0    0    0  501  0.00000000000E+00  0.00000000000E+00 -0.84223750291E+03  0.84223750291E+03  0.25500000920E-02 0. -1.
    10030    2    1    2    0    0  0.00000000000E+00  0.00000000000E+00  0.10161679809E+04  0.27006429867E+04  0.25021740899E+04 0.  0.
        2    1    3    3  502    0 -0.65462108534E+03  0.31910705652E+03 -0.58988633798E+03  0.93718939955E+03  0.25500000920E-02 0. -1.
       -2    1    3    3    0  502  0.65462108534E+03 -0.31910705652E+03  0.16060543189E+04  0.17634535872E+04  0.25500000920E-02 0.  1.
</event>
<event>
 5   0  0.1468512E-05  0.2502178E+04  0.7818609E-02  0.8402210E-01
        2   -1    0    0  501    0  0.00000000000E+00  0.00000000000E+00  0.17590267322E+04  0.17590267322E+04  0.25500000920E-02 0. -1.
       -2   -1    0    0    0  501  0.00000000000E+00  0.00000000000E+00 -0.88982397423E+03  0.88982397423E+03  0.25500000920E-02 0.  1.
    10030    2    1    2    0    0  0.00000000000E+00  0.00000000000E+00  0.86920275801E+03  0.26488507065E+04  0.25021783771E+04 0.  0.
        4    1    3    3  502    0  0.36393520352E+03  0.20301082919E+03 -0.81419097854E+03  0.91464243919E+03  0.12699999809E+01 0.  1.
       -4    1    3    3    0  502 -0.36393520352E+03 -0.20301082919E+03  0.16833937366E+04  0.17342082673E+04  0.12699999809E+01 0. -1.
</event>
<event>
 5   0  0.1572732E-05  0.2425913E+04  0.7818609E-02  0.8429866E-01
       -2   -1    0    0    0  501  0.00000000000E+00  0.00000000000E+00  0.13078189827E+04  0.13078189827E+04  0.25500000920E-02 0. -1.
        2   -1    0    0  501    0  0.00000000000E+00  0.00000000000E+00 -0.11249744916E+04  0.11249744916E+04  0.25500000920E-02 0.  1.
    10030    2    1    2    0    0  0.00000000000E+00  0.00000000000E+00  0.18284449104E+03  0.24327934743E+04  0.24259126078E+04 0.  0.
        1    1    3    3  502    0  0.76054652014E+03 -0.81713287379E+02  0.10354503379E+04  0.12873482330E+04  0.50400001928E-02 0. -1.
       -1    1    3    3    0  502 -0.76054652014E+03  0.81713287379E+02 -0.85260584690E+03  0.11454452413E+04  0.50400001928E-02 0.  1.
</event>
<event>
 5   0  0.6290861E-06  0.2496921E+04  0.7818609E-02  0.8404083E-01
       -1   -1    0    0    0  501  0.00000000000E+00  0.00000000000E+00  0.10478408532E+04  0.10478408532E+04  0.50400001928E-02 0. -1.
        1   -1    0    0  501    0  0.00000000000E+00  0.00000000000E+00 -0.14874912664E+04  0.14874912664E+04  0.50400001928E-02 0.  1.
    10030    2    1    2    0    0  0.00000000000E+00  0.00000000000E+00 -0.43965041320E+03  0.25353321196E+04  0.24969213986E+04 0.  0.
        1    1    3    3  502    0  0.29111933620E+03  0.63270758135E+03  0.83225332203E+03  0.10852257569E+04  0.50400001928E-02 0. -1.
       -1    1    3    3    0  502 -0.29111933620E+03 -0.63270758135E+03 -0.12719037352E+04  0.14501063627E+04  0.50400001928E-02 0.  1.
</event>
<event>
 5   0  0.6477703E-06  0.2488350E+04  0.7818609E-02  0.8407148E-01
        1   -1    0    0  501    0  0.00000000000E+00  0.00000000000E+00  0.21334746444E+04  0.21334746444E+04  0.50400001928E-02 0.  1.
       -1   -1    0    0    0  501  0.00000000000E+00  0.00000000000E+00 -0.72556374210E+03  0.72556374212E+03  0.50400001928E-02 0. -1.
    10030    2    1    2    0    0  0.00000000000E+00  0.00000000000E+00  0.14079109023E+04  0.28590383865E+04  0.24883503344E+04 0.  0.
        5    1    3    3  502    0  0.14237406713E+03 -0.45483500203E+03 -0.61651209631E+03  0.77926536492E+03  0.46999998093E+01 0. -1.
       -5    1    3    3    0  502 -0.14237406713E+03  0.45483500203E+03  0.20244229986E+04  0.20797730216E+04  0.46999998093E+01 0.  1.
</event>
<event>
 5   0  0.6104486E-06  0.2400825E+04  0.7818609E-02  0.8439195E-01
       -1   -1    0    0    0  501  0.00000000000E+00  0.00000000000E+00  0.23018833123E+04  0.23018833123E+04  0.50400001928E-02 0.  1.
        1   -1    0    0  501    0  0.00000000000E+00  0.00000000000E+00 -0.62600484373E+03  0.62600484375E+03  0.50400001928E-02 0. -1.
    10030    2    1    2    0    0  0.00000000000E+00  0.00000000000E+00  0.16758784686E+04  0.29278881561E+04  0.24008249443E+04 0.  0.
        2    1    3    3  502    0 -0.36586943563E+03 -0.16962306252E+03 -0.54092078728E+03  0.67470565834E+03  0.25500000920E-02 0. -1.
       -2    1    3    3    0  502  0.36586943563E+03  0.16962306252E+03  0.22167992559E+04  0.22531824978E+04  0.25500000920E-02 0.  1.
</event>
<event>
 5   0  0.6477703E-06  0.2390142E+04  0.7818609E-02  0.8443203E-01
       -1   -1    0    0    0  501  0.00000000000E+00  0.00000000000E+00  0.15767162642E+04  0.15767162642E+04  0.50400001928E-02 0. -1.
        1   -1    0    0  501    0  0.00000000000E+00  0.00000000000E+00 -0.90580324948E+03  0.90580324949E+03  0.50400001928E-02 0.  1.
    10030    2    1    2    0    0  0.00000000000E+00  0.00000000000E+00  0.67091301473E+03  0.24825195137E+04  0.23901420172E+04 0.  0.
        5    1    3    3  502    0 -0.11815729627E+04 -0.14815179246E+02  0.52078622250E+03  0.12913460169E+04  0.46999998093E+01 0. -1.
       -5    1    3    3    0  502  0.11815729627E+04  0.14815179246E+02  0.15012679223E+03  0.11911734968E+04  0.46999998093E+01 0.  1.
</event>
<event>
 5   0  0.1572732E-05  0.2448256E+04  0.7818609E-02  0.8421655E-01
        2   -1    0    0  501    0  0.00000000000E+00  0.00000000000E+00  0.99377440790E+03  0.99377440791E+03  0.25500000920E-02 0.  1.
       -2   -1    0    0    0  501  0.00000000000E+00  0.00000000000E+00 -0.15078768383E+04  0.15078768383E+04  0.25500000920E-02 0. -1.
    10030    2    1    2    0    0  0.00000000000E+00  0.00000000000E+00 -0.51410243036E+03  0.25016512462E+04  0.24482560423E+04 0.  0.
        1    1    3    3  502    0 -0.67264646800E+03 -0.90262742549E+03  0.23437421441E+03  0.11498351241E+04  0.50400001928E-02 0.  1.
       -1    1    3    3    0  502  0.67264646800E+03  0.90262742549E+03 -0.74847664477E+03  0.13518161221E+04  0.50400001928E-02 0. -1.
</event>
<event>
 5   0  0.1468512E-05  0.2501148E+04  0.7818609E-02  0.8402577E-01
       -2   -1    0    0    0  501  0.00000000000E+00  0.00000000000E+00  0.69913571858E+03  0.69913571859E+03  0.25500000920E-02 0.  1.
        2   -1    0    0  501    0  0.00000000000E+00  0.00000000000E+00 -0.22369554556E+04  0.22369554556E+04  0.25500000920E-02 0. -1.
    10030    2    1    2    0    0  0.00000000000E+00  0.00000000000E+00 -0.15378197370E+04  0.29360911742E+04  0.25011481043E+04 0.  0.
        4    1    3    3  502    0  0.31519360634E+03 -0.70762664589E+03  0.38357481538E+03  0.86441525400E+03  0.12699999809E+01 0.  1.
       -4    1    3    3    0  502 -0.31519360634E+03  0.70762664589E+03 -0.19213945524E+04  0.20716759202E+04  0.12699999809E+01 0. -1.
</event>
<event>
 5   0  0.6346420E-06  0.2503975E+04  0.7818609E-02  0.8401571E-01
       -1   -1    0    0    0  501  0.00000000000E+00  0.00000000000E+00  0.14018268681E+04  0.14018268681E+04  0.50400001928E-02 0.  1.
        1   -1    0    0  501    0  0.00000000000E+00  0.00000000000E+00 -0.11181643260E+04  0.11181643261E+04  0.50400001928E-02 0. -1.
    10030    2    1    2    0    0  0.00000000000E+00  0.00000000000E+00  0.28366254206E+03  0.25199911942E+04  0.25039750759E+04 0.  0.
        4    1    3    3  502    0  0.32796776900E+03 -0.37709595443E+03  0.12970878287E+04  0.13900369292E+04  0.12699999809E+01 0.  1.
       -4    1    3    3    0  502 -0.32796776900E+03  0.37709595443E+03 -0.10134252866E+04  0.11299542649E+04  0.12699999809E+01 0. -1.
</event>
<event>
 5   0  0.6104486E-06  0.2488902E+04  0.7818609E-02  0.8406950E-01
       -1   -1    0    0    0  501  0.00000000000E+00  0.00000000000E+00  0.16718540953E+04  0.16718540953E+04  0.50400001928E-02 0. -1.
        1   -1    0    0  501    0  0.00000000000E+00  0.00000000000E+00 -0.92631195906E+03  0.92631195908E+03  0.50400001928E-02 0.  1.
    10030    2    1    2    0    0  0.00000000000E+00  0.00000000000E+00  0.74554213622E+03  0.25981660544E+04  0.24889021213E+04 0.  0.
        2    1    3    3  502    0 -0.15730654713E+03  0.71424338878E+03 -0.67829179468E+03  0.99748119126E+03  0.25500000920E-02 0.  1.
       -2    1    3    3    0  502  0.15730654713E+03 -0.71424338878E+03  0.14238339309E+04  0.16006848631E+04  0.25500000920E-02 0. -1.
</event>
<event>
 5   0  0.6104486E-06  0.2384432E+04  0.7818609E-02  0.8445355E-01
       -1   -1    0    0    0  501  0.00000000000E+00  0.00000000000E+00  0.85860858528E+03  0.85860858529E+03  0.50400001928E-02 0.  1.
        1   -1    0    0  501    0  0.00000000000E+00  0.00000000000E+00 -0.16554444762E+04  0.16554444762E+04  0.50400001928E-02 0. -1.
    10030    2    1    2    0    0  0.00000000000E+00  0.00000000000E+00 -0.79683589094E+03  0.25140530615E+04  0.23844318734E+04 0.  0.
        2    1    3    3  502    0  0.53699013081E+03 -0.65294781329E+03  0.48792296641E+03  0.97609839086E+03  0.25500000920E-02 0.  1.
       -2    1    3    3    0  502 -0.53699013081E+03  0.65294781329E+03 -0.12847588573E+04  0.15379546707E+04  0.25500000920E-02 0. -1.
</event>
<event>
 5   0  0.1526824E-05  0.2453168E+04  0.7818609E-02  0.8419862E-01
        2   -1    0    0  501    0  0.00000000000E+00  0.00000000000E+00  0.13596087439E+04  0.13596087439E+04  0.25500000920E-02 0. -1.
       -2   -1    0    0    0  501  0.00000000000E+00  0.00000000000E+00 -0.11065749008E+04  0.11065749008E+04  0.25500000920E-02 0.  1.
    10030    2    1    2    0    0  0.00000000000E+00  0.00000000000E+00  0.25303384308E+03  0.24661836447E+04  0.24531684907E+04 0.  0.
        2    1    3    3  502    0  0.18637905974E+03 -0.77896724309E+03 -0.80737980161E+03  0.11372727306E+04  0.25500000920E-02 0.  1.
       -2    1    3    3    0  502 -0.18637905974E+03  0.77896724309E+03  0.10604136447E+04  0.13289109141E+04  0.25500000920E-02 0. -1.
</event>
<event>
 5   0  0.6290861E-06  0.2494603E+04  0.7818609E-02  0.8404911E-01
        1   -1    0    0  501    0  0.00000000000E+00  0.00000000000E+00  0.89959721669E+03  0.89959721670E+03  0.50400001928E-02 0.  1.
       -1   -1    0    0    0  501  0.00000000000E+00  0.00000000000E+00 -0.17293974029E+04  0.17293974029E+04  0.50400001928E-02 0. -1.
    10030    2    1    2    0    0  0.00000000000E+00  0.00000000000E+00 -0.82980018621E+03  0.26289946196E+04  0.24946030468E+04 0.  0.
        1    1    3    3  502    0 -0.10917634069E+04 -0.17393973935E+01 -0.10505617265E+04  0.15151337576E+04  0.50400001928E-02 0. -1.
       -1    1    3    3    0  502  0.10917634069E+04  0.17393973935E+01  0.22076154032E+03  0.11138608620E+04  0.50400001928E-02 0.  1.
</event>
<event>
 5   0  0.6346420E-06  0.2504263E+04  0.7818609E-02  0.8401468E-01
        1   -1    0    0  501    0  0.00000000000E+00  0.00000000000E+00  0.10465479370E+04  0.10465479370E+04  0.50400001928E-02 0.  1.
       -1   -1    0    0    0  501  0.00000000000E+00  0.00000000000E+00 -0.14981003481E+04  0.14981003481E+04  0.50400001928E-02 0. -1.
    10030    2    1    2    0    0  0.00000000000E+00  0.00000000000E+00 -0.45155241108E+03  0.25446482851E+04  0.25042634276E+04 0.  0.
        4    1    3    3  502    0 -0.87969462703E+02  0.10488312996E+04  0.46342910548E+03  0.11500234216E+04  0.12699999809E+01 0.  1.
       -4    1    3    3    0  502  0.87969462703E+02 -0.10488312996E+04 -0.91498151656E+03  0.13946248635E+04  0.12699999809E+01 0. -1.
</event>
<event>
 5   0  0.6105353E-06  0.2491650E+04  0.7818609E-02  0.8405966E-01
       -1   -1    0    0    0  501  0.00000000000E+00  0.00000000000E+00  0.16962347835E+04  0.16962347835E+04  0.50400001928E-02 0. -1.
        1   -1    0    0  501    0  0.00000000000E+00  0.00000000000E+00 -0.91501501567E+03  0.91501501568E+03  0.50400001928E-02 0.  1.
    10030    2    1    2    0    0  0.00000000000E+00  0.00000000000E+00  0.78121976782E+03  0.26112497992E+04  0.24916502941E+04 0.  0.
        3    1    3    3  502    0  0.47853154848E+03  0.83420495165E+03 -0.43935720953E+03  0.10573197776E+04  0.10100000352E+00 0.  1.
       -3    1    3    3    0  502 -0.47853154848E+03 -0.83420495165E+03  0.12205769774E+04  0.15539300216E+04  0.10100000352E+00 0. -1.
</event>
<event>
 5   0  0.6346420E-06  0.2501322E+04  0.7818609E-02  0.8402515E-01
       -1   -1    0    0    0  501  0.00000000000E+00  0.00000000000E+00  0.10958611683E+04  0.10958611683E+04  0.50400001928E-02 0. -1.
        1   -1    0    0  501    0  0.00000000000E+00  0.00000000000E+00 -0.14273280754E+04  0.14273280754E+04  0.50400001928E-02 0.  1.
    10030    2    1    2    0    0  0.00000000000E+00  0.00000000000E+00 -0.33146690718E+03  0.25231892437E+04  0.25013223801E+04 0.  0.
        4    1    3    3  502    0  0.39777298336E+03  0.99522137255E+03 -0.81593240618E+03  0.13470101080E+04  0.12699999809E+01 0. -1.
       -4    1    3    3    0  502 -0.39777298336E+03 -0.99522137255E+03  0.48446549900E+03  0.11761791357E+04  0.12699999809E+01 0.  1.
</event>
<event>
 5   0  0.1468512E-05  0.2496266E+04  0.7818609E-02  0.8404317E-01
       -2   -1    0    0    0  501  0.00000000000E+00  0.00000000000E+00  0.12662247166E+04  0.12662247166E+04  0.25500000920E-02 0. -1.
        2   -1    0    0  501    0  0.00000000000E+00  0.00000000000E+00 -0.12302996341E+04  0.12302996341E+04  0.25500000920E-02 0.  1.
    10030    2    1    2    0    0  0.00000000000E+00  0.00000000000E+00  0.35925082511E+02  0.24965243507E+04  0.24962658556E+04 0.  0.
        4    1    3    3  502    0 -0.90745375192E+03 -0.63516504258E+02 -0.83671798209E+03  0.12359632894E+04  0.12699999809E+01 0.  1.
       -4    1    3    3    0  502  0.90745375192E+03  0.63516504258E+02  0.87264306460E+03  0.12605610613E+04  0.12699999809E+01 0. -1.
</event>
<event>
 5   0  0.1526824E-05  0.2504737E+04  0.7818609E-02  0.8401300E-01
       -2   -1    0    0    0  501  0.00000000000E+00  0.00000000000E+00  0.92187689426E+03  0.92187689426E+03  0.25500000920E-02 0.  1.
        2   -1    0    0  501    0  0.00000000000E+00  0.00000000000E+00 -0.17013407183E+04  0.17013407183E+04  0.25500000920E-02 0. -1.
    10030    2    1    2    0    0  0.00000000000E+00  0.00000000000E+00 -0.77946382406E+03  0.26232176126E+04  0.25047368704E+04 0.  0.
        2    1    3    3  502    0  0.23012173472E+03 -0.46560480355E+02  0.89862184881E+03  0.92878690682E+03  0.25500000920E-02 0.  1.
       -2    1    3    3    0  502 -0.23012173472E+03  0.46560480355E+02 -0.16780856729E+04  0.16944307058E+04  0.25500000920E-02 0. -1.
</event>
<event>
 5   0  0.1550483E-05  0.2503267E+04  0.7818609E-02  0.8401822E-01
       -2   -1    0    0    0  501  0.00000000000E+00  0.00000000000E+00  0.14338832716E+04  0.14338832716E+04  0.25500000920E-02 0.  1.
        2   -1    0    0  501    0  0.00000000000E+00  0.00000000000E+00 -0.10925483685E+04  0.10925483685E+04  0.25500000920E-02 0. -1.
    10030    2    1    2    0    0  0.00000000000E+00  0.00000000000E+00  0.34133490310E+03  0.25264316401E+04  0.25032673282E+04 0.  0.
        5    1    3    3  502    0 -0.26154133349E+03 -0.44379991572E+03  0.13219257292E+04  0.14187571877E+04  0.46999998093E+01 0.  1.
       -5    1    3    3    0  502  0.26154133349E+03  0.44379991572E+03 -0.98059082607E+03  0.11076744524E+04  0.46999998093E+01 0. -1.
</event>
<event>
 5   0  0.1501947E-05  0.2514359E+04  0.7818609E-02  0.8397888E-01
       -2   -1    0    0    0  501  0.00000000000E+00  0.00000000000E+00  0.14203865797E+04  0.14203865797E+04  0.25500000920E-02 0. -1.
        2   -1    0    0  501    0  0.00000000000E+00  0.00000000000E+00 -0.11127254801E+04  0.11127254801E+04  0.25500000920E-02 0.  1.
    10030    2    1    2    0    0  0.00000000000E+00  0.00000000000E+00  0.30766109952E+03  0.25331120598E+04  0.25143590347E+04 0.  0.
        3    1    3    3  502    0 -0.10073057495E+04 -0.69856338347E+03  0.43491803449E+03  0.13006957294E+04  0.10100000352E+00 0. -1.
       -3    1    3    3    0  502  0.10073057495E+04  0.69856338347E+03 -0.12725693497E+03  0.12324163304E+04  0.10100000352E+00 0.  1.
</event>
<event>
 5   0  0.1572732E-05  0.2485758E+04  0.7818609E-02  0.8408077E-01
       -2   -1    0    0    0  501  0.00000000000E+00  0.00000000000E+00  0.14672103462E+04  0.14672103462E+04  0.25500000920E-02 0. -1.
        2   -1    0    0  501    0  0.00000000000E+00  0.00000000000E+00 -0.10528467349E+04  0.10528467349E+04  0.25500000920E-02 0.  1.
    10030    2    1    2    0    0  0.00000000000E+00  0.00000000000E+00  0.41436361134E+03  0.25200570811E+04  0.24857575284E+04 0.  0.
        1    1    3    3  502    0 -0.92045963147E+03 -0.27503324441E+03 -0.59227935260E+03  0.11285761163E+04  0.50400001928E-02 0.  1.
       -1    1    3    3    0  502  0.92045963147E+03  0.27503324441E+03  0.10066429639E+04  0.13914809649E+04  0.50400001928E-02 0. -1.
</event>
<event>
 5   0  0.6105353E-06  0.2495925E+04  0.7818609E-02  0.8404439E-01
        1   -1    0    0  501    0  0.00000000000E+00  0.00000000000E+00  0.13551327461E+04  0.13551327461E+04  0.50400001928E-02 0. -1.
       -1   -1    0    0    0  501  0.00000000000E+00  0.00000000000E+00 -0.11492673677E+04  0.11492673677E+04  0.50400001928E-02 0.  1.
    10030    2    1    2    0    0  0.00000000000E+00  0.00000000000E+00  0.20586537844E+03  0.25044001139E+04  0.24959245534E+04 0.  0.
        3    1    3    3  502    0  0.36819212298E+02  0.48594342933E+03  0.12557087297E+04  0.13469599455E+04  0.10100000352E+00 0. -1.
       -3    1    3    3    0  502 -0.36819212298E+02 -0.48594342933E+03 -0.10498433512E+04  0.11574401683E+04  0.10100000352E+00 0.  1.
</event>
<event>
 5   0  0.6105353E-06  0.2494567E+04  0.7818609E-02  0.8404924E-01
       -1   -1    0    0    0  501  0.00000000000E+00  0.00000000000E+00  0.89596643560E+03  0.89596643561E+03  0.50400001928E-02 0. -1.
        1   -1    0    0  501    0  0.00000000000E+00  0.00000000000E+00 -0.17363547580E+04  0.17363547580E+04  0.50400001928E-02 0.  1.
    10030    2    1    2    0    0  0.00000000000E+00  0.00000000000E+00 -0.84038832237E+03  0.26323211936E+04  0.24945665623E+04 0.  0.
        3    1    3    3  502    0 -0.64475190270E+03 -0.85315727070E+03 -0.10976213129E+04  0.15324343057E+04  0.10100000352E+00 0.  1.
       -3    1    3    3    0  502  0.64475190270E+03  0.85315727070E+03  0.25723299049E+03  0.10998868879E+04  0.10100000352E+00 0. -1.
</event>
<event>
 5   0  0.1550483E-05  0.2614480E+04  0.7818609E-02  0.8363299E-01
        2   -1    0    0  501    0  0.00000000000E+00  0.00000000000E+00  0.16574486477E+04  0.16574486477E+04  0.25500000920E-02 0.  1.
       -2   -1    0    0    0  501  0.00000000000E+00  0.00000000000E+00 -0.10310281853E+04  0.10310281853E+04  0.25500000920E-02 0. -1.
    10030    2    1    2    0    0  0.00000000000E+00  0.00000000000E+00  0.62642046241E+03  0.26884768329E+04  0.26144798881E+04 0.  0.
        5    1    3    3  502    0  0.14094901473E+03 -0.12716612847E+04  0.58887426818E+03  0.14084686867E+04  0.46999998093E+01 0. -1.
       -5    1    3    3    0  502 -0.14094901473E+03  0.12716612847E+04  0.37546194230E+02  0.12800081462E+04  0.46999998093E+01 0.  1.
</event>
<event>
 5   0  0.6346420E-06  0.2553185E+04  0.7818609E-02  0.8384279E-01
        1   -1    0    0  501    0  0.00000000000E+00  0.00000000000E+00  0.21190839899E+04  0.21190839899E+04  0.50400001928E-02 0. -1.
       -1   -1    0    0    0  501  0.00000000000E+00  0.00000000000E+00 -0.76905329482E+03  0.76905329483E+03  0.50400001928E-02 0.  1.
    10030    2    1    2    0    0  0.00000000000E+00  0.00000000000E+00  0.13500306951E+04  0.28881372847E+04  0.25531850888E+04 0.  0.
        4    1    3    3  502    0  0.28398315662E+03 -0.35593278550E+03  0.20240997715E+04  0.20746845733E+04  0.12699999809E+01 0. -1.
       -4    1    3    3    0  502 -0.28398315662E+03  0.35593278550E+03 -0.67406907639E+03  0.81345271140E+03  0.12699999809E+01 0.  1.
</event>
<event>
 5   0  0.1572732E-05  0.2496415E+04  0.7818609E-02  0.8404264E-01
        2   -1    0    0  501    0  0.00000000000E+00  0.00000000000E+00  0.15058262654E+04  0.15058262654E+04  0.25500000920E-02 0. -1.
       -2   -1    0    0    0  501  0.00000000000E+00  0.00000000000E+00 -0.10346624061E+04  0.10346624061E+04  0.25500000920E-02 0.  1.
    10030    2    1    2    0    0  0.00000000000E+00  0.00000000000E+00  0.47116385926E+03  0.25404886715E+04  0.24964148909E+04 0.  0.
        1    1    3    3  502    0  0.26786653816E+02 -0.56491186261E+03  0.13679619440E+04  0.14802576862E+04  0.50400001928E-02 0. -1.
       -1    1    3    3    0  502 -0.26786653816E+02  0.56491186261E+03 -0.89679808473E+03  0.10602309853E+04  0.50400001928E-02 0.  1.
</event>
<event>
 5   0  0.1501947E-05  0.2508867E+04  0.7818609E-02  0.8399834E-01
       -2   -1    0    0    0  501  0.00000000000E+00  0.00000000000E+00  0.11217522062E+04  0.11217522062E+04  0.25500000920E-02 0.  1.
        2   -1    0    0  501    0  0.00000000000E+00  0.00000000000E+00 -0.14028080758E+04  0.14028080758E+04  0.25500000920E-02 0. -1.
    10030    2    1    2    0    0  0.00000000000E+00  0.00000000000E+00 -0.28105586963E+03  0.25245602820E+04  0.25088667194E+04 0.  0.
        3    1    3    3  502    0 -0.74694216645E+03  0.67983676991E+03 -0.88915911763E+03  0.13456242345E+04  0.10100000352E+00 0. -1.
       -3    1    3    3    0  502  0.74694216645E+03 -0.67983676991E+03  0.60810324801E+03  0.11789360475E+04  0.10100000352E+00 0.  1.
</event>
<event>
 5   0  0.6105353E-06  0.2509897E+04  0.7818609E-02  0.8399468E-01
       -1   -1    0    0    0  501  0.00000000000E+00  0.00000000000E+00  0.94787638917E+03  0.94787638918E+03  0.50400001928E-02 0. -1.
        1   -1    0    0  501    0  0.00000000000E+00  0.00000000000E+00 -0.16614995250E+04  0.16614995250E+04  0.50400001928E-02 0.  1.
    10030    2    1    2    0    0  0.00000000000E+00  0.00000000000E+00 -0.71362313579E+03  0.26093759141E+04  0.25098973448E+04 0.  0.
        3    1    3    3  502    0  0.86129985263E+03 -0.21935992639E+03 -0.12778948630E+04  0.15565897033E+04  0.10100000352E+00 0.  1.
       -3    1    3    3    0  502 -0.86129985263E+03  0.21935992639E+03  0.56427172717E+03  0.10527862108E+04  0.10100000352E+00 0. -1.
</event>
<event>
 5   0  0.1501947E-05  0.2500168E+04  0.7818609E-02  0.8402926E-01
        2   -1    0    0  501    0  0.00000000000E+00  0.00000000000E+00  0.14993892544E+04  0.14993892544E+04  0.25500000920E-02 0.  1.
       -2   -1    0    0    0  501  0.00000000000E+00  0.00000000000E+00 -0.10422307008E+04  0.10422307008E+04  0.25500000920E-02 0. -1.
    10030    2    1    2    0    0  0.00000000000E+00  0.00000000000E+00  0.45715855361E+03  0.25416199551E+04  0.25001676050E+04 0.  0.
        3    1    3    3  502    0 -0.11297842663E+04 -0.52744429659E+03  0.13708975433E+03  0.12543538517E+04  0.10100000352E+00 0. -1.
       -3    1    3    3    0  502  0.11297842663E+04  0.52744429659E+03  0.32006879928E+03  0.12872661034E+04  0.10100000352E+00 0.  1.
</event>
<event>
 5   0  0.1572732E-05  0.2349097E+04  0.7818609E-02  0.8458811E-01
       -2   -1    0    0    0  501  0.00000000000E+00  0.00000000000E+00  0.92722566876E+03  0.92722566876E+03  0.25500000920E-02 0. -1.
        2   -1    0    0  501    0  0.00000000000E+00  0.00000000000E+00 -0.14878407538E+04  0.14878407538E+04  0.25500000920E-02 0.  1.
    10030    2    1    2    0    0  0.00000000000E+00  0.00000000000E+00 -0.56061508502E+03  0.24150664225E+04  0.23490969652E+04 0.  0.
        1    1    3    3  502    0  0.63553140277E+03  0.75150110661E+03 -0.93933198648E+03  0.13605141153E+04  0.50400001928E-02 0. -1.
       -1    1    3    3    0  502 -0.63553140277E+03 -0.75150110661E+03  0.37871690147E+03  0.10545523072E+04  0.50400001928E-02 0.  1.
</event>
<event>
 5   0  0.6104486E-06  0.2501814E+04  0.7818609E-02  0.8402340E-01
       -1   -1    0    0    0  501  0.00000000000E+00  0.00000000000E+00  0.96620931395E+03  0.96620931396E+03  0.50400001928E-02 0.  1.
        1   -1    0    0  501    0  0.00000000000E+00  0.00000000000E+00 -0.16194920975E+04  0.16194920975E+04  0.50400001928E-02 0. -1.
    10030    2    1    2    0    0  0.00000000000E+00  0.00000000000E+00 -0.65328278355E+03  0.25857014115E+04  0.25018140207E+04 0.  0.
        2    1    3    3  502    0 -0.10533166378E+03  0.95351602996E+03 -0.11563552273E+04  0.15024796140E+04  0.25500000920E-02 0. -1.
       -2    1    3    3    0  502  0.10533166378E+03 -0.95351602996E+03  0.50307244376E+03  0.10832217974E+04  0.25500000920E-02 0.  1.
</event>
<event>
 5   0  0.1468512E-05  0.2520452E+04  0.7818609E-02  0.8395736E-01
       -2   -1    0    0    0  501  0.00000000000E+00  0.00000000000E+00  0.90554350732E+03  0.90554350733E+03  0.25500000920E-02 0.  1.
        2   -1    0    0  501    0  0.00000000000E+00  0.00000000000E+00 -0.17538296157E+04  0.17538296157E+04  0.25500000920E-02 0. -1.
    10030    2    1    2    0    0  0.00000000000E+00  0.00000000000E+00 -0.84828610840E+03  0.26593731230E+04  0.25204515639E+04 0.  0.
        4    1    3    3  502    0 -0.36160334789E+03 -0.10503882128E+04  0.20371408187E+03  0.11294128647E+04  0.12699999809E+01 0.  1.
       -4    1    3    3    0  502  0.36160334789E+03  0.10503882128E+04 -0.10520001903E+04  0.15299602583E+04  0.12699999809E+01 0. -1.
</event>
<event>
 5   0  0.1526824E-05  0.2497153E+04  0.7818609E-02  0.8404000E-01
        2   -1    0    0  501    0  0.00000000000E+00  0.00000000000E+00  0.87875279435E+03  0.87875279436E+03  0.25500000920E-02 0. -1.
       -2   -1    0    0    0  501  0.00000000000E+00  0.00000000000E+00 -0.17740408768E+04  0.17740408768E+04  0.25500000920E-02 0.  1.
    10030    2    1    2    0    0  0.00000000000E+00  0.00000000000E+00 -0.89528808244E+03  0.26527936712E+04  0.24971530812E+04 0.  0.
        2    1    3    3  502    0 -0.11814845637E+04 -0.39427743311E+03 -0.35513669211E+03  0.12951766438E+04  0.25500000920E-02 0.  1.
       -2    1    3    3    0  502  0.11814845637E+04  0.39427743311E+03 -0.54015139034E+03  0.13576170274E+04  0.25500000920E-02 0. -1.
</event>
<event>
 5   0  0.6105353E-06  0.2499208E+04  0.7818609E-02  0.8403268E-01
        1   -1    0    0  501    0  0.00000000000E+00  0.00000000000E+00  0.20112219934E+04  0.20112219934E+04  0.50400001928E-02 0.  1.
       -1   -1    0    0    0  501  0.00000000000E+00  0.00000000000E+00 -0.77639862373E+03  0.77639862375E+03  0.50400001928E-02 0. -1.
    10030    2    1    2    0    0  0.00000000000E+00  0.00000000000E+00  0.12348233697E+04  0.27876206172E+04  0.24992078647E+04 0.  0.
        3    1    3    3  502    0 -0.50910120095E+03  0.41502120296E+03  0.18031436461E+04  0.19190501948E+04  0.10100000352E+00 0.  1.
       -3    1    3    3    0  502  0.50910120095E+03 -0.41502120296E+03 -0.56832027642E+03  0.86857042231E+03  0.10100000352E+00 0. -1.
</event>
<event>
 5   0  0.6346420E-06  0.2491367E+04  0.7818609E-02  0.8406067E-01
        1   -1    0    0  501    0  0.00000000000E+00  0.00000000000E+00  0.16770034326E+04  0.16770034326E+04  0.50400001928E-02 0.  1.
       -1   -1    0    0    0  501  0.00000000000E+00  0.00000000000E+00 -0.92529799315E+03  0.92529799316E+03  0.50400001928E-02 0. -1.
    10030    2    1    2    0    0  0.00000000000E+00  0.00000000000E+00  0.75170543943E+03  0.26023014257E+04  0.24913674243E+04 0.  0.
        4    1    3    3  502    0 -0.54683346530E+03  0.59747184412E+03 -0.61271770978E+03  0.10155904923E+04  0.12699999809E+01 0.  1.
       -4    1    3    3    0  502  0.54683346530E+03 -0.59747184412E+03  0.13644231492E+04  0.15867109334E+04  0.12699999809E+01 0. -1.
</event>
<event>
 5   0  0.6477703E-06  0.2503797E+04  0.7818609E-02  0.8401634E-01
       -1   -1    0    0    0  501  0.00000000000E+00  0.00000000000E+00  0.87985725831E+03  0.87985725832E+03  0.50400001928E-02 0.  1.
        1   -1    0    0  501    0  0.00000000000E+00  0.00000000000E+00 -0.17812544505E+04  0.17812544505E+04  0.50400001928E-02 0. -1.
    10030    2    1    2    0    0  0.00000000000E+00  0.00000000000E+00 -0.90139719215E+03  0.26611117088E+04  0.25037968425E+04 0.  0.
        5    1    3    3  502    0 -0.89041753837E+03 -0.23885951633E+03 -0.13508666748E+04  0.16354693896E+04  0.46999998093E+01 0. -1.
       -5    1    3    3    0  502  0.89041753837E+03  0.23885951633E+03  0.44946948262E+03  0.10256423192E+04  0.46999998093E+01 0.  1.
</event>
<event>
 5   0  0.6346420E-06  0.2623538E+04  0.7818609E-02  0.8360250E-01
       -1   -1    0    0    0  501  0.00000000000E+00  0.00000000000E+00  0.91631809343E+03  0.91631809345E+03  0.50400001928E-02 0. -1.
        1   -1    0    0  501    0  0.00000000000E+00  0.00000000000E+00 -0.18778822029E+04  0.18778822029E+04  0.50400001928E-02 0.  1.
    10030    2    1    2    0    0  0.00000000000E+00  0.00000000000E+00 -0.96156410947E+03  0.27942002964E+04  0.26235376421E+04 0.  0.
        4    1    3    3  502    0 -0.60579408430E+03 -0.94869622744E+03  0.23662642267E+03  0.11502194057E+04  0.12699999809E+01 0. -1.
       -4    1    3    3    0  502  0.60579408430E+03  0.94869622744E+03 -0.11981905321E+04  0.16439808906E+04  0.12699999809E+01 0.  1.
</event>
<event>
 5   0  0.6290861E-06  0.2501198E+04  0.7818609E-02  0.8402559E-01
        1   -1    0    0  501    0  0.00000000000E+00  0.00000000000E+00  0.24939410453E+04  0.24939410453E+04  0.50400001928E-02 0. -1.
       -1   -1    0    0    0  501  0.00000000000E+00  0.00000000000E+00 -0.62711890293E+03  0.62711890295E+03  0.50400001928E-02 0.  1.
    10030    2    1    2    0    0  0.00000000000E+00  0.00000000000E+00  0.18668221423E+04  0.31210599482E+04  0.25011977709E+04 0.  0.
        1    1    3    3  502    0 -0.10560887383E+04  0.22535013777E+03  0.17205228091E+04  0.20313308063E+04  0.50400001928E-02 0. -1.
       -1    1    3    3    0  502  0.10560887383E+04 -0.22535013777E+03  0.14629933322E+03  0.10897291419E+04  0.50400001928E-02 0.  1.
</event>
<event>
 5   0  0.1550483E-05  0.2230728E+04  0.7818609E-02  0.8505746E-01
       -2   -1    0    0    0  501  0.00000000000E+00  0.00000000000E+00  0.71110715309E+03  0.71110715310E+03  0.25500000920E-02 0. -1.
        2   -1    0    0  501    0  0.00000000000E+00  0.00000000000E+00 -0.17494371449E+04  0.17494371449E+04  0.25500000920E-02 0.  1.
    10030    2    1    2    0    0  0.00000000000E+00  0.00000000000E+00 -0.10383299918E+04  0.24605442980E+04  0.22307283722E+04 0.  0.
        5    1    3    3  502    0  0.55867395857E+03 -0.96534349935E+03 -0.51558842458E+03  0.12287628645E+04  0.46999998093E+01 0. -1.
       -5    1    3    3    0  502 -0.55867395857E+03  0.96534349935E+03 -0.52274156722E+03  0.12317814335E+04  0.46999998093E+01 0.  1.
</event>
<event>
 5   0  0.6346420E-06  0.2485485E+04  0.7818609E-02  0.8408175E-01
       -1   -1    0    0    0  501  0.00000000000E+00  0.00000000000E+00  0.68451294751E+03  0.68451294753E+03  0.50400001928E-02 0. -1.
        1   -1    0    0  501    0  0.00000000000E+00  0.00000000000E+00 -0.22562166390E+04  0.22562166390E+04  0.50400001928E-02 0.  1.
    10030    2    1    2    0    0  0.00000000000E+00  0.00000000000E+00 -0.15717036915E+04  0.29407295865E+04  0.24854854671E+04 0.  0.
        4    1    3    3  502    0 -0.16655644610E+03 -0.10148301803E+04 -0.16113443716E+04  0.19115579095E+04  0.12699999809E+01 0.  1.
       -4    1    3    3    0  502  0.16655644610E+03  0.10148301803E+04  0.39640680075E+02  0.10291716771E+04  0.12699999809E+01 0. -1.
</event>
<event>
 5   0  0.5164625E-06  0.2516287E+04  0.7818609E-02  0.8397206E-01
        4   -1    0    0  501    0  0.00000000000E+00  0.00000000000E+00  0.62099341579E+03  0.62099471444E+03  0.12699999809E+01 0.  1.
       -4   -1    0    0    0  501  0.00000000000E+00  0.00000000000E+00 -0.25490163353E+04  0.25490166516E+04  0.12699999809E+01 0. -1.
    10030    2    1    2    0    0  0.00000000000E+00  0.00000000000E+00 -0.19280229195E+04  0.31700113661E+04  0.25162868841E+04 0.  0.
        5    1    3    3  502    0 -0.62343741634E+03 -0.48006787642E+03  0.27274985447E+03  0.83279886598E+03  0.46999998093E+01 0.  1.
       -5    1    3    3    0  502  0.62343741634E+03  0.48006787642E+03 -0.22007727739E+04  0.23372125001E+04  0.46999998093E+01 0. -1.
</event>
<event>
 5   0  0.1501947E-05  0.2496423E+04  0.7818609E-02  0.8404261E-01
        2   -1    0    0  501    0  0.00000000000E+00  0.00000000000E+00  0.17137653253E+04  0.17137653253E+04  0.25500000920E-02 0. -1.
       -2   -1    0    0    0  501  0.00000000000E+00  0.00000000000E+00 -0.90912762112E+03  0.90912762113E+03  0.25500000920E-02 0.  1.
    10030    2    1    2    0    0  0.00000000000E+00  0.00000000000E+00  0.80463770421E+03  0.26228929465E+04  0.24964225551E+04 0.  0.
        3    1    3    3  502    0 -0.10265846359E+04  0.25057758638E+03  0.11003294616E+04  0.15255786036E+04  0.10100000352E+00 0. -1.
       -3    1    3    3    0  502  0.10265846359E+04 -0.25057758638E+03 -0.29569175741E+03  0.10973143429E+04  0.10100000352E+00 0.  1.
</event>
<event>
 5   0  0.1501947E-05  0.2495261E+04  0.7818609E-02  0.8404676E-01
        2   -1    0    0  501    0  0.00000000000E+00  0.00000000000E+00  0.13222796835E+04  0.13222796835E+04  0.25500000920E-02 0.  1.
       -2   -1    0    0    0  501  0.00000000000E+00  0.00000000000E+00 -0.11771953893E+04  0.11771953893E+04  0.25500000920E-02 0. -1.
    10030    2    1    2    0    0  0.00000000000E+00  0.00000000000E+00  0.14508429423E+03  0.24994750728E+04  0.24952607453E+04 0.  0.
        3    1    3    3  502    0  0.19707929424E+03  0.65568593911E+03 -0.97220415740E+03  0.11890942910E+04  0.10100000352E+00 0. -1.
       -3    1    3    3    0  502 -0.19707929424E+03 -0.65568593911E+03  0.11172884516E+04  0.13103807818E+04  0.10100000352E+00 0.  1.
</event>
<event>
 5   0  0.6477703E-06  0.2504714E+04  0.7818609E-02  0.8401308E-01
        1   -1    0    0  501    0  0.00000000000E+00  0.00000000000E+00  0.97278015155E+03  0.97278015157E+03  0.50400001928E-02 0. -1.
       -1   -1    0    0    0  501  0.00000000000E+00  0.00000000000E+00 -0.16122844385E+04  0.16122844385E+04  0.50400001928E-02 0.  1.
    10030    2    1    2    0    0  0.00000000000E+00  0.00000000000E+00 -0.63950428694E+03  0.25850645901E+04  0.25047141956E+04 0.  0.
        5    1    3    3  502    0  0.47656189257E+03  0.37180752670E+03 -0.14517624786E+04  0.15725738325E+04  0.46999998093E+01 0.  1.
       -5    1    3    3    0  502 -0.47656189257E+03 -0.37180752670E+03  0.81225819163E+03  0.10124907576E+04  0.46999998093E+01 0. -1.
</event>
<event>
 5   0  0.1550483E-05  0.2490728E+04  0.7818609E-02  0.8406296E-01
        2   -1    0    0  501    0  0.00000000000E+00  0.00000000000E+00  0.20085032770E+04  0.20085032770E+04  0.25500000920E-02 0. -1.
       -2   -1    0    0    0  501  0.00000000000E+00  0.00000000000E+00 -0.77218284671E+03  0.77218284672E+03  0.25500000920E-02 0.  1.
    10030    2    1    2    0    0  0.00000000000E+00  0.00000000000E+00  0.12363204303E+04  0.27806861237E+04  0.24907282293E+04 0.  0.
        5    1    3    3  502    0 -0.95782212005E+03  0.63406859898E+03  0.11552515031E+04  0.16291391369E+04  0.46999998093E+01 0. -1.
       -5    1    3    3    0  502  0.95782212005E+03 -0.63406859898E+03  0.81068927129E+02  0.11515469868E+04  0.46999998093E+01 0.  1.
</event>
<event>
 5   0  0.1501947E-05  0.2593508E+04  0.7818609E-02  0.8370410E-01
       -2   -1    0    0    0  501  0.00000000000E+00  0.00000000000E+00  0.96375735369E+03  0.96375735370E+03  0.25500000920E-02 0. -1.
        2   -1    0    0  501    0  0.00000000000E+00  0.00000000000E+00 -0.17448073144E+04  0.17448073144E+04  0.25500000920E-02 0.  1.
    10030    2    1    2    0    0  0.00000000000E+00  0.00000000000E+00 -0.78104996073E+03  0.27085646681E+04  0.25935079565E+04 0.  0.
        3    1    3    3  502    0 -0.72340398920E+03  0.95568412014E+03 -0.90737976148E+03  0.15033241536E+04  0.10100000352E+00 0.  1.
       -3    1    3    3    0  502  0.72340398920E+03 -0.95568412014E+03  0.12632980075E+03  0.12052405145E+04  0.10100000352E+00 0. -1.
</event>
<event>
 5   0  0.6105353E-06  0.2502726E+04  0.7818609E-02  0.8402015E-01
       -1   -1    0    0    0  501  0.00000000000E+00  0.00000000000E+00  0.87954684303E+03  0.87954684305E+03  0.50400001928E-02 0.  1.
        1   -1    0    0  501    0  0.00000000000E+00  0.00000000000E+00 -0.17803586429E+04  0.17803586429E+04  0.50400001928E-02 0. -1.
    10030    2    1    2    0    0  0.00000000000E+00  0.00000000000E+00 -0.90081179984E+03  0.26599054859E+04  0.25027255733E+04 0.  0.
        3    1    3    3  502    0  0.65998935022E+03  0.10163203554E+04 -0.78212286935E+03  0.14422930354E+04  0.10100000352E+00 0. -1.
       -3    1    3    3    0  502 -0.65998935022E+03 -0.10163203554E+04 -0.11868893049E+03  0.12176124505E+04  0.10100000352E+00 0.  1.
</event>
<event>
 5   0  0.6105353E-06  0.2488768E+04  0.7818609E-02  0.8406998E-01
       -1   -1    0    0    0  501  0.00000000000E+00  0.00000000000E+00  0.16669105097E+04  0.16669105098E+04  0.50400001928E-02 0.  1.
        1   -1    0    0  501    0  0.00000000000E+00  0.00000000000E+00 -0.92895870598E+03  0.92895870600E+03  0.50400001928E-02 0. -1.
    10030    2    1    2    0    0  0.00000000000E+00  0.00000000000E+00  0.73795180377E+03  0.25958692158E+04  0.24887675907E+04 0.  0.
        3    1    3    3  502    0  0.11089537771E+04  0.39597063945E+03 -0.50733246269E+02  0.11786199979E+04  0.10100000352E+00 0.  1.
       -3    1    3    3    0  502 -0.11089537771E+04 -0.39597063945E+03  0.78868505003E+03  0.14172492178E+04  0.10100000352E+00 0. -1.
</event>
<event>
 5   0  0.6346420E-06  0.2514750E+04  0.7818609E-02  0.8397750E-01
        1   -1    0    0  501    0  0.00000000000E+00  0.00000000000E+00  0.18391665847E+04  0.18391665847E+04  0.50400001928E-02 0. -1.
       -1   -1    0    0    0  501  0.00000000000E+00  0.00000000000E+00 -0.85962414145E+03  0.85962414146E+03  0.50400001928E-02 0.  1.
    10030    2    1    2    0    0  0.00000000000E+00  0.00000000000E+00  0.97954244322E+03  0.26987907261E+04  0.25147500841E+04 0.  0.
        4    1    3    3  502    0 -0.44450208117E+03 -0.62618144509E+03  0.15582798755E+04  0.17372170520E+04  0.12699999809E+01 0. -1.
       -4    1    3    3    0  502  0.44450208117E+03  0.62618144509E+03 -0.57873743231E+03  0.96157367414E+03  0.12699999809E+01 0.  1.
</event>
<event>
 5   0  0.1572732E-05  0.2418108E+04  0.7818609E-02  0.8432755E-01
        2   -1    0    0  501    0  0.00000000000E+00  0.00000000000E+00  0.16873063108E+04  0.16873063108E+04  0.25500000920E-02 0. -1.
       -2   -1    0    0    0  501  0.00000000000E+00  0.00000000000E+00 -0.86635826104E+03  0.86635826105E+03  0.25500000920E-02 0.  1.
    10030    2    1    2    0    0  0.00000000000E+00  0.00000000000E+00  0.82094804979E+03  0.25536645719E+04  0.24181081542E+04 0.  0.
        1    1    3    3  502    0  0.14819356409E+03 -0.55269042721E+03  0.15352554158E+04  0.16384252295E+04  0.50400001928E-02 0. -1.
       -1    1    3    3    0  502 -0.14819356409E+03  0.55269042721E+03 -0.71430736601E+03  0.91523934242E+03  0.50400001928E-02 0.  1.
</event>
<event>
 5   0  0.5164625E-06  0.2503741E+04  0.7818609E-02  0.8401654E-01
       -4   -1    0    0    0  501  0.00000000000E+00  0.00000000000E+00  0.13202645373E+04  0.13202651481E+04  0.12699999809E+01 0. -1.
        4   -1    0    0  501    0  0.00000000000E+00  0.00000000000E+00 -0.11870179436E+04  0.11870186230E+04  0.12699999809E+01 0.  1.
    10030    2    1    2    0    0  0.00000000000E+00  0.00000000000E+00  0.13324659373E+03  0.25072837711E+04  0.25037406523E+04 0.  0.
        1    1    3    3  502    0  0.10301107946E+03  0.27648029667E+03  0.12849495193E+04  0.13183883738E+04  0.50400001928E-02 0. -1.
       -1    1    3    3    0  502 -0.10301107946E+03 -0.27648029667E+03 -0.11517029256E+04  0.11888953973E+04  0.50400001928E-02 0.  1.
</event>
<event>
 5   0  0.1526824E-05  0.2498944E+04  0.7818609E-02  0.8403362E-01
       -2   -1    0    0    0  501  0.00000000000E+00  0.00000000000E+00  0.10571646977E+04  0.10571646977E+04  0.25500000920E-02 0.  1.
        2   -1    0    0  501    0  0.00000000000E+00  0.00000000000E+00 -0.14767617728E+04  0.14767617728E+04  0.25500000920E-02 0. -1.
    10030    2    1    2    0    0  0.00000000000E+00  0.00000000000E+00 -0.41959707512E+03  0.25339264705E+04  0.24989441075E+04 0.  0.
        2    1    3    3  502    0 -0.99733465832E+03  0.40749480052E+02 -0.97188021975E+03  0.13931576014E+04  0.25500000920E-02 0. -1.
       -2    1    3    3    0  502  0.99733465832E+03 -0.40749480052E+02  0.55228314463E+03  0.11407688691E+04  0.25500000920E-02 0.  1.
</event>
<event>
 5   0  0.1501947E-05  0.2484824E+04  0.7818609E-02  0.8408412E-01
       -2   -1    0    0    0  501  0.00000000000E+00  0.00000000000E+00  0.73025458713E+03  0.73025458713E+03  0.25500000920E-02 0. -1.
        2   -1    0    0  501    0  0.00000000000E+00  0.00000000000E+00 -0.21137661489E+04  0.21137661489E+04  0.25500000920E-02 0.  1.
    10030    2    1    2    0    0  0.00000000000E+00  0.00000000000E+00 -0.13835115618E+04  0.28440207360E+04  0.24848238782E+04 0.  0.
        3    1    3    3  502    0 -0.74104105949E+03 -0.98700692424E+03 -0.85468084573E+03  0.15012674241E+04  0.10100000352E+00 0. -1.
       -3    1    3    3    0  502  0.74104105949E+03  0.98700692424E+03 -0.52883071604E+03  0.13427533120E+04  0.10100000352E+00 0.  1.
</event>
<event>
 5   0  0.6104486E-06  0.2504735E+04  0.7818609E-02  0.8401301E-01
        1   -1    0    0  501    0  0.00000000000E+00  0.00000000000E+00  0.25595908372E+04  0.25595908372E+04  0.50400001928E-02 0.  1.
       -1   -1    0    0    0  501  0.00000000000E+00  0.00000000000E+00 -0.61276379884E+03  0.61276379886E+03  0.50400001928E-02 0. -1.
    10030    2    1    2    0    0  0.00000000000E+00  0.00000000000E+00  0.19468270384E+04  0.31723546361E+04  0.25047351995E+04 0.  0.
        2    1    3    3  502    0 -0.31510549748E+02  0.11980350177E+04  0.14338219690E+04  0.18687231622E+04  0.25500000920E-02 0. -1.
       -2    1    3    3    0  502  0.31510549748E+02 -0.11980350177E+04  0.51300506939E+03  0.13036314738E+04  0.25500000920E-02 0.  1.
</event>
<event>
 5   0  0.6290861E-06  0.2558252E+04  0.7818609E-02  0.8382522E-01
        1   -1    0    0  501    0  0.00000000000E+00  0.00000000000E+00  0.17261540042E+04  0.17261540042E+04  0.50400001928E-02 0.  1.
       -1   -1    0    0    0  501  0.00000000000E+00  0.00000000000E+00 -0.94786641981E+03  0.94786641982E+03  0.50400001928E-02 0. -1.
    10030    2    1    2    0    0  0.00000000000E+00  0.00000000000E+00  0.77828758443E+03  0.26740204241E+04  0.25582520721E+04 0.  0.
        1    1    3    3  502    0 -0.37186103941E+03  0.21155623138E+03  0.16491513017E+04  0.17037419662E+04  0.50400001928E-02 0.  1.
       -1    1    3    3    0  502  0.37186103941E+03 -0.21155623138E+03 -0.87086371725E+03  0.97027845782E+03  0.50400001928E-02 0. -1.
</event>
<event>
 5   0  0.1501947E-05  0.2509484E+04  0.7818609E-02  0.8399614E-01
       -2   -1    0    0    0  501  0.00000000000E+00  0.00000000000E+00  0.11424786246E+04  0.11424786246E+04  0.25500000920E-02 0. -1.
        2   -1    0    0  501    0  0.00000000000E+00  0.00000000000E+00 -0.13780371740E+04  0.13780371740E+04  0.25500000920E-02 0.  1.
    10030    2    1    2    0    0  0.00000000000E+00  0.00000000000E+00 -0.23555854942E+03  0.25205157986E+04  0.25094844213E+04 0.  0.
        3    1    3    3  502    0  0.29840817527E+03 -0.30725857609E+01  0.11063156546E+04  0.11458582887E+04  0.10100000352E+00 0. -1.
       -3    1    3    3    0  502 -0.29840817527E+03  0.30725857609E+01 -0.13418742041E+04  0.13746575099E+04  0.10100000352E+00 0.  1.
</event>
<event>
 5   0  0.1550483E-05  0.2496811E+04  0.7818609E-02  0.8404123E-01
        2   -1    0    0  501    0  0.00000000000E+00  0.00000000000E+00  0.19054250304E+04  0.19054250304E+04  0.25500000920E-02 0. -1.
       -2   -1    0    0    0  501  0.00000000000E+00  0.00000000000E+00 -0.81793611550E+03  0.81793611550E+03  0.25500000920E-02 0.  1.
    10030    2    1    2    0    0  0.00000000000E+00  0.00000000000E+00  0.10874889149E+04  0.27233611459E+04  0.24968107239E+04 0.  0.
        5    1    3    3  502    0  0.46508709439E+03 -0.50026056855E+03 -0.59602354758E+03  0.90654994406E+03  0.46999998093E+01 0.  1.
       -5    1    3    3    0  502 -0.46508709439E+03  0.50026056855E+03  0.16835124625E+04  0.18168112018E+04  0.46999998093E+01 0. -1.
</event>
<event>
 5   0  0.6105353E-06  0.2456527E+04  0.7818609E-02  0.8418639E-01
       -1   -1    0    0    0  501  0.00000000000E+00  0.00000000000E+00  0.10201353526E+04  0.10201353526E+04  0.50400001928E-02 0. -1.
        1   -1    0    0  501    0  0.00000000000E+00  0.00000000000E+00 -0.14788545015E+04  0.14788545016E+04  0.50400001928E-02 0.  1.
    10030    2    1    2    0    0  0.00000000000E+00  0.00000000000E+00 -0.45871914897E+03  0.24989898541E+04  0.24565274339E+04 0.  0.
        3    1    3    3  502    0 -0.32164638100E+03  0.57765238323E+03  0.82366270316E+03  0.10562002315E+04  0.10100000352E+00 0. -1.
       -3    1    3    3    0  502  0.32164638100E+03 -0.57765238323E+03 -0.12823818521E+04  0.14427896226E+04  0.10100000352E+00 0.  1.
</event>
<event>
 5   0  0.6346420E-06  0.2495168E+04  0.7818609E-02  0.8404709E-01
        1   -1    0    0  501    0  0.00000000000E+00  0.00000000000E+00  0.15109572539E+04  0.15109572539E+04  0.50400001928E-02 0.  1.
       -1   -1    0    0    0  501  0.00000000000E+00  0.00000000000E+00 -0.10301189860E+04  0.10301189860E+04  0.50400001928E-02 0. -1.
    10030    2    1    2    0    0  0.00000000000E+00  0.00000000000E+00  0.48083826792E+03  0.25410762399E+04  0.24951679336E+04 0.  0.
        4    1    3    3  502    0 -0.57014553780E+03  0.11075755947E+04  0.17079081421E+03  0.12573626157E+04  0.12699999809E+01 0.  1.
       -4    1    3    3    0  502  0.57014553780E+03 -0.11075755947E+04  0.31004745371E+03  0.12837136241E+04  0.12699999809E+01 0. -1.
</event>
<event>
 5   0  0.6104486E-06  0.2480736E+04  0.7818609E-02  0.8409881E-01
       -1   -1    0    0    0  501  0.00000000000E+00  0.00000000000E+00  0.12703611961E+04  0.12703611961E+04  0.50400001928E-02 0.  1.
        1   -1    0    0  501    0  0.00000000000E+00  0.00000000000E+00 -0.12110830010E+04  0.12110830010E+04  0.50400001928E-02 0. -1.
    10030    2    1    2    0    0  0.00000000000E+00  0.00000000000E+00  0.59278195179E+02  0.24814441971E+04  0.24807360599E+04 0.  0.
        2    1    3    3  502    0  0.76220562346E+03 -0.17035574178E+03 -0.93424084451E+03  0.12176963689E+04  0.25500000920E-02 0. -1.
       -2    1    3    3    0  502 -0.76220562346E+03  0.17035574178E+03  0.99351903969E+03  0.12637478283E+04  0.25500000920E-02 0.  1.
</event>
<event>
 5   0  0.1468512E-05  0.2496541E+04  0.7818609E-02  0.8404219E-01
       -2   -1    0    0    0  501  0.00000000000E+00  0.00000000000E+00  0.12789934222E+04  0.12789934222E+04  0.25500000920E-02 0.  1.
        2   -1    0    0  501    0  0.00000000000E+00  0.00000000000E+00 -0.12182851397E+04  0.12182851397E+04  0.25500000920E-02 0. -1.
    10030    2    1    2    0    0  0.00000000000E+00  0.00000000000E+00  0.60708282586E+02  0.24972785619E+04  0.24965405505E+04 0.  0.
        4    1    3    3  502    0 -0.62095573670E+03  0.89606714112E+03 -0.57781795693E+03  0.12338547534E+04  0.12699999809E+01 0. -1.
       -4    1    3    3    0  502  0.62095573670E+03 -0.89606714112E+03  0.63852623951E+03  0.12634238085E+04  0.12699999809E+01 0.  1.
</event>
<event>
 5   0  0.6477703E-06  0.2507763E+04  0.7818609E-02  0.8400225E-01
       -1   -1    0    0    0  501  0.00000000000E+00  0.00000000000E+00  0.16489285683E+04  0.16489285683E+04  0.50400001928E-02 0.  1.
        1   -1    0    0  501    0  0.00000000000E+00  0.00000000000E+00 -0.95347892782E+03  0.95347892784E+03  0.50400001928E-02 0. -1.
    10030    2    1    2    0    0  0.00000000000E+00  0.00000000000E+00  0.69544964049E+03  0.26024074962E+04  0.25077628623E+04 0.  0.
        5    1    3    3  502    0 -0.12252469540E+04 -0.75358697483E+02  0.82567313324E+02  0.12303448633E+04  0.46999998093E+01 0. -1.
       -5    1    3    3    0  502  0.12252469540E+04  0.75358697483E+02  0.61288232717E+03  0.13720626328E+04  0.46999998093E+01 0.  1.
</event>
<event>
 5   0  0.1550483E-05  0.2486767E+04  0.7818609E-02  0.8407715E-01
        2   -1    0    0  501    0  0.00000000000E+00  0.00000000000E+00  0.12344091808E+04  0.12344091808E+04  0.25500000920E-02 0. -1.
       -2   -1    0    0    0  501  0.00000000000E+00  0.00000000000E+00 -0.12524225903E+04  0.12524225903E+04  0.25500000920E-02 0.  1.
    10030    2    1    2    0    0  0.00000000000E+00  0.00000000000E+00 -0.18013409521E+02  0.24868317711E+04  0.24867665300E+04 0.  0.
        5    1    3    3  502    0  0.42141765405E+03  0.33290326891E+03  0.11124336254E+04  0.12352927128E+04  0.46999998093E+01 0. -1.
       -5    1    3    3    0  502 -0.42141765405E+03 -0.33290326891E+03 -0.11304470349E+04  0.12515390582E+04  0.46999998093E+01 0.  1.
</event>
<event>
 5   0  0.6104486E-06  0.2474199E+04  0.7818609E-02  0.8412235E-01
       -1   -1    0    0    0  501  0.00000000000E+00  0.00000000000E+00  0.14477121853E+04  0.14477121853E+04  0.50400001928E-02 0.  1.
        1   -1    0    0  501    0  0.00000000000E+00  0.00000000000E+00 -0.10571267384E+04  0.10571267384E+04  0.50400001928E-02 0. -1.
    10030    2    1    2    0    0  0.00000000000E+00  0.00000000000E+00  0.39058544696E+03  0.25048389237E+04  0.24741990709E+04 0.  0.
        2    1    3    3  502    0 -0.43226164983E+03 -0.79497941521E+03  0.10492867843E+04  0.13855847719E+04  0.25500000920E-02 0.  1.
       -2    1    3    3    0  502  0.43226164983E+03  0.79497941521E+03 -0.65870133732E+03  0.11192541518E+04  0.25500000920E-02 0. -1.
</event>
<event>
 5   0  0.1572732E-05  0.2521408E+04  0.7818609E-02  0.8395398E-01
       -2   -1    0    0    0  501  0.00000000000E+00  0.00000000000E+00  0.77737684608E+03  0.77737684608E+03  0.25500000920E-02 0.  1.
        2   -1    0    0  501    0  0.00000000000E+00  0.00000000000E+00 -0.20445348927E+04  0.20445348927E+04  0.25500000920E-02 0. -1.
    10030    2    1    2    0    0  0.00000000000E+00  0.00000000000E+00 -0.12671580466E+04  0.28219117388E+04  0.25214076121E+04 0.  0.
        1    1    3    3  502    0  0.24589575404E+03 -0.12329780860E+04 -0.52934243384E+03  0.13641492201E+04  0.50400001928E-02 0.  1.
       -1    1    3    3    0  502 -0.24589575404E+03  0.12329780860E+04 -0.73781561276E+03  0.14577625187E+04  0.50400001928E-02 0. -1.
</event>
<event>
 5   0  0.6477703E-06  0.2489670E+04  0.7818609E-02  0.8406675E-01
       -1   -1    0    0    0  501  0.00000000000E+00  0.00000000000E+00  0.16450068485E+04  0.16450068486E+04  0.50400001928E-02 0.  1.
        1   -1    0    0  501    0  0.00000000000E+00  0.00000000000E+00 -0.94201040842E+03  0.94201040844E+03  0.50400001928E-02 0. -1.
    10030    2    1    2    0    0  0.00000000000E+00  0.00000000000E+00  0.70299644012E+03  0.25870172570E+04  0.24896695148E+04 0.  0.
        5    1    3    3  502    0 -0.66228652678E+03 -0.96317236037E+03  0.79633410199E+03  0.14143883948E+04  0.46999998093E+01 0.  1.
       -5    1    3    3    0  502  0.66228652678E+03  0.96317236037E+03 -0.93337661870E+02  0.11726288622E+04  0.46999998093E+01 0. -1.
</event>
<event>
 5   0  0.6104486E-06  0.2496652E+04  0.7818609E-02  0.8404179E-01
        1   -1    0    0  501    0  0.00000000000E+00  0.00000000000E+00  0.12006614893E+04  0.12006614893E+04  0.50400001928E-02 0. -1.
       -1   -1    0    0    0  501  0.00000000000E+00  0.00000000000E+00 -0.12978829385E+04  0.12978829385E+04  0.50400001928E-02 0.  1.
    10030    2    1    2    0    0  0.00000000000E+00  0.00000000000E+00 -0.97221449233E+02  0.24985444278E+04  0.24966522079E+04 0.  0.
        2    1    3    3  502    0 -0.90796484467E+03  0.10397860444E+03  0.80239036621E+03  0.12161587105E+04  0.25500000920E-02 0. -1.
       -2    1    3    3    0  502  0.90796484467E+03 -0.10397860444E+03 -0.89961181544E+03  0.12823857173E+04  0.25500000920E-02 0.  1.
</event>
<event>
 5   0  0.1526824E-05  0.2496696E+04  0.7818609E-02  0.8404164E-01
        2   -1    0    0  501    0  0.00000000000E+00  0.00000000000E+00  0.14581264436E+04  0.14581264436E+04  0.25500000920E-02 0.  1.
       -2   -1    0    0    0  501  0.00000000000E+00  0.00000000000E+00 -0.10687501420E+04  0.10687501420E+04  0.25500000920E-02 0. -1.
    10030    2    1    2    0    0  0.00000000000E+00  0.00000000000E+00  0.38937630160E+03  0.25268765857E+04  0.24966960918E+04 0.  0.
        2    1    3    3  502    0  0.92516771375E+03  0.16567216963E+02  0.10427691684E+04  0.13941224157E+04  0.25500000920E-02 0.  1.
       -2    1    3    3    0  502 -0.92516771375E+03 -0.16567216963E+02 -0.65339286681E+03  0.11327541700E+04  0.25500000920E-02 0. -1.
</event>
<event>
 5   0  0.1526824E-05  0.2531850E+04  0.7818609E-02  0.8391726E-01
        2   -1    0    0  501    0  0.00000000000E+00  0.00000000000E+00  0.12997212874E+04  0.12997212874E+04  0.25500000920E-02 0. -1.
       -2   -1    0    0    0  501  0.00000000000E+00  0.00000000000E+00 -0.12330072886E+04  0.12330072886E+04  0.25500000920E-02 0.  1.
    10030    2    1    2    0    0  0.00000000000E+00  0.00000000000E+00  0.66713998811E+02  0.25327285761E+04  0.25318497749E+04 0.  0.
        2    1    3    3  502    0 -0.23355147298E+03 -0.46260227295E+03 -0.11220411569E+04  0.12359302210E+04  0.25500000920E-02 0.  1.
       -2    1    3    3    0  502  0.23355147298E+03  0.46260227295E+03  0.11887551557E+04  0.12967983551E+04  0.25500000920E-02 0. -1.
</event>
<event>
 5   0  0.1468512E-05  0.2494371E+04  0.7818609E-02  0.8404994E-01
        2   -1    0    0  501    0  0.00000000000E+00  0.00000000000E+00  0.11265164132E+04  0.11265164132E+04  0.25500000920E-02 0.  1.
       -2   -1    0    0    0  501  0.00000000000E+00  0.00000000000E+00 -0.13807805577E+04  0.13807805577E+04  0.25500000920E-02 0. -1.
    10030    2    1    2    0    0  0.00000000000E+00  0.00000000000E+00 -0.25426414452E+03  0.25072969710E+04  0.24943712325E+04 0.  0.
        4    1    3    3  502    0  0.96980937049E+03 -0.31738554416E+03  0.59366578832E+03  0.11805526163E+04  0.12699999809E+01 0.  1.
       -4    1    3    3    0  502 -0.96980937049E+03  0.31738554416E+03 -0.84792993284E+03  0.13267443547E+04  0.12699999809E+01 0. -1.
</event>
<event>
 5   0  0.1526824E-05  0.2496556E+04  0.7818609E-02  0.8404214E-01
       -2   -1    0    0    0  501  0.00000000000E+00  0.00000000000E+00  0.93341527752E+03  0.93341527752E+03  0.25500000920E-02 0.  1.
        2   -1    0    0  501    0  0.00000000000E+00  0.00000000000E+00 -0.16693506538E+04  0.16693506538E+04  0.25500000920E-02 0. -1.
    10030    2    1    2    0    0  0.00000000000E+00  0.00000000000E+00 -0.73593537631E+03  0.26027659313E+04  0.24965555502E+04 0.  0.
        2    1    3    3  502    0 -0.11580053410E+04 -0.43044787031E+03 -0.55427584126E+03  0.13540618328E+04  0.25500000920E-02 0. -1.
       -2    1    3    3    0  502  0.11580053410E+04  0.43044787031E+03 -0.18165953505E+03  0.12487040985E+04  0.25500000920E-02 0.  1.
</event>
<event>
 5   0  0.1526824E-05  0.2514966E+04  0.7818609E-02  0.8397673E-01
        2   -1    0    0  501    0  0.00000000000E+00  0.00000000000E+00  0.21719451960E+04  0.21719451960E+04  0.25500000920E-02 0. -1.
       -2   -1    0    0    0  501  0.00000000000E+00  0.00000000000E+00 -0.72804043283E+03  0.72804043284E+03  0.25500000920E-02 0.  1.
    10030    2    1    2    0    0  0.00000000000E+00  0.00000000000E+00  0.14439047631E+04  0.28999856288E+04  0.25149663382E+04 0.  0.
        2    1    3    3  502    0  0.24870791309E+03 -0.82632935817E+03 -0.33272469555E+03  0.92486839996E+03  0.25500000920E-02 0.  1.
       -2    1    3    3    0  502 -0.24870791309E+03  0.82632935817E+03  0.17766294587E+04  0.19751172288E+04  0.25500000920E-02 0. -1.
</event>
<event>
 5   0  0.1501947E-05  0.2510715E+04  0.7818609E-02  0.8399178E-01
       -2   -1    0    0    0  501  0.00000000000E+00  0.00000000000E+00  0.80384528267E+03  0.80384528267E+03  0.25500000920E-02 0.  1.
        2   -1    0    0  501    0  0.00000000000E+00  0.00000000000E+00 -0.19604803015E+04  0.19604803015E+04  0.25500000920E-02 0. -1.
    10030    2    1    2    0    0  0.00000000000E+00  0.00000000000E+00 -0.11566350188E+04  0.27643255842E+04  0.25107153101E+04 0.  0.
        3    1    3    3  502    0 -0.44238230701E+02 -0.69940875884E+03  0.56842311796E+03  0.90234942468E+03  0.10100000352E+00 0.  1.
       -3    1    3    3    0  502  0.44238230701E+02  0.69940875884E+03 -0.17250581368E+04  0.18619761595E+04  0.10100000352E+00 0. -1.
</event>
<event>
 5   0  0.6346420E-06  0.2542007E+04  0.7818609E-02  0.8388171E-01
       -1   -1    0    0    0  501  0.00000000000E+00  0.00000000000E+00  0.11995218670E+04  0.11995218670E+04  0.50400001928E-02 0.  1.
        1   -1    0    0  501    0  0.00000000000E+00  0.00000000000E+00 -0.13467451519E+04  0.13467451519E+04  0.50400001928E-02 0. -1.
    10030    2    1    2    0    0  0.00000000000E+00  0.00000000000E+00 -0.14722328491E+03  0.25462670189E+04  0.25420072848E+04 0.  0.
        4    1    3    3  502    0  0.18862756683E+03 -0.31719033974E+03  0.11446742124E+04  0.12026931180E+04  0.12699999809E+01 0.  1.
       -4    1    3    3    0  502 -0.18862756683E+03  0.31719033974E+03 -0.12918974973E+04  0.13435739009E+04  0.12699999809E+01 0. -1.
</event>
<event>
 5   0  0.6290861E-06  0.2462849E+04  0.7818609E-02  0.8416342E-01
        1   -1    0    0  501    0  0.00000000000E+00  0.00000000000E+00  0.14865441950E+04  0.14865441950E+04  0.50400001928E-02 0.  1.
       -1   -1    0    0    0  501  0.00000000000E+00  0.00000000000E+00 -0.10200883265E+04  0.10200883265E+04  0.50400001928E-02 0. -1.
    10030    2    1    2    0    0  0.00000000000E+00  0.00000000000E+00  0.46645586848E+03  0.25066325216E+04  0.24628490658E+04 0.  0.
        1    1    3    3  502    0 -0.58572594186E+03  0.28700029780E+03  0.12962878687E+04  0.14511396516E+04  0.50400001928E-02 0.  1.
       -1    1    3    3    0  502  0.58572594186E+03 -0.28700029780E+03 -0.82983200023E+03  0.10554928700E+04  0.50400001928E-02 0. -1.
</event>
<event>
 5   0  0.6105353E-06  0.2495486E+04  0.7818609E-02  0.8404595E-01
        1   -1    0    0  501    0  0.00000000000E+00  0.00000000000E+00  0.10557190298E+04  0.10557190299E+04  0.50400001928E-02 0.  1.
       -1   -1    0    0    0  501  0.00000000000E+00  0.00000000000E+00 -0.14746946536E+04  0.14746946536E+04  0.50400001928E-02 0. -1.
    10030    2    1    2    0    0  0.00000000000E+00  0.00000000000E+00 -0.41897562375E+03  0.25304136835E+04  0.24954864929E+04 0.  0.
        3    1    3    3  502    0  0.34635222375E+03  0.38522859418E+03 -0.13604972829E+04  0.14557863166E+04  0.10100000352E+00 0. -1.
       -3    1    3    3    0  502 -0.34635222375E+03 -0.38522859418E+03  0.94152165916E+03  0.10746273668E+04  0.10100000352E+00 0.  1.
</event>
<event>
 5   0  0.6104486E-06  0.2492258E+04  0.7818609E-02  0.8405749E-01
       -1   -1    0    0    0  501  0.00000000000E+00  0.00000000000E+00  0.11762100245E+04  0.11762100246E+04  0.50400001928E-02 0. -1.
        1   -1    0    0  501    0  0.00000000000E+00  0.00000000000E+00 -0.13202041124E+04  0.13202041124E+04  0.50400001928E-02 0.  1.
    10030    2    1    2    0    0  0.00000000000E+00  0.00000000000E+00 -0.14399408786E+03  0.24964141370E+04  0.24922578610E+04 0.  0.
        2    1    3    3  502    0  0.78435024997E+03 -0.87503671117E+03  0.34335427530E+03  0.12242494513E+04  0.25500000920E-02 0. -1.
       -2    1    3    3    0  502 -0.78435024997E+03  0.87503671117E+03 -0.48734836316E+03  0.12721646857E+04  0.25500000920E-02 0.  1.
</event>
<event>
 5   0  0.6105353E-06  0.2496628E+04  0.7818609E-02  0.8404188E-01
       -1   -1    0    0    0  501  0.00000000000E+00  0.00000000000E+00  0.56642868066E+03  0.56642868068E+03  0.50400001928E-02 0. -1.
        1   -1    0    0  501    0  0.00000000000E+00  0.00000000000E+00 -0.27510744063E+04  0.27510744063E+04  0.50400001928E-02 0.  1.
    10030    2    1    2    0    0  0.00000000000E+00  0.00000000000E+00 -0.21846457256E+04  0.33175030870E+04  0.24966276826E+04 0.  0.
        3    1    3    3  502    0 -0.74903832873E+03 -0.95847965222E+03 -0.14647308333E+04  0.19039900435E+04  0.10100000352E+00 0. -1.
       -3    1    3    3    0  502  0.74903832873E+03  0.95847965222E+03 -0.71991489235E+03  0.14135130435E+04  0.10100000352E+00 0.  1.
</event>
<event>
 5   0  0.1468512E-05  0.2634045E+04  0.7818609E-02  0.8356728E-01
       -2   -1    0    0    0  501  0.00000000000E+00  0.00000000000E+00  0.93355958092E+03  0.93355958092E+03  0.25500000920E-02 0.  1.
        2   -1    0    0  501    0  0.00000000000E+00  0.00000000000E+00 -0.18579937039E+04  0.18579937039E+04  0.25500000920E-02 0. -1.
    10030    2    1    2    0    0  0.00000000000E+00  0.00000000000E+00 -0.92443412302E+03  0.27915532849E+04  0.26340446645E+04 0.  0.
        4    1    3    3  502    0  0.17409201236E+03 -0.53113012642E+03 -0.17260620362E+04  0.18143040004E+04  0.12699999809E+01 0. -1.
       -4    1    3    3    0  502 -0.17409201236E+03  0.53113012642E+03  0.80162791319E+03  0.97724928450E+03  0.12699999809E+01 0.  1.
</event>
<event>
 5   0  0.1468512E-05  0.2441511E+04  0.7818609E-02  0.8424124E-01
       -2   -1    0    0    0  501  0.00000000000E+00  0.00000000000E+00  0.81328222549E+03  0.81328222549E+03  0.25500000920E-02 0. -1.
        2   -1    0    0  501    0  0.00000000000E+00  0.00000000000E+00 -0.18323827252E+04  0.18323827252E+04  0.25500000920E-02 0.  1.
    10030    2    1    2    0    0  0.00000000000E+00  0.00000000000E+00 -0.10191004997E+04  0.26456649507E+04  0.24415112539E+04 0.  0.
        4    1    3    3  502    0 -0.44520429946E+03  0.45692487113E+03  0.61827434497E+03  0.88839855057E+03  0.12699999809E+01 0. -1.
       -4    1    3    3    0  502  0.44520429946E+03 -0.45692487113E+03 -0.16373748446E+04  0.17572664001E+04  0.12699999809E+01 0.  1.
</event>
<event>
 5   0  0.1526824E-05  0.2526979E+04  0.7818609E-02  0.8393437E-01
       -2   -1    0    0    0  501  0.00000000000E+00  0.00000000000E+00  0.15452625480E+04  0.15452625480E+04  0.25500000920E-02 0. -1.
        2   -1    0    0  501    0  0.00000000000E+00  0.00000000000E+00 -0.10330966167E+04  0.10330966167E+04  0.25500000920E-02 0.  1.
    10030    2    1    2    0    0  0.00000000000E+00  0.00000000000E+00  0.51216593135E+03  0.25783591647E+04  0.25269788366E+04 0.  0.
        2    1    3    3  502    0  0.19752741316E+03  0.10419475232E+04 -0.44471091749E+03  0.11499737041E+04  0.25500000920E-02 0. -1.
       -2    1    3    3    0  502 -0.19752741316E+03 -0.10419475232E+04  0.95687684883E+03  0.14283854605E+04  0.25500000920E-02 0.  1.
</event>
<event>
 5   0  0.5164625E-06  0.2496965E+04  0.7818609E-02  0.8404068E-01
        3   -1    0    0  501    0  0.00000000000E+00  0.00000000000E+00  0.14542016272E+04  0.14542016307E+04  0.10100000352E+00 0. -1.
       -3   -1    0    0    0  501  0.00000000000E+00  0.00000000000E+00 -0.10718656114E+04  0.10718656161E+04  0.10100000352E+00 0.  1.
    10030    2    1    2    0    0  0.00000000000E+00  0.00000000000E+00  0.38233601587E+03  0.25260672469E+04  0.24969651393E+04 0.  0.
        1    1    3    3  502    0  0.60632152843E+03  0.78819319635E+03  0.95483983031E+03  0.13786201116E+04  0.50400001928E-02 0. -1.
       -1    1    3    3    0  502 -0.60632152843E+03 -0.78819319635E+03 -0.57250381444E+03  0.11474471353E+04  0.50400001928E-02 0.  1.
</event>
<event>
 5   0  0.6346420E-06  0.2509267E+04  0.7818609E-02  0.8399691E-01
        1   -1    0    0  501    0  0.00000000000E+00  0.00000000000E+00  0.24598208781E+04  0.24598208781E+04  0.50400001928E-02 0.  1.
       -1   -1    0    0    0  501  0.00000000000E+00  0.00000000000E+00 -0.63992700523E+03  0.63992700525E+03  0.50400001928E-02 0. -1.
    10030    2    1    2    0    0  0.00000000000E+00  0.00000000000E+00  0.18198938729E+04  0.30997478833E+04  0.25092674692E+04 0.  0.
        4    1    3    3  502    0  0.42508826802E+03  0.76187077733E+03  0.20237623513E+04  0.22038064308E+04  0.12699999809E+01 0.  1.
       -4    1    3    3    0  502 -0.42508826802E+03 -0.76187077733E+03 -0.20386847846E+03  0.89594145254E+03  0.12699999809E+01 0. -1.
</event>
<event>
 5   0  0.6105353E-06  0.2494940E+04  0.7818609E-02  0.8404790E-01
        1   -1    0    0  501    0  0.00000000000E+00  0.00000000000E+00  0.17903993011E+04  0.17903993011E+04  0.50400001928E-02 0. -1.
       -1   -1    0    0    0  501  0.00000000000E+00  0.00000000000E+00 -0.86918114918E+03  0.86918114920E+03  0.50400001928E-02 0.  1.
    10030    2    1    2    0    0  0.00000000000E+00  0.00000000000E+00  0.92121815190E+03  0.26595804503E+04  0.24949399368E+04 0.  0.
        3    1    3    3  502    0  0.65849873787E+03 -0.10104728201E+04  0.80023248640E+03  0.14474280467E+04  0.10100000352E+00 0.  1.
       -3    1    3    3    0  502 -0.65849873787E+03  0.10104728201E+04  0.12098566550E+03  0.12121524036E+04  0.10100000352E+00 0. -1.
</event>
<event>
 5   0  0.6346420E-06  0.2509416E+04  0.7818609E-02  0.8399639E-01
       -1   -1    0    0    0  501  0.00000000000E+00  0.00000000000E+00  0.19809666835E+04  0.19809666835E+04  0.50400001928E-02 0. -1.
        1   -1    0    0  501    0  0.00000000000E+00  0.00000000000E+00 -0.79470918179E+03  0.79470918181E+03  0.50400001928E-02 0.  1.
    10030    2    1    2    0    0  0.00000000000E+00  0.00000000000E+00  0.11862575017E+04  0.27756758653E+04  0.25094161969E+04 0.  0.
        4    1    3    3  502    0  0.13938347120E+03 -0.11367385967E+04  0.26215630209E+02  0.11455528191E+04  0.12699999809E+01 0.  1.
       -4    1    3    3    0  502 -0.13938347120E+03  0.11367385967E+04  0.11600418715E+04  0.16301230462E+04  0.12699999809E+01 0. -1.
</event>
<event>
 5   0  0.6346420E-06  0.2531194E+04  0.7818609E-02  0.8391956E-01
       -1   -1    0    0    0  501  0.00000000000E+00  0.00000000000E+00  0.10196788150E+04  0.10196788150E+04  0.50400001928E-02 0.  1.
        1   -1    0    0  501    0  0.00000000000E+00  0.00000000000E+00 -0.15708242338E+04  0.15708242338E+04  0.50400001928E-02 0. -1.
    10030    2    1    2    0    0  0.00000000000E+00  0.00000000000E+00 -0.55114541882E+03  0.25905030489E+04  0.25311943374E+04 0.  0.
        4    1    3    3  502    0  0.35575972489E+03 -0.12063098942E+04 -0.13088822235E+03  0.12644690120E+04  0.12699999809E+01 0.  1.
       -4    1    3    3    0  502 -0.35575972489E+03  0.12063098942E+04 -0.42025719647E+03  0.13260340368E+04  0.12699999809E+01 0. -1.
</event>
<event>
 5   0  0.1572732E-05  0.2499557E+04  0.7818609E-02  0.8403143E-01
        2   -1    0    0  501    0  0.00000000000E+00  0.00000000000E+00  0.20402482802E+04  0.20402482802E+04  0.25500000920E-02 0.  1.
       -2   -1    0    0    0  501  0.00000000000E+00  0.00000000000E+00 -0.76556676950E+03  0.76556676951E+03  0.25500000920E-02 0. -1.
    10030    2    1    2    0    0  0.00000000000E+00  0.00000000000E+00  0.12746815107E+04  0.28058150497E+04  0.24995569886E+04 0.  0.
        1    1    3    3  502    0 -0.11895198323E+04 -0.30168672388E+03  0.37176460654E+03  0.12822563057E+04  0.50400001928E-02 0.  1.
       -1    1    3    3    0  502  0.11895198323E+04  0.30168672388E+03  0.90291690416E+03  0.15235587441E+04  0.50400001928E-02 0. -1.
</event>
<event>
 5   0  0.1526824E-05  0.2496698E+04  0.7818609E-02  0.8404163E-01
        2   -1    0    0  501    0  0.00000000000E+00  0.00000000000E+00  0.54199530290E+03  0.54199530290E+03  0.25500000920E-02 0.  1.
       -2   -1    0    0    0  501  0.00000000000E+00  0.00000000000E+00 -0.28752559001E+04  0.28752559001E+04  0.25500000920E-02 0. -1.
    10030    2    1    2    0    0  0.00000000000E+00  0.00000000000E+00 -0.23332605972E+04  0.34172512030E+04  0.24966979733E+04 0.  0.
        2    1    3    3  502    0  0.43545121325E+03  0.11211509347E+04 -0.70902705631E+03  0.13961792664E+04  0.25500000920E-02 0.  1.
       -2    1    3    3    0  502 -0.43545121325E+03 -0.11211509347E+04 -0.16242335408E+04  0.20210719365E+04  0.25500000920E-02 0. -1.
</event>
<event>
 5   0  0.1501947E-05  0.2496668E+04  0.7818609E-02  0.8404173E-01
        2   -1    0    0  501    0  0.00000000000E+00  0.00000000000E+00  0.89714861184E+03  0.89714861184E+03  0.25500000920E-02 0. -1.
       -2   -1    0    0    0  501  0.00000000000E+00  0.00000000000E+00 -0.17369901846E+04  0.17369901846E+04  0.25500000920E-02 0.  1.
    10030    2    1    2    0    0  0.00000000000E+00  0.00000000000E+00 -0.83984157276E+03  0.26341387964E+04  0.24966684465E+04 0.  0.
        3    1    3    3  502    0  0.17123231392E+03 -0.96785241982E+03  0.39205136960E+03  0.10581885931E+04  0.10100000352E+00 0. -1.
       -3    1    3    3    0  502 -0.17123231392E+03  0.96785241982E+03 -0.12318929424E+04  0.15759502034E+04  0.10100000352E+00 0.  1.
</event>
<event>
 5   0  0.1550483E-05  0.2493932E+04  0.7818609E-02  0.8405150E-01
       -2   -1    0    0    0  501  0.00000000000E+00  0.00000000000E+00  0.81723708703E+03  0.81723708703E+03  0.25500000920E-02 0. -1.
        2   -1    0    0  501    0  0.00000000000E+00  0.00000000000E+00 -0.19026602788E+04  0.19026602788E+04  0.25500000920E-02 0.  1.
    10030    2    1    2    0    0  0.00000000000E+00  0.00000000000E+00 -0.10854231917E+04  0.27198973658E+04  0.24939322716E+04 0.  0.
        5    1    3    3  502    0 -0.64396305983E+03  0.56263216350E+02  0.62022852230E+03  0.89585684226E+03  0.46999998093E+01 0. -1.
       -5    1    3    3    0  502  0.64396305983E+03 -0.56263216350E+02 -0.17056517140E+04  0.18240405235E+04  0.46999998093E+01 0.  1.
</event>
<event>
 5   0  0.6477703E-06  0.2509863E+04  0.7818609E-02  0.8399480E-01
       -1   -1    0    0    0  501  0.00000000000E+00  0.00000000000E+00  0.16995122124E+04  0.16995122124E+04  0.50400001928E-02 0. -1.
        1   -1    0    0  501    0  0.00000000000E+00  0.00000000000E+00 -0.92665029565E+03  0.92665029567E+03  0.50400001928E-02 0.  1.
    10030    2    1    2    0    0  0.00000000000E+00  0.00000000000E+00  0.77286191672E+03  0.26261625081E+04  0.25098633382E+04 0.  0.
        5    1    3    3  502    0 -0.70987529420E+03  0.54591205734E+03  0.13063083472E+04  0.15837949664E+04  0.46999998093E+01 0. -1.
       -5    1    3    3    0  502  0.70987529420E+03 -0.54591205734E+03 -0.53344643049E+03  0.10423675416E+04  0.46999998093E+01 0.  1.
</event>
<event>
 5   0  0.6104486E-06  0.2463886E+04  0.7818609E-02  0.8415965E-01
       -1   -1    0    0    0  501  0.00000000000E+00  0.00000000000E+00  0.12197464269E+04  0.12197464269E+04  0.50400001928E-02 0. -1.
        1   -1    0    0  501    0  0.00000000000E+00  0.00000000000E+00 -0.12442615843E+04  0.12442615843E+04  0.50400001928E-02 0.  1.
    10030    2    1    2    0    0  0.00000000000E+00  0.00000000000E+00 -0.24515157443E+02  0.24640080113E+04  0.24638860539E+04 0.  0.
        2    1    3    3  502    0 -0.34744636909E+02  0.95087365729E+03  0.77028720465E+03  0.12242182320E+04  0.25500000920E-02 0. -1.
       -2    1    3    3    0  502  0.34744636909E+02 -0.95087365729E+03 -0.79480236209E+03  0.12397897792E+04  0.25500000920E-02 0.  1.
</event>
<event>
 5   0  0.6477703E-06  0.2505033E+04  0.7818609E-02  0.8401195E-01
       -1   -1    0    0    0  501  0.00000000000E+00  0.00000000000E+00  0.93525363047E+03  0.93525363048E+03  0.50400001928E-02 0.  1.
        1   -1    0    0  501    0  0.00000000000E+00  0.00000000000E+00 -0.16774030019E+04  0.16774030019E+04  0.50400001928E-02 0. -1.
    10030    2    1    2    0    0  0.00000000000E+00  0.00000000000E+00 -0.74214937147E+03  0.26126566324E+04  0.25050327322E+04 0.  0.
        5    1    3    3  502    0  0.35268506247E+03  0.97067715312E+03  0.36801332830E+03  0.10963835044E+04  0.46999998093E+01 0. -1.
       -5    1    3    3    0  502 -0.35268506247E+03 -0.97067715312E+03 -0.11101626998E+04  0.15162731280E+04  0.46999998093E+01 0.  1.
</event>
<event>
 5   0  0.1526824E-05  0.2502201E+04  0.7818609E-02  0.8402202E-01
        2   -1    0    0  501    0  0.00000000000E+00  0.00000000000E+00  0.14938823323E+04  0.14938823323E+04  0.25500000920E-02 0. -1.
       -2   -1    0    0    0  501  0.00000000000E+00  0.00000000000E+00 -0.10477748484E+04  0.10477748484E+04  0.25500000920E-02 0.  1.
    10030    2    1    2    0    0  0.00000000000E+00  0.00000000000E+00  0.44610748390E+03  0.25416571806E+04  0.25022008985E+04 0.  0.
        2    1    3    3  502    0 -0.44773001189E+03 -0.43297563462E+03  0.13252082373E+04  0.14642769328E+04  0.25500000920E-02 0. -1.
       -2    1    3    3    0  502  0.44773001189E+03  0.43297563462E+03 -0.87910075341E+03  0.10773802478E+04  0.25500000920E-02 0.  1.
</event>
<event>
 5   0  0.1572732E-05  0.2545884E+04  0.7818609E-02  0.8386819E-01
        2   -1    0    0  501    0  0.00000000000E+00  0.00000000000E+00  0.14648517831E+04  0.14648517831E+04  0.25500000920E-02 0. -1.
       -2   -1    0    0    0  501  0.00000000000E+00  0.00000000000E+00 -0.11061741188E+04  0.11061741188E+04  0.25500000920E-02 0.  1.
    10030    2    1    2    0    0  0.00000000000E+00  0.00000000000E+00  0.35867766436E+03  0.25710259019E+04  0.25458838389E+04 0.  0.
        1    1    3    3  502    0 -0.24888428894E+02 -0.34956194079E+03  0.14151757502E+04  0.14579215988E+04  0.50400001928E-02 0. -1.
       -1    1    3    3    0  502  0.24888428894E+02  0.34956194079E+03 -0.10564980858E+04  0.11131043031E+04  0.50400001928E-02 0.  1.
</event>
<event>
 5   0  0.1572732E-05  0.2568819E+04  0.7818609E-02  0.8378870E-01
       -2   -1    0    0    0  501  0.00000000000E+00  0.00000000000E+00  0.14739960486E+04  0.14739960486E+04  0.25500000920E-02 0.  1.
        2   -1    0    0  501    0  0.00000000000E+00  0.00000000000E+00 -0.11192076222E+04  0.11192076222E+04  0.25500000920E-02 0. -1.
    10030    2    1    2    0    0  0.00000000000E+00  0.00000000000E+00  0.35478842640E+03  0.25932036707E+04  0.25688188824E+04 0.  0.
        1    1    3    3  502    0 -0.54159126871E+03 -0.85093932264E+02  0.13499473765E+04  0.14570243646E+04  0.50400001928E-02 0.  1.
       -1    1    3    3    0  502  0.54159126871E+03  0.85093932264E+02 -0.99515895012E+03  0.11361793061E+04  0.50400001928E-02 0. -1.
</event>
<event>
 5   0  0.1501947E-05  0.2497612E+04  0.7818609E-02  0.8403837E-01
        2   -1    0    0  501    0  0.00000000000E+00  0.00000000000E+00  0.98353479741E+03  0.98353479741E+03  0.25500000920E-02 0.  1.
       -2   -1    0    0    0  501  0.00000000000E+00  0.00000000000E+00 -0.15856238560E+04  0.15856238560E+04  0.25500000920E-02 0. -1.
    10030    2    1    2    0    0  0.00000000000E+00  0.00000000000E+00 -0.60208905862E+03  0.25691586534E+04  0.24976118498E+04 0.  0.
        3    1    3    3  502    0  0.11711803126E+04  0.40985489056E+03 -0.15603873148E+03  0.12505968383E+04  0.10100000352E+00 0.  1.
       -3    1    3    3    0  502 -0.11711803126E+04 -0.40985489056E+03 -0.44605032714E+03  0.13185618152E+04  0.10100000352E+00 0. -1.
</event>
<event>
 5   0  0.6346420E-06  0.2503697E+04  0.7818609E-02  0.8401670E-01
        1   -1    0    0  501    0  0.00000000000E+00  0.00000000000E+00  0.74495156256E+03  0.74495156258E+03  0.50400001928E-02 0. -1.
       -1   -1    0    0    0  501  0.00000000000E+00  0.00000000000E+00 -0.21036603285E+04  0.21036603285E+04  0.50400001928E-02 0.  1.
    10030    2    1    2    0    0  0.00000000000E+00  0.00000000000E+00 -0.13587087659E+04  0.28486118910E+04  0.25036973050E+04 0.  0.
        4    1    3    3  502    0  0.81856982967E+03 -0.66807385159E+03  0.84510480954E+02  0.10599636180E+04  0.12699999809E+01 0. -1.
       -4    1    3    3    0  502 -0.81856982967E+03  0.66807385159E+03 -0.14432192468E+04  0.17886482730E+04  0.12699999809E+01 0.  1.
</event>
<event>
 5   0  0.1501947E-05  0.2516759E+04  0.7818609E-02  0.8397039E-01
        2   -1    0    0  501    0  0.00000000000E+00  0.00000000000E+00  0.26538486221E+04  0.26538486221E+04  0.25500000920E-02 0. -1.
       -2   -1    0    0    0  501  0.00000000000E+00  0.00000000000E+00 -0.59668781694E+03  0.59668781695E+03  0.25500000920E-02 0.  1.
    10030    2    1    2    0    0  0.00000000000E+00  0.00000000000E+00  0.20571608051E+04  0.32505364390E+04  0.25167591389E+04 0.  0.
        3    1    3    3  502    0  0.53276885830E+03 -0.10147892750E+04  0.16995426628E+04  0.20498988272E+04  0.10100000352E+00 0. -1.
       -3    1    3    3    0  502 -0.53276885830E+03  0.10147892750E+04  0.35761814238E+03  0.12006376118E+04  0.10100000352E+00 0.  1.
</event>
<event>
 5   0  0.6104486E-06  0.2525346E+04  0.7818609E-02  0.8394011E-01
       -1   -1    0    0    0  501  0.00000000000E+00  0.00000000000E+00  0.13104614846E+04  0.13104614846E+04  0.50400001928E-02 0.  1.
        1   -1    0    0  501    0  0.00000000000E+00  0.00000000000E+00 -0.12166270511E+04  0.12166270511E+04  0.50400001928E-02 0. -1.
    10030    2    1    2    0    0  0.00000000000E+00  0.00000000000E+00  0.93834433496E+02  0.25270885357E+04  0.25253458311E+04 0.  0.
        2    1    3    3  502    0 -0.11303535776E+04 -0.54623754267E+03  0.18217049836E+03  0.12685664168E+04  0.25500000920E-02 0. -1.
       -2    1    3    3    0  502  0.11303535776E+04  0.54623754267E+03 -0.88336064865E+02  0.12585221189E+04  0.25500000920E-02 0.  1.
</event>
<event>
 5   0  0.5164625E-06  0.2508702E+04  0.7818609E-02  0.8399892E-01
        4   -1    0    0  501    0  0.00000000000E+00  0.00000000000E+00  0.13709390742E+04  0.13709396625E+04  0.12699999809E+01 0. -1.
       -4   -1    0    0    0  501  0.00000000000E+00  0.00000000000E+00 -0.11476765550E+04  0.11476772576E+04  0.12699999809E+01 0.  1.
    10030    2    1    2    0    0  0.00000000000E+00  0.00000000000E+00  0.22326251927E+03  0.25186169201E+04  0.25087018631E+04 0.  0.
        2    1    3    3  502    0  0.59156670775E+03 -0.79769845155E+03 -0.65763616327E+03  0.11911168341E+04  0.25500000920E-02 0.  1.
       -2    1    3    3    0  502 -0.59156670775E+03  0.79769845155E+03  0.88089868254E+03  0.13275000860E+04  0.25500000920E-02 0. -1.
</event>
<event>
 5   0  0.1501947E-05  0.2478951E+04  0.7818609E-02  0.8410523E-01
       -2   -1    0    0    0  501  0.00000000000E+00  0.00000000000E+00  0.17769312410E+04  0.17769312410E+04  0.25500000920E-02 0. -1.
        2   -1    0    0  501    0  0.00000000000E+00  0.00000000000E+00 -0.86458036681E+03  0.86458036681E+03  0.25500000920E-02 0.  1.
    10030    2    1    2    0    0  0.00000000000E+00  0.00000000000E+00  0.91235087416E+03  0.26415116078E+04  0.24789512816E+04 0.  0.
        3    1    3    3  502    0  0.96991077979E+03 -0.17372443291E+03  0.12574099556E+04  0.15974939455E+04  0.10100000352E+00 0.  1.
       -3    1    3    3    0  502 -0.96991077979E+03  0.17372443291E+03 -0.34505908140E+03  0.10440176623E+04  0.10100000352E+00 0. -1.
</event>
<event>
 5   0  0.6104486E-06  0.2483748E+04  0.7818609E-02  0.8408798E-01
        1   -1    0    0  501    0  0.00000000000E+00  0.00000000000E+00  0.16411722323E+04  0.16411722323E+04  0.50400001928E-02 0. -1.
       -1   -1    0    0    0  501  0.00000000000E+00  0.00000000000E+00 -0.93972526294E+03  0.93972526295E+03  0.50400001928E-02 0.  1.
    10030    2    1    2    0    0  0.00000000000E+00  0.00000000000E+00  0.70144696934E+03  0.25808974952E+04  0.24837479804E+04 0.  0.
        2    1    3    3  502    0  0.10326053512E+04 -0.12217003651E+03  0.10562901151E+04  0.14822105574E+04  0.25500000920E-02 0. -1.
       -2    1    3    3    0  502 -0.10326053512E+04  0.12217003651E+03 -0.35484314580E+03  0.10986869378E+04  0.25500000920E-02 0.  1.
</event>
<event>
 5   0  0.6104486E-06  0.2522041E+04  0.7818609E-02  0.8395175E-01
       -1   -1    0    0    0  501  0.00000000000E+00  0.00000000000E+00  0.11645278610E+04  0.11645278610E+04  0.50400001928E-02 0.  1.
        1   -1    0    0  501    0  0.00000000000E+00  0.00000000000E+00 -0.13655082453E+04  0.13655082453E+04  0.50400001928E-02 0. -1.
    10030    2    1    2    0    0  0.00000000000E+00  0.00000000000E+00 -0.20098038434E+03  0.25300361064E+04  0.25220407579E+04 0.  0.
        2    1    3    3  502    0  0.60051183610E+03 -0.14578978801E+03 -0.12032034432E+04  0.13526151165E+04  0.25500000920E-02 0. -1.
       -2    1    3    3    0  502 -0.60051183610E+03  0.14578978801E+03  0.10022230589E+04  0.11774209899E+04  0.25500000920E-02 0.  1.
</event>
<event>
 5   0  0.6477703E-06  0.2530293E+04  0.7818609E-02  0.8392272E-01
        1   -1    0    0  501    0  0.00000000000E+00  0.00000000000E+00  0.18828775810E+04  0.18828775810E+04  0.50400001928E-02 0.  1.
       -1   -1    0    0    0  501  0.00000000000E+00  0.00000000000E+00 -0.85007976212E+03  0.85007976213E+03  0.50400001928E-02 0. -1.
    10030    2    1    2    0    0  0.00000000000E+00  0.00000000000E+00  0.10327978189E+04  0.27329573432E+04  0.25302933634E+04 0.  0.
        5    1    3    3  502    0 -0.10197337135E+03  0.31741733148E+03  0.18345670660E+04  0.18646208034E+04  0.46999998093E+01 0.  1.
       -5    1    3    3    0  502  0.10197337135E+03 -0.31741733148E+03 -0.80176924707E+03  0.86833653979E+03  0.46999998093E+01 0. -1.
</event>
<event>
 5   0  0.1526824E-05  0.2506261E+04  0.7818609E-02  0.8400759E-01
       -2   -1    0    0    0  501  0.00000000000E+00  0.00000000000E+00  0.87447658391E+03  0.87447658392E+03  0.25500000920E-02 0. -1.
        2   -1    0    0  501    0  0.00000000000E+00  0.00000000000E+00 -0.17957435098E+04  0.17957435098E+04  0.25500000920E-02 0.  1.
    10030    2    1    2    0    0  0.00000000000E+00  0.00000000000E+00 -0.92126692587E+03  0.26702200937E+04  0.25062606808E+04 0.  0.
        2    1    3    3  502    0  0.36468724661E+03  0.11675912641E+04 -0.75059509258E+03  0.14351512606E+04  0.25500000920E-02 0.  1.
       -2    1    3    3    0  502 -0.36468724661E+03 -0.11675912641E+04 -0.17067183330E+03  0.12350688331E+04  0.25500000920E-02 0. -1.
</event>
<event>
 5   0  0.1526824E-05  0.2509818E+04  0.7818609E-02  0.8399496E-01
       -2   -1    0    0    0  501  0.00000000000E+00  0.00000000000E+00  0.72528391070E+03  0.72528391070E+03  0.25500000920E-02 0. -1.
        2   -1    0    0  501    0  0.00000000000E+00  0.00000000000E+00 -0.21712825844E+04  0.21712825844E+04  0.25500000920E-02 0.  1.
    10030    2    1    2    0    0  0.00000000000E+00  0.00000000000E+00 -0.14459986737E+04  0.28965664951E+04  0.25098177815E+04 0.  0.
        2    1    3    3  502    0  0.31094597383E+03  0.21846436332E+03 -0.21032798820E+04  0.21373348681E+04  0.25500000920E-02 0.  1.
       -2    1    3    3    0  502 -0.31094597383E+03 -0.21846436332E+03  0.65728120825E+03  0.75923162698E+03  0.25500000920E-02 0. -1.
</event>
<event>
 5   0  0.6105353E-06  0.2455720E+04  0.7818609E-02  0.8418932E-01
       -1   -1    0    0    0  501  0.00000000000E+00  0.00000000000E+00  0.11733078693E+04  0.11733078693E+04  0.50400001928E-02 0. -1.
        1   -1    0    0  501    0  0.00000000000E+00  0.00000000000E+00 -0.12849487087E+04  0.12849487088E+04  0.50400001928E-02 0.  1.
    10030    2    1    2    0    0  0.00000000000E+00  0.00000000000E+00 -0.11164083945E+03  0.24582565781E+04  0.24557202053E+04 0.  0.
        3    1    3    3  502    0 -0.10901691109E+04 -0.25329599167E+03  0.44968914509E+03  0.12061707537E+04  0.10100000352E+00 0. -1.
       -3    1    3    3    0  502  0.10901691109E+04  0.25329599167E+03 -0.56132998454E+03  0.12520858243E+04  0.10100000352E+00 0.  1.
</event>
<event>
 5   0  0.1468512E-05  0.2515673E+04  0.7818609E-02  0.8397423E-01
       -2   -1    0    0    0  501  0.00000000000E+00  0.00000000000E+00  0.10161855190E+04  0.10161855190E+04  0.25500000920E-02 0.  1.
        2   -1    0    0  501    0  0.00000000000E+00  0.00000000000E+00 -0.15569520138E+04  0.15569520138E+04  0.25500000920E-02 0. -1.
    10030    2    1    2    0    0  0.00000000000E+00  0.00000000000E+00 -0.54076649481E+03  0.25731375329E+04  0.25156725465E+04 0.  0.
        4    1    3    3  502    0  0.89138439463E+03  0.85771172853E+03 -0.50343642142E+03  0.13355468511E+04  0.12699999809E+01 0. -1.
       -4    1    3    3    0  502 -0.89138439463E+03 -0.85771172853E+03 -0.37330073385E+02  0.12375906817E+04  0.12699999809E+01 0.  1.
</event>
<event>
 5   0  0.6290861E-06  0.2496158E+04  0.7818609E-02  0.8404356E-01
       -1   -1    0    0    0  501  0.00000000000E+00  0.00000000000E+00  0.10101786891E+04  0.10101786891E+04  0.50400001928E-02 0. -1.
        1   -1    0    0  501    0  0.00000000000E+00  0.00000000000E+00 -0.15420051505E+04  0.15420051505E+04  0.50400001928E-02 0.  1.
    10030    2    1    2    0    0  0.00000000000E+00  0.00000000000E+00 -0.53182646140E+03  0.25521838396E+04  0.24961576405E+04 0.  0.
        1    1    3    3  502    0  0.33076523728E+03  0.11372318957E+03 -0.14908697916E+04  0.15313495165E+04  0.50400001928E-02 0.  1.
       -1    1    3    3    0  502 -0.33076523728E+03 -0.11372318957E+03  0.95904333021E+03  0.10208343231E+04  0.50400001928E-02 0. -1.
</event>
<event>
 5   0  0.1526824E-05  0.2509166E+04  0.7818609E-02  0.8399727E-01
        2   -1    0    0  501    0  0.00000000000E+00  0.00000000000E+00  0.75514117660E+03  0.75514117661E+03  0.25500000920E-02 0. -1.
       -2   -1    0    0    0  501  0.00000000000E+00  0.00000000000E+00 -0.20843504574E+04  0.20843504574E+04  0.25500000920E-02 0.  1.
    10030    2    1    2    0    0  0.00000000000E+00  0.00000000000E+00 -0.13292092808E+04  0.28394916340E+04  0.25091662813E+04 0.  0.
        2    1    3    3  502    0 -0.25242261342E+03 -0.11316747030E+04 -0.12068209120E+04  0.16735655119E+04  0.25500000920E-02 0. -1.
       -2    1    3    3    0  502  0.25242261342E+03  0.11316747030E+04 -0.12238836882E+03  0.11659261220E+04  0.25500000920E-02 0.  1.
</event>
<event>
 5   0  0.6105353E-06  0.2486304E+04  0.7818609E-02  0.8407881E-01
        1   -1    0    0  501    0  0.00000000000E+00  0.00000000000E+00  0.14472613074E+04  0.14472613074E+04  0.50400001928E-02 0. -1.
       -1   -1    0    0    0  501  0.00000000000E+00  0.00000000000E+00 -0.10678288269E+04  0.10678288269E+04  0.50400001928E-02 0.  1.
    10030    2    1    2    0    0  0.00000000000E+00  0.00000000000E+00  0.37943248055E+03  0.25150901343E+04  0.24863043612E+04 0.  0.
        3    1    3    3  502    0 -0.41207938027E+03  0.70595218576E+03  0.11371760772E+04  0.14004811120E+04  0.10100000352E+00 0. -1.
       -3    1    3    3    0  502  0.41207938027E+03 -0.70595218576E+03 -0.75774359666E+03  0.11146090224E+04  0.10100000352E+00 0.  1.
</event>
<event>
 5   0  0.1572732E-05  0.2468404E+04  0.7818609E-02  0.8414329E-01
        2   -1    0    0  501    0  0.00000000000E+00  0.00000000000E+00  0.99495899105E+03  0.99495899105E+03  0.25500000920E-02 0. -1.
       -2   -1    0    0    0  501  0.00000000000E+00  0.00000000000E+00 -0.15309719599E+04  0.15309719599E+04  0.25500000920E-02 0.  1.
    10030    2    1    2    0    0  0.00000000000E+00  0.00000000000E+00 -0.53601296885E+03  0.25259309510E+04  0.24684037891E+04 0.  0.
        1    1    3    3  502    0 -0.16767759438E+03 -0.59216021003E+02  0.98178084232E+03  0.99775544858E+03  0.50400001928E-02 0. -1.
       -1    1    3    3    0  502  0.16767759438E+03  0.59216021003E+02 -0.15177938112E+04  0.15281755024E+04  0.50400001928E-02 0.  1.
</event>
<event>
 5   0  0.5164625E-06  0.2494848E+04  0.7818609E-02  0.8404823E-01
        4   -1    0    0  501    0  0.00000000000E+00  0.00000000000E+00  0.10425918591E+04  0.10425926326E+04  0.12699999809E+01 0.  1.
       -4   -1    0    0    0  501  0.00000000000E+00  0.00000000000E+00 -0.14924967459E+04  0.14924972862E+04  0.12699999809E+01 0. -1.
    10030    2    1    2    0    0  0.00000000000E+00  0.00000000000E+00 -0.44990488680E+03  0.25350899188E+04  0.24948479892E+04 0.  0.
        4    1    3    3  502    0 -0.29484190844E+03 -0.11038800579E+04 -0.73360857085E+03  0.13578166597E+04  0.12699999809E+01 0. -1.
       -4    1    3    3    0  502  0.29484190844E+03  0.11038800579E+04  0.28370368405E+03  0.11772732591E+04  0.12699999809E+01 0.  1.
</event>
<event>
 5   0  0.6290861E-06  0.2488089E+04  0.7818609E-02  0.8407241E-01
        1   -1    0    0  501    0  0.00000000000E+00  0.00000000000E+00  0.12348926060E+04  0.12348926061E+04  0.50400001928E-02 0.  1.
       -1   -1    0    0    0  501  0.00000000000E+00  0.00000000000E+00 -0.12532641276E+04  0.12532641276E+04  0.50400001928E-02 0. -1.
    10030    2    1    2    0    0  0.00000000000E+00  0.00000000000E+00 -0.18371521547E+02  0.24881567337E+04  0.24880889089E+04 0.  0.
        1    1    3    3  502    0  0.57430542927E+03  0.93385246497E+03  0.57882640067E+03  0.12397367279E+04  0.50400001928E-02 0.  1.
       -1    1    3    3    0  502 -0.57430542927E+03 -0.93385246497E+03 -0.59719792222E+03  0.12484200057E+04  0.50400001928E-02 0. -1.
</event>
<event>
 5   0  0.6346420E-06  0.2512389E+04  0.7818609E-02  0.8398585E-01
       -1   -1    0    0    0  501  0.00000000000E+00  0.00000000000E+00  0.80913200789E+03  0.80913200790E+03  0.50400001928E-02 0. -1.
        1   -1    0    0  501    0  0.00000000000E+00  0.00000000000E+00 -0.19502679997E+04  0.19502679997E+04  0.50400001928E-02 0.  1.
    10030    2    1    2    0    0  0.00000000000E+00  0.00000000000E+00 -0.11411359918E+04  0.27594000076E+04  0.25123887140E+04 0.  0.
        4    1    3    3  502    0  0.53032773456E+03 -0.69206331286E+03  0.42267983223E+03  0.96894736107E+03  0.12699999809E+01 0. -1.
       -4    1    3    3    0  502 -0.53032773456E+03  0.69206331286E+03 -0.15638158241E+04  0.17904526466E+04  0.12699999809E+01 0.  1.
</event>
<event>
 5   0  0.6346420E-06  0.2504721E+04  0.7818609E-02  0.8401306E-01
       -1   -1    0    0    0  501  0.00000000000E+00  0.00000000000E+00  0.10336835065E+04  0.10336835065E+04  0.50400001928E-02 0. -1.
        1   -1    0    0  501    0  0.00000000000E+00  0.00000000000E+00 -0.15172991185E+04  0.15172991185E+04  0.50400001928E-02 0.  1.
    10030    2    1    2    0    0  0.00000000000E+00  0.00000000000E+00 -0.48361561197E+03  0.25509826250E+04  0.25047212007E+04 0.  0.
        4    1    3    3  502    0 -0.82064970285E+03 -0.91680419651E+03 -0.47937465577E+03  0.13205292663E+04  0.12699999809E+01 0.  1.
       -4    1    3    3    0  502  0.82064970285E+03  0.91680419651E+03 -0.42409561942E+01  0.12304533588E+04  0.12699999809E+01 0. -1.
</event>
<event>
 5   0  0.1526824E-05  0.2502173E+04  0.7818609E-02  0.8402212E-01
       -2   -1    0    0    0  501  0.00000000000E+00  0.00000000000E+00  0.96536618688E+03  0.96536618689E+03  0.25500000920E-02 0.  1.
        2   -1    0    0  501    0  0.00000000000E+00  0.00000000000E+00 -0.16213713617E+04  0.16213713617E+04  0.25500000920E-02 0. -1.
    10030    2    1    2    0    0  0.00000000000E+00  0.00000000000E+00 -0.65600517479E+03  0.25867375486E+04  0.25021727270E+04 0.  0.
        2    1    3    3  502    0 -0.17213241918E+03  0.17248084759E+03  0.94059590093E+03  0.97164801311E+03  0.25500000920E-02 0.  1.
       -2    1    3    3    0  502  0.17213241918E+03 -0.17248084759E+03 -0.15966010757E+04  0.16150895355E+04  0.25500000920E-02 0. -1.
</event>
<event>
 5   0  0.1526824E-05  0.2507385E+04  0.7818609E-02  0.8400359E-01
        2   -1    0    0  501    0  0.00000000000E+00  0.00000000000E+00  0.11253945985E+04  0.11253945985E+04  0.25500000920E-02 0. -1.
       -2   -1    0    0    0  501  0.00000000000E+00  0.00000000000E+00 -0.13966168281E+04  0.13966168281E+04  0.25500000920E-02 0.  1.
    10030    2    1    2    0    0  0.00000000000E+00  0.00000000000E+00 -0.27122222963E+03  0.25220114265E+04  0.25073851196E+04 0.  0.
        2    1    3    3  502    0  0.57592307644E+03 -0.78965862009E+03  0.65414219958E+03  0.11760740383E+04  0.25500000920E-02 0. -1.
       -2    1    3    3    0  502 -0.57592307644E+03  0.78965862009E+03 -0.92536442920E+03  0.13459373883E+04  0.25500000920E-02 0.  1.
</event>
<event>
 5   0  0.1468512E-05  0.2503147E+04  0.7818609E-02  0.8401865E-01
        2   -1    0    0  501    0  0.00000000000E+00  0.00000000000E+00  0.19060587713E+04  0.19060587713E+04  0.25500000920E-02 0. -1.
       -2   -1    0    0    0  501  0.00000000000E+00  0.00000000000E+00 -0.82181958463E+03  0.82181958463E+03  0.25500000920E-02 0.  1.
    10030    2    1    2    0    0  0.00000000000E+00  0.00000000000E+00  0.10842391867E+04  0.27278783559E+04  0.25031471612E+04 0.  0.
        4    1    3    3  502    0  0.93516517122E+03 -0.78957298775E+03  0.25694820387E+03  0.12505932164E+04  0.12699999809E+01 0. -1.
       -4    1    3    3    0  502 -0.93516517122E+03  0.78957298775E+03  0.82729098279E+03  0.14772851396E+04  0.12699999809E+01 0.  1.
</event>
<event>
 5   0  0.1550483E-05  0.2500372E+04  0.7818609E-02  0.8402853E-01
        2   -1    0    0  501    0  0.00000000000E+00  0.00000000000E+00  0.23297769450E+04  0.23297769450E+04  0.25500000920E-02 0.  1.
       -2   -1    0    0    0  501  0.00000000000E+00  0.00000000000E+00 -0.67086459069E+03  0.67086459069E+03  0.25500000920E-02 0. -1.
    10030    2    1    2    0    0  0.00000000000E+00  0.00000000000E+00  0.16589123543E+04  0.30006415357E+04  0.25003718576E+04 0.  0.
        5    1    3    3  502    0 -0.20999155816E+03  0.53221762038E+03 -0.50451618810E+03  0.76283073090E+03  0.46999998093E+01 0. -1.
       -5    1    3    3    0  502  0.20999155816E+03 -0.53221762038E+03  0.21634285424E+04  0.22378108048E+04  0.46999998093E+01 0.  1.
</event>
<event>
 5   0  0.1526824E-05  0.2479127E+04  0.7818609E-02  0.8410459E-01
       -2   -1    0    0    0  501  0.00000000000E+00  0.00000000000E+00  0.11659385638E+04  0.11659385638E+04  0.25500000920E-02 0. -1.
        2   -1    0    0  501    0  0.00000000000E+00  0.00000000000E+00 -0.13178380595E+04  0.13178380595E+04  0.25500000920E-02 0.  1.
    10030    2    1    2    0    0  0.00000000000E+00  0.00000000000E+00 -0.15189949570E+03  0.24837766233E+04  0.24791274388E+04 0.  0.
        2    1    3    3  502    0 -0.58149613484E+03 -0.45097561383E+03 -0.10753179827E+04  0.13030063403E+04  0.25500000920E-02 0.  1.
       -2    1    3    3    0  502  0.58149613484E+03  0.45097561383E+03  0.92341848697E+03  0.11807702830E+04  0.25500000920E-02 0. -1.
</event>
<event>
 5   0  0.1572732E-05  0.2484723E+04  0.7818609E-02  0.8408448E-01
        2   -1    0    0  501    0  0.00000000000E+00  0.00000000000E+00  0.24992853423E+04  0.24992853423E+04  0.25500000920E-02 0. -1.
       -2   -1    0    0    0  501  0.00000000000E+00  0.00000000000E+00 -0.61756138965E+03  0.61756138965E+03  0.25500000920E-02 0.  1.
    10030    2    1    2    0    0  0.00000000000E+00  0.00000000000E+00  0.18817239526E+04  0.31168467319E+04  0.24847230261E+04 0.  0.
        1    1    3    3  502    0 -0.86972675478E+03  0.45819928641E+03  0.18937888634E+04  0.21337308811E+04  0.50400001928E-02 0. -1.
       -1    1    3    3    0  502  0.86972675478E+03 -0.45819928641E+03 -0.12064910719E+02  0.98311585082E+03  0.50400001928E-02 0.  1.
</event>
<event>
 5   0  0.1468512E-05  0.2497286E+04  0.7818609E-02  0.8403953E-01
        2   -1    0    0  501    0  0.00000000000E+00  0.00000000000E+00  0.26491910664E+04  0.26491910664E+04  0.25500000920E-02 0.  1.
       -2   -1    0    0    0  501  0.00000000000E+00  0.00000000000E+00 -0.58852298779E+03  0.58852298779E+03  0.25500000920E-02 0. -1.
    10030    2    1    2    0    0  0.00000000000E+00  0.00000000000E+00  0.20606680787E+04  0.32377140542E+04  0.24972864006E+04 0.  0.
        4    1    3    3  502    0 -0.98266608909E+03  0.42743934719E+03  0.18612749214E+04  0.21477157596E+04  0.12699999809E+01 0. -1.
       -4    1    3    3    0  502  0.98266608909E+03 -0.42743934719E+03  0.19939315722E+03  0.10899982946E+04  0.12699999809E+01 0.  1.
</event>
<event>
 5   0  0.1468512E-05  0.2534981E+04  0.7818609E-02  0.8390628E-01
       -2   -1    0    0    0  501  0.00000000000E+00  0.00000000000E+00  0.90828048006E+03  0.90828048006E+03  0.25500000920E-02 0.  1.
        2   -1    0    0  501    0  0.00000000000E+00  0.00000000000E+00 -0.17687625826E+04  0.17687625826E+04  0.25500000920E-02 0. -1.
    10030    2    1    2    0    0  0.00000000000E+00  0.00000000000E+00 -0.86048210254E+03  0.26770430627E+04  0.25349812841E+04 0.  0.
        4    1    3    3  502    0  0.53795697512E+03  0.88855063109E+02 -0.16385831277E+04  0.17269189931E+04  0.12699999809E+01 0. -1.
       -4    1    3    3    0  502 -0.53795697512E+03 -0.88855063109E+02  0.77810102518E+03  0.95012406958E+03  0.12699999809E+01 0.  1.
</event>
<event>
 5   0  0.1550483E-05  0.2414181E+04  0.7818609E-02  0.8434213E-01
       -2   -1    0    0    0  501  0.00000000000E+00  0.00000000000E+00  0.56125999721E+03  0.56125999722E+03  0.25500000920E-02 0.  1.
        2   -1    0    0  501    0  0.00000000000E+00  0.00000000000E+00 -0.25960661240E+04  0.25960661240E+04  0.25500000920E-02 0. -1.
    10030    2    1    2    0    0  0.00000000000E+00  0.00000000000E+00 -0.20348061268E+04  0.31573261212E+04  0.24141814891E+04 0.  0.
        5    1    3    3  502    0 -0.86071455154E+03 -0.28167127621E+03 -0.20611075682E+04  0.22513006785E+04  0.46999998093E+01 0. -1.
       -5    1    3    3    0  502  0.86071455154E+03  0.28167127621E+03  0.26301441454E+02  0.90602544274E+03  0.46999998093E+01 0.  1.
</event>
<event>
 5   0  0.6346420E-06  0.2486124E+04  0.7818609E-02  0.8407946E-01
       -1   -1    0    0    0  501  0.00000000000E+00  0.00000000000E+00  0.12131960027E+04  0.12131960027E+04  0.50400001928E-02 0.  1.
        1   -1    0    0  501    0  0.00000000000E+00  0.00000000000E+00 -0.12736633214E+04  0.12736633214E+04  0.50400001928E-02 0. -1.
    10030    2    1    2    0    0  0.00000000000E+00  0.00000000000E+00 -0.60467318643E+02  0.24868593241E+04  0.24861240921E+04 0.  0.
        4    1    3    3  502    0  0.81729396112E+02  0.10666671988E+04  0.60299622955E+03  0.12280328468E+04  0.12699999809E+01 0.  1.
       -4    1    3    3    0  502 -0.81729396112E+02 -0.10666671988E+04 -0.66346354819E+03  0.12588264773E+04  0.12699999809E+01 0. -1.
</event>
<event>
 5   0  0.1550483E-05  0.2509974E+04  0.7818609E-02  0.8399441E-01
       -2   -1    0    0    0  501  0.00000000000E+00  0.00000000000E+00  0.74066757318E+03  0.74066757319E+03  0.25500000920E-02 0.  1.
        2   -1    0    0  501    0  0.00000000000E+00  0.00000000000E+00 -0.21264495953E+04  0.21264495953E+04  0.25500000920E-02 0. -1.
    10030    2    1    2    0    0  0.00000000000E+00  0.00000000000E+00 -0.13857820221E+04  0.28671171685E+04  0.25099739132E+04 0.  0.
        5    1    3    3  502    0  0.86384551237E+03 -0.36773164256E+03  0.25837946768E+03  0.97377495834E+03  0.46999998093E+01 0.  1.
       -5    1    3    3    0  502 -0.86384551237E+03  0.36773164256E+03 -0.16441614898E+04  0.18933422102E+04  0.46999998093E+01 0. -1.
</event>
<event>
 5   0  0.1501947E-05  0.2498964E+04  0.7818609E-02  0.8403355E-01
       -2   -1    0    0    0  501  0.00000000000E+00  0.00000000000E+00  0.84669412543E+03  0.84669412543E+03  0.25500000920E-02 0.  1.
        2   -1    0    0  501    0  0.00000000000E+00  0.00000000000E+00 -0.18438839264E+04  0.18438839264E+04  0.25500000920E-02 0. -1.
    10030    2    1    2    0    0  0.00000000000E+00  0.00000000000E+00 -0.99718980100E+03  0.26905780519E+04  0.24989643363E+04 0.  0.
        3    1    3    3  502    0 -0.38978273860E+03  0.11871121847E+04 -0.49180619583E+03  0.13427729766E+04  0.10100000352E+00 0.  1.
       -3    1    3    3    0  502  0.38978273860E+03 -0.11871121847E+04 -0.50538360517E+03  0.13478050752E+04  0.10100000352E+00 0. -1.
</event>
<event>
 5   0  0.5164625E-06  0.2501065E+04  0.7818609E-02  0.8402606E-01
       -4   -1    0    0    0  501  0.00000000000E+00  0.00000000000E+00  0.20311298853E+04  0.20311302823E+04  0.12699999809E+01 0. -1.
        4   -1    0    0  501    0  0.00000000000E+00  0.00000000000E+00 -0.76993064974E+03  0.76993169717E+03  0.12699999809E+01 0.  1.
    10030    2    1    2    0    0  0.00000000000E+00  0.00000000000E+00  0.12611992355E+04  0.28010619795E+04  0.25010647135E+04 0.  0.
        5    1    3    3  502    0 -0.49189636878E+03  0.89367478829E+03  0.14406807396E+04  0.17652761111E+04  0.46999998093E+01 0. -1.
       -5    1    3    3    0  502  0.49189636878E+03 -0.89367478829E+03 -0.17948150411E+03  0.10357858684E+04  0.46999998093E+01 0.  1.
</event>
<event>
 5   0  0.6290861E-06  0.2497731E+04  0.7818609E-02  0.8403794E-01
       -1   -1    0    0    0  501  0.00000000000E+00  0.00000000000E+00  0.14997053903E+04  0.14997053903E+04  0.50400001928E-02 0.  1.
        1   -1    0    0  501    0  0.00000000000E+00  0.00000000000E+00 -0.10399812860E+04  0.10399812860E+04  0.50400001928E-02 0. -1.
    10030    2    1    2    0    0  0.00000000000E+00  0.00000000000E+00  0.45972410430E+03  0.25396866763E+04  0.24977314030E+04 0.  0.
        1    1    3    3  502    0  0.86489335837E+03  0.85545173551E+03  0.51714526908E+03  0.13218462174E+04  0.50400001928E-02 0.  1.
       -1    1    3    3    0  502 -0.86489335837E+03 -0.85545173551E+03 -0.57421164774E+02  0.12178404589E+04  0.50400001928E-02 0. -1.
</event>
<event>
 5   0  0.6477703E-06  0.2515143E+04  0.7818609E-02  0.8397611E-01
       -1   -1    0    0    0  501  0.00000000000E+00  0.00000000000E+00  0.12785361747E+04  0.12785361747E+04  0.50400001928E-02 0. -1.
        1   -1    0    0  501    0  0.00000000000E+00  0.00000000000E+00 -0.12369506344E+04  0.12369506344E+04  0.50400001928E-02 0.  1.
    10030    2    1    2    0    0  0.00000000000E+00  0.00000000000E+00  0.41585540270E+02  0.25154868091E+04  0.25151430435E+04 0.  0.
        5    1    3    3  502    0 -0.92158153181E+03  0.78160684674E+03  0.36903895371E+03  0.12635005429E+04  0.46999998093E+01 0. -1.
       -5    1    3    3    0  502  0.92158153181E+03 -0.78160684674E+03 -0.32745341344E+03  0.12519862661E+04  0.46999998093E+01 0.  1.
</event>
<event>
 5   0  0.6477703E-06  0.2466938E+04  0.7818609E-02  0.8414860E-01
        1   -1    0    0  501    0  0.00000000000E+00  0.00000000000E+00  0.12108006827E+04  0.12108006827E+04  0.50400001928E-02 0.  1.
       -1   -1    0    0    0  501  0.00000000000E+00  0.00000000000E+00 -0.12565617413E+04  0.12565617413E+04  0.50400001928E-02 0. -1.
    10030    2    1    2    0    0  0.00000000000E+00  0.00000000000E+00 -0.45761058581E+02  0.24673624239E+04  0.24669380326E+04 0.  0.
        5    1    3    3  502    0  0.10578740918E+04 -0.42116651367E+03 -0.49724568365E+03  0.12424790486E+04  0.46999998093E+01 0. -1.
       -5    1    3    3    0  502 -0.10578740918E+04  0.42116651367E+03  0.45148462507E+03  0.12248833753E+04  0.46999998093E+01 0.  1.
</event>
<event>
 5   0  0.1572732E-05  0.2514164E+04  0.7818609E-02  0.8397957E-01
       -2   -1    0    0    0  501  0.00000000000E+00  0.00000000000E+00  0.10590333422E+04  0.10590333422E+04  0.25500000920E-02 0.  1.
        2   -1    0    0  501    0  0.00000000000E+00  0.00000000000E+00 -0.14921676012E+04  0.14921676012E+04  0.25500000920E-02 0. -1.
    10030    2    1    2    0    0  0.00000000000E+00  0.00000000000E+00 -0.43313425897E+03  0.25512009434E+04  0.25141640693E+04 0.  0.
        1    1    3    3  502    0 -0.49951494260E+03 -0.92183313288E+03  0.48716473977E+03  0.11561232575E+04  0.50400001928E-02 0.  1.
       -1    1    3    3    0  502  0.49951494260E+03  0.92183313288E+03 -0.92029899874E+03  0.13950776860E+04  0.50400001928E-02 0. -1.
</event>
<event>
 5   0  0.1572732E-05  0.2473319E+04  0.7818609E-02  0.8412553E-01
       -2   -1    0    0    0  501  0.00000000000E+00  0.00000000000E+00  0.73420352765E+03  0.73420352765E+03  0.25500000920E-02 0. -1.
        2   -1    0    0  501    0  0.00000000000E+00  0.00000000000E+00 -0.20829743617E+04  0.20829743617E+04  0.25500000920E-02 0.  1.
    10030    2    1    2    0    0  0.00000000000E+00  0.00000000000E+00 -0.13487708340E+04  0.28171778894E+04  0.24733193278E+04 0.  0.
        1    1    3    3  502    0  0.11224450477E+04  0.33757015875E+03 -0.22524081203E+03  0.11935534846E+04  0.50400001928E-02 0. -1.
       -1    1    3    3    0  502 -0.11224450477E+04 -0.33757015875E+03 -0.11235300220E+04  0.16236244047E+04  0.50400001928E-02 0.  1.
</event>
<event>
 5   0  0.6346420E-06  0.2509529E+04  0.7818609E-02  0.8399599E-01
       -1   -1    0    0    0  501  0.00000000000E+00  0.00000000000E+00  0.85732199316E+03  0.85732199318E+03  0.50400001928E-02 0. -1.
        1   -1    0    0  501    0  0.00000000000E+00  0.00000000000E+00 -0.18364556096E+04  0.18364556096E+04  0.50400001928E-02 0.  1.
    10030    2    1    2    0    0  0.00000000000E+00  0.00000000000E+00 -0.97913361641E+03  0.26937776028E+04  0.25095288670E+04 0.  0.
        4    1    3    3  502    0 -0.12168563415E+04 -0.19330982459E+03 -0.23481529341E+03  0.12542917838E+04  0.12699999809E+01 0.  1.
       -4    1    3    3    0  502  0.12168563415E+04  0.19330982459E+03 -0.74431832300E+03  0.14394858189E+04  0.12699999809E+01 0. -1.
</event>
<event>
 5   0  0.1526824E-05  0.2500299E+04  0.7818609E-02  0.8402879E-01
        2   -1    0    0  501    0  0.00000000000E+00  0.00000000000E+00  0.14524053137E+04  0.14524053137E+04  0.25500000920E-02 0. -1.
       -2   -1    0    0    0  501  0.00000000000E+00  0.00000000000E+00 -0.10760593601E+04  0.10760593601E+04  0.25500000920E-02 0.  1.
    10030    2    1    2    0    0  0.00000000000E+00  0.00000000000E+00  0.37634595358E+03  0.25284646739E+04  0.25002994481E+04 0.  0.
        2    1    3    3  502    0 -0.22286952559E+02 -0.13675564021E+03 -0.10682702622E+04  0.10772187180E+04  0.25500000920E-02 0.  1.
       -2    1    3    3    0  502  0.22286952559E+02  0.13675564021E+03  0.14446162158E+04  0.14512459558E+04  0.25500000920E-02 0. -1.
</event>
<event>
 5   0  0.5164625E-06  0.2517885E+04  0.7818609E-02  0.8396642E-01
        3   -1    0    0  501    0  0.00000000000E+00  0.00000000000E+00  0.20210730075E+04  0.20210730101E+04  0.10100000352E+00 0.  1.
       -3   -1    0    0    0  501  0.00000000000E+00  0.00000000000E+00 -0.78420501931E+03  0.78420502581E+03  0.10100000352E+00 0. -1.
    10030    2    1    2    0    0  0.00000000000E+00  0.00000000000E+00  0.12368679882E+04  0.28052780359E+04  0.25178845165E+04 0.  0.
        5    1    3    3  502    0 -0.13255851173E+03  0.84051576446E+03 -0.41530322906E+03  0.94685657383E+03  0.46999998093E+01 0. -1.
       -5    1    3    3    0  502  0.13255851173E+03 -0.84051576446E+03  0.16521712173E+04  0.18584214621E+04  0.46999998093E+01 0.  1.
</event>
<event>
 5   0  0.1550483E-05  0.2501714E+04  0.7818609E-02  0.8402375E-01
       -2   -1    0    0    0  501  0.00000000000E+00  0.00000000000E+00  0.87809428901E+03  0.87809428902E+03  0.25500000920E-02 0. -1.
        2   -1    0    0  501    0  0.00000000000E+00  0.00000000000E+00 -0.17818618166E+04  0.17818618166E+04  0.25500000920E-02 0.  1.
    10030    2    1    2    0    0  0.00000000000E+00  0.00000000000E+00 -0.90376752763E+03  0.26599561057E+04  0.25017135607E+04 0.  0.
        5    1    3    3  502    0 -0.32123023199E+03  0.28366997013E+03  0.79759224435E+03  0.90544629446E+03  0.46999998093E+01 0. -1.
       -5    1    3    3    0  502  0.32123023199E+03 -0.28366997013E+03 -0.17013597720E+04  0.17545098112E+04  0.46999998093E+01 0.  1.
</event>
<event>
 5   0  0.1550483E-05  0.2483152E+04  0.7818609E-02  0.8409012E-01
        2   -1    0    0  501    0  0.00000000000E+00  0.00000000000E+00  0.19539940765E+04  0.19539940765E+04  0.25500000920E-02 0. -1.
       -2   -1    0    0    0  501  0.00000000000E+00  0.00000000000E+00 -0.78890284531E+03  0.78890284531E+03  0.25500000920E-02 0.  1.
    10030    2    1    2    0    0  0.00000000000E+00  0.00000000000E+00  0.11650912312E+04  0.27428969219E+04  0.24831524212E+04 0.  0.
        5    1    3    3  502    0  0.17195360953E+03  0.10885033223E+04  0.12142797518E+04  0.16397880754E+04  0.46999998093E+01 0. -1.
       -5    1    3    3    0  502 -0.17195360953E+03 -0.10885033223E+04 -0.49188520556E+02  0.11031088465E+04  0.46999998093E+01 0.  1.
</event>
<event>
 5   0  0.6290861E-06  0.2498046E+04  0.7818609E-02  0.8403682E-01
        1   -1    0    0  501    0  0.00000000000E+00  0.00000000000E+00  0.10429190420E+04  0.10429190420E+04  0.50400001928E-02 0.  1.
       -1   -1    0    0    0  501  0.00000000000E+00  0.00000000000E+00 -0.14958574734E+04  0.14958574734E+04  0.50400001928E-02 0. -1.
    10030    2    1    2    0    0  0.00000000000E+00  0.00000000000E+00 -0.45293843139E+03  0.25387765153E+04  0.24980458307E+04 0.  0.
        1    1    3    3  502    0  0.72601282271E+03  0.45376844185E+03  0.69778620834E+03  0.11044935537E+04  0.50400001928E-02 0.  1.
       -1    1    3    3    0  502 -0.72601282271E+03 -0.45376844185E+03 -0.11507246397E+04  0.14342829616E+04  0.50400001928E-02 0. -1.
</event>
<event>
 5   0  0.6346420E-06  0.2517927E+04  0.7818609E-02  0.8396627E-01
        1   -1    0    0  501    0  0.00000000000E+00  0.00000000000E+00  0.90334588987E+03  0.90334588989E+03  0.50400001928E-02 0. -1.
       -1   -1    0    0    0  501  0.00000000000E+00  0.00000000000E+00 -0.17545765311E+04  0.17545765311E+04  0.50400001928E-02 0.  1.
    10030    2    1    2    0    0  0.00000000000E+00  0.00000000000E+00 -0.85123064120E+03  0.26579224210E+04  0.25179273205E+04 0.  0.
        4    1    3    3  502    0  0.41545060622E+03  0.86430692219E+03  0.43543430112E+03  0.10532000311E+04  0.12699999809E+01 0. -1.
       -4    1    3    3    0  502 -0.41545060622E+03 -0.86430692219E+03 -0.12866649423E+04  0.16047223899E+04  0.12699999809E+01 0.  1.
</event>
<event>
 5   0  0.1501947E-05  0.2510054E+04  0.7818609E-02  0.8399413E-01
       -2   -1    0    0    0  501  0.00000000000E+00  0.00000000000E+00  0.10895130888E+04  0.10895130888E+04  0.25500000920E-02 0.  1.
        2   -1    0    0  501    0  0.00000000000E+00  0.00000000000E+00 -0.14456845937E+04  0.14456845937E+04  0.25500000920E-02 0. -1.
    10030    2    1    2    0    0  0.00000000000E+00  0.00000000000E+00 -0.35617150495E+03  0.25351976825E+04  0.25100536147E+04 0.  0.
        3    1    3    3  502    0 -0.67207553704E+03  0.20244539636E+03 -0.12289031610E+04  0.14152288349E+04  0.10100000352E+00 0. -1.
       -3    1    3    3    0  502  0.67207553704E+03 -0.20244539636E+03  0.87273165602E+03  0.11199688476E+04  0.10100000352E+00 0.  1.
</event>
<event>
 5   0  0.1572732E-05  0.2477764E+04  0.7818609E-02  0.8410950E-01
       -2   -1    0    0    0  501  0.00000000000E+00  0.00000000000E+00  0.12392359007E+04  0.12392359007E+04  0.25500000920E-02 0.  1.
        2   -1    0    0  501    0  0.00000000000E+00  0.00000000000E+00 -0.12385286659E+04  0.12385286659E+04  0.25500000920E-02 0. -1.
    10030    2    1    2    0    0  0.00000000000E+00  0.00000000000E+00  0.70723481640E+00  0.24777645666E+04  0.24777644656E+04 0.  0.
        1    1    3    3  502    0 -0.93443777952E+03 -0.35755957436E+03 -0.73026695254E+03  0.12386737403E+04  0.50400001928E-02 0. -1.
       -1    1    3    3    0  502  0.93443777952E+03  0.35755957436E+03  0.73097418736E+03  0.12390908262E+04  0.50400001928E-02 0.  1.
</event>
<event>
 5   0  0.1550483E-05  0.2494970E+04  0.7818609E-02  0.8404780E-01
        2   -1    0    0  501    0  0.00000000000E+00  0.00000000000E+00  0.16341252829E+04  0.16341252829E+04  0.25500000920E-02 0. -1.
       -2   -1    0    0    0  501  0.00000000000E+00  0.00000000000E+00 -0.95232559933E+03  0.95232559933E+03  0.25500000920E-02 0.  1.
    10030    2    1    2    0    0  0.00000000000E+00  0.00000000000E+00  0.68179968352E+03  0.25864508822E+04  0.24949704122E+04 0.  0.
        5    1    3    3  502    0 -0.72506195597E+03 -0.10116164411E+04  0.25345913970E+03  0.12701756923E+04  0.46999998093E+01 0. -1.
       -5    1    3    3    0  502  0.72506195597E+03  0.10116164411E+04  0.42834054383E+03  0.13162751898E+04  0.46999998093E+01 0.  1.
</event>
<event>
 5   0  0.6104486E-06  0.2477015E+04  0.7818609E-02  0.8411220E-01
       -1   -1    0    0    0  501  0.00000000000E+00  0.00000000000E+00  0.13383735701E+04  0.13383735701E+04  0.50400001928E-02 0.  1.
        1   -1    0    0  501    0  0.00000000000E+00  0.00000000000E+00 -0.11460932663E+04  0.11460932663E+04  0.50400001928E-02 0. -1.
    10030    2    1    2    0    0  0.00000000000E+00  0.00000000000E+00  0.19228030386E+03  0.24844668364E+04  0.24770150880E+04 0.  0.
        2    1    3    3  502    0 -0.35274596734E+02 -0.82207630651E+03  0.10245852750E+04  0.13140885574E+04  0.25500000920E-02 0.  1.
       -2    1    3    3    0  502  0.35274596734E+02  0.82207630651E+03 -0.83230497117E+03  0.11703782790E+04  0.25500000920E-02 0. -1.
</event>
<event>
 5   0  0.1501947E-05  0.2498844E+04  0.7818609E-02  0.8403397E-01
        2   -1    0    0  501    0  0.00000000000E+00  0.00000000000E+00  0.13640574059E+04  0.13640574059E+04  0.25500000920E-02 0.  1.
       -2   -1    0    0    0  501  0.00000000000E+00  0.00000000000E+00 -0.11444208345E+04  0.11444208345E+04  0.25500000920E-02 0. -1.
    10030    2    1    2    0    0  0.00000000000E+00  0.00000000000E+00  0.21963657144E+03  0.25084782404E+04  0.24988443047E+04 0.  0.
        3    1    3    3  502    0 -0.11982660979E+04 -0.35349219273E+03  0.93714839544E+02  0.12528291396E+04  0.10100000352E+00 0.  1.
       -3    1    3    3    0  502  0.11982660979E+04  0.35349219273E+03  0.12592173189E+03  0.12556491008E+04  0.10100000352E+00 0. -1.
</event>
<event>
 5   0  0.1468512E-05  0.2485357E+04  0.7818609E-02  0.8408221E-01
       -2   -1    0    0    0  501  0.00000000000E+00  0.00000000000E+00  0.10863002522E+04  0.10863002522E+04  0.25500000920E-02 0. -1.
        2   -1    0    0  501    0  0.00000000000E+00  0.00000000000E+00 -0.14215676997E+04  0.14215676997E+04  0.25500000920E-02 0.  1.
    10030    2    1    2    0    0  0.00000000000E+00  0.00000000000E+00 -0.33526744753E+03  0.25078679519E+04  0.24853565947E+04 0.  0.
        4    1    3    3  502    0  0.32905969702E+03  0.34388236523E+03 -0.13259476240E+04  0.14087846109E+04  0.12699999809E+01 0.  1.
       -4    1    3    3    0  502 -0.32905969702E+03 -0.34388236523E+03  0.99068017652E+03  0.10990833410E+04  0.12699999809E+01 0. -1.
</event>
<event>
 5   0  0.5164625E-06  0.2515884E+04  0.7818609E-02  0.8397349E-01
        3   -1    0    0  501    0  0.00000000000E+00  0.00000000000E+00  0.20654151934E+04  0.20654151958E+04  0.10100000352E+00 0.  1.
       -3   -1    0    0    0  501  0.00000000000E+00  0.00000000000E+00 -0.76615009950E+03  0.76615010616E+03  0.10100000352E+00 0. -1.
    10030    2    1    2    0    0  0.00000000000E+00  0.00000000000E+00  0.12992650938E+04  0.28315653020E+04  0.25158839948E+04 0.  0.
        4    1    3    3  502    0 -0.98066970422E+02 -0.11430531539E+03  0.20552307274E+04  0.20607420487E+04  0.12699999809E+01 0.  1.
       -4    1    3    3    0  502  0.98066970422E+02  0.11430531539E+03 -0.75596563351E+03  0.77082325326E+03  0.12699999809E+01 0. -1.
</event>
<event>
 5   0  0.1501947E-05  0.2498597E+04  0.7818609E-02  0.8403486E-01
        2   -1    0    0  501    0  0.00000000000E+00  0.00000000000E+00  0.11615967023E+04  0.11615967023E+04  0.25500000920E-02 0. -1.
       -2   -1    0    0    0  501  0.00000000000E+00  0.00000000000E+00 -0.13436217487E+04  0.13436217487E+04  0.25500000920E-02 0.  1.
    10030    2    1    2    0    0  0.00000000000E+00  0.00000000000E+00 -0.18202504638E+03  0.25052184510E+04  0.24985968802E+04 0.  0.
        3    1    3    3  502    0 -0.39960738834E+03 -0.55962201763E+03  0.95476823323E+03  0.11766245182E+04  0.10100000352E+00 0. -1.
       -3    1    3    3    0  502  0.39960738834E+03  0.55962201763E+03 -0.11367932796E+04  0.13285939328E+04  0.10100000352E+00 0.  1.
</event>
<event>
 5   0  0.1468512E-05  0.2523085E+04  0.7818609E-02  0.8394807E-01
        2   -1    0    0  501    0  0.00000000000E+00  0.00000000000E+00  0.17189967088E+04  0.17189967088E+04  0.25500000920E-02 0. -1.
       -2   -1    0    0    0  501  0.00000000000E+00  0.00000000000E+00 -0.92582425990E+03  0.92582425990E+03  0.25500000920E-02 0.  1.
    10030    2    1    2    0    0  0.00000000000E+00  0.00000000000E+00  0.79317244888E+03  0.26448209687E+04  0.25230845057E+04 0.  0.
        4    1    3    3  502    0 -0.68522556672E+03 -0.52249246777E+03 -0.56925728020E+03  0.10327574353E+04  0.12699999809E+01 0.  1.
       -4    1    3    3    0  502  0.68522556672E+03  0.52249246777E+03  0.13624297291E+04  0.16120635334E+04  0.12699999809E+01 0. -1.
</event>
<event>
 5   0  0.1572732E-05  0.2540813E+04  0.7818609E-02  0.8388588E-01
        2   -1    0    0  501    0  0.00000000000E+00  0.00000000000E+00  0.10409358827E+04  0.10409358827E+04  0.25500000920E-02 0. -1.
       -2   -1    0    0    0  501  0.00000000000E+00  0.00000000000E+00 -0.15504632277E+04  0.15504632277E+04  0.25500000920E-02 0.  1.
    10030    2    1    2    0    0  0.00000000000E+00  0.00000000000E+00 -0.50952734506E+03  0.25913991104E+04  0.25408131049E+04 0.  0.
        1    1    3    3  502    0 -0.86129545970E+03  0.44316630594E+03 -0.10931431790E+04  0.14605438211E+04  0.50400001928E-02 0.  1.
       -1    1    3    3    0  502  0.86129545970E+03 -0.44316630594E+03  0.58361583392E+03  0.11308552893E+04  0.50400001928E-02 0. -1.
</event>
<event>
 5   0  0.6346420E-06  0.2492055E+04  0.7818609E-02  0.8405821E-01
       -1   -1    0    0    0  501  0.00000000000E+00  0.00000000000E+00  0.10768288428E+04  0.10768288429E+04  0.50400001928E-02 0.  1.
        1   -1    0    0  501    0  0.00000000000E+00  0.00000000000E+00 -0.14418118651E+04  0.14418118651E+04  0.50400001928E-02 0. -1.
    10030    2    1    2    0    0  0.00000000000E+00  0.00000000000E+00 -0.36498302224E+03  0.25186407080E+04  0.24920550574E+04 0.  0.
        4    1    3    3  502    0 -0.33398771374E+03 -0.75229749430E+03  0.76294719174E+03  0.11223142800E+04  0.12699999809E+01 0.  1.
       -4    1    3    3    0  502  0.33398771374E+03  0.75229749430E+03 -0.11279302140E+04  0.13963264279E+04  0.12699999809E+01 0. -1.
</event>
<event>
 5   0  0.1501947E-05  0.2520521E+04  0.7818609E-02  0.8395711E-01
        2   -1    0    0  501    0  0.00000000000E+00  0.00000000000E+00  0.12978356454E+04  0.12978356454E+04  0.25500000920E-02 0.  1.
       -2   -1    0    0    0  501  0.00000000000E+00  0.00000000000E+00 -0.12237730229E+04  0.12237730229E+04  0.25500000920E-02 0. -1.
    10030    2    1    2    0    0  0.00000000000E+00  0.00000000000E+00  0.74062622500E+02  0.25216086683E+04  0.25205207803E+04 0.  0.
        3    1    3    3  502    0 -0.12391746502E+04  0.22954768995E+03  0.40239734822E+02  0.12608985693E+04  0.10100000352E+00 0. -1.
       -3    1    3    3    0  502  0.12391746502E+04 -0.22954768995E+03  0.33822887677E+02  0.12607100989E+04  0.10100000352E+00 0.  1.
</event>
<event>
 5   0  0.1550483E-05  0.2472343E+04  0.7818609E-02  0.8412905E-01
        2   -1    0    0  501    0  0.00000000000E+00  0.00000000000E+00  0.12729080554E+04  0.12729080554E+04  0.25500000920E-02 0.  1.
       -2   -1    0    0    0  501  0.00000000000E+00  0.00000000000E+00 -0.12004952663E+04  0.12004952663E+04  0.25500000920E-02 0. -1.
    10030    2    1    2    0    0  0.00000000000E+00  0.00000000000E+00  0.72412789055E+02  0.24734033217E+04  0.24723430951E+04 0.  0.
        5    1    3    3  502    0 -0.10457198174E+04  0.54806422676E+03 -0.33027524236E+03  0.12259723321E+04  0.46999998093E+01 0. -1.
       -5    1    3    3    0  502  0.10457198174E+04 -0.54806422676E+03  0.40268803142E+03  0.12474309896E+04  0.46999998093E+01 0.  1.
</event>
<event>
 5   0  0.6105353E-06  0.2368971E+04  0.7818609E-02  0.8451212E-01
        1   -1    0    0  501    0  0.00000000000E+00  0.00000000000E+00  0.18312783233E+04  0.18312783233E+04  0.50400001928E-02 0. -1.
       -1   -1    0    0    0  501  0.00000000000E+00  0.00000000000E+00 -0.76613489782E+03  0.76613489784E+03  0.50400001928E-02 0.  1.
    10030    2    1    2    0    0  0.00000000000E+00  0.00000000000E+00  0.10651434255E+04  0.25974132211E+04  0.23689712798E+04 0.  0.
        3    1    3    3  502    0  0.23457927896E+03 -0.81904517393E+03 -0.36966750329E+03  0.92871766875E+03  0.10100000352E+00 0.  1.
       -3    1    3    3    0  502 -0.23457927896E+03  0.81904517393E+03  0.14348109288E+04  0.16686955524E+04  0.10100000352E+00 0. -1.
</event>
<event>
 5   0  0.6346420E-06  0.2521252E+04  0.7818609E-02  0.8395453E-01
       -1   -1    0    0    0  501  0.00000000000E+00  0.00000000000E+00  0.10898968619E+04  0.10898968619E+04  0.50400001928E-02 0. -1.
        1   -1    0    0  501    0  0.00000000000E+00  0.00000000000E+00 -0.14580992625E+04  0.14580992625E+04  0.50400001928E-02 0.  1.
    10030    2    1    2    0    0  0.00000000000E+00  0.00000000000E+00 -0.36820240058E+03  0.25479961244E+04  0.25212519196E+04 0.  0.
        4    1    3    3  502    0  0.14630902182E+03  0.99484549092E+03  0.58426118187E+03  0.11629645834E+04  0.12699999809E+01 0. -1.
       -4    1    3    3    0  502 -0.14630902182E+03 -0.99484549092E+03 -0.95246358246E+03  0.13850315410E+04  0.12699999809E+01 0.  1.
</event>
<event>
 5   0  0.1468512E-05  0.2502160E+04  0.7818609E-02  0.8402217E-01
        2   -1    0    0  501    0  0.00000000000E+00  0.00000000000E+00  0.11211601915E+04  0.11211601915E+04  0.25500000920E-02 0.  1.
       -2   -1    0    0    0  501  0.00000000000E+00  0.00000000000E+00 -0.13960543778E+04  0.13960543778E+04  0.25500000920E-02 0. -1.
    10030    2    1    2    0    0  0.00000000000E+00  0.00000000000E+00 -0.27489418628E+03  0.25172145693E+04  0.25021595421E+04 0.  0.
        4    1    3    3  502    0 -0.46844651277E+03 -0.10820315483E+04 -0.55825152079E+03  0.13045615279E+04  0.12699999809E+01 0. -1.
       -4    1    3    3    0  502  0.46844651277E+03  0.10820315483E+04  0.28335733451E+03  0.12126530414E+04  0.12699999809E+01 0.  1.
</event>
<event>
 5   0  0.6105353E-06  0.2505187E+04  0.7818609E-02  0.8401140E-01
       -1   -1    0    0    0  501  0.00000000000E+00  0.00000000000E+00  0.72871854610E+03  0.72871854611E+03  0.50400001928E-02 0. -1.
        1   -1    0    0  501    0  0.00000000000E+00  0.00000000000E+00 -0.21530813521E+04  0.21530813521E+04  0.50400001928E-02 0.  1.
    10030    2    1    2    0    0  0.00000000000E+00  0.00000000000E+00 -0.14243628060E+04  0.28817998982E+04  0.25051868693E+04 0.  0.
        3    1    3    3  502    0  0.28411256920E+03  0.12174423373E+04 -0.80205848105E+03  0.14853227306E+04  0.10100000352E+00 0.  1.
       -3    1    3    3    0  502 -0.28411256920E+03 -0.12174423373E+04 -0.62230432492E+03  0.13964771676E+04  0.10100000352E+00 0. -1.
</event>
<event>
 5   0  0.1550483E-05  0.2505008E+04  0.7818609E-02  0.8401204E-01
        2   -1    0    0  501    0  0.00000000000E+00  0.00000000000E+00  0.11745042642E+04  0.11745042642E+04  0.25500000920E-02 0. -1.
       -2   -1    0    0    0  501  0.00000000000E+00  0.00000000000E+00 -0.13356832536E+04  0.13356832536E+04  0.25500000920E-02 0.  1.
    10030    2    1    2    0    0  0.00000000000E+00  0.00000000000E+00 -0.16117898941E+03  0.25101875179E+04  0.25050075266E+04 0.  0.
        5    1    3    3  502    0  0.29415123821E+03 -0.16869288030E+03  0.11276240206E+04  0.11775144418E+04  0.46999998093E+01 0. -1.
       -5    1    3    3    0  502 -0.29415123821E+03  0.16869288030E+03 -0.12888030101E+04  0.13326730760E+04  0.46999998093E+01 0.  1.
</event>
<event>
 5   0  0.1526824E-05  0.2506790E+04  0.7818609E-02  0.8400570E-01
       -2   -1    0    0    0  501  0.00000000000E+00  0.00000000000E+00  0.12984044838E+04  0.12984044838E+04  0.25500000920E-02 0.  1.
        2   -1    0    0  501    0  0.00000000000E+00  0.00000000000E+00 -0.12099460884E+04  0.12099460884E+04  0.25500000920E-02 0. -1.
    10030    2    1    2    0    0  0.00000000000E+00  0.00000000000E+00  0.88458395366E+02  0.25083505723E+04  0.25067903194E+04 0.  0.
        2    1    3    3  502    0  0.10851133230E+04 -0.41532645866E+03 -0.42620429056E+03  0.12375851843E+04  0.25500000920E-02 0. -1.
       -2    1    3    3    0  502 -0.10851133230E+04  0.41532645866E+03  0.51466268593E+03  0.12707653880E+04  0.25500000920E-02 0.  1.
</event>
<event>
 5   0  0.1550483E-05  0.2487066E+04  0.7818609E-02  0.8407608E-01
        2   -1    0    0  501    0  0.00000000000E+00  0.00000000000E+00  0.26290344841E+04  0.26290344841E+04  0.25500000920E-02 0.  1.
       -2   -1    0    0    0  501  0.00000000000E+00  0.00000000000E+00 -0.58819114254E+03  0.58819114255E+03  0.25500000920E-02 0. -1.
    10030    2    1    2    0    0  0.00000000000E+00  0.00000000000E+00  0.20408433416E+04  0.32172256267E+04  0.24870663819E+04 0.  0.
        5    1    3    3  502    0 -0.62102415731E+03  0.10042932047E+04  0.51596285771E+03  0.12886099509E+04  0.46999998093E+01 0. -1.
       -5    1    3    3    0  502  0.62102415731E+03 -0.10042932047E+04  0.15248804839E+04  0.19286156758E+04  0.46999998093E+01 0.  1.
</event>
<event>
 5   0  0.6477703E-06  0.2500102E+04  0.7818609E-02  0.8402949E-01
       -1   -1    0    0    0  501  0.00000000000E+00  0.00000000000E+00  0.13871742680E+04  0.13871742680E+04  0.50400001928E-02 0.  1.
        1   -1    0    0  501    0  0.00000000000E+00  0.00000000000E+00 -0.11264821015E+04  0.11264821015E+04  0.50400001928E-02 0. -1.
    10030    2    1    2    0    0  0.00000000000E+00  0.00000000000E+00  0.26069216647E+03  0.25136563695E+04  0.25001015856E+04 0.  0.
        5    1    3    3  502    0  0.85965986334E+03 -0.21159364158E+03  0.10176373894E+04  0.13488494712E+04  0.46999998093E+01 0.  1.
       -5    1    3    3    0  502 -0.85965986334E+03  0.21159364158E+03 -0.75694522289E+03  0.11648068983E+04  0.46999998093E+01 0. -1.
</event>
<event>
 5   0  0.6346420E-06  0.2506841E+04  0.7818609E-02  0.8400552E-01
       -1   -1    0    0    0  501  0.00000000000E+00  0.00000000000E+00  0.11008728943E+04  0.11008728943E+04  0.50400001928E-02 0. -1.
        1   -1    0    0  501    0  0.00000000000E+00  0.00000000000E+00 -0.14271068093E+04  0.14271068094E+04  0.50400001928E-02 0.  1.
    10030    2    1    2    0    0  0.00000000000E+00  0.00000000000E+00 -0.32623391504E+03  0.25279797037E+04  0.25068412026E+04 0.  0.
        4    1    3    3  502    0 -0.56956997355E+03 -0.42322008188E+03 -0.12050459059E+04  0.13984500136E+04  0.12699999809E+01 0.  1.
       -4    1    3    3    0  502  0.56956997355E+03  0.42322008188E+03  0.87881199086E+03  0.11295296900E+04  0.12699999809E+01 0. -1.
</event>
<event>
 5   0  0.1501947E-05  0.2500355E+04  0.7818609E-02  0.8402859E-01
       -2   -1    0    0    0  501  0.00000000000E+00  0.00000000000E+00  0.10332860276E+04  0.10332860277E+04  0.25500000920E-02 0.  1.
        2   -1    0    0  501    0  0.00000000000E+00  0.00000000000E+00 -0.15125953386E+04  0.15125953386E+04  0.25500000920E-02 0. -1.
    10030    2    1    2    0    0  0.00000000000E+00  0.00000000000E+00 -0.47930931091E+03  0.25458813662E+04  0.25003548779E+04 0.  0.
        3    1    3    3  502    0  0.11962762563E+04  0.26140747551E+03  0.16992079109E+02  0.12246221828E+04  0.10100000352E+00 0.  1.
       -3    1    3    3    0  502 -0.11962762563E+04 -0.26140747551E+03 -0.49630139002E+03  0.13212591834E+04  0.10100000352E+00 0. -1.
</event>
<event>
 5   0  0.6104486E-06  0.2503522E+04  0.7818609E-02  0.8401732E-01
       -1   -1    0    0    0  501  0.00000000000E+00  0.00000000000E+00  0.31638014036E+04  0.31638014036E+04  0.50400001928E-02 0. -1.
        1   -1    0    0  501    0  0.00000000000E+00  0.00000000000E+00 -0.49526044374E+03  0.49526044377E+03  0.50400001928E-02 0.  1.
    10030    2    1    2    0    0  0.00000000000E+00  0.00000000000E+00  0.26685409599E+04  0.36590618474E+04  0.25035220687E+04 0.  0.
        2    1    3    3  502    0 -0.15531608445E+03 -0.32937550129E+03  0.30846711646E+04  0.31060919981E+04  0.25500000920E-02 0. -1.
       -2    1    3    3    0  502  0.15531608445E+03  0.32937550129E+03 -0.41613020472E+03  0.55296984929E+03  0.25500000920E-02 0.  1.
</event>
<event>
 5   0  0.1468512E-05  0.2494163E+04  0.7818609E-02  0.8405068E-01
        2   -1    0    0  501    0  0.00000000000E+00  0.00000000000E+00  0.14964490452E+04  0.14964490452E+04  0.25500000920E-02 0. -1.
       -2   -1    0    0    0  501  0.00000000000E+00  0.00000000000E+00 -0.10392684880E+04  0.10392684880E+04  0.25500000920E-02 0.  1.
    10030    2    1    2    0    0  0.00000000000E+00  0.00000000000E+00  0.45718055711E+03  0.25357175332E+04  0.24941630553E+04 0.  0.
        4    1    3    3  502    0 -0.26933976589E+03 -0.84039168821E+03 -0.66723065562E+03  0.11063455427E+04  0.12699999809E+01 0.  1.
       -4    1    3    3    0  502  0.26933976589E+03  0.84039168821E+03  0.11244112127E+04  0.14293719905E+04  0.12699999809E+01 0. -1.
</event>
<event>
 5   0  0.6346420E-06  0.2474911E+04  0.7818609E-02  0.8411978E-01
        1   -1    0    0  501    0  0.00000000000E+00  0.00000000000E+00  0.86975436520E+03  0.86975436521E+03  0.50400001928E-02 0.  1.
       -1   -1    0    0    0  501  0.00000000000E+00  0.00000000000E+00 -0.17606076255E+04  0.17606076255E+04  0.50400001928E-02 0. -1.
    10030    2    1    2    0    0  0.00000000000E+00  0.00000000000E+00 -0.89085326030E+03  0.26303619907E+04  0.24749110430E+04 0.  0.
        4    1    3    3  502    0  0.78329837971E+03 -0.82594622109E+03 -0.96124694546E+03  0.14898794632E+04  0.12699999809E+01 0.  1.
       -4    1    3    3    0  502 -0.78329837971E+03  0.82594622109E+03  0.70393685159E+02  0.11404825275E+04  0.12699999809E+01 0. -1.
</event>
<event>
 5   0  0.6290861E-06  0.2516901E+04  0.7818609E-02  0.8396989E-01
        1   -1    0    0  501    0  0.00000000000E+00  0.00000000000E+00  0.14633399168E+04  0.14633399168E+04  0.50400001928E-02 0. -1.
       -1   -1    0    0    0  501  0.00000000000E+00  0.00000000000E+00 -0.10822483367E+04  0.10822483367E+04  0.50400001928E-02 0.  1.
    10030    2    1    2    0    0  0.00000000000E+00  0.00000000000E+00  0.38109158013E+03  0.25455882535E+04  0.25169006266E+04 0.  0.
        1    1    3    3  502    0  0.30857681325E+03 -0.12146410683E+04  0.30641429468E+03  0.12901404165E+04  0.50400001928E-02 0. -1.
       -1    1    3    3    0  502 -0.30857681325E+03  0.12146410683E+04  0.74677285441E+02  0.12554478370E+04  0.50400001928E-02 0.  1.
</event>
<event>
 5   0  0.6477703E-06  0.2494427E+04  0.7818609E-02  0.8404974E-01
       -1   -1    0    0    0  501  0.00000000000E+00  0.00000000000E+00  0.27778501826E+04  0.27778501826E+04  0.50400001928E-02 0. -1.
        1   -1    0    0  501    0  0.00000000000E+00  0.00000000000E+00 -0.55998034282E+03  0.55998034284E+03  0.50400001928E-02 0.  1.
    10030    2    1    2    0    0  0.00000000000E+00  0.00000000000E+00  0.22178698398E+04  0.33378305255E+04  0.24944269864E+04 0.  0.
        5    1    3    3  502    0 -0.51533478548E+03 -0.41966827651E+03  0.25211555522E+04  0.26072857173E+04  0.46999998093E+01 0. -1.
       -5    1    3    3    0  502  0.51533478548E+03  0.41966827651E+03 -0.30328571236E+03  0.73054480818E+03  0.46999998093E+01 0.  1.
</event>
<event>
 5   0  0.6105353E-06  0.2514141E+04  0.7818609E-02  0.8397965E-01
        1   -1    0    0  501    0  0.00000000000E+00  0.00000000000E+00  0.12059149482E+04  0.12059149482E+04  0.50400001928E-02 0.  1.
       -1   -1    0    0    0  501  0.00000000000E+00  0.00000000000E+00 -0.13103957304E+04  0.13103957304E+04  0.50400001928E-02 0. -1.
    10030    2    1    2    0    0  0.00000000000E+00  0.00000000000E+00 -0.10448078221E+03  0.25163106786E+04  0.25141406479E+04 0.  0.
        3    1    3    3  502    0  0.13404993129E+03  0.40385251682E+03  0.11316413200E+04  0.12089988944E+04  0.10100000352E+00 0.  1.
       -3    1    3    3    0  502 -0.13404993129E+03 -0.40385251682E+03 -0.12361221022E+04  0.13073117842E+04  0.10100000352E+00 0. -1.
</event>
<event>
 5   0  0.1526824E-05  0.2469263E+04  0.7818609E-02  0.8414018E-01
       -2   -1    0    0    0  501  0.00000000000E+00  0.00000000000E+00  0.91539441004E+03  0.91539441005E+03  0.25500000920E-02 0. -1.
        2   -1    0    0  501    0  0.00000000000E+00  0.00000000000E+00 -0.16651997290E+04  0.16651997290E+04  0.25500000920E-02 0.  1.
    10030    2    1    2    0    0  0.00000000000E+00  0.00000000000E+00 -0.74980531894E+03  0.25805941390E+04  0.24692626620E+04 0.  0.
        2    1    3    3  502    0  0.40840812993E+03 -0.10220870436E+04  0.20965081153E+03  0.11204519571E+04  0.25500000920E-02 0. -1.
       -2    1    3    3    0  502 -0.40840812993E+03  0.10220870436E+04 -0.95945613047E+03  0.14601421820E+04  0.25500000920E-02 0.  1.
</event>
<event>
 5   0  0.6346420E-06  0.2505086E+04  0.7818609E-02  0.8401176E-01
        1   -1    0    0  501    0  0.00000000000E+00  0.00000000000E+00  0.20708379324E+04  0.20708379325E+04  0.50400001928E-02 0.  1.
       -1   -1    0    0    0  501  0.00000000000E+00  0.00000000000E+00 -0.75759890120E+03  0.75759890122E+03  0.50400001928E-02 0. -1.
    10030    2    1    2    0    0  0.00000000000E+00  0.00000000000E+00  0.13132390312E+04  0.28284368337E+04  0.25050864594E+04 0.  0.
        4    1    3    3  502    0 -0.13613254065E+03  0.23204965211E+03  0.20378297177E+04  0.20555122672E+04  0.12699999809E+01 0.  1.
       -4    1    3    3    0  502  0.13613254065E+03 -0.23204965211E+03 -0.72459068642E+03  0.77292456644E+03  0.12699999809E+01 0. -1.
</event>
<event>
 5   0  0.1501947E-05  0.2495217E+04  0.7818609E-02  0.8404691E-01
        2   -1    0    0  501    0  0.00000000000E+00  0.00000000000E+00  0.19002508169E+04  0.19002508169E+04  0.25500000920E-02 0. -1.
       -2   -1    0    0    0  501  0.00000000000E+00  0.00000000000E+00 -0.81911661599E+03  0.81911661599E+03  0.25500000920E-02 0.  1.
    10030    2    1    2    0    0  0.00000000000E+00  0.00000000000E+00  0.10811342010E+04  0.27193674329E+04  0.24952170396E+04 0.  0.
        3    1    3    3  502    0 -0.10105104655E+04  0.56856939725E+03  0.10425107077E+04  0.15592405671E+04  0.10100000352E+00 0.  1.
       -3    1    3    3    0  502  0.10105104655E+04 -0.56856939725E+03  0.38623493266E+02  0.11601268658E+04  0.10100000352E+00 0. -1.
</event>
<event>
 5   0  0.1468512E-05  0.2646510E+04  0.7818609E-02  0.8352572E-01
       -2   -1    0    0    0  501  0.00000000000E+00  0.00000000000E+00  0.12452640328E+04  0.12452640328E+04  0.25500000920E-02 0.  1.
        2   -1    0    0  501    0  0.00000000000E+00  0.00000000000E+00 -0.14061310086E+04  0.14061310086E+04  0.25500000920E-02 0. -1.
    10030    2    1    2    0    0  0.00000000000E+00  0.00000000000E+00 -0.16086697580E+03  0.26513950413E+04  0.26465104348E+04 0.  0.
        4    1    3    3  502    0  0.23784771475E+03 -0.17038791593E+03 -0.13733188019E+04  0.14041402074E+04  0.12699999809E+01 0. -1.
       -4    1    3    3    0  502 -0.23784771475E+03  0.17038791593E+03  0.12124518261E+04  0.12472548340E+04  0.12699999809E+01 0.  1.
</event>
<event>
 5   0  0.6290861E-06  0.2481335E+04  0.7818609E-02  0.8409665E-01
        1   -1    0    0  501    0  0.00000000000E+00  0.00000000000E+00  0.20999954021E+04  0.20999954021E+04  0.50400001928E-02 0. -1.
       -1   -1    0    0    0  501  0.00000000000E+00  0.00000000000E+00 -0.73298044997E+03  0.73298044998E+03  0.50400001928E-02 0.  1.
    10030    2    1    2    0    0  0.00000000000E+00  0.00000000000E+00  0.13670149522E+04  0.28329758521E+04  0.24813347818E+04 0.  0.
        1    1    3    3  502    0  0.89796519952E+03  0.66773089556E+02  0.16579562238E+04  0.18866952549E+04  0.50400001928E-02 0. -1.
       -1    1    3    3    0  502 -0.89796519952E+03 -0.66773089556E+02 -0.29094127162E+03  0.94628059718E+03  0.50400001928E-02 0.  1.
</event>
<event>
 5   0  0.1550483E-05  0.2507992E+04  0.7818609E-02  0.8400144E-01
       -2   -1    0    0    0  501  0.00000000000E+00  0.00000000000E+00  0.10899088077E+04  0.10899088077E+04  0.25500000920E-02 0. -1.
        2   -1    0    0  501    0  0.00000000000E+00  0.00000000000E+00 -0.14427867376E+04  0.14427867376E+04  0.25500000920E-02 0.  1.
    10030    2    1    2    0    0  0.00000000000E+00  0.00000000000E+00 -0.35287792996E+03  0.25326955453E+04  0.25079920039E+04 0.  0.
        5    1    3    3  502    0  0.51169195710E+03 -0.51990837930E+03 -0.12064613884E+04  0.14098597637E+04  0.46999998093E+01 0.  1.
       -5    1    3    3    0  502 -0.51169195710E+03  0.51990837930E+03  0.85358345839E+03  0.11228357815E+04  0.46999998093E+01 0. -1.
</event>
<event>
 5   0  0.1572732E-05  0.2481629E+04  0.7818609E-02  0.8409560E-01
       -2   -1    0    0    0  501  0.00000000000E+00  0.00000000000E+00  0.74260433016E+03  0.74260433016E+03  0.25500000920E-02 0.  1.
        2   -1    0    0  501    0  0.00000000000E+00  0.00000000000E+00 -0.20732719867E+04  0.20732719867E+04  0.25500000920E-02 0. -1.
    10030    2    1    2    0    0  0.00000000000E+00  0.00000000000E+00 -0.13306676565E+04  0.28158763168E+04  0.24816291060E+04 0.  0.
        1    1    3    3  502    0  0.30726139908E+03  0.95620537624E+03  0.16141938560E+03  0.10172484981E+04  0.50400001928E-02 0.  1.
       -1    1    3    3    0  502 -0.30726139908E+03 -0.95620537624E+03 -0.14920870421E+04  0.17986278187E+04  0.50400001928E-02 0. -1.
</event>
<event>
 5   0  0.1501947E-05  0.2537204E+04  0.7818609E-02  0.8389850E-01
        2   -1    0    0  501    0  0.00000000000E+00  0.00000000000E+00  0.21193848056E+04  0.21193848056E+04  0.25500000920E-02 0. -1.
       -2   -1    0    0    0  501  0.00000000000E+00  0.00000000000E+00 -0.75934804386E+03  0.75934804387E+03  0.25500000920E-02 0.  1.
    10030    2    1    2    0    0  0.00000000000E+00  0.00000000000E+00  0.13600367617E+04  0.28787328495E+04  0.25372037414E+04 0.  0.
        3    1    3    3  502    0  0.97090312252E+03  0.79210239691E+03  0.45517225726E+03  0.13331394805E+04  0.10100000352E+00 0.  1.
       -3    1    3    3    0  502 -0.97090312252E+03 -0.79210239691E+03  0.90486450447E+03  0.15455933690E+04  0.10100000352E+00 0. -1.
</event>
<event>
 5   0  0.6290861E-06  0.2523771E+04  0.7818609E-02  0.8394566E-01
       -1   -1    0    0    0  501  0.00000000000E+00  0.00000000000E+00  0.66678028502E+03  0.66678028504E+03  0.50400001928E-02 0. -1.
        1   -1    0    0  501    0  0.00000000000E+00  0.00000000000E+00 -0.23881248719E+04  0.23881248719E+04  0.50400001928E-02 0.  1.
    10030    2    1    2    0    0  0.00000000000E+00  0.00000000000E+00 -0.17213445868E+04  0.30549051569E+04  0.25237706574E+04 0.  0.
        1    1    3    3  502    0 -0.28427831171E+03 -0.82826368692E+03  0.23912225564E+03  0.90775235982E+03  0.50400001928E-02 0. -1.
       -1    1    3    3    0  502  0.28427831171E+03  0.82826368692E+03 -0.19604668425E+04  0.21471527971E+04  0.50400001928E-02 0.  1.
</event>
<event>
 5   0  0.6104486E-06  0.2499467E+04  0.7818609E-02  0.8403175E-01
        1   -1    0    0  501    0  0.00000000000E+00  0.00000000000E+00  0.79353133326E+03  0.79353133327E+03  0.50400001928E-02 0. -1.
       -1   -1    0    0    0  501  0.00000000000E+00  0.00000000000E+00 -0.19682073533E+04  0.19682073533E+04  0.50400001928E-02 0.  1.
    10030    2    1    2    0    0  0.00000000000E+00  0.00000000000E+00 -0.11746760200E+04  0.27617386866E+04  0.24994673074E+04 0.  0.
        2    1    3    3  502    0 -0.13564394148E+03 -0.73655001198E+03 -0.16927820447E+04  0.18510581433E+04  0.25500000920E-02 0.  1.
       -2    1    3    3    0  502  0.13564394148E+03  0.73655001198E+03  0.51810602469E+03  0.91068054324E+03  0.25500000920E-02 0. -1.
</event>
<event>
 5   0  0.1572732E-05  0.2485562E+04  0.7818609E-02  0.8408147E-01
        2   -1    0    0  501    0  0.00000000000E+00  0.00000000000E+00  0.11458221597E+04  0.11458221597E+04  0.25500000920E-02 0. -1.
       -2   -1    0    0    0  501  0.00000000000E+00  0.00000000000E+00 -0.13479441097E+04  0.13479441097E+04  0.25500000920E-02 0.  1.
    10030    2    1    2    0    0  0.00000000000E+00  0.00000000000E+00 -0.20212194998E+03  0.24937662695E+04  0.24855616918E+04 0.  0.
        1    1    3    3  502    0  0.76068073077E+03  0.17364751547E+03 -0.10715779455E+04  0.13255443890E+04  0.50400001928E-02 0.  1.
       -1    1    3    3    0  502 -0.76068073077E+03 -0.17364751547E+03  0.86945599555E+03  0.11682218805E+04  0.50400001928E-02 0. -1.
</event>
<event>
 5   0  0.1501947E-05  0.2314606E+04  0.7818609E-02  0.8472184E-01
        2   -1    0    0  501    0  0.00000000000E+00  0.00000000000E+00  0.25599350188E+04  0.25599350188E+04  0.25500000920E-02 0. -1.
       -2   -1    0    0    0  501  0.00000000000E+00  0.00000000000E+00 -0.52319701733E+03  0.52319701734E+03  0.25500000920E-02 0.  1.
    10030    2    1    2    0    0  0.00000000000E+00  0.00000000000E+00  0.20367380015E+04  0.30831320362E+04  0.23146061146E+04 0.  0.
        3    1    3    3  502    0 -0.62944508055E+03 -0.73658657030E+03  0.17529675366E+03  0.98462675518E+03  0.10100000352E+00 0. -1.
       -3    1    3    3    0  502  0.62944508055E+03  0.73658657030E+03  0.18614412478E+04  0.20985052810E+04  0.10100000352E+00 0.  1.
</event>
<event>
 5   0  0.6477703E-06  0.2526930E+04  0.7818609E-02  0.8393454E-01
        1   -1    0    0  501    0  0.00000000000E+00  0.00000000000E+00  0.16244589090E+04  0.16244589090E+04  0.50400001928E-02 0.  1.
       -1   -1    0    0    0  501  0.00000000000E+00  0.00000000000E+00 -0.98269241991E+03  0.98269241992E+03  0.50400001928E-02 0. -1.
    10030    2    1    2    0    0  0.00000000000E+00  0.00000000000E+00  0.64176648909E+03  0.26071513289E+04  0.25269297231E+04 0.  0.
        5    1    3    3  502    0 -0.74797670163E+03  0.29581793733E+03 -0.68439173584E+03  0.10561209856E+04  0.46999998093E+01 0. -1.
       -5    1    3    3    0  502  0.74797670163E+03 -0.29581793733E+03  0.13261582249E+04  0.15510303433E+04  0.46999998093E+01 0.  1.
</event>
<event>
 5   0  0.1501947E-05  0.2439240E+04  0.7818609E-02  0.8424957E-01
       -2   -1    0    0    0  501  0.00000000000E+00  0.00000000000E+00  0.68260759472E+03  0.68260759472E+03  0.25500000920E-02 0.  1.
        2   -1    0    0  501    0  0.00000000000E+00  0.00000000000E+00 -0.21791042561E+04  0.21791042561E+04  0.25500000920E-02 0. -1.
    10030    2    1    2    0    0  0.00000000000E+00  0.00000000000E+00 -0.14964966614E+04  0.28617118508E+04  0.24392401398E+04 0.  0.
        3    1    3    3  502    0 -0.47366865286E+03  0.23376900032E+03  0.54144974783E+03  0.75642433715E+03  0.10100000352E+00 0.  1.
       -3    1    3    3    0  502  0.47366865286E+03 -0.23376900032E+03 -0.20379464092E+04  0.21052875137E+04  0.10100000352E+00 0. -1.
</event>
<event>
 5   0  0.6346420E-06  0.2492818E+04  0.7818609E-02  0.8405548E-01
        1   -1    0    0  501    0  0.00000000000E+00  0.00000000000E+00  0.16640017948E+04  0.16640017949E+04  0.50400001928E-02 0. -1.
       -1   -1    0    0    0  501  0.00000000000E+00  0.00000000000E+00 -0.93361431776E+03  0.93361431778E+03  0.50400001928E-02 0.  1.
    10030    2    1    2    0    0  0.00000000000E+00  0.00000000000E+00  0.73038747708E+03  0.25976161126E+04  0.24928184053E+04 0.  0.
        4    1    3    3  502    0  0.10969338165E+04 -0.39359660491E+03 -0.95373967457E+02  0.11693074411E+04  0.12699999809E+01 0. -1.
       -4    1    3    3    0  502 -0.10969338165E+04  0.39359660491E+03  0.82576144454E+03  0.14283086716E+04  0.12699999809E+01 0.  1.
</event>
<event>
 5   0  0.6346420E-06  0.2548265E+04  0.7818609E-02  0.8385990E-01
       -1   -1    0    0    0  501  0.00000000000E+00  0.00000000000E+00  0.11475337604E+04  0.11475337604E+04  0.50400001928E-02 0. -1.
        1   -1    0    0  501    0  0.00000000000E+00  0.00000000000E+00 -0.14146983464E+04  0.14146983464E+04  0.50400001928E-02 0.  1.
    10030    2    1    2    0    0  0.00000000000E+00  0.00000000000E+00 -0.26716458607E+03  0.25622321068E+04  0.25482653812E+04 0.  0.
        4    1    3    3  502    0 -0.11229708509E+04 -0.48828414108E+03 -0.48754521756E+03  0.13180238566E+04  0.12699999809E+01 0.  1.
       -4    1    3    3    0  502  0.11229708509E+04  0.48828414108E+03  0.22038063149E+03  0.12442082503E+04  0.12699999809E+01 0. -1.
</event>
<event>
 5   0  0.1501947E-05  0.2503174E+04  0.7818609E-02  0.8401856E-01
       -2   -1    0    0    0  501  0.00000000000E+00  0.00000000000E+00  0.10235632094E+04  0.10235632095E+04  0.25500000920E-02 0. -1.
        2   -1    0    0  501    0  0.00000000000E+00  0.00000000000E+00 -0.15304092000E+04  0.15304092000E+04  0.25500000920E-02 0.  1.
    10030    2    1    2    0    0  0.00000000000E+00  0.00000000000E+00 -0.50684599057E+03  0.25539724095E+04  0.25031744266E+04 0.  0.
        3    1    3    3  502    0  0.24183119897E+03  0.19386090834E+03 -0.14906339166E+04  0.15225156367E+04  0.10100000352E+00 0.  1.
       -3    1    3    3    0  502 -0.24183119897E+03 -0.19386090834E+03  0.98378792599E+03  0.10314567728E+04  0.10100000352E+00 0. -1.
</event>
<event>
 5   0  0.6105353E-06  0.2476527E+04  0.7818609E-02  0.8411396E-01
        1   -1    0    0  501    0  0.00000000000E+00  0.00000000000E+00  0.26158656282E+04  0.26158656282E+04  0.50400001928E-02 0. -1.
       -1   -1    0    0    0  501  0.00000000000E+00  0.00000000000E+00 -0.58615284689E+03  0.58615284691E+03  0.50400001928E-02 0.  1.
    10030    2    1    2    0    0  0.00000000000E+00  0.00000000000E+00  0.20297127813E+04  0.32020184751E+04  0.24765274762E+04 0.  0.
        3    1    3    3  502    0 -0.89453031829E+03  0.36971736626E+03  0.16334974559E+02  0.96806108426E+03  0.10100000352E+00 0.  1.
       -3    1    3    3    0  502  0.89453031829E+03 -0.36971736626E+03  0.20133778067E+04  0.22339573909E+04  0.10100000352E+00 0. -1.
</event>
<event>
 5   0  0.6290861E-06  0.2412189E+04  0.7818609E-02  0.8434954E-01
        1   -1    0    0  501    0  0.00000000000E+00  0.00000000000E+00  0.22173170794E+04  0.22173170794E+04  0.50400001928E-02 0. -1.
       -1   -1    0    0    0  501  0.00000000000E+00  0.00000000000E+00 -0.65604708941E+03  0.65604708943E+03  0.50400001928E-02 0.  1.
    10030    2    1    2    0    0  0.00000000000E+00  0.00000000000E+00  0.15612699900E+04  0.28733641688E+04  0.24121893924E+04 0.  0.
        1    1    3    3  502    0  0.38004574780E+03 -0.66740000564E+03 -0.32710755014E+03  0.83477954415E+03  0.50400001928E-02 0.  1.
       -1    1    3    3    0  502 -0.38004574780E+03  0.66740000564E+03  0.18883775401E+04  0.20385846247E+04  0.50400001928E-02 0. -1.
</event>
<event>
 5   0  0.6346420E-06  0.2604863E+04  0.7818609E-02  0.8366551E-01
       -1   -1    0    0    0  501  0.00000000000E+00  0.00000000000E+00  0.14068096260E+04  0.14068096260E+04  0.50400001928E-02 0. -1.
        1   -1    0    0  501    0  0.00000000000E+00  0.00000000000E+00 -0.12057978171E+04  0.12057978171E+04  0.50400001928E-02 0.  1.
    10030    2    1    2    0    0  0.00000000000E+00  0.00000000000E+00  0.20101180897E+03  0.26126074431E+04  0.26048631259E+04 0.  0.
        4    1    3    3  502    0 -0.12567499127E+04 -0.52459538734E+02  0.43937725319E+03  0.13323761968E+04  0.12699999809E+01 0. -1.
       -4    1    3    3    0  502  0.12567499127E+04  0.52459538734E+02 -0.23836544422E+03  0.12802312463E+04  0.12699999809E+01 0.  1.
</event>
<event>
 5   0  0.1526824E-05  0.2503703E+04  0.7818609E-02  0.8401667E-01
       -2   -1    0    0    0  501  0.00000000000E+00  0.00000000000E+00  0.15903245438E+04  0.15903245438E+04  0.25500000920E-02 0.  1.
        2   -1    0    0  501    0  0.00000000000E+00  0.00000000000E+00 -0.98541665775E+03  0.98541665776E+03  0.25500000920E-02 0. -1.
    10030    2    1    2    0    0  0.00000000000E+00  0.00000000000E+00  0.60490788601E+03  0.25757412015E+04  0.25037030947E+04 0.  0.
        2    1    3    3  502    0 -0.21212879967E+03  0.25991156387E+03 -0.93830710867E+03  0.99648024510E+03  0.25500000920E-02 0. -1.
       -2    1    3    3    0  502  0.21212879967E+03 -0.25991156387E+03  0.15432149947E+04  0.15792609564E+04  0.25500000920E-02 0.  1.
</event>
<event>
 5   0  0.1526824E-05  0.2525737E+04  0.7818609E-02  0.8393873E-01
        2   -1    0    0  501    0  0.00000000000E+00  0.00000000000E+00  0.22223790159E+04  0.22223790159E+04  0.25500000920E-02 0.  1.
       -2   -1    0    0    0  501  0.00000000000E+00  0.00000000000E+00 -0.71762613294E+03  0.71762613294E+03  0.25500000920E-02 0. -1.
    10030    2    1    2    0    0  0.00000000000E+00  0.00000000000E+00  0.15047528829E+04  0.29400051488E+04  0.25257373253E+04 0.  0.
        2    1    3    3  502    0 -0.35796775188E+03  0.77663917194E+03 -0.32930183254E+03  0.91637820342E+03  0.25500000920E-02 0. -1.
       -2    1    3    3    0  502  0.35796775188E+03 -0.77663917194E+03  0.18340547155E+04  0.20236269454E+04  0.25500000920E-02 0.  1.
</event>
<event>
 5   0  0.1526824E-05  0.2490090E+04  0.7818609E-02  0.8406525E-01
        2   -1    0    0  501    0  0.00000000000E+00  0.00000000000E+00  0.12317342044E+04  0.12317342044E+04  0.25500000920E-02 0.  1.
       -2   -1    0    0    0  501  0.00000000000E+00  0.00000000000E+00 -0.12584992716E+04  0.12584992716E+04  0.25500000920E-02 0. -1.
    10030    2    1    2    0    0  0.00000000000E+00  0.00000000000E+00 -0.26765067215E+02  0.24902334759E+04  0.24900896361E+04 0.  0.
        2    1    3    3  502    0 -0.11531410841E+04  0.21559094063E+03 -0.43044713212E+03  0.12495993546E+04  0.25500000920E-02 0. -1.
       -2    1    3    3    0  502  0.11531410841E+04 -0.21559094063E+03  0.40368206491E+03  0.12406341213E+04  0.25500000920E-02 0.  1.
</event>
<event>
 5   0  0.6104486E-06  0.2499729E+04  0.7818609E-02  0.8403082E-01
       -1   -1    0    0    0  501  0.00000000000E+00  0.00000000000E+00  0.57648266940E+03  0.57648266943E+03  0.50400001928E-02 0.  1.
        1   -1    0    0  501    0  0.00000000000E+00  0.00000000000E+00 -0.27098158219E+04  0.27098158219E+04  0.50400001928E-02 0. -1.
    10030    2    1    2    0    0  0.00000000000E+00  0.00000000000E+00 -0.21333331525E+04  0.32862984914E+04  0.24997294723E+04 0.  0.
        2    1    3    3  502    0  0.31620071993E+03 -0.82393353106E+03 -0.22302071315E+04  0.23984730994E+04  0.25500000920E-02 0. -1.
       -2    1    3    3    0  502 -0.31620071993E+03  0.82393353106E+03  0.96873978978E+02  0.88782539201E+03  0.25500000920E-02 0.  1.
</event>
<event>
 5   0  0.6346420E-06  0.2196238E+04  0.7818609E-02  0.8519996E-01
        1   -1    0    0  501    0  0.00000000000E+00  0.00000000000E+00  0.16946958669E+04  0.16946958669E+04  0.50400001928E-02 0. -1.
       -1   -1    0    0    0  501  0.00000000000E+00  0.00000000000E+00 -0.71155238423E+03  0.71155238425E+03  0.50400001928E-02 0.  1.
    10030    2    1    2    0    0  0.00000000000E+00  0.00000000000E+00  0.98314348269E+03  0.24062482512E+04  0.21962375870E+04 0.  0.
        4    1    3    3  502    0 -0.27494094584E+03  0.59802248019E+03 -0.47148010088E+03  0.80964097533E+03  0.12699999809E+01 0.  1.
       -4    1    3    3    0  502  0.27494094584E+03 -0.59802248019E+03  0.14546235836E+04  0.15966072758E+04  0.12699999809E+01 0. -1.
</event>
<event>
 5   0  0.6105353E-06  0.2475158E+04  0.7818609E-02  0.8411890E-01
        1   -1    0    0  501    0  0.00000000000E+00  0.00000000000E+00  0.24267705616E+04  0.24267705616E+04  0.50400001928E-02 0.  1.
       -1   -1    0    0    0  501  0.00000000000E+00  0.00000000000E+00 -0.63112736538E+03  0.63112736540E+03  0.50400001928E-02 0. -1.
    10030    2    1    2    0    0  0.00000000000E+00  0.00000000000E+00  0.17956431962E+04  0.30578979270E+04  0.24751576200E+04 0.  0.
        3    1    3    3  502    0  0.11758842111E+04 -0.35734298495E+03  0.10777190733E+04  0.16345874397E+04  0.10100000352E+00 0.  1.
       -3    1    3    3    0  502 -0.11758842111E+04  0.35734298495E+03  0.71792412284E+03  0.14233104873E+04  0.10100000352E+00 0. -1.
</event>
<event>
 5   0  0.1550483E-05  0.2496164E+04  0.7818609E-02  0.8404354E-01
       -2   -1    0    0    0  501  0.00000000000E+00  0.00000000000E+00  0.75201044169E+03  0.75201044170E+03  0.25500000920E-02 0.  1.
        2   -1    0    0  501    0  0.00000000000E+00  0.00000000000E+00 -0.20713916265E+04  0.20713916265E+04  0.25500000920E-02 0. -1.
    10030    2    1    2    0    0  0.00000000000E+00  0.00000000000E+00 -0.13193811849E+04  0.28234020682E+04  0.24961635620E+04 0.  0.
        5    1    3    3  502    0  0.11343604692E+04 -0.42825997035E+03 -0.32509668850E+03  0.12553446631E+04  0.46999998093E+01 0.  1.
       -5    1    3    3    0  502 -0.11343604692E+04  0.42825997035E+03 -0.99428449635E+03  0.15680574052E+04  0.46999998093E+01 0. -1.
</event>
<event>
 5   0  0.6346420E-06  0.2519807E+04  0.7818609E-02  0.8395963E-01
        1   -1    0    0  501    0  0.00000000000E+00  0.00000000000E+00  0.47863697782E+03  0.47863697785E+03  0.50400001928E-02 0. -1.
       -1   -1    0    0    0  501  0.00000000000E+00  0.00000000000E+00 -0.33164097471E+04  0.33164097471E+04  0.50400001928E-02 0.  1.
    10030    2    1    2    0    0  0.00000000000E+00  0.00000000000E+00 -0.28377727693E+04  0.37950467250E+04  0.25198066105E+04 0.  0.
        4    1    3    3  502    0  0.61573703155E+03 -0.49434235936E+03  0.59725700407E+02  0.79188081961E+03  0.12699999809E+01 0. -1.
       -4    1    3    3    0  502 -0.61573703155E+03  0.49434235936E+03 -0.28974984697E+04  0.30031659053E+04  0.12699999809E+01 0.  1.
</event>
<event>
 5   0  0.1550483E-05  0.2489107E+04  0.7818609E-02  0.8406876E-01
        2   -1    0    0  501    0  0.00000000000E+00  0.00000000000E+00  0.21146333056E+04  0.21146333056E+04  0.25500000920E-02 0. -1.
       -2   -1    0    0    0  501  0.00000000000E+00  0.00000000000E+00 -0.73247393645E+03  0.73247393646E+03  0.25500000920E-02 0.  1.
    10030    2    1    2    0    0  0.00000000000E+00  0.00000000000E+00  0.13821593692E+04  0.28471072421E+04  0.24891072950E+04 0.  0.
        5    1    3    3  502    0 -0.11728311188E+04 -0.38661987452E+03  0.51430783313E+03  0.13377377912E+04  0.46999998093E+01 0.  1.
       -5    1    3    3    0  502  0.11728311188E+04  0.38661987452E+03  0.86785153603E+03  0.15093694509E+04  0.46999998093E+01 0. -1.
</event>
<event>
 5   0  0.6346420E-06  0.2462883E+04  0.7818609E-02  0.8416329E-01
       -1   -1    0    0    0  501  0.00000000000E+00  0.00000000000E+00  0.80987260641E+03  0.80987260642E+03  0.50400001928E-02 0. -1.
        1   -1    0    0  501    0  0.00000000000E+00  0.00000000000E+00 -0.18724522343E+04  0.18724522343E+04  0.50400001928E-02 0.  1.
    10030    2    1    2    0    0  0.00000000000E+00  0.00000000000E+00 -0.10625796279E+04  0.26823248407E+04  0.24628826780E+04 0.  0.
        4    1    3    3  502    0 -0.41623868490E+03 -0.84717452199E+03  0.33005439347E+03  0.99994841321E+03  0.12699999809E+01 0. -1.
       -4    1    3    3    0  502  0.41623868490E+03  0.84717452199E+03 -0.13926340214E+04  0.16823764275E+04  0.12699999809E+01 0.  1.
</event>
<event>
 5   0  0.6477703E-06  0.2474196E+04  0.7818609E-02  0.8412236E-01
        1   -1    0    0  501    0  0.00000000000E+00  0.00000000000E+00  0.12657163832E+04  0.12657163832E+04  0.50400001928E-02 0. -1.
       -1   -1    0    0    0  501  0.00000000000E+00  0.00000000000E+00 -0.12091266775E+04  0.12091266776E+04  0.50400001928E-02 0.  1.
    10030    2    1    2    0    0  0.00000000000E+00  0.00000000000E+00  0.56589705663E+02  0.24748430608E+04  0.24741959867E+04 0.  0.
        5    1    3    3  502    0  0.76665968778E+03 -0.97088442748E+03  0.25905340537E+02  0.12373668918E+04  0.46999998093E+01 0.  1.
       -5    1    3    3    0  502 -0.76665968778E+03  0.97088442748E+03  0.30684365126E+02  0.12374761689E+04  0.46999998093E+01 0. -1.
</event>
<event>
 5   0  0.6105353E-06  0.2522993E+04  0.7818609E-02  0.8394840E-01
        1   -1    0    0  501    0  0.00000000000E+00  0.00000000000E+00  0.15694067787E+04  0.15694067787E+04  0.50400001928E-02 0.  1.
       -1   -1    0    0    0  501  0.00000000000E+00  0.00000000000E+00 -0.10139968279E+04  0.10139968279E+04  0.50400001928E-02 0. -1.
    10030    2    1    2    0    0  0.00000000000E+00  0.00000000000E+00  0.55540995079E+03  0.25834036066E+04  0.25229930601E+04 0.  0.
        3    1    3    3  502    0 -0.10408304819E+04 -0.71161809016E+03  0.23617414529E+03  0.12827730257E+04  0.10100000352E+00 0. -1.
       -3    1    3    3    0  502  0.10408304819E+04  0.71161809016E+03  0.31923580550E+03  0.13006305809E+04  0.10100000352E+00 0.  1.
</event>
<event>
 5   0  0.6105353E-06  0.2508670E+04  0.7818609E-02  0.8399903E-01
        1   -1    0    0  501    0  0.00000000000E+00  0.00000000000E+00  0.10903767756E+04  0.10903767756E+04  0.50400001928E-02 0. -1.
       -1   -1    0    0    0  501  0.00000000000E+00  0.00000000000E+00 -0.14429478696E+04  0.14429478696E+04  0.50400001928E-02 0.  1.
    10030    2    1    2    0    0  0.00000000000E+00  0.00000000000E+00 -0.35257109400E+03  0.25333246453E+04  0.25086704411E+04 0.  0.
        3    1    3    3  502    0  0.16086003446E+03  0.10523792619E+04  0.49354214461E+03  0.11734402074E+04  0.10100000352E+00 0.  1.
       -3    1    3    3    0  502 -0.16086003446E+03 -0.10523792619E+04 -0.84611323861E+03  0.13598844379E+04  0.10100000352E+00 0. -1.
</event>
<event>
 5   0  0.1468512E-05  0.2464359E+04  0.7818609E-02  0.8415794E-01
        2   -1    0    0  501    0  0.00000000000E+00  0.00000000000E+00  0.10909880706E+04  0.10909880706E+04  0.25500000920E-02 0.  1.
       -2   -1    0    0    0  501  0.00000000000E+00  0.00000000000E+00 -0.13916434189E+04  0.13916434189E+04  0.25500000920E-02 0. -1.
    10030    2    1    2    0    0  0.00000000000E+00  0.00000000000E+00 -0.30065534830E+03  0.24826314895E+04  0.24643590393E+04 0.  0.
        4    1    3    3  502    0  0.42776876691E+03 -0.96715010284E+03 -0.78739247315E+03  0.13184665180E+04  0.12699999809E+01 0. -1.
       -4    1    3    3    0  502 -0.42776876691E+03  0.96715010284E+03  0.48673712485E+03  0.11641649715E+04  0.12699999809E+01 0.  1.
</event>
<event>
 5   0  0.1526824E-05  0.2453911E+04  0.7818609E-02  0.8419592E-01
        2   -1    0    0  501    0  0.00000000000E+00  0.00000000000E+00  0.24947919103E+04  0.24947919103E+04  0.25500000920E-02 0.  1.
       -2   -1    0    0    0  501  0.00000000000E+00  0.00000000000E+00 -0.60342478970E+03  0.60342478971E+03  0.25500000920E-02 0. -1.
    10030    2    1    2    0    0  0.00000000000E+00  0.00000000000E+00  0.18913671206E+04  0.30982167000E+04  0.24539105802E+04 0.  0.
        2    1    3    3  502    0 -0.76712959349E+03 -0.71284027496E+03  0.17529247286E+04  0.20419045460E+04  0.25500000920E-02 0.  1.
       -2    1    3    3    0  502  0.76712959349E+03  0.71284027496E+03  0.13844239200E+03  0.10563121540E+04  0.25500000920E-02 0. -1.
</event>
<event>
 5   0  0.6105353E-06  0.2479963E+04  0.7818609E-02  0.8410159E-01
       -1   -1    0    0    0  501  0.00000000000E+00  0.00000000000E+00  0.18767232945E+04  0.18767232945E+04  0.50400001928E-02 0.  1.
        1   -1    0    0  501    0  0.00000000000E+00  0.00000000000E+00 -0.81927606142E+03  0.81927606143E+03  0.50400001928E-02 0. -1.
    10030    2    1    2    0    0  0.00000000000E+00  0.00000000000E+00  0.10574472331E+04  0.26959993560E+04  0.24799632813E+04 0.  0.
        3    1    3    3  502    0 -0.33221882987E+03  0.69079400978E+03  0.15883036435E+04  0.17635969463E+04  0.10100000352E+00 0.  1.
       -3    1    3    3    0  502  0.33221882987E+03 -0.69079400978E+03 -0.53085641039E+03  0.93240240965E+03  0.10100000352E+00 0. -1.
</event>
<event>
 5   0  0.1501947E-05  0.2502234E+04  0.7818609E-02  0.8402190E-01
       -2   -1    0    0    0  501  0.00000000000E+00  0.00000000000E+00  0.11320328623E+04  0.11320328624E+04  0.25500000920E-02 0. -1.
        2   -1    0    0  501    0  0.00000000000E+00  0.00000000000E+00 -0.13827277945E+04  0.13827277945E+04  0.25500000920E-02 0.  1.
    10030    2    1    2    0    0  0.00000000000E+00  0.00000000000E+00 -0.25069493211E+03  0.25147606568E+04  0.25022336446E+04 0.  0.
        3    1    3    3  502    0 -0.11747888065E+04 -0.15276512914E+02  0.30684169368E+03  0.12142956588E+04  0.10100000352E+00 0. -1.
       -3    1    3    3    0  502  0.11747888065E+04  0.15276512914E+02 -0.55753662579E+03  0.13004649980E+04  0.10100000352E+00 0.  1.
</event>
<event>
 5   0  0.6290861E-06  0.2485064E+04  0.7818609E-02  0.8408326E-01
        1   -1    0    0  501    0  0.00000000000E+00  0.00000000000E+00  0.17789109222E+04  0.17789109222E+04  0.50400001928E-02 0. -1.
       -1   -1    0    0    0  501  0.00000000000E+00  0.00000000000E+00 -0.86788283488E+03  0.86788283490E+03  0.50400001928E-02 0.  1.
    10030    2    1    2    0    0  0.00000000000E+00  0.00000000000E+00  0.91102808731E+03  0.26467937571E+04  0.24850643889E+04 0.  0.
        1    1    3    3  502    0 -0.11028635171E+04  0.21977188649E+03  0.10183752433E+04  0.15171340599E+04  0.50400001928E-02 0.  1.
       -1    1    3    3    0  502  0.11028635171E+04 -0.21977188649E+03 -0.10734715603E+03  0.11296596972E+04  0.50400001928E-02 0. -1.
</event>
<event>
 5   0  0.6346420E-06  0.2543881E+04  0.7818609E-02  0.8387518E-01
        1   -1    0    0  501    0  0.00000000000E+00  0.00000000000E+00  0.11860593908E+04  0.11860593909E+04  0.50400001928E-02 0. -1.
       -1   -1    0    0    0  501  0.00000000000E+00  0.00000000000E+00 -0.13640397115E+04  0.13640397115E+04  0.50400001928E-02 0.  1.
    10030    2    1    2    0    0  0.00000000000E+00  0.00000000000E+00 -0.17798032062E+03  0.25500991023E+04  0.25438805863E+04 0.  0.
        4    1    3    3  502    0  0.95195983290E+02 -0.47920325681E+03 -0.12662255996E+04  0.13572129231E+04  0.12699999809E+01 0.  1.
       -4    1    3    3    0  502 -0.95195983290E+02  0.47920325681E+03  0.10882452790E+04  0.11928861793E+04  0.12699999809E+01 0. -1.
</event>
<event>
 5   0  0.6477703E-06  0.2498790E+04  0.7818609E-02  0.8403417E-01
        1   -1    0    0  501    0  0.00000000000E+00  0.00000000000E+00  0.12111130216E+04  0.12111130217E+04  0.50400001928E-02 0.  1.
       -1   -1    0    0    0  501  0.00000000000E+00  0.00000000000E+00 -0.12888870021E+04  0.12888870021E+04  0.50400001928E-02 0. -1.
    10030    2    1    2    0    0  0.00000000000E+00  0.00000000000E+00 -0.77773980464E+02  0.25000000238E+04  0.24987899725E+04 0.  0.
        5    1    3    3  502    0 -0.11764868316E+04  0.24906347988E+03  0.30011608208E+03  0.12394537647E+04  0.46999998093E+01 0. -1.
       -5    1    3    3    0  502  0.11764868316E+04 -0.24906347988E+03 -0.37789006254E+03  0.12605462591E+04  0.46999998093E+01 0.  1.
</event>
<event>
 5   0  0.1501947E-05  0.2462808E+04  0.7818609E-02  0.8416357E-01
       -2   -1    0    0    0  501  0.00000000000E+00  0.00000000000E+00  0.95006271969E+03  0.95006271969E+03  0.25500000920E-02 0.  1.
        2   -1    0    0  501    0  0.00000000000E+00  0.00000000000E+00 -0.15960581254E+04  0.15960581254E+04  0.25500000920E-02 0. -1.
    10030    2    1    2    0    0  0.00000000000E+00  0.00000000000E+00 -0.64599540570E+03  0.25461208451E+04  0.24628076038E+04 0.  0.
        3    1    3    3  502    0 -0.38391569824E+03 -0.16053862746E+03 -0.15211650442E+04  0.15770564403E+04  0.10100000352E+00 0. -1.
       -3    1    3    3    0  502  0.38391569824E+03  0.16053862746E+03  0.87516963845E+03  0.96906440474E+03  0.10100000352E+00 0.  1.
</event>
<event>
 5   0  0.6290861E-06  0.2498646E+04  0.7818609E-02  0.8403468E-01
        1   -1    0    0  501    0  0.00000000000E+00  0.00000000000E+00  0.13888248228E+04  0.13888248228E+04  0.50400001928E-02 0. -1.
       -1   -1    0    0    0  501  0.00000000000E+00  0.00000000000E+00 -0.11238335460E+04  0.11238335461E+04  0.50400001928E-02 0.  1.
    10030    2    1    2    0    0  0.00000000000E+00  0.00000000000E+00  0.26499127678E+03  0.25126583689E+04  0.24986459737E+04 0.  0.
        1    1    3    3  502    0 -0.95222152564E+03 -0.23776186395E+03  0.90984518091E+03  0.13383104240E+04  0.50400001928E-02 0. -1.
       -1    1    3    3    0  502  0.95222152564E+03  0.23776186395E+03 -0.64485390413E+03  0.11743479448E+04  0.50400001928E-02 0.  1.
</event>
<event>
 5   0  0.1572732E-05  0.2510634E+04  0.7818609E-02  0.8399207E-01
       -2   -1    0    0    0  501  0.00000000000E+00  0.00000000000E+00  0.82704299019E+03  0.82704299019E+03  0.25500000920E-02 0. -1.
        2   -1    0    0  501    0  0.00000000000E+00  0.00000000000E+00 -0.19053667890E+04  0.19053667890E+04  0.25500000920E-02 0.  1.
    10030    2    1    2    0    0  0.00000000000E+00  0.00000000000E+00 -0.10783237989E+04  0.27324097792E+04  0.25106335827E+04 0.  0.
        1    1    3    3  502    0 -0.11040673642E+04  0.40238814613E+03 -0.58641114247E+02  0.11765711815E+04  0.50400001928E-02 0. -1.
       -1    1    3    3    0  502  0.11040673642E+04 -0.40238814613E+03 -0.10196826846E+04  0.15558385977E+04  0.50400001928E-02 0.  1.
</event>
<event>
 5   0  0.6346420E-06  0.2550032E+04  0.7818609E-02  0.8385375E-01
        1   -1    0    0  501    0  0.00000000000E+00  0.00000000000E+00  0.14939777774E+04  0.14939777774E+04  0.50400001928E-02 0. -1.
       -1   -1    0    0    0  501  0.00000000000E+00  0.00000000000E+00 -0.10881460005E+04  0.10881460005E+04  0.50400001928E-02 0.  1.
    10030    2    1    2    0    0  0.00000000000E+00  0.00000000000E+00  0.40583177690E+03  0.25821237780E+04  0.25500321123E+04 0.  0.
        4    1    3    3  502    0  0.20881376004E+03 -0.17807043387E+03 -0.10578851954E+04  0.10929020840E+04  0.12699999809E+01 0.  1.
       -4    1    3    3    0  502 -0.20881376004E+03  0.17807043387E+03  0.14637169723E+04  0.14892216939E+04  0.12699999809E+01 0. -1.
</event>
<event>
 5   0  0.6477703E-06  0.2493352E+04  0.7818609E-02  0.8405358E-01
        1   -1    0    0  501    0  0.00000000000E+00  0.00000000000E+00  0.12390266618E+04  0.12390266618E+04  0.50400001928E-02 0. -1.
       -1   -1    0    0    0  501  0.00000000000E+00  0.00000000000E+00 -0.12543725847E+04  0.12543725847E+04  0.50400001928E-02 0.  1.
    10030    2    1    2    0    0  0.00000000000E+00  0.00000000000E+00 -0.15345922897E+02  0.24933992464E+04  0.24933520218E+04 0.  0.
        5    1    3    3  502    0  0.10132183998E+03  0.79939365807E+03 -0.95894417830E+03  0.12525543353E+04  0.46999998093E+01 0.  1.
       -5    1    3    3    0  502 -0.10132183998E+03 -0.79939365807E+03  0.94359825541E+03  0.12408449111E+04  0.46999998093E+01 0. -1.
</event>
<event>
 5   0  0.6104486E-06  0.2492259E+04  0.7818609E-02  0.8405748E-01
       -1   -1    0    0    0  501  0.00000000000E+00  0.00000000000E+00  0.16243828474E+04  0.16243828474E+04  0.50400001928E-02 0. -1.
        1   -1    0    0  501    0  0.00000000000E+00  0.00000000000E+00 -0.95595635707E+03  0.95595635708E+03  0.50400001928E-02 0.  1.
    10030    2    1    2    0    0  0.00000000000E+00  0.00000000000E+00  0.66842649029E+03  0.25803392044E+04  0.24922593037E+04 0.  0.
        2    1    3    3  502    0  0.61424070802E+03 -0.97850465813E+03  0.81770336845E+03  0.14154157736E+04  0.25500000920E-02 0.  1.
       -2    1    3    3    0  502 -0.61424070802E+03  0.97850465813E+03 -0.14927687816E+03  0.11649234308E+04  0.25500000920E-02 0. -1.
</event>
<event>
 5   0  0.6346420E-06  0.2488162E+04  0.7818609E-02  0.8407215E-01
        1   -1    0    0  501    0  0.00000000000E+00  0.00000000000E+00  0.14757835521E+04  0.14757835522E+04  0.50400001928E-02 0. -1.
       -1   -1    0    0    0  501  0.00000000000E+00  0.00000000000E+00 -0.10487566925E+04  0.10487566925E+04  0.50400001928E-02 0.  1.
    10030    2    1    2    0    0  0.00000000000E+00  0.00000000000E+00  0.42702685969E+03  0.25245402446E+04  0.24881622752E+04 0.  0.
        4    1    3    3  502    0 -0.19471185314E+03  0.60853426513E+03  0.12965985580E+04  0.14454743481E+04  0.12699999809E+01 0. -1.
       -4    1    3    3    0  502  0.19471185314E+03 -0.60853426513E+03 -0.86957169831E+03  0.10790658965E+04  0.12699999809E+01 0.  1.
</event>
<event>
 5   0  0.6477703E-06  0.2504872E+04  0.7818609E-02  0.8401252E-01
       -1   -1    0    0    0  501  0.00000000000E+00  0.00000000000E+00  0.17082623462E+04  0.17082623462E+04  0.50400001928E-02 0. -1.
        1   -1    0    0  501    0  0.00000000000E+00  0.00000000000E+00 -0.91824086689E+03  0.91824086690E+03  0.50400001928E-02 0.  1.
    10030    2    1    2    0    0  0.00000000000E+00  0.00000000000E+00  0.79002147926E+03  0.26265032131E+04  0.25048722903E+04 0.  0.
        5    1    3    3  502    0 -0.74687230899E+03 -0.77612072177E+03  0.10650978640E+04  0.15148059844E+04  0.46999998093E+01 0. -1.
       -5    1    3    3    0  502  0.74687230899E+03  0.77612072177E+03 -0.27507638470E+03  0.11116972286E+04  0.46999998093E+01 0.  1.
</event>
<event>
 5   0  0.1526824E-05  0.2542042E+04  0.7818609E-02  0.8388159E-01
        2   -1    0    0  501    0  0.00000000000E+00  0.00000000000E+00  0.20586913811E+04  0.20586913811E+04  0.25500000920E-02 0. -1.
       -2   -1    0    0    0  501  0.00000000000E+00  0.00000000000E+00 -0.78471890131E+03  0.78471890132E+03  0.25500000920E-02 0.  1.
    10030    2    1    2    0    0  0.00000000000E+00  0.00000000000E+00  0.12739724798E+04  0.28434102824E+04  0.25420417296E+04 0.  0.
        2    1    3    3  502    0 -0.38007213335E+03 -0.11457781977E+04  0.10819282096E+04  0.16210586527E+04  0.25500000920E-02 0. -1.
       -2    1    3    3    0  502  0.38007213335E+03  0.11457781977E+04  0.19204427017E+03  0.12223516297E+04  0.25500000920E-02 0.  1.
</event>
<event>
 5   0  0.6290861E-06  0.2507128E+04  0.7818609E-02  0.8400450E-01
       -1   -1    0    0    0  501  0.00000000000E+00  0.00000000000E+00  0.16637631054E+04  0.16637631054E+04  0.50400001928E-02 0. -1.
        1   -1    0    0  501    0  0.00000000000E+00  0.00000000000E+00 -0.94449927874E+03  0.94449927876E+03  0.50400001928E-02 0.  1.
    10030    2    1    2    0    0  0.00000000000E+00  0.00000000000E+00  0.71926382666E+03  0.26082623842E+04  0.25071282800E+04 0.  0.
        1    1    3    3  502    0  0.10479072931E+04 -0.13097047145E+03 -0.34300889123E+03  0.11103684338E+04  0.50400001928E-02 0.  1.
       -1    1    3    3    0  502 -0.10479072931E+04  0.13097047145E+03  0.10622727179E+04  0.14978939504E+04  0.50400001928E-02 0. -1.
</event>
<event>
 5   0  0.6290861E-06  0.2504843E+04  0.7818609E-02  0.8401262E-01
       -1   -1    0    0    0  501  0.00000000000E+00  0.00000000000E+00  0.11506440242E+04  0.11506440242E+04  0.50400001928E-02 0. -1.
        1   -1    0    0  501    0  0.00000000000E+00  0.00000000000E+00 -0.13632016345E+04  0.13632016345E+04  0.50400001928E-02 0.  1.
    10030    2    1    2    0    0  0.00000000000E+00  0.00000000000E+00 -0.21255761028E+03  0.25138456587E+04  0.25048431603E+04 0.  0.
        1    1    3    3  502    0  0.66945445360E+03 -0.18007738043E+03  0.94052446917E+03  0.11684106322E+04  0.50400001928E-02 0. -1.
       -1    1    3    3    0  502 -0.66945445360E+03  0.18007738043E+03 -0.11530820795E+04  0.13454350264E+04  0.50400001928E-02 0.  1.
</event>
<event>
 5   0  0.6290861E-06  0.2521260E+04  0.7818609E-02  0.8395450E-01
        1   -1    0    0  501    0  0.00000000000E+00  0.00000000000E+00  0.12201298571E+04  0.12201298571E+04  0.50400001928E-02 0.  1.
       -1   -1    0    0    0  501  0.00000000000E+00  0.00000000000E+00 -0.13024749878E+04  0.13024749878E+04  0.50400001928E-02 0. -1.
    10030    2    1    2    0    0  0.00000000000E+00  0.00000000000E+00 -0.82345130723E+02  0.25226048449E+04  0.25212604949E+04 0.  0.
        1    1    3    3  502    0  0.85192824572E+03  0.91604991457E+03 -0.19701003299E+03  0.12663894089E+04  0.50400001928E-02 0. -1.
       -1    1    3    3    0  502 -0.85192824572E+03 -0.91604991457E+03  0.11466490227E+03  0.12562154360E+04  0.50400001928E-02 0.  1.
</event>
<event>
 5   0  0.1468512E-05  0.2473938E+04  0.7818609E-02  0.8412329E-01
        2   -1    0    0  501    0  0.00000000000E+00  0.00000000000E+00  0.14664881631E+04  0.14664881631E+04  0.25500000920E-02 0.  1.
       -2   -1    0    0    0  501  0.00000000000E+00  0.00000000000E+00 -0.10433718786E+04  0.10433718786E+04  0.25500000920E-02 0. -1.
    10030    2    1    2    0    0  0.00000000000E+00  0.00000000000E+00  0.42311628448E+03  0.25098600418E+04  0.24739381640E+04 0.  0.
        4    1    3    3  502    0 -0.19839592323E+03  0.86931508097E+03  0.10813405314E+04  0.14015593495E+04  0.12699999809E+01 0.  1.
       -4    1    3    3    0  502  0.19839592323E+03 -0.86931508097E+03 -0.65822424693E+03  0.11083006923E+04  0.12699999809E+01 0. -1.
</event>
<event>
 5   0  0.6105353E-06  0.2508363E+04  0.7818609E-02  0.8400012E-01
       -1   -1    0    0    0  501  0.00000000000E+00  0.00000000000E+00  0.10003483165E+04  0.10003483165E+04  0.50400001928E-02 0.  1.
        1   -1    0    0  501    0  0.00000000000E+00  0.00000000000E+00 -0.15724234806E+04  0.15724234806E+04  0.50400001928E-02 0. -1.
    10030    2    1    2    0    0  0.00000000000E+00  0.00000000000E+00 -0.57207516413E+03  0.25727717971E+04  0.25083629575E+04 0.  0.
        3    1    3    3  502    0  0.58290468805E+03  0.32167830270E+03  0.80413585970E+03  0.10439776323E+04  0.10100000352E+00 0.  1.
       -3    1    3    3    0  502 -0.58290468805E+03 -0.32167830270E+03 -0.13762110238E+04  0.15287941647E+04  0.10100000352E+00 0. -1.
</event>
<event>
 5   0  0.1468512E-05  0.2499069E+04  0.7818609E-02  0.8403317E-01
       -2   -1    0    0    0  501  0.00000000000E+00  0.00000000000E+00  0.75130510758E+03  0.75130510758E+03  0.25500000920E-02 0. -1.
        2   -1    0    0  501    0  0.00000000000E+00  0.00000000000E+00 -0.20781653685E+04  0.20781653685E+04  0.25500000920E-02 0.  1.
    10030    2    1    2    0    0  0.00000000000E+00  0.00000000000E+00 -0.13268602609E+04  0.28294704760E+04  0.24990688312E+04 0.  0.
        4    1    3    3  502    0 -0.11989477065E+04  0.35139084056E+03 -0.64125739536E+03  0.14043374900E+04  0.12699999809E+01 0.  1.
       -4    1    3    3    0  502  0.11989477065E+04 -0.35139084056E+03 -0.68560286552E+03  0.14251329860E+04  0.12699999809E+01 0. -1.
</event>
<event>
 5   0  0.1501947E-05  0.2421044E+04  0.7818609E-02  0.8431667E-01
        2   -1    0    0  501    0  0.00000000000E+00  0.00000000000E+00  0.17626592888E+04  0.17626592888E+04  0.25500000920E-02 0.  1.
       -2   -1    0    0    0  501  0.00000000000E+00  0.00000000000E+00 -0.83133655506E+03  0.83133655506E+03  0.25500000920E-02 0. -1.
    10030    2    1    2    0    0  0.00000000000E+00  0.00000000000E+00  0.93132273376E+03  0.25939958439E+04  0.24210436600E+04 0.  0.
        3    1    3    3  502    0 -0.21122506267E+03 -0.11529014085E+04  0.78987581661E+03  0.14134006866E+04  0.10100000352E+00 0.  1.
       -3    1    3    3    0  502  0.21122506267E+03  0.11529014085E+04  0.14144691715E+03  0.11805951573E+04  0.10100000352E+00 0. -1.
</event>
<event>
 5   0  0.1572732E-05  0.2489062E+04  0.7818609E-02  0.8406893E-01
       -2   -1    0    0    0  501  0.00000000000E+00  0.00000000000E+00  0.91005857344E+03  0.91005857345E+03  0.25500000920E-02 0. -1.
        2   -1    0    0  501    0  0.00000000000E+00  0.00000000000E+00 -0.17019316724E+04  0.17019316724E+04  0.25500000920E-02 0.  1.
    10030    2    1    2    0    0  0.00000000000E+00  0.00000000000E+00 -0.79187309896E+03  0.26119902459E+04  0.24890620803E+04 0.  0.
        1    1    3    3  502    0  0.11049377666E+04  0.24553280585E+03 -0.93887021506E+03  0.14705954942E+04  0.50400001928E-02 0.  1.
       -1    1    3    3    0  502 -0.11049377666E+04 -0.24553280585E+03  0.14699711610E+03  0.11413947516E+04  0.50400001928E-02 0. -1.
</event>
<event>
 5   0  0.1468512E-05  0.2490166E+04  0.7818609E-02  0.8406497E-01
       -2   -1    0    0    0  501  0.00000000000E+00  0.00000000000E+00  0.71224332323E+03  0.71224332324E+03  0.25500000920E-02 0.  1.
        2   -1    0    0  501    0  0.00000000000E+00  0.00000000000E+00 -0.21765477323E+04  0.21765477323E+04  0.25500000920E-02 0. -1.
    10030    2    1    2    0    0  0.00000000000E+00  0.00000000000E+00 -0.14643044090E+04  0.28887910555E+04  0.24901659302E+04 0.  0.
        4    1    3    3  502    0 -0.85686093928E+03  0.22586188224E+03  0.28250696495E+03  0.93007314619E+03  0.12699999809E+01 0. -1.
       -4    1    3    3    0  502  0.85686093928E+03 -0.22586188224E+03 -0.17468113740E+04  0.19587179093E+04  0.12699999809E+01 0.  1.
</event>
<event>
 5   0  0.6105353E-06  0.2512441E+04  0.7818609E-02  0.8398567E-01
       -1   -1    0    0    0  501  0.00000000000E+00  0.00000000000E+00  0.13240710543E+04  0.13240710544E+04  0.50400001928E-02 0.  1.
        1   -1    0    0  501    0  0.00000000000E+00  0.00000000000E+00 -0.11918464071E+04  0.11918464072E+04  0.50400001928E-02 0. -1.
    10030    2    1    2    0    0  0.00000000000E+00  0.00000000000E+00  0.13222464721E+03  0.25159174615E+04  0.25124405099E+04 0.  0.
        3    1    3    3  502    0 -0.97948263022E+01  0.43867303119E+03  0.12448391538E+04  0.13199070028E+04  0.10100000352E+00 0.  1.
       -3    1    3    3    0  502  0.97948263022E+01 -0.43867303119E+03 -0.11126145066E+04  0.11960104587E+04  0.10100000352E+00 0. -1.
</event>
<event>
 5   0  0.1501947E-05  0.2430836E+04  0.7818609E-02  0.8428049E-01
        2   -1    0    0  501    0  0.00000000000E+00  0.00000000000E+00  0.17683838837E+04  0.17683838837E+04  0.25500000920E-02 0.  1.
       -2   -1    0    0    0  501  0.00000000000E+00  0.00000000000E+00 -0.83536179224E+03  0.83536179224E+03  0.25500000920E-02 0. -1.
    10030    2    1    2    0    0  0.00000000000E+00  0.00000000000E+00  0.93302209150E+03  0.26037456760E+04  0.24308355193E+04 0.  0.
        3    1    3    3  502    0  0.61884980368E+03  0.10432791384E+04  0.54832393625E+03  0.13311895393E+04  0.10100000352E+00 0.  1.
       -3    1    3    3    0  502 -0.61884980368E+03 -0.10432791384E+04  0.38469815525E+03  0.12725561367E+04  0.10100000352E+00 0. -1.
</event>
<event>
 5   0  0.6105353E-06  0.2515300E+04  0.7818609E-02  0.8397555E-01
       -1   -1    0    0    0  501  0.00000000000E+00  0.00000000000E+00  0.51720885510E+03  0.51720885512E+03  0.50400001928E-02 0. -1.
        1   -1    0    0  501    0  0.00000000000E+00  0.00000000000E+00 -0.30581141893E+04  0.30581141893E+04  0.50400001928E-02 0.  1.
    10030    2    1    2    0    0  0.00000000000E+00  0.00000000000E+00 -0.25409053342E+04  0.35753230445E+04  0.25153001719E+04 0.  0.
        3    1    3    3  502    0 -0.61640116375E+03 -0.78690822481E+02  0.28375025401E+03  0.68312287113E+03  0.10100000352E+00 0. -1.
       -3    1    3    3    0  502  0.61640116375E+03  0.78690822481E+02 -0.28246555882E+04  0.28922001733E+04  0.10100000352E+00 0.  1.
</event>
<event>
 5   0  0.1468512E-05  0.2469873E+04  0.7818609E-02  0.8413798E-01
       -2   -1    0    0    0  501  0.00000000000E+00  0.00000000000E+00  0.71146109008E+03  0.71146109009E+03  0.25500000920E-02 0.  1.
        2   -1    0    0  501    0  0.00000000000E+00  0.00000000000E+00 -0.21435721334E+04  0.21435721334E+04  0.25500000920E-02 0. -1.
    10030    2    1    2    0    0  0.00000000000E+00  0.00000000000E+00 -0.14321110433E+04  0.28550332235E+04  0.24698730062E+04 0.  0.
        4    1    3    3  502    0  0.92901735078E+03  0.58871153819E+03 -0.13652512848E+04  0.17531592046E+04  0.12699999809E+01 0. -1.
       -4    1    3    3    0  502 -0.92901735078E+03 -0.58871153819E+03 -0.66859758544E+02  0.11018740189E+04  0.12699999809E+01 0.  1.
</event>
<event>
 5   0  0.1526824E-05  0.2469000E+04  0.7818609E-02  0.8414113E-01
       -2   -1    0    0    0  501  0.00000000000E+00  0.00000000000E+00  0.91571642627E+03  0.91571642628E+03  0.25500000920E-02 0.  1.
        2   -1    0    0  501    0  0.00000000000E+00  0.00000000000E+00 -0.16642600986E+04  0.16642600986E+04  0.25500000920E-02 0. -1.
    10030    2    1    2    0    0  0.00000000000E+00  0.00000000000E+00 -0.74854367232E+03  0.25799765249E+04  0.24690000485E+04 0.  0.
        2    1    3    3  502    0  0.34316781657E+03 -0.67755973238E+03 -0.13912263038E+04  0.15850432075E+04  0.25500000920E-02 0. -1.
       -2    1    3    3    0  502 -0.34316781657E+03  0.67755973238E+03  0.64268263145E+03  0.99493331739E+03  0.25500000920E-02 0.  1.
</event>
<event>
 5   0  0.1572732E-05  0.2506310E+04  0.7818609E-02  0.8400741E-01
       -2   -1    0    0    0  501  0.00000000000E+00  0.00000000000E+00  0.10852155848E+04  0.10852155848E+04  0.25500000920E-02 0.  1.
        2   -1    0    0  501    0  0.00000000000E+00  0.00000000000E+00 -0.14470830852E+04  0.14470830852E+04  0.25500000920E-02 0. -1.
    10030    2    1    2    0    0  0.00000000000E+00  0.00000000000E+00 -0.36186750033E+03  0.25322986700E+04  0.25063097307E+04 0.  0.
        1    1    3    3  502    0 -0.20499641104E+03 -0.43974024661E+03 -0.13483377088E+04  0.14329722921E+04  0.50400001928E-02 0. -1.
       -1    1    3    3    0  502  0.20499641104E+03  0.43974024661E+03  0.98647020844E+03  0.10993263779E+04  0.50400001928E-02 0.  1.
</event>
<event>
 5   0  0.1501947E-05  0.2518506E+04  0.7818609E-02  0.8396422E-01
       -2   -1    0    0    0  501  0.00000000000E+00  0.00000000000E+00  0.16374262777E+04  0.16374262777E+04  0.25500000920E-02 0. -1.
        2   -1    0    0  501    0  0.00000000000E+00  0.00000000000E+00 -0.96842118159E+03  0.96842118159E+03  0.25500000920E-02 0.  1.
    10030    2    1    2    0    0  0.00000000000E+00  0.00000000000E+00  0.66900509611E+03  0.26058474593E+04  0.25185061371E+04 0.  0.
        3    1    3    3  502    0 -0.11613575675E+04 -0.10571054560E+03  0.82615748715E+03  0.14291474112E+04  0.10100000352E+00 0. -1.
       -3    1    3    3    0  502  0.11613575675E+04  0.10571054560E+03 -0.15715239104E+03  0.11767000481E+04  0.10100000352E+00 0.  1.
</event>
<event>
 5   0  0.1526824E-05  0.2463925E+04  0.7818609E-02  0.8415951E-01
       -2   -1    0    0    0  501  0.00000000000E+00  0.00000000000E+00  0.11786432229E+04  0.11786432229E+04  0.25500000920E-02 0. -1.
        2   -1    0    0  501    0  0.00000000000E+00  0.00000000000E+00 -0.12876937768E+04  0.12876937768E+04  0.25500000920E-02 0.  1.
    10030    2    1    2    0    0  0.00000000000E+00  0.00000000000E+00 -0.10905055387E+03  0.24663369997E+04  0.24639249527E+04 0.  0.
        2    1    3    3  502    0  0.48238637191E+03 -0.10808265770E+04  0.28764095599E+03  0.12180394168E+04  0.25500000920E-02 0. -1.
       -2    1    3    3    0  502 -0.48238637191E+03  0.10808265770E+04 -0.39669150986E+03  0.12482975829E+04  0.25500000920E-02 0.  1.
</event>
<event>
 5   0  0.6104486E-06  0.2518945E+04  0.7818609E-02  0.8396267E-01
       -1   -1    0    0    0  501  0.00000000000E+00  0.00000000000E+00  0.84912078010E+03  0.84912078011E+03  0.50400001928E-02 0. -1.
        1   -1    0    0  501    0  0.00000000000E+00  0.00000000000E+00 -0.18681342251E+04  0.18681342251E+04  0.50400001928E-02 0.  1.
    10030    2    1    2    0    0  0.00000000000E+00  0.00000000000E+00 -0.10190134450E+04  0.27172550052E+04  0.25189454862E+04 0.  0.
        2    1    3    3  502    0  0.84258968186E+03 -0.25498199952E+03 -0.14811390097E+04  0.17230049211E+04  0.25500000920E-02 0.  1.
       -2    1    3    3    0  502 -0.84258968186E+03  0.25498199952E+03  0.46212556476E+03  0.99425008407E+03  0.25500000920E-02 0. -1.
</event>
<event>
 5   0  0.6104486E-06  0.2503250E+04  0.7818609E-02  0.8401829E-01
        1   -1    0    0  501    0  0.00000000000E+00  0.00000000000E+00  0.23616314245E+04  0.23616314245E+04  0.50400001928E-02 0. -1.
       -1   -1    0    0    0  501  0.00000000000E+00  0.00000000000E+00 -0.66334019240E+03  0.66334019242E+03  0.50400001928E-02 0.  1.
    10030    2    1    2    0    0  0.00000000000E+00  0.00000000000E+00  0.16982912321E+04  0.30249716169E+04  0.25032499224E+04 0.  0.
        2    1    3    3  502    0 -0.22097461462E+02  0.12492949004E+04  0.93744282047E+03  0.15620579655E+04  0.25500000920E-02 0. -1.
       -2    1    3    3    0  502  0.22097461462E+02 -0.12492949004E+04  0.76084841163E+03  0.14629136514E+04  0.25500000920E-02 0.  1.
</event>
<event>
 5   0  0.6346420E-06  0.2507936E+04  0.7818609E-02  0.8400164E-01
       -1   -1    0    0    0  501  0.00000000000E+00  0.00000000000E+00  0.60312660335E+03  0.60312660337E+03  0.50400001928E-02 0. -1.
        1   -1    0    0  501    0  0.00000000000E+00  0.00000000000E+00 -0.26071407126E+04  0.26071407126E+04  0.50400001928E-02 0.  1.
    10030    2    1    2    0    0  0.00000000000E+00  0.00000000000E+00 -0.20040141092E+04  0.32102673160E+04  0.25079361415E+04 0.  0.
        4    1    3    3  502    0  0.78239692771E+03 -0.47378182642E+03  0.96013722121E+02  0.91969256780E+03  0.12699999809E+01 0. -1.
       -4    1    3    3    0  502 -0.78239692771E+03  0.47378182642E+03 -0.21000278314E+04  0.22905747482E+04  0.12699999809E+01 0.  1.
</event>
<event>
 5   0  0.6477703E-06  0.2513892E+04  0.7818609E-02  0.8398053E-01
        1   -1    0    0  501    0  0.00000000000E+00  0.00000000000E+00  0.55716016204E+03  0.55716016207E+03  0.50400001928E-02 0. -1.
       -1   -1    0    0    0  501  0.00000000000E+00  0.00000000000E+00 -0.28356540082E+04  0.28356540082E+04  0.50400001928E-02 0.  1.
    10030    2    1    2    0    0  0.00000000000E+00  0.00000000000E+00 -0.22784938461E+04  0.33928141702E+04  0.25138921590E+04 0.  0.
        5    1    3    3  502    0  0.13678169219E+03  0.48914309243E+03 -0.26909771042E+04  0.27384941229E+04  0.46999998093E+01 0.  1.
       -5    1    3    3    0  502 -0.13678169219E+03 -0.48914309243E+03  0.41248325802E+03  0.65432004733E+03  0.46999998093E+01 0. -1.
</event>
<event>
 5   0  0.6477703E-06  0.2502873E+04  0.7818609E-02  0.8401963E-01
        1   -1    0    0  501    0  0.00000000000E+00  0.00000000000E+00  0.11479308994E+04  0.11479308994E+04  0.50400001928E-02 0.  1.
       -1   -1    0    0    0  501  0.00000000000E+00  0.00000000000E+00 -0.13642750125E+04  0.13642750125E+04  0.50400001928E-02 0. -1.
    10030    2    1    2    0    0  0.00000000000E+00  0.00000000000E+00 -0.21634411319E+03  0.25122059119E+04  0.25028731028E+04 0.  0.
        5    1    3    3  502    0 -0.51695564327E+03 -0.44884663606E+03  0.94328596112E+03  0.11655543463E+04  0.46999998093E+01 0.  1.
       -5    1    3    3    0  502  0.51695564327E+03  0.44884663606E+03 -0.11596300743E+04  0.13466515656E+04  0.46999998093E+01 0. -1.
</event>
<event>
 5   0  0.1501947E-05  0.2385602E+04  0.7818609E-02  0.8444914E-01
       -2   -1    0    0    0  501  0.00000000000E+00  0.00000000000E+00  0.13626674846E+04  0.13626674846E+04  0.25500000920E-02 0.  1.
        2   -1    0    0  501    0  0.00000000000E+00  0.00000000000E+00 -0.10441098931E+04  0.10441098931E+04  0.25500000920E-02 0. -1.
    10030    2    1    2    0    0  0.00000000000E+00  0.00000000000E+00  0.31855759150E+03  0.24067773777E+04  0.23856023153E+04 0.  0.
        3    1    3    3  502    0 -0.27834898368E+03  0.71645702073E+03 -0.76095000804E+03  0.10815885281E+04  0.10100000352E+00 0.  1.
       -3    1    3    3    0  502  0.27834898368E+03 -0.71645702073E+03  0.10795075995E+04  0.13251888495E+04  0.10100000352E+00 0. -1.
</event>
<event>
 5   0  0.1501947E-05  0.2511311E+04  0.7818609E-02  0.8398967E-01
       -2   -1    0    0    0  501  0.00000000000E+00  0.00000000000E+00  0.10676165165E+04  0.10676165165E+04  0.25500000920E-02 0.  1.
        2   -1    0    0  501    0  0.00000000000E+00  0.00000000000E+00 -0.14768137381E+04  0.14768137381E+04  0.25500000920E-02 0. -1.
    10030    2    1    2    0    0  0.00000000000E+00  0.00000000000E+00 -0.40919722153E+03  0.25444302546E+04  0.25113110031E+04 0.  0.
        3    1    3    3  502    0  0.56408752439E+02 -0.44259529210E+03  0.98459162040E+03  0.10809686439E+04  0.10100000352E+00 0.  1.
       -3    1    3    3    0  502 -0.56408752439E+02  0.44259529210E+03 -0.13937888419E+04  0.14634616107E+04  0.10100000352E+00 0. -1.
</event>
<event>
 5   0  0.6477703E-06  0.2507861E+04  0.7818609E-02  0.8400190E-01
       -1   -1    0    0    0  501  0.00000000000E+00  0.00000000000E+00  0.11249290500E+04  0.11249290501E+04  0.50400001928E-02 0.  1.
        1   -1    0    0  501    0  0.00000000000E+00  0.00000000000E+00 -0.13977252237E+04  0.13977252237E+04  0.50400001928E-02 0. -1.
    10030    2    1    2    0    0  0.00000000000E+00  0.00000000000E+00 -0.27279617363E+03  0.25226542737E+04  0.25078610074E+04 0.  0.
        5    1    3    3  502    0 -0.63770932746E+03  0.22923808354E+02  0.94937675425E+03  0.11439130207E+04  0.46999998093E+01 0.  1.
       -5    1    3    3    0  502  0.63770932746E+03 -0.22923808354E+02 -0.12221729279E+04  0.13787412531E+04  0.46999998093E+01 0. -1.
</event>
<event>
 5   0  0.1572732E-05  0.2519751E+04  0.7818609E-02  0.8395983E-01
        2   -1    0    0  501    0  0.00000000000E+00  0.00000000000E+00  0.13470885931E+04  0.13470885931E+04  0.25500000920E-02 0. -1.
       -2   -1    0    0    0  501  0.00000000000E+00  0.00000000000E+00 -0.11783090709E+04  0.11783090709E+04  0.25500000920E-02 0.  1.
    10030    2    1    2    0    0  0.00000000000E+00  0.00000000000E+00  0.16877952218E+03  0.25253976640E+04  0.25197513437E+04 0.  0.
        1    1    3    3  502    0 -0.58295369648E+03 -0.94805979115E+03  0.67616550904E+03  0.13022488915E+04  0.50400001928E-02 0. -1.
       -1    1    3    3    0  502  0.58295369648E+03  0.94805979115E+03 -0.50738598686E+03  0.12231487724E+04  0.50400001928E-02 0.  1.
</event>
<event>
 5   0  0.6104486E-06  0.2501198E+04  0.7818609E-02  0.8402559E-01
       -1   -1    0    0    0  501  0.00000000000E+00  0.00000000000E+00  0.69897210455E+03  0.69897210456E+03  0.50400001928E-02 0. -1.
        1   -1    0    0  501    0  0.00000000000E+00  0.00000000000E+00 -0.22375688106E+04  0.22375688106E+04  0.50400001928E-02 0.  1.
    10030    2    1    2    0    0  0.00000000000E+00  0.00000000000E+00 -0.15385967061E+04  0.29365409152E+04  0.25011982574E+04 0.  0.
        2    1    3    3  502    0  0.12493029956E+04 -0.35844006420E+02 -0.82121506563E+03  0.14954721501E+04  0.25500000920E-02 0.  1.
       -2    1    3    3    0  502 -0.12493029956E+04  0.35844006420E+02 -0.71738164046E+03  0.14410687651E+04  0.25500000920E-02 0. -1.
</event>
<event>
 5   0  0.1501947E-05  0.2381083E+04  0.7818609E-02  0.8446620E-01
        2   -1    0    0  501    0  0.00000000000E+00  0.00000000000E+00  0.20093742491E+04  0.20093742491E+04  0.25500000920E-02 0.  1.
       -2   -1    0    0    0  501  0.00000000000E+00  0.00000000000E+00 -0.70538822423E+03  0.70538822424E+03  0.25500000920E-02 0. -1.
    10030    2    1    2    0    0  0.00000000000E+00  0.00000000000E+00  0.13039860248E+04  0.27147624733E+04  0.23810828909E+04 0.  0.
        3    1    3    3  502    0  0.48971617415E+03 -0.90843696381E+03 -0.24743113659E+02  0.10323235347E+04  0.10100000352E+00 0. -1.
       -3    1    3    3    0  502 -0.48971617415E+03  0.90843696381E+03  0.13287291385E+04  0.16824389386E+04  0.10100000352E+00 0.  1.
</event>
<event>
 5   0  0.1468512E-05  0.2495438E+04  0.7818609E-02  0.8404613E-01
        2   -1    0    0  501    0  0.00000000000E+00  0.00000000000E+00  0.13786058020E+04  0.13786058020E+04  0.25500000920E-02 0. -1.
       -2   -1    0    0    0  501  0.00000000000E+00  0.00000000000E+00 -0.11292586738E+04  0.11292586738E+04  0.25500000920E-02 0.  1.
    10030    2    1    2    0    0  0.00000000000E+00  0.00000000000E+00  0.24934712816E+03  0.25078644758E+04  0.24954378851E+04 0.  0.
        4    1    3    3  502    0 -0.67401296039E+03 -0.40716923399E+03  0.10973364756E+04  0.13506402961E+04  0.12699999809E+01 0. -1.
       -4    1    3    3    0  502  0.67401296039E+03  0.40716923399E+03 -0.84798934740E+03  0.11572241797E+04  0.12699999809E+01 0.  1.
</event>
<event>
 5   0  0.1550483E-05  0.2540574E+04  0.7818609E-02  0.8388672E-01
       -2   -1    0    0    0  501  0.00000000000E+00  0.00000000000E+00  0.15218584532E+04  0.15218584532E+04  0.25500000920E-02 0. -1.
        2   -1    0    0  501    0  0.00000000000E+00  0.00000000000E+00 -0.10603019876E+04  0.10603019876E+04  0.25500000920E-02 0.  1.
    10030    2    1    2    0    0  0.00000000000E+00  0.00000000000E+00  0.46155646564E+03  0.25821604408E+04  0.25405743782E+04 0.  0.
        5    1    3    3  502    0  0.92615924920E+03 -0.86926025691E+03  0.24595938164E+03  0.12937938230E+04  0.46999998093E+01 0.  1.
       -5    1    3    3    0  502 -0.92615924920E+03  0.86926025691E+03  0.21559708400E+03  0.12883666178E+04  0.46999998093E+01 0. -1.
</event>
<event>
 5   0  0.6290861E-06  0.2492773E+04  0.7818609E-02  0.8405565E-01
        1   -1    0    0  501    0  0.00000000000E+00  0.00000000000E+00  0.10866068700E+04  0.10866068700E+04  0.50400001928E-02 0. -1.
       -1   -1    0    0    0  501  0.00000000000E+00  0.00000000000E+00 -0.14296603517E+04  0.14296603517E+04  0.50400001928E-02 0.  1.
    10030    2    1    2    0    0  0.00000000000E+00  0.00000000000E+00 -0.34305348168E+03  0.25162672217E+04  0.24927725607E+04 0.  0.
        1    1    3    3  502    0  0.10207722756E+04  0.26739559556E+03  0.49805189214E+03  0.11668470895E+04  0.50400001928E-02 0. -1.
       -1    1    3    3    0  502 -0.10207722756E+04 -0.26739559556E+03 -0.84110537382E+03  0.13494201321E+04  0.50400001928E-02 0.  1.
</event>
<event>
 5   0  0.6105353E-06  0.2497068E+04  0.7818609E-02  0.8404031E-01
        1   -1    0    0  501    0  0.00000000000E+00  0.00000000000E+00  0.13375440321E+04  0.13375440321E+04  0.50400001928E-02 0. -1.
       -1   -1    0    0    0  501  0.00000000000E+00  0.00000000000E+00 -0.11654470252E+04  0.11654470252E+04  0.50400001928E-02 0.  1.
    10030    2    1    2    0    0  0.00000000000E+00  0.00000000000E+00  0.17209700693E+03  0.25029910573E+04  0.24970676509E+04 0.  0.
        3    1    3    3  502    0  0.11042241986E+03 -0.58648680840E+03 -0.10132191759E+04  0.11759136855E+04  0.10100000352E+00 0.  1.
       -3    1    3    3    0  502 -0.11042241986E+03  0.58648680840E+03  0.11853161828E+04  0.13270773718E+04  0.10100000352E+00 0. -1.
</event>
<event>
 5   0  0.6346420E-06  0.2472397E+04  0.7818609E-02  0.8412886E-01
       -1   -1    0    0    0  501  0.00000000000E+00  0.00000000000E+00  0.11401411359E+04  0.11401411359E+04  0.50400001928E-02 0. -1.
        1   -1    0    0  501    0  0.00000000000E+00  0.00000000000E+00 -0.13403484193E+04  0.13403484193E+04  0.50400001928E-02 0.  1.
    10030    2    1    2    0    0  0.00000000000E+00  0.00000000000E+00 -0.20020728332E+03  0.24804895552E+04  0.24723967071E+04 0.  0.
        4    1    3    3  502    0 -0.93754661152E+03  0.29195549058E+02 -0.90793410854E+03  0.13054470450E+04  0.12699999809E+01 0.  1.
       -4    1    3    3    0  502  0.93754661152E+03 -0.29195549058E+02  0.70772682522E+03  0.11750425102E+04  0.12699999809E+01 0. -1.
</event>
<event>
 5   0  0.6477703E-06  0.2508985E+04  0.7818609E-02  0.8399792E-01
       -1   -1    0    0    0  501  0.00000000000E+00  0.00000000000E+00  0.73236443806E+03  0.73236443807E+03  0.50400001928E-02 0. -1.
        1   -1    0    0  501    0  0.00000000000E+00  0.00000000000E+00 -0.21488632261E+04  0.21488632261E+04  0.50400001928E-02 0.  1.
    10030    2    1    2    0    0  0.00000000000E+00  0.00000000000E+00 -0.14164987880E+04  0.28812276642E+04  0.25089846624E+04 0.  0.
        5    1    3    3  502    0 -0.20051057683E+03 -0.40081284676E+03 -0.20537838669E+04  0.21021193333E+04  0.46999998093E+01 0.  1.
       -5    1    3    3    0  502  0.20051057683E+03  0.40081284676E+03  0.63728507884E+03  0.77910833089E+03  0.46999998093E+01 0. -1.
</event>
<event>
 5   0  0.1501947E-05  0.2519482E+04  0.7818609E-02  0.8396078E-01
        2   -1    0    0  501    0  0.00000000000E+00  0.00000000000E+00  0.23849708743E+04  0.23849708743E+04  0.25500000920E-02 0. -1.
       -2   -1    0    0    0  501  0.00000000000E+00  0.00000000000E+00 -0.66539499336E+03  0.66539499336E+03  0.25500000920E-02 0.  1.
    10030    2    1    2    0    0  0.00000000000E+00  0.00000000000E+00  0.17195758809E+04  0.30503658677E+04  0.25194822318E+04 0.  0.
        3    1    3    3  502    0  0.12593641655E+04  0.68256723227E+01  0.82340656243E+03  0.15046737415E+04  0.10100000352E+00 0. -1.
       -3    1    3    3    0  502 -0.12593641655E+04 -0.68256723227E+01  0.89616931852E+03  0.15456921261E+04  0.10100000352E+00 0.  1.
</event>
<event>
 5   0  0.6104486E-06  0.2495304E+04  0.7818609E-02  0.8404660E-01
        1   -1    0    0  501    0  0.00000000000E+00  0.00000000000E+00  0.12482491036E+04  0.12482491036E+04  0.50400001928E-02 0. -1.
       -1   -1    0    0    0  501  0.00000000000E+00  0.00000000000E+00 -0.12470554007E+04  0.12470554007E+04  0.50400001928E-02 0.  1.
    10030    2    1    2    0    0  0.00000000000E+00  0.00000000000E+00  0.11937028650E+01  0.24953045043E+04  0.24953042188E+04 0.  0.
        2    1    3    3  502    0  0.11456508667E+04 -0.41344782096E+03  0.27111634019E+03  0.12477816632E+04  0.25500000920E-02 0. -1.
       -2    1    3    3    0  502 -0.11456508667E+04  0.41344782096E+03 -0.26992263732E+03  0.12475228412E+04  0.25500000920E-02 0.  1.
</event>
<event>
 5   0  0.6346420E-06  0.2516282E+04  0.7818609E-02  0.8397208E-01
       -1   -1    0    0    0  501  0.00000000000E+00  0.00000000000E+00  0.15555053556E+04  0.15555053556E+04  0.50400001928E-02 0.  1.
        1   -1    0    0  501    0  0.00000000000E+00  0.00000000000E+00 -0.10176234141E+04  0.10176234141E+04  0.50400001928E-02 0. -1.
    10030    2    1    2    0    0  0.00000000000E+00  0.00000000000E+00  0.53788194146E+03  0.25731287697E+04  0.25162819163E+04 0.  0.
        4    1    3    3  502    0 -0.37196802422E+03  0.24599159160E+03 -0.93409143755E+03  0.10350847795E+04  0.12699999809E+01 0. -1.
       -4    1    3    3    0  502  0.37196802422E+03 -0.24599159160E+03  0.14719733790E+04  0.15380439901E+04  0.12699999809E+01 0.  1.
</event>
<event>
 5   0  0.6105353E-06  0.2515941E+04  0.7818609E-02  0.8397328E-01
        1   -1    0    0  501    0  0.00000000000E+00  0.00000000000E+00  0.13038202802E+04  0.13038202802E+04  0.50400001928E-02 0. -1.
       -1   -1    0    0    0  501  0.00000000000E+00  0.00000000000E+00 -0.12137333975E+04  0.12137333975E+04  0.50400001928E-02 0.  1.
    10030    2    1    2    0    0  0.00000000000E+00  0.00000000000E+00  0.90086882667E+02  0.25175536777E+04  0.25159413494E+04 0.  0.
        3    1    3    3  502    0 -0.12069163791E+04 -0.23180775616E+02 -0.30916887967E+03  0.12461018822E+04  0.10100000352E+00 0.  1.
       -3    1    3    3    0  502  0.12069163791E+04  0.23180775616E+02  0.39925576234E+03  0.12714517955E+04  0.10100000352E+00 0. -1.
</event>
<event>
 5   0  0.6346420E-06  0.2514131E+04  0.7818609E-02  0.8397968E-01
        1   -1    0    0  501    0  0.00000000000E+00  0.00000000000E+00  0.14303015034E+04  0.14303015034E+04  0.50400001928E-02 0. -1.
       -1   -1    0    0    0  501  0.00000000000E+00  0.00000000000E+00 -0.11048119993E+04  0.11048119993E+04  0.50400001928E-02 0.  1.
    10030    2    1    2    0    0  0.00000000000E+00  0.00000000000E+00  0.32548950417E+03  0.25351135027E+04  0.25141314712E+04 0.  0.
        4    1    3    3  502    0 -0.11905983440E+04  0.40327068555E+03  0.17061941527E+03  0.12685677989E+04  0.12699999809E+01 0. -1.
       -4    1    3    3    0  502  0.11905983440E+04 -0.40327068555E+03  0.15487008890E+03  0.12665457038E+04  0.12699999809E+01 0.  1.
</event>
<event>
 5   0  0.1526824E-05  0.2486175E+04  0.7818609E-02  0.8407927E-01
        2   -1    0    0  501    0  0.00000000000E+00  0.00000000000E+00  0.13489447473E+04  0.13489447473E+04  0.25500000920E-02 0. -1.
       -2   -1    0    0    0  501  0.00000000000E+00  0.00000000000E+00 -0.11455369478E+04  0.11455369478E+04  0.25500000920E-02 0.  1.
    10030    2    1    2    0    0  0.00000000000E+00  0.00000000000E+00  0.20340779950E+03  0.24944816951E+04  0.24861746106E+04 0.  0.
        2    1    3    3  502    0  0.12396128487E+04 -0.90044961789E+02  0.12453821272E+03  0.12491028285E+04  0.25500000920E-02 0.  1.
       -2    1    3    3    0  502 -0.12396128487E+04  0.90044961789E+02  0.78869586781E+02  0.12453788666E+04  0.25500000920E-02 0. -1.
</event>
<event>
 5   0  0.1550483E-05  0.2496510E+04  0.7818609E-02  0.8404230E-01
        2   -1    0    0  501    0  0.00000000000E+00  0.00000000000E+00  0.14793910386E+04  0.14793910386E+04  0.25500000920E-02 0.  1.
       -2   -1    0    0    0  501  0.00000000000E+00  0.00000000000E+00 -0.10532313170E+04  0.10532313170E+04  0.25500000920E-02 0. -1.
    10030    2    1    2    0    0  0.00000000000E+00  0.00000000000E+00  0.42615972162E+03  0.25326223556E+04  0.24965103420E+04 0.  0.
        5    1    3    3  502    0 -0.87232307865E+03  0.38017926490E+03  0.10326238422E+04  0.14042143414E+04  0.46999998093E+01 0.  1.
       -5    1    3    3    0  502  0.87232307865E+03 -0.38017926490E+03 -0.60646412062E+03  0.11284080142E+04  0.46999998093E+01 0. -1.
</event>
<event>
 5   0  0.1501947E-05  0.2504839E+04  0.7818609E-02  0.8401264E-01
        2   -1    0    0  501    0  0.00000000000E+00  0.00000000000E+00  0.16709317785E+04  0.16709317785E+04  0.25500000920E-02 0.  1.
       -2   -1    0    0    0  501  0.00000000000E+00  0.00000000000E+00 -0.93873014732E+03  0.93873014732E+03  0.25500000920E-02 0. -1.
    10030    2    1    2    0    0  0.00000000000E+00  0.00000000000E+00  0.73220163122E+03  0.26096619259E+04  0.25048385454E+04 0.  0.
        3    1    3    3  502    0  0.68255163914E+02 -0.11790370364E+04 -0.68197423127E+02  0.11829784441E+04  0.10100000352E+00 0. -1.
       -3    1    3    3    0  502 -0.68255163914E+02  0.11790370364E+04  0.80039905435E+03  0.14266834817E+04  0.10100000352E+00 0.  1.
</event>
<event>
 5   0  0.1550483E-05  0.2506570E+04  0.7818609E-02  0.8400649E-01
        2   -1    0    0  501    0  0.00000000000E+00  0.00000000000E+00  0.21549106250E+04  0.21549106250E+04  0.25500000920E-02 0.  1.
       -2   -1    0    0    0  501  0.00000000000E+00  0.00000000000E+00 -0.72890424351E+03  0.72890424351E+03  0.25500000920E-02 0. -1.
    10030    2    1    2    0    0  0.00000000000E+00  0.00000000000E+00  0.14260063815E+04  0.28838148686E+04  0.25065701658E+04 0.  0.
        5    1    3    3  502    0  0.13971908437E+02 -0.44171160409E+03  0.20622815513E+04  0.21091068351E+04  0.46999998093E+01 0.  1.
       -5    1    3    3    0  502 -0.13971908437E+02  0.44171160409E+03 -0.63627516973E+03  0.77470803340E+03  0.46999998093E+01 0. -1.
</event>
<event>
 5   0  0.6346420E-06  0.2490480E+04  0.7818609E-02  0.8406385E-01
        1   -1    0    0  501    0  0.00000000000E+00  0.00000000000E+00  0.90105856378E+03  0.90105856380E+03  0.50400001928E-02 0. -1.
       -1   -1    0    0    0  501  0.00000000000E+00  0.00000000000E+00 -0.17208898916E+04  0.17208898916E+04  0.50400001928E-02 0.  1.
    10030    2    1    2    0    0  0.00000000000E+00  0.00000000000E+00 -0.81983132779E+03  0.26219484554E+04  0.24904799330E+04 0.  0.
        4    1    3    3  502    0  0.12573296478E+03 -0.12009880399E+04 -0.73000474648E+03  0.14110597412E+04  0.12699999809E+01 0. -1.
       -4    1    3    3    0  502 -0.12573296478E+03  0.12009880399E+04 -0.89826581311E+02  0.12108887142E+04  0.12699999809E+01 0.  1.
</event>
<event>
 5   0  0.6477703E-06  0.2491752E+04  0.7818609E-02  0.8405930E-01
        1   -1    0    0  501    0  0.00000000000E+00  0.00000000000E+00  0.17921771252E+04  0.17921771252E+04  0.50400001928E-02 0. -1.
       -1   -1    0    0    0  501  0.00000000000E+00  0.00000000000E+00 -0.86610159375E+03  0.86610159376E+03  0.50400001928E-02 0.  1.
    10030    2    1    2    0    0  0.00000000000E+00  0.00000000000E+00  0.92607553141E+03  0.26582787189E+04  0.24917523668E+04 0.  0.
        5    1    3    3  502    0  0.11191387244E+04 -0.44457553607E+03  0.80386729088E+03  0.14478755482E+04  0.46999998093E+01 0. -1.
       -5    1    3    3    0  502 -0.11191387244E+04  0.44457553607E+03  0.12220824052E+03  0.12104031707E+04  0.46999998093E+01 0.  1.
</event>
<event>
 5   0  0.6105353E-06  0.2506159E+04  0.7818609E-02  0.8400795E-01
        1   -1    0    0  501    0  0.00000000000E+00  0.00000000000E+00  0.16372408433E+04  0.16372408433E+04  0.50400001928E-02 0.  1.
       -1   -1    0    0    0  501  0.00000000000E+00  0.00000000000E+00 -0.95905777394E+03  0.95905777396E+03  0.50400001928E-02 0. -1.
    10030    2    1    2    0    0  0.00000000000E+00  0.00000000000E+00  0.67818306933E+03  0.25962986172E+04  0.25061592596E+04 0.  0.
        3    1    3    3  502    0 -0.75194767846E+03 -0.41309813633E+03  0.12852495467E+04  0.15452966669E+04  0.10100000352E+00 0.  1.
       -3    1    3    3    0  502  0.75194767846E+03  0.41309813633E+03 -0.60706647736E+03  0.10510019503E+04  0.10100000352E+00 0. -1.
</event>
<event>
 5   0  0.6477703E-06  0.2511777E+04  0.7818609E-02  0.8398802E-01
       -1   -1    0    0    0  501  0.00000000000E+00  0.00000000000E+00  0.64066420856E+03  0.64066420858E+03  0.50400001928E-02 0.  1.
        1   -1    0    0  501    0  0.00000000000E+00  0.00000000000E+00 -0.24619077112E+04  0.24619077112E+04  0.50400001928E-02 0. -1.
    10030    2    1    2    0    0  0.00000000000E+00  0.00000000000E+00 -0.18212435026E+04  0.31025719198E+04  0.25117771839E+04 0.  0.
        5    1    3    3  502    0 -0.20333576963E+03 -0.29561616539E+03 -0.23972416894E+04  0.24239480522E+04  0.46999998093E+01 0. -1.
       -5    1    3    3    0  502  0.20333576963E+03  0.29561616539E+03  0.57599818677E+03  0.67862386756E+03  0.46999998093E+01 0.  1.
</event>
<event>
 5   0  0.1526824E-05  0.2490074E+04  0.7818609E-02  0.8406530E-01
       -2   -1    0    0    0  501  0.00000000000E+00  0.00000000000E+00  0.10773041386E+04  0.10773041386E+04  0.25500000920E-02 0. -1.
        2   -1    0    0  501    0  0.00000000000E+00  0.00000000000E+00 -0.14388856588E+04  0.14388856588E+04  0.25500000920E-02 0.  1.
    10030    2    1    2    0    0  0.00000000000E+00  0.00000000000E+00 -0.36158152018E+03  0.25161897974E+04  0.24900742762E+04 0.  0.
        2    1    3    3  502    0 -0.44724626126E+03 -0.25462630664E+03 -0.13263710340E+04  0.14227170816E+04  0.25500000920E-02 0.  1.
       -2    1    3    3    0  502  0.44724626126E+03  0.25462630664E+03  0.96478951385E+03  0.10934727158E+04  0.25500000920E-02 0. -1.
</event>
<event>
 5   0  0.1501947E-05  0.2494503E+04  0.7818609E-02  0.8404946E-01
        2   -1    0    0  501    0  0.00000000000E+00  0.00000000000E+00  0.21617608230E+04  0.21617608230E+04  0.25500000920E-02 0.  1.
       -2   -1    0    0    0  501  0.00000000000E+00  0.00000000000E+00 -0.71961565208E+03  0.71961565209E+03  0.25500000920E-02 0. -1.
    10030    2    1    2    0    0  0.00000000000E+00  0.00000000000E+00  0.14421451709E+04  0.28813764751E+04  0.24945034971E+04 0.  0.
        3    1    3    3  502    0 -0.34319167321E+03  0.69540615198E+02 -0.66167239116E+03  0.74861658086E+03  0.10100000352E+00 0. -1.
       -3    1    3    3    0  502  0.34319167321E+03 -0.69540615198E+02  0.21038175621E+04  0.21327598943E+04  0.10100000352E+00 0.  1.
</event>
<event>
 5   0  0.1501947E-05  0.2497201E+04  0.7818609E-02  0.8403983E-01
        2   -1    0    0  501    0  0.00000000000E+00  0.00000000000E+00  0.18041942048E+04  0.18041942048E+04  0.25500000920E-02 0. -1.
       -2   -1    0    0    0  501  0.00000000000E+00  0.00000000000E+00 -0.86409970484E+03  0.86409970484E+03  0.25500000920E-02 0.  1.
    10030    2    1    2    0    0  0.00000000000E+00  0.00000000000E+00  0.94009449992E+03  0.26682939096E+04  0.24972013774E+04 0.  0.
        3    1    3    3  502    0  0.59802505611E+03  0.10931564580E+04  0.38470878436E+03  0.13040804685E+04  0.10100000352E+00 0. -1.
       -3    1    3    3    0  502 -0.59802505611E+03 -0.10931564580E+04  0.55538571556E+03  0.13642134410E+04  0.10100000352E+00 0.  1.
</event>
<event>
 5   0  0.6104486E-06  0.2499902E+04  0.7818609E-02  0.8403020E-01
       -1   -1    0    0    0  501  0.00000000000E+00  0.00000000000E+00  0.67557225646E+03  0.67557225648E+03  0.50400001928E-02 0.  1.
        1   -1    0    0  501    0  0.00000000000E+00  0.00000000000E+00 -0.23126727311E+04  0.23126727311E+04  0.50400001928E-02 0. -1.
    10030    2    1    2    0    0  0.00000000000E+00  0.00000000000E+00 -0.16371004746E+04  0.29882449876E+04  0.24999020264E+04 0.  0.
        2    1    3    3  502    0 -0.29859863045E+03  0.17038342412E+03  0.61794687961E+03  0.70714213518E+03  0.25500000920E-02 0.  1.
       -2    1    3    3    0  502  0.29859863045E+03 -0.17038342412E+03 -0.22550473543E+04  0.22811028524E+04  0.25500000920E-02 0. -1.
</event>
<event>
 5   0  0.1468512E-05  0.2516012E+04  0.7818609E-02  0.8397303E-01
        2   -1    0    0  501    0  0.00000000000E+00  0.00000000000E+00  0.13404739318E+04  0.13404739318E+04  0.25500000920E-02 0. -1.
       -2   -1    0    0    0  501  0.00000000000E+00  0.00000000000E+00 -0.11806113943E+04  0.11806113943E+04  0.25500000920E-02 0.  1.
    10030    2    1    2    0    0  0.00000000000E+00  0.00000000000E+00  0.15986253752E+03  0.25210853261E+04  0.25160117628E+04 0.  0.
        4    1    3    3  502    0  0.57845278018E+03 -0.45361774652E+03  0.11028721076E+04  0.13254075514E+04  0.12699999809E+01 0. -1.
       -4    1    3    3    0  502 -0.57845278018E+03  0.45361774652E+03 -0.94300957003E+03  0.11956777747E+04  0.12699999809E+01 0.  1.
</event>
<event>
 5   0  0.1501947E-05  0.2484883E+04  0.7818609E-02  0.8408391E-01
       -2   -1    0    0    0  501  0.00000000000E+00  0.00000000000E+00  0.86781632050E+03  0.86781632050E+03  0.25500000920E-02 0.  1.
        2   -1    0    0  501    0  0.00000000000E+00  0.00000000000E+00 -0.17787871217E+04  0.17787871217E+04  0.25500000920E-02 0. -1.
    10030    2    1    2    0    0  0.00000000000E+00  0.00000000000E+00 -0.91097080120E+03  0.26466034422E+04  0.24848826893E+04 0.  0.
        3    1    3    3  502    0 -0.48457609157E+03  0.10713939207E+03  0.75766463177E+03  0.90573094365E+03  0.10100000352E+00 0.  1.
       -3    1    3    3    0  502  0.48457609157E+03 -0.10713939207E+03 -0.16686354330E+04  0.17408724986E+04  0.10100000352E+00 0. -1.
</event>
<event>
 5   0  0.1501947E-05  0.2475891E+04  0.7818609E-02  0.8411625E-01
        2   -1    0    0  501    0  0.00000000000E+00  0.00000000000E+00  0.19215259964E+04  0.19215259964E+04  0.25500000920E-02 0.  1.
       -2   -1    0    0    0  501  0.00000000000E+00  0.00000000000E+00 -0.79754794596E+03  0.79754794597E+03  0.25500000920E-02 0. -1.
    10030    2    1    2    0    0  0.00000000000E+00  0.00000000000E+00  0.11239780504E+04  0.27190739424E+04  0.24758910409E+04 0.  0.
        3    1    3    3  502    0  0.66899355268E+03  0.27840210817E+03 -0.54031406108E+03  0.90388019237E+03  0.10100000352E+00 0. -1.
       -3    1    3    3    0  502 -0.66899355268E+03 -0.27840210817E+03  0.16642921115E+04  0.18151937500E+04  0.10100000352E+00 0.  1.
</event>
<event>
 5   0  0.1501947E-05  0.2536396E+04  0.7818609E-02  0.8390133E-01
       -2   -1    0    0    0  501  0.00000000000E+00  0.00000000000E+00  0.10958655138E+04  0.10958655138E+04  0.25500000920E-02 0. -1.
        2   -1    0    0  501    0  0.00000000000E+00  0.00000000000E+00 -0.14676314546E+04  0.14676314546E+04  0.25500000920E-02 0.  1.
    10030    2    1    2    0    0  0.00000000000E+00  0.00000000000E+00 -0.37176594084E+03  0.25634969685E+04  0.25363964186E+04 0.  0.
        3    1    3    3  502    0  0.52369641632E+02 -0.11762365963E+04  0.29037538607E+03  0.12126800835E+04  0.10100000352E+00 0.  1.
       -3    1    3    3    0  502 -0.52369641632E+02  0.11762365963E+04 -0.66214132691E+03  0.13508168850E+04  0.10100000352E+00 0. -1.
</event>
<event>
 5   0  0.1550483E-05  0.2507922E+04  0.7818609E-02  0.8400169E-01
       -2   -1    0    0    0  501  0.00000000000E+00  0.00000000000E+00  0.77247424823E+03  0.77247424824E+03  0.25500000920E-02 0. -1.
        2   -1    0    0  501    0  0.00000000000E+00  0.00000000000E+00 -0.20355602704E+04  0.20355602704E+04  0.25500000920E-02 0.  1.
    10030    2    1    2    0    0  0.00000000000E+00  0.00000000000E+00 -0.12630860222E+04  0.28080345186E+04  0.25079217608E+04 0.  0.
        5    1    3    3  502    0  0.17214415524E+03  0.21556066179E+03 -0.20011538538E+04  0.20200838710E+04  0.46999998093E+01 0.  1.
       -5    1    3    3    0  502 -0.17214415524E+03 -0.21556066179E+03  0.73806783163E+03  0.78795064768E+03  0.46999998093E+01 0. -1.
</event>
<event>
 5   0  0.6105353E-06  0.2505991E+04  0.7818609E-02  0.8400854E-01
        1   -1    0    0  501    0  0.00000000000E+00  0.00000000000E+00  0.15459514215E+04  0.15459514216E+04  0.50400001928E-02 0. -1.
       -1   -1    0    0    0  501  0.00000000000E+00  0.00000000000E+00 -0.10155546068E+04  0.10155546068E+04  0.50400001928E-02 0.  1.
    10030    2    1    2    0    0  0.00000000000E+00  0.00000000000E+00  0.53039681479E+03  0.25615060283E+04  0.25059912913E+04 0.  0.
        3    1    3    3  502    0 -0.30448301429E+03 -0.22957393597E+02 -0.97694274766E+03  0.10235497498E+04  0.10100000352E+00 0.  1.
       -3    1    3    3    0  502  0.30448301429E+03  0.22957393597E+02  0.15073395624E+04  0.15379562785E+04  0.10100000352E+00 0. -1.
</event>
<event>
 5   0  0.6104486E-06  0.2495100E+04  0.7818609E-02  0.8404733E-01
        1   -1    0    0  501    0  0.00000000000E+00  0.00000000000E+00  0.15361984953E+04  0.15361984953E+04  0.50400001928E-02 0. -1.
       -1   -1    0    0    0  501  0.00000000000E+00  0.00000000000E+00 -0.10131376037E+04  0.10131376037E+04  0.50400001928E-02 0.  1.
    10030    2    1    2    0    0  0.00000000000E+00  0.00000000000E+00  0.52306089156E+03  0.25493360990E+04  0.24950995671E+04 0.  0.
        2    1    3    3  502    0 -0.86352800051E+03 -0.12042754185E+03  0.11732252929E+04  0.14617253464E+04  0.25500000920E-02 0. -1.
       -2    1    3    3    0  502  0.86352800051E+03  0.12042754185E+03 -0.65016440130E+03  0.10876107526E+04  0.25500000920E-02 0.  1.
</event>
<event>
 5   0  0.6346420E-06  0.2483165E+04  0.7818609E-02  0.8409008E-01
       -1   -1    0    0    0  501  0.00000000000E+00  0.00000000000E+00  0.10510505843E+04  0.10510505843E+04  0.50400001928E-02 0.  1.
        1   -1    0    0  501    0  0.00000000000E+00  0.00000000000E+00 -0.14666539975E+04  0.14666539975E+04  0.50400001928E-02 0. -1.
    10030    2    1    2    0    0  0.00000000000E+00  0.00000000000E+00 -0.41560341318E+03  0.25177045818E+04  0.24831653517E+04 0.  0.
        4    1    3    3  502    0  0.45914079671E+03  0.79623542202E+03 -0.10541122828E+04  0.13985547669E+04  0.12699999809E+01 0. -1.
       -4    1    3    3    0  502 -0.45914079671E+03 -0.79623542202E+03  0.63850886963E+03  0.11191498148E+04  0.12699999809E+01 0.  1.
</event>
<event>
 5   0  0.1501947E-05  0.2486915E+04  0.7818609E-02  0.8407662E-01
       -2   -1    0    0    0  501  0.00000000000E+00  0.00000000000E+00  0.77298185283E+03  0.77298185283E+03  0.25500000920E-02 0. -1.
        2   -1    0    0  501    0  0.00000000000E+00  0.00000000000E+00 -0.20002886206E+04  0.20002886206E+04  0.25500000920E-02 0.  1.
    10030    2    1    2    0    0  0.00000000000E+00  0.00000000000E+00 -0.12273067678E+04  0.27732704734E+04  0.24869152009E+04 0.  0.
        3    1    3    3  502    0 -0.69585093119E+03  0.67900174608E+03  0.25080674227E+03  0.10040696797E+04  0.10100000352E+00 0. -1.
       -3    1    3    3    0  502  0.69585093119E+03 -0.67900174608E+03 -0.14781135100E+04  0.17692007937E+04  0.10100000352E+00 0.  1.
</event>
<event>
 5   0  0.1501947E-05  0.2507733E+04  0.7818609E-02  0.8400236E-01
        2   -1    0    0  501    0  0.00000000000E+00  0.00000000000E+00  0.71635558680E+03  0.71635558680E+03  0.25500000920E-02 0. -1.
       -2   -1    0    0    0  501  0.00000000000E+00  0.00000000000E+00 -0.21946939034E+04  0.21946939034E+04  0.25500000920E-02 0.  1.
    10030    2    1    2    0    0  0.00000000000E+00  0.00000000000E+00 -0.14783383166E+04  0.29110494902E+04  0.25077330312E+04 0.  0.
        3    1    3    3  502    0 -0.74179342525E+03 -0.10074824493E+04 -0.83561482972E+03  0.15045034148E+04  0.10100000352E+00 0. -1.
       -3    1    3    3    0  502  0.74179342525E+03  0.10074824493E+04 -0.64272348684E+03  0.14065460753E+04  0.10100000352E+00 0.  1.
</event>
<event>
 5   0  0.1572732E-05  0.2489801E+04  0.7818609E-02  0.8406628E-01
       -2   -1    0    0    0  501  0.00000000000E+00  0.00000000000E+00  0.15081333066E+04  0.15081333066E+04  0.25500000920E-02 0.  1.
        2   -1    0    0  501    0  0.00000000000E+00  0.00000000000E+00 -0.10276131072E+04  0.10276131072E+04  0.25500000920E-02 0. -1.
    10030    2    1    2    0    0  0.00000000000E+00  0.00000000000E+00  0.48052019944E+03  0.25357464138E+04  0.24898012397E+04 0.  0.
        1    1    3    3  502    0 -0.11076349893E+03 -0.60026326830E+03  0.13452669702E+04  0.14772703765E+04  0.50400001928E-02 0.  1.
       -1    1    3    3    0  502  0.11076349893E+03  0.60026326830E+03 -0.86474677080E+03  0.10584760373E+04  0.50400001928E-02 0. -1.
</event>
<event>
 5   0  0.6290861E-06  0.2448379E+04  0.7818609E-02  0.8421610E-01
        1   -1    0    0  501    0  0.00000000000E+00  0.00000000000E+00  0.17127218881E+04  0.17127218881E+04  0.50400001928E-02 0. -1.
       -1   -1    0    0    0  501  0.00000000000E+00  0.00000000000E+00 -0.87500500431E+03  0.87500500433E+03  0.50400001928E-02 0.  1.
    10030    2    1    2    0    0  0.00000000000E+00  0.00000000000E+00  0.83771688379E+03  0.25877268924E+04  0.24483792379E+04 0.  0.
        1    1    3    3  502    0  0.10091471414E+04 -0.26095883593E+03  0.10973963629E+04  0.15135244446E+04  0.50400001928E-02 0. -1.
       -1    1    3    3    0  502 -0.10091471414E+04  0.26095883593E+03 -0.25967947910E+03  0.10742024478E+04  0.50400001928E-02 0.  1.
</event>
<event>
 5   0  0.1526824E-05  0.2531789E+04  0.7818609E-02  0.8391747E-01
        2   -1    0    0  501    0  0.00000000000E+00  0.00000000000E+00  0.11971187035E+04  0.11971187035E+04  0.25500000920E-02 0. -1.
       -2   -1    0    0    0  501  0.00000000000E+00  0.00000000000E+00 -0.13386213371E+04  0.13386213371E+04  0.25500000920E-02 0.  1.
    10030    2    1    2    0    0  0.00000000000E+00  0.00000000000E+00 -0.14150263364E+03  0.25357400406E+04  0.25317888060E+04 0.  0.
        2    1    3    3  502    0  0.10215675698E+04 -0.14000461442E+03 -0.80625905796E+03  0.13089137711E+04  0.25500000920E-02 0.  1.
       -2    1    3    3    0  502 -0.10215675698E+04  0.14000461442E+03  0.66475642432E+03  0.12268262694E+04  0.25500000920E-02 0. -1.
</event>
<event>
 5   0  0.1501947E-05  0.2569978E+04  0.7818609E-02  0.8378471E-01
       -2   -1    0    0    0  501  0.00000000000E+00  0.00000000000E+00  0.12447987174E+04  0.12447987174E+04  0.25500000920E-02 0. -1.
        2   -1    0    0  501    0  0.00000000000E+00  0.00000000000E+00 -0.13264768173E+04  0.13264768173E+04  0.25500000920E-02 0.  1.
    10030    2    1    2    0    0  0.00000000000E+00  0.00000000000E+00 -0.81678099884E+02  0.25712755347E+04  0.25699779305E+04 0.  0.
        3    1    3    3  502    0  0.22873287885E+03 -0.11946917831E+04  0.37360366240E+03  0.12724727476E+04  0.10100000352E+00 0.  1.
       -3    1    3    3    0  502 -0.22873287885E+03  0.11946917831E+04 -0.45528176229E+03  0.12988027871E+04  0.10100000352E+00 0. -1.
</event>
<event>
 5   0  0.6290861E-06  0.2507213E+04  0.7818609E-02  0.8400420E-01
        1   -1    0    0  501    0  0.00000000000E+00  0.00000000000E+00  0.15966755278E+04  0.15966755278E+04  0.50400001928E-02 0.  1.
       -1   -1    0    0    0  501  0.00000000000E+00  0.00000000000E+00 -0.98425074643E+03  0.98425074644E+03  0.50400001928E-02 0. -1.
    10030    2    1    2    0    0  0.00000000000E+00  0.00000000000E+00  0.61242478139E+03  0.25809262743E+04  0.25072128590E+04 0.  0.
        1    1    3    3  502    0  0.12162441570E+04 -0.15858563899E+03  0.57292414281E+03  0.13537508366E+04  0.50400001928E-02 0. -1.
       -1    1    3    3    0  502 -0.12162441570E+04  0.15858563899E+03  0.39500638575E+02  0.12271754376E+04  0.50400001928E-02 0.  1.
</event>
<event>
 5   0  0.1468512E-05  0.2555308E+04  0.7818609E-02  0.8383543E-01
        2   -1    0    0  501    0  0.00000000000E+00  0.00000000000E+00  0.18956184620E+04  0.18956184620E+04  0.25500000920E-02 0. -1.
       -2   -1    0    0    0  501  0.00000000000E+00  0.00000000000E+00 -0.86114353159E+03  0.86114353159E+03  0.25500000920E-02 0.  1.
    10030    2    1    2    0    0  0.00000000000E+00  0.00000000000E+00  0.10344749304E+04  0.27567619936E+04  0.25553078694E+04 0.  0.
        4    1    3    3  502    0 -0.53099040523E+03 -0.45458235902E+03 -0.63656502574E+03  0.94541661529E+03  0.12699999809E+01 0.  1.
       -4    1    3    3    0  502  0.53099040523E+03  0.45458235902E+03  0.16710399561E+04  0.18113453783E+04  0.12699999809E+01 0. -1.
</event>
<event>
 5   0  0.5164625E-06  0.2485031E+04  0.7818609E-02  0.8408338E-01
       -3   -1    0    0    0  501  0.00000000000E+00  0.00000000000E+00  0.15445137449E+04  0.15445137482E+04  0.10100000352E+00 0.  1.
        3   -1    0    0  501    0  0.00000000000E+00  0.00000000000E+00 -0.99956672034E+03  0.99956672544E+03  0.10100000352E+00 0. -1.
    10030    2    1    2    0    0  0.00000000000E+00  0.00000000000E+00  0.54494702456E+03  0.25440804737E+04  0.24850308241E+04 0.  0.
        4    1    3    3  502    0  0.64161002667E+03  0.10072638966E+04  0.62354922916E+03  0.13472413436E+04  0.12699999809E+01 0.  1.
       -4    1    3    3    0  502 -0.64161002667E+03 -0.10072638966E+04 -0.78602204600E+02  0.11968391301E+04  0.12699999809E+01 0. -1.
</event>
<event>
 5   0  0.1550483E-05  0.2500029E+04  0.7818609E-02  0.8402975E-01
       -2   -1    0    0    0  501  0.00000000000E+00  0.00000000000E+00  0.75910683848E+03  0.75910683848E+03  0.25500000920E-02 0. -1.
        2   -1    0    0  501    0  0.00000000000E+00  0.00000000000E+00 -0.20583873647E+04  0.20583873647E+04  0.25500000920E-02 0.  1.
    10030    2    1    2    0    0  0.00000000000E+00  0.00000000000E+00 -0.12992805263E+04  0.28174942032E+04  0.25000287397E+04 0.  0.
        5    1    3    3  502    0 -0.87802948780E+03  0.76148422228E+03 -0.11682000091E+04  0.16478796538E+04  0.46999998093E+01 0.  1.
       -5    1    3    3    0  502  0.87802948780E+03 -0.76148422228E+03 -0.13108051720E+03  0.11696145494E+04  0.46999998093E+01 0. -1.
</event>
<event>
 5   0  0.1468512E-05  0.2507798E+04  0.7818609E-02  0.8400213E-01
        2   -1    0    0  501    0  0.00000000000E+00  0.00000000000E+00  0.11573374056E+04  0.11573374057E+04  0.25500000920E-02 0.  1.
       -2   -1    0    0    0  501  0.00000000000E+00  0.00000000000E+00 -0.13585170287E+04  0.13585170287E+04  0.25500000920E-02 0. -1.
    10030    2    1    2    0    0  0.00000000000E+00  0.00000000000E+00 -0.20117962307E+03  0.25158544344E+04  0.25077978974E+04 0.  0.
        4    1    3    3  502    0  0.19466960941E+03 -0.15317332342E+03  0.11325468656E+04  0.11593197745E+04  0.12699999809E+01 0.  1.
       -4    1    3    3    0  502 -0.19466960941E+03  0.15317332342E+03 -0.13337264887E+04  0.13565346599E+04  0.12699999809E+01 0. -1.
</event>
<event>
 5   0  0.1501947E-05  0.2507638E+04  0.7818609E-02  0.8400269E-01
       -2   -1    0    0    0  501  0.00000000000E+00  0.00000000000E+00  0.95409639270E+03  0.95409639270E+03  0.25500000920E-02 0. -1.
        2   -1    0    0  501    0  0.00000000000E+00  0.00000000000E+00 -0.16476977542E+04  0.16476977542E+04  0.25500000920E-02 0.  1.
    10030    2    1    2    0    0  0.00000000000E+00  0.00000000000E+00 -0.69360136154E+03  0.26017941469E+04  0.25076383181E+04 0.  0.
        3    1    3    3  502    0 -0.38256357302E+03  0.10584601115E+04  0.22655096286E+03  0.11480496696E+04  0.10100000352E+00 0. -1.
       -3    1    3    3    0  502  0.38256357302E+03 -0.10584601115E+04 -0.92015232440E+03  0.14537444773E+04  0.10100000352E+00 0.  1.
</event>
<event>
 5   0  0.1501947E-05  0.2501053E+04  0.7818609E-02  0.8402610E-01
       -2   -1    0    0    0  501  0.00000000000E+00  0.00000000000E+00  0.76159334928E+03  0.76159334929E+03  0.25500000920E-02 0.  1.
        2   -1    0    0  501    0  0.00000000000E+00  0.00000000000E+00 -0.20533486290E+04  0.20533486290E+04  0.25500000920E-02 0. -1.
    10030    2    1    2    0    0  0.00000000000E+00  0.00000000000E+00 -0.12917552797E+04  0.28149419783E+04  0.25010531059E+04 0.  0.
        3    1    3    3  502    0 -0.11628277484E+04 -0.35130004330E+03 -0.98020414584E+03  0.15608908580E+04  0.10100000352E+00 0. -1.
       -3    1    3    3    0  502  0.11628277484E+04  0.35130004330E+03 -0.31155113387E+03  0.12540511202E+04  0.10100000352E+00 0.  1.
</event>
<event>
 5   0  0.1468512E-05  0.2513660E+04  0.7818609E-02  0.8398135E-01
        2   -1    0    0  501    0  0.00000000000E+00  0.00000000000E+00  0.16254847927E+04  0.16254847927E+04  0.25500000920E-02 0. -1.
       -2   -1    0    0    0  501  0.00000000000E+00  0.00000000000E+00 -0.97178471165E+03  0.97178471166E+03  0.25500000920E-02 0.  1.
    10030    2    1    2    0    0  0.00000000000E+00  0.00000000000E+00  0.65370008100E+03  0.25972695043E+04  0.25136596989E+04 0.  0.
        4    1    3    3  502    0 -0.79971645357E+03 -0.79681989326E+02  0.13252850537E+04  0.15499282925E+04  0.12699999809E+01 0. -1.
       -4    1    3    3    0  502  0.79971645357E+03  0.79681989326E+02 -0.67158497266E+03  0.10473412118E+04  0.12699999809E+01 0.  1.
</event>
<event>
 5   0  0.1501947E-05  0.2480860E+04  0.7818609E-02  0.8409836E-01
        2   -1    0    0  501    0  0.00000000000E+00  0.00000000000E+00  0.19380907539E+04  0.19380907539E+04  0.25500000920E-02 0. -1.
       -2   -1    0    0    0  501  0.00000000000E+00  0.00000000000E+00 -0.79390847094E+03  0.79390847094E+03  0.25500000920E-02 0.  1.
    10030    2    1    2    0    0  0.00000000000E+00  0.00000000000E+00  0.11441822829E+04  0.27319992248E+04  0.24808600661E+04 0.  0.
        3    1    3    3  502    0  0.11460226229E+04 -0.16138365563E+03  0.80525003347E+02  0.11601279339E+04  0.10100000352E+00 0.  1.
       -3    1    3    3    0  502 -0.11460226229E+04  0.16138365563E+03  0.10636572796E+04  0.15718712909E+04  0.10100000352E+00 0. -1.
</event>
<event>
 5   0  0.6477703E-06  0.2227450E+04  0.7818609E-02  0.8507089E-01
       -1   -1    0    0    0  501  0.00000000000E+00  0.00000000000E+00  0.97052748241E+03  0.97052748242E+03  0.50400001928E-02 0.  1.
        1   -1    0    0  501    0  0.00000000000E+00  0.00000000000E+00 -0.12780504351E+04  0.12780504351E+04  0.50400001928E-02 0. -1.
    10030    2    1    2    0    0  0.00000000000E+00  0.00000000000E+00 -0.30752295268E+03  0.22485779175E+04  0.22274497266E+04 0.  0.
        5    1    3    3  502    0  0.21293991687E+03 -0.18043560556E+03 -0.12421630098E+04  0.12731423521E+04  0.46999998093E+01 0. -1.
       -5    1    3    3    0  502 -0.21293991687E+03  0.18043560556E+03  0.93464005708E+03  0.97543556540E+03  0.46999998093E+01 0.  1.
</event>
<event>
 5   0  0.1572732E-05  0.2491296E+04  0.7818609E-02  0.8406093E-01
       -2   -1    0    0    0  501  0.00000000000E+00  0.00000000000E+00  0.65692400485E+03  0.65692400485E+03  0.25500000920E-02 0.  1.
        2   -1    0    0  501    0  0.00000000000E+00  0.00000000000E+00 -0.23619762062E+04  0.23619762062E+04  0.25500000920E-02 0. -1.
    10030    2    1    2    0    0  0.00000000000E+00  0.00000000000E+00 -0.17050522013E+04  0.30189002110E+04  0.24912959428E+04 0.  0.
        1    1    3    3  502    0 -0.17077456167E+03  0.58514905772E+03 -0.21688971840E+04  0.22529266223E+04  0.50400001928E-02 0. -1.
       -1    1    3    3    0  502  0.17077456167E+03 -0.58514905772E+03  0.46384498267E+03  0.76597358873E+03  0.50400001928E-02 0.  1.
</event>
<event>
 5   0  0.6105353E-06  0.2506351E+04  0.7818609E-02  0.8400726E-01
       -1   -1    0    0    0  501  0.00000000000E+00  0.00000000000E+00  0.88762797939E+03  0.88762797940E+03  0.50400001928E-02 0. -1.
        1   -1    0    0  501    0  0.00000000000E+00  0.00000000000E+00 -0.17692649692E+04  0.17692649692E+04  0.50400001928E-02 0.  1.
    10030    2    1    2    0    0  0.00000000000E+00  0.00000000000E+00 -0.88163698985E+03  0.26568929487E+04  0.25063512042E+04 0.  0.
        3    1    3    3  502    0  0.13944161239E+03 -0.50196692818E+03 -0.16490285393E+04  0.17293669055E+04  0.10100000352E+00 0.  1.
       -3    1    3    3    0  502 -0.13944161239E+03  0.50196692818E+03  0.76739154947E+03  0.92752604311E+03  0.10100000352E+00 0. -1.
</event>
<event>
 5   0  0.1468512E-05  0.2417802E+04  0.7818609E-02  0.8432869E-01
        2   -1    0    0  501    0  0.00000000000E+00  0.00000000000E+00  0.31604820810E+04  0.31604820810E+04  0.25500000920E-02 0.  1.
       -2   -1    0    0    0  501  0.00000000000E+00  0.00000000000E+00 -0.46241107158E+03  0.46241107159E+03  0.25500000920E-02 0. -1.
    10030    2    1    2    0    0  0.00000000000E+00  0.00000000000E+00  0.26980710094E+04  0.36228931526E+04  0.24178022300E+04 0.  0.
        4    1    3    3  502    0 -0.41174556280E+03  0.16534964950E+03 -0.33598579773E+03  0.55656354915E+03  0.12699999809E+01 0. -1.
       -4    1    3    3    0  502  0.41174556280E+03 -0.16534964950E+03  0.30340568071E+04  0.30663296034E+04  0.12699999809E+01 0.  1.
</event>
<event>
 5   0  0.1468512E-05  0.2508676E+04  0.7818609E-02  0.8399901E-01
        2   -1    0    0  501    0  0.00000000000E+00  0.00000000000E+00  0.14416016341E+04  0.14416016341E+04  0.25500000920E-02 0.  1.
       -2   -1    0    0    0  501  0.00000000000E+00  0.00000000000E+00 -0.10913996586E+04  0.10913996586E+04  0.25500000920E-02 0. -1.
    10030    2    1    2    0    0  0.00000000000E+00  0.00000000000E+00  0.35020197552E+03  0.25330012927E+04  0.25086757713E+04 0.  0.
        4    1    3    3  502    0  0.13288129970E+03 -0.90868632337E+03  0.10377823501E+04  0.13857712990E+04  0.12699999809E+01 0.  1.
       -4    1    3    3    0  502 -0.13288129970E+03  0.90868632337E+03 -0.68758037459E+03  0.11472299937E+04  0.12699999809E+01 0. -1.
</event>
<event>
 5   0  0.1468512E-05  0.2491863E+04  0.7818609E-02  0.8405890E-01
        2   -1    0    0  501    0  0.00000000000E+00  0.00000000000E+00  0.14526609759E+04  0.14526609759E+04  0.25500000920E-02 0.  1.
       -2   -1    0    0    0  501  0.00000000000E+00  0.00000000000E+00 -0.10686215050E+04  0.10686215050E+04  0.25500000920E-02 0. -1.
    10030    2    1    2    0    0  0.00000000000E+00  0.00000000000E+00  0.38403947096E+03  0.25212824809E+04  0.24918625631E+04 0.  0.
        4    1    3    3  502    0  0.31097852032E+03 -0.12042879658E+04  0.26586081480E+03  0.12718886470E+04  0.12699999809E+01 0. -1.
       -4    1    3    3    0  502 -0.31097852032E+03  0.12042879658E+04  0.11817865617E+03  0.12493938339E+04  0.12699999809E+01 0.  1.
</event>
<event>
 5   0  0.1572732E-05  0.2478118E+04  0.7818609E-02  0.8410823E-01
       -2   -1    0    0    0  501  0.00000000000E+00  0.00000000000E+00  0.13600979977E+04  0.13600979977E+04  0.25500000920E-02 0. -1.
        2   -1    0    0  501    0  0.00000000000E+00  0.00000000000E+00 -0.11287912248E+04  0.11287912248E+04  0.25500000920E-02 0.  1.
    10030    2    1    2    0    0  0.00000000000E+00  0.00000000000E+00  0.23130677295E+03  0.24888892225E+04  0.24781175797E+04 0.  0.
        1    1    3    3  502    0 -0.45955352746E+03  0.10102599503E+04 -0.43760590059E+03  0.11930270475E+04  0.50400001928E-02 0.  1.
       -1    1    3    3    0  502  0.45955352746E+03 -0.10102599503E+04  0.66891267355E+03  0.12958621750E+04  0.50400001928E-02 0. -1.
</event>
<event>
 5   0  0.6346420E-06  0.2493290E+04  0.7818609E-02  0.8405380E-01
       -1   -1    0    0    0  501  0.00000000000E+00  0.00000000000E+00  0.93325779438E+03  0.93325779439E+03  0.50400001928E-02 0. -1.
        1   -1    0    0  501    0  0.00000000000E+00  0.00000000000E+00 -0.16652671305E+04  0.16652671305E+04  0.50400001928E-02 0.  1.
    10030    2    1    2    0    0  0.00000000000E+00  0.00000000000E+00 -0.73200933615E+03  0.25985249249E+04  0.24932898181E+04 0.  0.
        4    1    3    3  502    0 -0.34455244032E+03  0.11894384939E+04 -0.51574052725E+03  0.13414433343E+04  0.12699999809E+01 0.  1.
       -4    1    3    3    0  502  0.34455244032E+03 -0.11894384939E+04 -0.21626880890E+03  0.12570815906E+04  0.12699999809E+01 0. -1.
</event>
<event>
 5   0  0.6477703E-06  0.2226182E+04  0.7818609E-02  0.8507609E-01
       -1   -1    0    0    0  501  0.00000000000E+00  0.00000000000E+00  0.10570992470E+04  0.10570992470E+04  0.50400001928E-02 0.  1.
        1   -1    0    0  501    0  0.00000000000E+00  0.00000000000E+00 -0.11720480591E+04  0.11720480591E+04  0.50400001928E-02 0. -1.
    10030    2    1    2    0    0  0.00000000000E+00  0.00000000000E+00 -0.11494881217E+03  0.22291473061E+04  0.22261815925E+04 0.  0.
        5    1    3    3  502    0 -0.49657217186E+03  0.61198960395E+02 -0.10530926182E+04  0.11659139707E+04  0.46999998093E+01 0. -1.
       -5    1    3    3    0  502  0.49657217186E+03 -0.61198960395E+02  0.93814380605E+03  0.10632333354E+04  0.46999998093E+01 0.  1.
</event>
<event>
 5   0  0.1468512E-05  0.2517151E+04  0.7818609E-02  0.8396901E-01
        2   -1    0    0  501    0  0.00000000000E+00  0.00000000000E+00  0.19448843760E+04  0.19448843760E+04  0.25500000920E-02 0.  1.
       -2   -1    0    0    0  501  0.00000000000E+00  0.00000000000E+00 -0.81445081080E+03  0.81445081081E+03  0.25500000920E-02 0. -1.
    10030    2    1    2    0    0  0.00000000000E+00  0.00000000000E+00  0.11304335652E+04  0.27593351868E+04  0.25171512922E+04 0.  0.
        4    1    3    3  502    0 -0.47004380650E+02 -0.24136697686E+03  0.19182940116E+04  0.19339909403E+04  0.12699999809E+01 0.  1.
       -4    1    3    3    0  502  0.47004380650E+02  0.24136697686E+03 -0.78786044641E+03  0.82534424650E+03  0.12699999809E+01 0. -1.
</event>
<event>
 5   0  0.1572732E-05  0.2426558E+04  0.7818609E-02  0.8429627E-01
        2   -1    0    0  501    0  0.00000000000E+00  0.00000000000E+00  0.13659408263E+04  0.13659408263E+04  0.25500000920E-02 0. -1.
       -2   -1    0    0    0  501  0.00000000000E+00  0.00000000000E+00 -0.10776791727E+04  0.10776791727E+04  0.25500000920E-02 0.  1.
    10030    2    1    2    0    0  0.00000000000E+00  0.00000000000E+00  0.28826165353E+03  0.24436199990E+04  0.24265580394E+04 0.  0.
        1    1    3    3  502    0  0.50550214853E+03 -0.28996937939E+03 -0.92750919093E+03  0.10953939759E+04  0.50400001928E-02 0.  1.
       -1    1    3    3    0  502 -0.50550214853E+03  0.28996937939E+03  0.12157708445E+04  0.13482260231E+04  0.50400001928E-02 0. -1.
</event>
<event>
 5   0  0.1526824E-05  0.2514588E+04  0.7818609E-02  0.8397807E-01
        2   -1    0    0  501    0  0.00000000000E+00  0.00000000000E+00  0.14425838507E+04  0.14425838507E+04  0.25500000920E-02 0.  1.
       -2   -1    0    0    0  501  0.00000000000E+00  0.00000000000E+00 -0.10958035754E+04  0.10958035754E+04  0.25500000920E-02 0. -1.
    10030    2    1    2    0    0  0.00000000000E+00  0.00000000000E+00  0.34678027526E+03  0.25383874261E+04  0.25145882696E+04 0.  0.
        2    1    3    3  502    0  0.11914107420E+04  0.42516019884E+02 -0.22979123806E+03  0.12141133313E+04  0.25500000920E-02 0.  1.
       -2    1    3    3    0  502 -0.11914107420E+04 -0.42516019884E+02  0.57657151331E+03  0.13242740948E+04  0.25500000920E-02 0. -1.
</event>
<event>
 5   0  0.1550483E-05  0.2508873E+04  0.7818609E-02  0.8399831E-01
        2   -1    0    0  501    0  0.00000000000E+00  0.00000000000E+00  0.71020474519E+03  0.71020474519E+03  0.25500000920E-02 0. -1.
       -2   -1    0    0    0  501  0.00000000000E+00  0.00000000000E+00 -0.22157148206E+04  0.22157148206E+04  0.25500000920E-02 0.  1.
    10030    2    1    2    0    0  0.00000000000E+00  0.00000000000E+00 -0.15055100754E+04  0.29259195658E+04  0.25088731969E+04 0.  0.
        5    1    3    3  502    0  0.58068374806E+02 -0.71062393453E+03 -0.19564197378E+04  0.20822964709E+04  0.46999998093E+01 0.  1.
       -5    1    3    3    0  502 -0.58068374806E+02  0.71062393453E+03  0.45090966241E+03  0.84362309483E+03  0.46999998093E+01 0. -1.
</event>
<event>
 5   0  0.1526824E-05  0.2491210E+04  0.7818609E-02  0.8406124E-01
        2   -1    0    0  501    0  0.00000000000E+00  0.00000000000E+00  0.18362362352E+04  0.18362362352E+04  0.25500000920E-02 0.  1.
       -2   -1    0    0    0  501  0.00000000000E+00  0.00000000000E+00 -0.84495215612E+03  0.84495215613E+03  0.25500000920E-02 0. -1.
    10030    2    1    2    0    0  0.00000000000E+00  0.00000000000E+00  0.99128407905E+03  0.26811883913E+04  0.24912099599E+04 0.  0.
        2    1    3    3  502    0  0.39145739490E+03  0.10959703656E+04  0.17775752496E+02  0.11639183441E+04  0.25500000920E-02 0. -1.
       -2    1    3    3    0  502 -0.39145739490E+03 -0.10959703656E+04  0.97350832655E+03  0.15172700472E+04  0.25500000920E-02 0.  1.
</event>
<event>
 5   0  0.6105353E-06  0.2513745E+04  0.7818609E-02  0.8398105E-01
        1   -1    0    0  501    0  0.00000000000E+00  0.00000000000E+00  0.13418183673E+04  0.13418183673E+04  0.50400001928E-02 0. -1.
       -1   -1    0    0    0  501  0.00000000000E+00  0.00000000000E+00 -0.11773039570E+04  0.11773039570E+04  0.50400001928E-02 0.  1.
    10030    2    1    2    0    0  0.00000000000E+00  0.00000000000E+00  0.16451441035E+03  0.25191223243E+04  0.25137446755E+04 0.  0.
        3    1    3    3  502    0 -0.11709336572E+04  0.21938345788E+03 -0.31924103678E+03  0.12333408211E+04  0.10100000352E+00 0.  1.
       -3    1    3    3    0  502  0.11709336572E+04 -0.21938345788E+03  0.48375544713E+03  0.12857815032E+04  0.10100000352E+00 0. -1.
</event>
<event>
 5   0  0.1572732E-05  0.2483910E+04  0.7818609E-02  0.8408740E-01
       -2   -1    0    0    0  501  0.00000000000E+00  0.00000000000E+00  0.12854217231E+04  0.12854217231E+04  0.25500000920E-02 0. -1.
        2   -1    0    0  501    0  0.00000000000E+00  0.00000000000E+00 -0.11999579481E+04  0.11999579481E+04  0.25500000920E-02 0.  1.
    10030    2    1    2    0    0  0.00000000000E+00  0.00000000000E+00  0.85463774941E+02  0.24853796712E+04  0.24839098319E+04 0.  0.
        1    1    3    3  502    0  0.66604731429E+03 -0.11080501291E+03  0.10857283129E+04  0.12785549442E+04  0.50400001928E-02 0. -1.
       -1    1    3    3    0  502 -0.66604731429E+03  0.11080501291E+03 -0.10002645380E+04  0.12068247270E+04  0.50400001928E-02 0.  1.
</event>
<event>
 5   0  0.6104486E-06  0.2572304E+04  0.7818609E-02  0.8377670E-01
        1   -1    0    0  501    0  0.00000000000E+00  0.00000000000E+00  0.11490530480E+04  0.11490530480E+04  0.50400001928E-02 0.  1.
       -1   -1    0    0    0  501  0.00000000000E+00  0.00000000000E+00 -0.14396094229E+04  0.14396094229E+04  0.50400001928E-02 0. -1.
    10030    2    1    2    0    0  0.00000000000E+00  0.00000000000E+00 -0.29055637491E+03  0.25886624710E+04  0.25723044885E+04 0.  0.
        2    1    3    3  502    0  0.70104069339E+03  0.19478906459E+03  0.92202584483E+03  0.11745350110E+04  0.25500000920E-02 0.  1.
       -2    1    3    3    0  502 -0.70104069339E+03 -0.19478906459E+03 -0.12125822197E+04  0.14141274600E+04  0.25500000920E-02 0. -1.
</event>
<event>
 5   0  0.6346420E-06  0.2729897E+04  0.7818609E-02  0.8325369E-01
        1   -1    0    0  501    0  0.00000000000E+00  0.00000000000E+00  0.99417249290E+03  0.99417249292E+03  0.50400001928E-02 0.  1.
       -1   -1    0    0    0  501  0.00000000000E+00  0.00000000000E+00 -0.18740055188E+04  0.18740055188E+04  0.50400001928E-02 0. -1.
    10030    2    1    2    0    0  0.00000000000E+00  0.00000000000E+00 -0.87983302591E+03  0.28681780117E+04  0.27298972423E+04 0.  0.
        4    1    3    3  502    0 -0.13614437943E+04  0.40282258661E+01 -0.54252457657E+03  0.14655647242E+04  0.12699999809E+01 0. -1.
       -4    1    3    3    0  502  0.13614437943E+04 -0.40282258661E+01 -0.33730844934E+03  0.14026132876E+04  0.12699999809E+01 0.  1.
</event>
<event>
 5   0  0.1501947E-05  0.2491180E+04  0.7818609E-02  0.8406134E-01
       -2   -1    0    0    0  501  0.00000000000E+00  0.00000000000E+00  0.82265815400E+03  0.82265815400E+03  0.25500000920E-02 0.  1.
        2   -1    0    0  501    0  0.00000000000E+00  0.00000000000E+00 -0.18859534546E+04  0.18859534546E+04  0.25500000920E-02 0. -1.
    10030    2    1    2    0    0  0.00000000000E+00  0.00000000000E+00 -0.10632953006E+04  0.27086116086E+04  0.24911804330E+04 0.  0.
        3    1    3    3  502    0 -0.94432969511E+02 -0.46207559494E+03  0.72182373116E+03  0.86224181657E+03  0.10100000352E+00 0.  1.
       -3    1    3    3    0  502  0.94432969511E+02  0.46207559494E+03 -0.17851190318E+04  0.18463697920E+04  0.10100000352E+00 0. -1.
</event>
<event>
 5   0  0.1550483E-05  0.2479637E+04  0.7818609E-02  0.8410276E-01
        2   -1    0    0  501    0  0.00000000000E+00  0.00000000000E+00  0.11859831447E+04  0.11859831447E+04  0.25500000920E-02 0. -1.
       -2   -1    0    0    0  501  0.00000000000E+00  0.00000000000E+00 -0.12960980458E+04  0.12960980458E+04  0.25500000920E-02 0.  1.
    10030    2    1    2    0    0  0.00000000000E+00  0.00000000000E+00 -0.11011490111E+03  0.24820811905E+04  0.24796374220E+04 0.  0.
        5    1    3    3  502    0  0.81840442490E+03  0.58891141633E+03 -0.77724328906E+03  0.12730796045E+04  0.46999998093E+01 0.  1.
       -5    1    3    3    0  502 -0.81840442490E+03 -0.58891141633E+03  0.66712838796E+03  0.12090015860E+04  0.46999998093E+01 0. -1.
</event>
<event>
 5   0  0.1550483E-05  0.2495620E+04  0.7818609E-02  0.8404548E-01
       -2   -1    0    0    0  501  0.00000000000E+00  0.00000000000E+00  0.65371713984E+03  0.65371713984E+03  0.25500000920E-02 0.  1.
        2   -1    0    0  501    0  0.00000000000E+00  0.00000000000E+00 -0.23818091878E+04  0.23818091878E+04  0.25500000920E-02 0. -1.
    10030    2    1    2    0    0  0.00000000000E+00  0.00000000000E+00 -0.17280920479E+04  0.30355263276E+04  0.24956197546E+04 0.  0.
        5    1    3    3  502    0 -0.88457794397E+03  0.33364216000E+03  0.12651636184E+03  0.95384679572E+03  0.46999998093E+01 0.  1.
       -5    1    3    3    0  502  0.88457794397E+03 -0.33364216000E+03 -0.18546084098E+04  0.20816795319E+04  0.46999998093E+01 0. -1.
</event>
<event>
 5   0  0.1572732E-05  0.2503461E+04  0.7818609E-02  0.8401754E-01
       -2   -1    0    0    0  501  0.00000000000E+00  0.00000000000E+00  0.10143131147E+04  0.10143131147E+04  0.25500000920E-02 0. -1.
        2   -1    0    0  501    0  0.00000000000E+00  0.00000000000E+00 -0.15447191908E+04  0.15447191908E+04  0.25500000920E-02 0.  1.
    10030    2    1    2    0    0  0.00000000000E+00  0.00000000000E+00 -0.53040607612E+03  0.25590323055E+04  0.25034607517E+04 0.  0.
        1    1    3    3  502    0  0.73213197372E+03  0.10148477277E+04 -0.23460880031E+03  0.12731749395E+04  0.50400001928E-02 0. -1.
       -1    1    3    3    0  502 -0.73213197372E+03 -0.10148477277E+04 -0.29579727581E+03  0.12858573660E+04  0.50400001928E-02 0.  1.
</event>
<event>
 5   0  0.6346420E-06  0.2495935E+04  0.7818609E-02  0.8404435E-01
        1   -1    0    0  501    0  0.00000000000E+00  0.00000000000E+00  0.15510236359E+04  0.15510236359E+04  0.50400001928E-02 0. -1.
       -1   -1    0    0    0  501  0.00000000000E+00  0.00000000000E+00 -0.10041259355E+04  0.10041259355E+04  0.50400001928E-02 0.  1.
    10030    2    1    2    0    0  0.00000000000E+00  0.00000000000E+00  0.54689770039E+03  0.25551495714E+04  0.24959351429E+04 0.  0.
        4    1    3    3  502    0  0.81761534412E+03 -0.47665520553E+02  0.12374116311E+04  0.14838989219E+04  0.12699999809E+01 0. -1.
       -4    1    3    3    0  502 -0.81761534412E+03  0.47665520553E+02 -0.69051393068E+03  0.10712506496E+04  0.12699999809E+01 0.  1.
</event>
<event>
 5   0  0.5164625E-06  0.2507961E+04  0.7818609E-02  0.8400155E-01
       -3   -1    0    0    0  501  0.00000000000E+00  0.00000000000E+00  0.20356638413E+04  0.20356638438E+04  0.10100000352E+00 0. -1.
        3   -1    0    0  501    0  0.00000000000E+00  0.00000000000E+00 -0.77245911166E+03  0.77245911827E+03  0.10100000352E+00 0.  1.
    10030    2    1    2    0    0  0.00000000000E+00  0.00000000000E+00  0.12632047296E+04  0.28081229620E+04  0.25079610007E+04 0.  0.
        2    1    3    3  502    0 -0.17460530409E+03  0.31744924719E+03 -0.71258058237E+03  0.79939484808E+03  0.25500000920E-02 0.  1.
       -2    1    3    3    0  502  0.17460530409E+03 -0.31744924719E+03  0.19757853120E+04  0.20087281140E+04  0.25500000920E-02 0. -1.
</event>
<event>
 5   0  0.1550483E-05  0.2502199E+04  0.7818609E-02  0.8402203E-01
       -2   -1    0    0    0  501  0.00000000000E+00  0.00000000000E+00  0.19591105780E+04  0.19591105780E+04  0.25500000920E-02 0.  1.
        2   -1    0    0  501    0  0.00000000000E+00  0.00000000000E+00 -0.79895955326E+03  0.79895955326E+03  0.25500000920E-02 0. -1.
    10030    2    1    2    0    0  0.00000000000E+00  0.00000000000E+00  0.11601510248E+04  0.27580701313E+04  0.25021991225E+04 0.  0.
        5    1    3    3  502    0 -0.20212283538E+03 -0.84085930272E+03 -0.41643563550E+03  0.95986391539E+03  0.46999998093E+01 0. -1.
       -5    1    3    3    0  502  0.20212283538E+03  0.84085930272E+03  0.15765866603E+04  0.17982062159E+04  0.46999998093E+01 0.  1.
</event>
<event>
 5   0  0.1526824E-05  0.2519554E+04  0.7818609E-02  0.8396052E-01
       -2   -1    0    0    0  501  0.00000000000E+00  0.00000000000E+00  0.74739887064E+03  0.74739887064E+03  0.25500000920E-02 0. -1.
        2   -1    0    0  501    0  0.00000000000E+00  0.00000000000E+00 -0.21234149751E+04  0.21234149751E+04  0.25500000920E-02 0.  1.
    10030    2    1    2    0    0  0.00000000000E+00  0.00000000000E+00 -0.13760161045E+04  0.28708138458E+04  0.25195538925E+04 0.  0.
        2    1    3    3  502    0  0.10924209374E+04 -0.95787217872E+02 -0.13945172791E+04  0.17740454158E+04  0.25500000920E-02 0.  1.
       -2    1    3    3    0  502 -0.10924209374E+04  0.95787217872E+02  0.18501174655E+02  0.10967684300E+04  0.25500000920E-02 0. -1.
</event>
<event>
 5   0  0.1501947E-05  0.2465696E+04  0.7818609E-02  0.8415309E-01
        2   -1    0    0  501    0  0.00000000000E+00  0.00000000000E+00  0.15780648153E+04  0.15780648153E+04  0.25500000920E-02 0.  1.
       -2   -1    0    0    0  501  0.00000000000E+00  0.00000000000E+00 -0.96315070109E+03  0.96315070109E+03  0.25500000920E-02 0. -1.
    10030    2    1    2    0    0  0.00000000000E+00  0.00000000000E+00  0.61491411418E+03  0.25412155164E+04  0.24656960341E+04 0.  0.
        3    1    3    3  502    0  0.10758847139E+04  0.31220978294E+02 -0.31213091615E+03  0.11206821075E+04  0.10100000352E+00 0.  1.
       -3    1    3    3    0  502 -0.10758847139E+04 -0.31220978294E+02  0.92704503033E+03  0.14205334088E+04  0.10100000352E+00 0. -1.
</event>
<event>
 5   0  0.6290861E-06  0.2506086E+04  0.7818609E-02  0.8400820E-01
       -1   -1    0    0    0  501  0.00000000000E+00  0.00000000000E+00  0.11720446014E+04  0.11720446014E+04  0.50400001928E-02 0.  1.
        1   -1    0    0  501    0  0.00000000000E+00  0.00000000000E+00 -0.13396394120E+04  0.13396394120E+04  0.50400001928E-02 0. -1.
    10030    2    1    2    0    0  0.00000000000E+00  0.00000000000E+00 -0.16759481063E+03  0.25116840134E+04  0.25060863039E+04 0.  0.
        1    1    3    3  502    0  0.47474727769E+03  0.89044763803E+03  0.66071795978E+03  0.12061634202E+04  0.50400001928E-02 0.  1.
       -1    1    3    3    0  502 -0.47474727769E+03 -0.89044763803E+03 -0.82831277041E+03  0.13055205932E+04  0.50400001928E-02 0. -1.
</event>
<event>
 5   0  0.1501947E-05  0.2507519E+04  0.7818609E-02  0.8400312E-01
        2   -1    0    0  501    0  0.00000000000E+00  0.00000000000E+00  0.12689839609E+04  0.12689839609E+04  0.25500000920E-02 0. -1.
       -2   -1    0    0    0  501  0.00000000000E+00  0.00000000000E+00 -0.12387176554E+04  0.12387176554E+04  0.25500000920E-02 0.  1.
    10030    2    1    2    0    0  0.00000000000E+00  0.00000000000E+00  0.30266305474E+02  0.25077016163E+04  0.25075189625E+04 0.  0.
        3    1    3    3  502    0 -0.97158142410E+03  0.78472226206E+03 -0.95117039846E+02  0.12525201610E+04  0.10100000352E+00 0.  1.
       -3    1    3    3    0  502  0.97158142410E+03 -0.78472226206E+03  0.12538334532E+03  0.12551814553E+04  0.10100000352E+00 0. -1.
</event>
<event>
 5   0  0.1550483E-05  0.2491832E+04  0.7818609E-02  0.8405901E-01
       -2   -1    0    0    0  501  0.00000000000E+00  0.00000000000E+00  0.13073365185E+04  0.13073365185E+04  0.25500000920E-02 0. -1.
        2   -1    0    0  501    0  0.00000000000E+00  0.00000000000E+00 -0.11873813165E+04  0.11873813165E+04  0.25500000920E-02 0.  1.
    10030    2    1    2    0    0  0.00000000000E+00  0.00000000000E+00  0.11995520202E+03  0.24947178351E+04  0.24918322227E+04 0.  0.
        5    1    3    3  502    0  0.10907543244E+04  0.40446225151E+03 -0.38657721551E+03  0.12258869208E+04  0.46999998093E+01 0. -1.
       -5    1    3    3    0  502 -0.10907543244E+04 -0.40446225151E+03  0.50653241753E+03  0.12688309143E+04  0.46999998093E+01 0.  1.
</event>
<event>
 5   0  0.6290861E-06  0.2509940E+04  0.7818609E-02  0.8399453E-01
        1   -1    0    0  501    0  0.00000000000E+00  0.00000000000E+00  0.12506096428E+04  0.12506096429E+04  0.50400001928E-02 0.  1.
       -1   -1    0    0    0  501  0.00000000000E+00  0.00000000000E+00 -0.12593458504E+04  0.12593458504E+04  0.50400001928E-02 0. -1.
    10030    2    1    2    0    0  0.00000000000E+00  0.00000000000E+00 -0.87362075170E+01  0.25099554932E+04  0.25099402895E+04 0.  0.
        1    1    3    3  502    0  0.11927433515E+04 -0.38166959250E+03  0.77128916031E+02  0.12546940863E+04  0.50400001928E-02 0.  1.
       -1    1    3    3    0  502 -0.11927433515E+04  0.38166959250E+03 -0.85865123548E+02  0.12552614070E+04  0.50400001928E-02 0. -1.
</event>
<event>
 5   0  0.6104486E-06  0.2482123E+04  0.7818609E-02  0.8409382E-01
       -1   -1    0    0    0  501  0.00000000000E+00  0.00000000000E+00  0.13376478719E+04  0.13376478719E+04  0.50400001928E-02 0. -1.
        1   -1    0    0  501    0  0.00000000000E+00  0.00000000000E+00 -0.11514494508E+04  0.11514494508E+04  0.50400001928E-02 0.  1.
    10030    2    1    2    0    0  0.00000000000E+00  0.00000000000E+00  0.18619842114E+03  0.24890973227E+04  0.24821232100E+04 0.  0.
        2    1    3    3  502    0  0.90364309299E+03  0.14077352346E+02  0.94605647754E+03  0.13083546423E+04  0.25500000920E-02 0. -1.
       -2    1    3    3    0  502 -0.90364309299E+03 -0.14077352346E+02 -0.75985805640E+03  0.11807426804E+04  0.25500000920E-02 0.  1.
</event>
<event>
 5   0  0.1468512E-05  0.2504607E+04  0.7818609E-02  0.8401346E-01
       -2   -1    0    0    0  501  0.00000000000E+00  0.00000000000E+00  0.10070039983E+04  0.10070039983E+04  0.25500000920E-02 0. -1.
        2   -1    0    0  501    0  0.00000000000E+00  0.00000000000E+00 -0.15573559790E+04  0.15573559790E+04  0.25500000920E-02 0.  1.
    10030    2    1    2    0    0  0.00000000000E+00  0.00000000000E+00 -0.55035198072E+03  0.25643599772E+04  0.25046067137E+04 0.  0.
        4    1    3    3  502    0  0.26589469632E+03 -0.10759916072E+03  0.97291598736E+03  0.10143198215E+04  0.12699999809E+01 0. -1.
       -4    1    3    3    0  502 -0.26589469632E+03  0.10759916072E+03 -0.15232679681E+04  0.15500401557E+04  0.12699999809E+01 0.  1.
</event>
<event>
 5   0  0.1468512E-05  0.2504562E+04  0.7818609E-02  0.8401362E-01
       -2   -1    0    0    0  501  0.00000000000E+00  0.00000000000E+00  0.70159256060E+03  0.70159256060E+03  0.25500000920E-02 0. -1.
        2   -1    0    0  501    0  0.00000000000E+00  0.00000000000E+00 -0.22352112783E+04  0.22352112783E+04  0.25500000920E-02 0.  1.
    10030    2    1    2    0    0  0.00000000000E+00  0.00000000000E+00 -0.15336187177E+04  0.29368038389E+04  0.25045619211E+04 0.  0.
        4    1    3    3  502    0  0.23156943272E+03  0.11024849812E+04 -0.12551486531E+03  0.11335136216E+04  0.12699999809E+01 0. -1.
       -4    1    3    3    0  502 -0.23156943272E+03 -0.11024849812E+04 -0.14081038524E+04  0.18032902173E+04  0.12699999809E+01 0.  1.
</event>
<event>
 5   0  0.1526824E-05  0.2499577E+04  0.7818609E-02  0.8403136E-01
        2   -1    0    0  501    0  0.00000000000E+00  0.00000000000E+00  0.12744486252E+04  0.12744486252E+04  0.25500000920E-02 0. -1.
       -2   -1    0    0    0  501  0.00000000000E+00  0.00000000000E+00 -0.12256056767E+04  0.12256056767E+04  0.25500000920E-02 0.  1.
    10030    2    1    2    0    0  0.00000000000E+00  0.00000000000E+00  0.48842948452E+02  0.25000543019E+04  0.24995771400E+04 0.  0.
        2    1    3    3  502    0  0.90262764818E+03 -0.85610366658E+03  0.14411599716E+03  0.12523655935E+04  0.25500000920E-02 0. -1.
       -2    1    3    3    0  502 -0.90262764818E+03  0.85610366658E+03 -0.95273048703E+02  0.12476887084E+04  0.25500000920E-02 0.  1.
</event>
<event>
 5   0  0.1572732E-05  0.2494910E+04  0.7818609E-02  0.8404801E-01
       -2   -1    0    0    0  501  0.00000000000E+00  0.00000000000E+00  0.78561269284E+03  0.78561269284E+03  0.25500000920E-02 0.  1.
        2   -1    0    0  501    0  0.00000000000E+00  0.00000000000E+00 -0.19808036187E+04  0.19808036187E+04  0.25500000920E-02 0. -1.
    10030    2    1    2    0    0  0.00000000000E+00  0.00000000000E+00 -0.11951909259E+04  0.27664163115E+04  0.24949103911E+04 0.  0.
        1    1    3    3  502    0 -0.11586574012E+04 -0.46159530551E+03 -0.57072471021E+03  0.13715990282E+04  0.50400001928E-02 0. -1.
       -1    1    3    3    0  502  0.11586574012E+04  0.46159530551E+03 -0.62446621564E+03  0.13948172833E+04  0.50400001928E-02 0.  1.
</event>
<event>
 5   0  0.1468512E-05  0.2500293E+04  0.7818609E-02  0.8402881E-01
        2   -1    0    0  501    0  0.00000000000E+00  0.00000000000E+00  0.15037540157E+04  0.15037540157E+04  0.25500000920E-02 0. -1.
       -2   -1    0    0    0  501  0.00000000000E+00  0.00000000000E+00 -0.10393096971E+04  0.10393096971E+04  0.25500000920E-02 0.  1.
    10030    2    1    2    0    0  0.00000000000E+00  0.00000000000E+00  0.46444431863E+03  0.25430637128E+04  0.25002928872E+04 0.  0.
        4    1    3    3  502    0  0.10405668432E+04 -0.67072278493E+03  0.40902352652E+03  0.13038214094E+04  0.12699999809E+01 0. -1.
       -4    1    3    3    0  502 -0.10405668432E+04  0.67072278493E+03  0.55420792115E+02  0.12392423034E+04  0.12699999809E+01 0.  1.
</event>
<event>
 5   0  0.1501947E-05  0.2546370E+04  0.7818609E-02  0.8386650E-01
        2   -1    0    0  501    0  0.00000000000E+00  0.00000000000E+00  0.25573695600E+04  0.25573695600E+04  0.25500000920E-02 0.  1.
       -2   -1    0    0    0  501  0.00000000000E+00  0.00000000000E+00 -0.63385444322E+03  0.63385444323E+03  0.25500000920E-02 0. -1.
    10030    2    1    2    0    0  0.00000000000E+00  0.00000000000E+00  0.19235151168E+04  0.31912240033E+04  0.25463700113E+04 0.  0.
        3    1    3    3  502    0  0.13339947464E+03 -0.93529298829E+03  0.20313792066E+04  0.22403280753E+04  0.10100000352E+00 0.  1.
       -3    1    3    3    0  502 -0.13339947464E+03  0.93529298829E+03 -0.10786408976E+03  0.95089592798E+03  0.10100000352E+00 0. -1.
</event>
<event>
 5   0  0.6105353E-06  0.2501897E+04  0.7818609E-02  0.8402310E-01
       -1   -1    0    0    0  501  0.00000000000E+00  0.00000000000E+00  0.82067388764E+03  0.82067388765E+03  0.50400001928E-02 0. -1.
        1   -1    0    0  501    0  0.00000000000E+00  0.00000000000E+00 -0.19068138609E+04  0.19068138609E+04  0.50400001928E-02 0.  1.
    10030    2    1    2    0    0  0.00000000000E+00  0.00000000000E+00 -0.10861399733E+04  0.27274877486E+04  0.25018971556E+04 0.  0.
        3    1    3    3  502    0 -0.41612838502E+03 -0.30455795860E+02 -0.18287203511E+04  0.18757154691E+04  0.10100000352E+00 0.  1.
       -3    1    3    3    0  502  0.41612838502E+03  0.30455795860E+02  0.74258037783E+03  0.85177227946E+03  0.10100000352E+00 0. -1.
</event>
<event>
 5   0  0.6105353E-06  0.2500111E+04  0.7818609E-02  0.8402946E-01
       -1   -1    0    0    0  501  0.00000000000E+00  0.00000000000E+00  0.11957818269E+04  0.11957818269E+04  0.50400001928E-02 0. -1.
        1   -1    0    0  501    0  0.00000000000E+00  0.00000000000E+00 -0.13067924557E+04  0.13067924557E+04  0.50400001928E-02 0.  1.
    10030    2    1    2    0    0  0.00000000000E+00  0.00000000000E+00 -0.11101062873E+03  0.25025742826E+04  0.25001109336E+04 0.  0.
        3    1    3    3  502    0  0.52672835186E+03  0.36386622793E+03  0.10192365539E+04  0.12036131237E+04  0.10100000352E+00 0. -1.
       -3    1    3    3    0  502 -0.52672835186E+03 -0.36386622793E+03 -0.11302471826E+04  0.12989611590E+04  0.10100000352E+00 0.  1.
</event>
<event>
 5   0  0.6346420E-06  0.2500988E+04  0.7818609E-02  0.8402634E-01
       -1   -1    0    0    0  501  0.00000000000E+00  0.00000000000E+00  0.10466538414E+04  0.10466538415E+04  0.50400001928E-02 0.  1.
        1   -1    0    0  501    0  0.00000000000E+00  0.00000000000E+00 -0.14940324609E+04  0.14940324609E+04  0.50400001928E-02 0. -1.
    10030    2    1    2    0    0  0.00000000000E+00  0.00000000000E+00 -0.44737861947E+03  0.25406863024E+04  0.25009876565E+04 0.  0.
        4    1    3    3  502    0 -0.99761153966E+03 -0.41635232906E+03  0.41490247055E+03  0.11578962471E+04  0.12699999809E+01 0.  1.
       -4    1    3    3    0  502  0.99761153966E+03  0.41635232906E+03 -0.86228109002E+03  0.13827900553E+04  0.12699999809E+01 0. -1.
</event>
<event>
 5   0  0.6290861E-06  0.2496559E+04  0.7818609E-02  0.8404212E-01
       -1   -1    0    0    0  501  0.00000000000E+00  0.00000000000E+00  0.93387307612E+03  0.93387307613E+03  0.50400001928E-02 0.  1.
        1   -1    0    0  501    0  0.00000000000E+00  0.00000000000E+00 -0.16685367849E+04  0.16685367849E+04  0.50400001928E-02 0. -1.
    10030    2    1    2    0    0  0.00000000000E+00  0.00000000000E+00 -0.73466370873E+03  0.26024098610E+04  0.24965588957E+04 0.  0.
        1    1    3    3  502    0 -0.91995808481E+03  0.59022278186E+03  0.26115400113E+03  0.11237825512E+04  0.50400001928E-02 0.  1.
       -1    1    3    3    0  502  0.91995808481E+03 -0.59022278186E+03 -0.99581770986E+03  0.14786273098E+04  0.50400001928E-02 0. -1.
</event>
<event>
 5   0  0.1572732E-05  0.2455087E+04  0.7818609E-02  0.8419163E-01
        2   -1    0    0  501    0  0.00000000000E+00  0.00000000000E+00  0.10982833987E+04  0.10982833987E+04  0.25500000920E-02 0.  1.
       -2   -1    0    0    0  501  0.00000000000E+00  0.00000000000E+00 -0.13720163511E+04  0.13720163511E+04  0.25500000920E-02 0. -1.
    10030    2    1    2    0    0  0.00000000000E+00  0.00000000000E+00 -0.27373295245E+03  0.24702997498E+04  0.24550867856E+04 0.  0.
        1    1    3    3  502    0 -0.26247552569E+03 -0.23577442401E+03  0.10461655325E+04  0.11040585591E+04  0.50400001928E-02 0.  1.
       -1    1    3    3    0  502  0.26247552569E+03  0.23577442401E+03 -0.13198984849E+04  0.13662411907E+04  0.50400001928E-02 0. -1.
</event>
<event>
 5   0  0.1468512E-05  0.2492341E+04  0.7818609E-02  0.8405719E-01
        2   -1    0    0  501    0  0.00000000000E+00  0.00000000000E+00  0.13443261528E+04  0.13443261528E+04  0.25500000920E-02 0. -1.
       -2   -1    0    0    0  501  0.00000000000E+00  0.00000000000E+00 -0.11551820069E+04  0.11551820069E+04  0.25500000920E-02 0.  1.
    10030    2    1    2    0    0  0.00000000000E+00  0.00000000000E+00  0.18914414591E+03  0.24995081598E+04  0.24923413756E+04 0.  0.
        4    1    3    3  502    0 -0.40780807833E+03  0.13804852023E+03  0.12673684070E+04  0.13385025643E+04  0.12699999809E+01 0. -1.
       -4    1    3    3    0  502  0.40780807833E+03 -0.13804852023E+03 -0.10782242611E+04  0.11610055955E+04  0.12699999809E+01 0.  1.
</event>
<event>
 5   0  0.1526824E-05  0.2484632E+04  0.7818609E-02  0.8408481E-01
        2   -1    0    0  501    0  0.00000000000E+00  0.00000000000E+00  0.27737463660E+04  0.27737463660E+04  0.25500000920E-02 0. -1.
       -2   -1    0    0    0  501  0.00000000000E+00  0.00000000000E+00 -0.55641339992E+03  0.55641339993E+03  0.25500000920E-02 0.  1.
    10030    2    1    2    0    0  0.00000000000E+00  0.00000000000E+00  0.22173329661E+04  0.33301597659E+04  0.24846324847E+04 0.  0.
        2    1    3    3  502    0 -0.71418242918E+03 -0.91824157805E+03  0.16930838382E+04  0.20542047174E+04  0.25500000920E-02 0. -1.
       -2    1    3    3    0  502  0.71418242918E+03  0.91824157805E+03  0.52424912791E+03  0.12759550486E+04  0.25500000920E-02 0.  1.
</event>
<event>
 5   0  0.6477703E-06  0.2507773E+04  0.7818609E-02  0.8400221E-01
       -1   -1    0    0    0  501  0.00000000000E+00  0.00000000000E+00  0.11474922241E+04  0.11474922242E+04  0.50400001928E-02 0.  1.
        1   -1    0    0  501    0  0.00000000000E+00  0.00000000000E+00 -0.13701458941E+04  0.13701458942E+04  0.50400001928E-02 0. -1.
    10030    2    1    2    0    0  0.00000000000E+00  0.00000000000E+00 -0.22265367001E+03  0.25176381183E+04  0.25077733227E+04 0.  0.
        5    1    3    3  502    0  0.16314963353E+02 -0.68514287348E+02  0.11454960133E+04  0.11476687641E+04  0.46999998093E+01 0.  1.
       -5    1    3    3    0  502 -0.16314963353E+02  0.68514287348E+02 -0.13681496833E+04  0.13699693542E+04  0.46999998093E+01 0. -1.
</event>
<event>
 5   0  0.6105353E-06  0.2519152E+04  0.7818609E-02  0.8396194E-01
        1   -1    0    0  501    0  0.00000000000E+00  0.00000000000E+00  0.21698888975E+04  0.21698888975E+04  0.50400001928E-02 0. -1.
       -1   -1    0    0    0  501  0.00000000000E+00  0.00000000000E+00 -0.73115786030E+03  0.73115786032E+03  0.50400001928E-02 0.  1.
    10030    2    1    2    0    0  0.00000000000E+00  0.00000000000E+00  0.14387310372E+04  0.29010467578E+04  0.25191517012E+04 0.  0.
        3    1    3    3  502    0  0.10456073758E+04  0.44344618015E+03  0.13465280930E+04  0.17615553396E+04  0.10100000352E+00 0.  1.
       -3    1    3    3    0  502 -0.10456073758E+04 -0.44344618015E+03  0.92202944168E+02  0.11394914182E+04  0.10100000352E+00 0. -1.
</event>
<event>
 5   0  0.1572732E-05  0.2502998E+04  0.7818609E-02  0.8401918E-01
       -2   -1    0    0    0  501  0.00000000000E+00  0.00000000000E+00  0.15777450072E+04  0.15777450072E+04  0.25500000920E-02 0.  1.
        2   -1    0    0  501    0  0.00000000000E+00  0.00000000000E+00 -0.99271442915E+03  0.99271442915E+03  0.25500000920E-02 0. -1.
    10030    2    1    2    0    0  0.00000000000E+00  0.00000000000E+00  0.58503057808E+03  0.25704594364E+04  0.25029983893E+04 0.  0.
        1    1    3    3  502    0  0.76943728812E+03 -0.98562298107E+03  0.34650438855E+03  0.12975175114E+04  0.50400001928E-02 0. -1.
       -1    1    3    3    0  502 -0.76943728812E+03  0.98562298107E+03  0.23852618953E+03  0.12729419249E+04  0.50400001928E-02 0.  1.
</event>
<event>
 5   0  0.6346420E-06  0.2467225E+04  0.7818609E-02  0.8414756E-01
       -1   -1    0    0    0  501  0.00000000000E+00  0.00000000000E+00  0.11943803873E+04  0.11943803873E+04  0.50400001928E-02 0.  1.
        1   -1    0    0  501    0  0.00000000000E+00  0.00000000000E+00 -0.12741331316E+04  0.12741331316E+04  0.50400001928E-02 0. -1.
    10030    2    1    2    0    0  0.00000000000E+00  0.00000000000E+00 -0.79752744345E+02  0.24685135189E+04  0.24672248565E+04 0.  0.
        4    1    3    3  502    0 -0.58416384127E+02  0.24577228788E+03  0.11682233590E+04  0.11952254686E+04  0.12699999809E+01 0.  1.
       -4    1    3    3    0  502  0.58416384127E+02 -0.24577228788E+03 -0.12479761034E+04  0.12732880502E+04  0.12699999809E+01 0. -1.
</event>
<event>
 5   0  0.6105353E-06  0.2490999E+04  0.7818609E-02  0.8406199E-01
        1   -1    0    0  501    0  0.00000000000E+00  0.00000000000E+00  0.14942972167E+04  0.14942972168E+04  0.50400001928E-02 0.  1.
       -1   -1    0    0    0  501  0.00000000000E+00  0.00000000000E+00 -0.10381261814E+04  0.10381261815E+04  0.50400001928E-02 0. -1.
    10030    2    1    2    0    0  0.00000000000E+00  0.00000000000E+00  0.45617103530E+03  0.25324233982E+04  0.24909990474E+04 0.  0.
        3    1    3    3  502    0  0.99368327821E+03 -0.78754101848E+02  0.98727057956E+03  0.14029653857E+04  0.10100000352E+00 0.  1.
       -3    1    3    3    0  502 -0.99368327821E+03  0.78754101848E+02 -0.53109954426E+03  0.11294580125E+04  0.10100000352E+00 0. -1.
</event>
<event>
 5   0  0.6290861E-06  0.2499990E+04  0.7818609E-02  0.8402989E-01
        1   -1    0    0  501    0  0.00000000000E+00  0.00000000000E+00  0.10199191714E+04  0.10199191714E+04  0.50400001928E-02 0.  1.
       -1   -1    0    0    0  501  0.00000000000E+00  0.00000000000E+00 -0.15319715721E+04  0.15319715721E+04  0.50400001928E-02 0. -1.
    10030    2    1    2    0    0  0.00000000000E+00  0.00000000000E+00 -0.51205240070E+03  0.25518907435E+04  0.24999897411E+04 0.  0.
        1    1    3    3  502    0  0.79555469488E+03 -0.19766093796E+03  0.70723321889E+03  0.10826615098E+04  0.50400001928E-02 0.  1.
       -1    1    3    3    0  502 -0.79555469488E+03  0.19766093796E+03 -0.12192856196E+04  0.14692292337E+04  0.50400001928E-02 0. -1.
</event>
<event>
 5   0  0.6477703E-06  0.2499404E+04  0.7818609E-02  0.8403198E-01
       -1   -1    0    0    0  501  0.00000000000E+00  0.00000000000E+00  0.84564283543E+03  0.84564283545E+03  0.50400001928E-02 0.  1.
        1   -1    0    0  501    0  0.00000000000E+00  0.00000000000E+00 -0.18468260115E+04  0.18468260115E+04  0.50400001928E-02 0. -1.
    10030    2    1    2    0    0  0.00000000000E+00  0.00000000000E+00 -0.10011831761E+04  0.26924688470E+04  0.24994040769E+04 0.  0.
        5    1    3    3  502    0 -0.87208568556E+03  0.87473363246E+03 -0.70509990188E+03  0.14222799768E+04  0.46999998093E+01 0.  1.
       -5    1    3    3    0  502  0.87208568556E+03 -0.87473363246E+03 -0.29608327421E+03  0.12701888702E+04  0.46999998093E+01 0. -1.
</event>
<event>
 5   0  0.6105353E-06  0.2500609E+04  0.7818609E-02  0.8402769E-01
        1   -1    0    0  501    0  0.00000000000E+00  0.00000000000E+00  0.80317648962E+03  0.80317648963E+03  0.50400001928E-02 0.  1.
       -1   -1    0    0    0  501  0.00000000000E+00  0.00000000000E+00 -0.19463487184E+04  0.19463487184E+04  0.50400001928E-02 0. -1.
    10030    2    1    2    0    0  0.00000000000E+00  0.00000000000E+00 -0.11431722288E+04  0.27495252081E+04  0.25006091508E+04 0.  0.
        3    1    3    3  502    0  0.12845817431E+03 -0.73024228489E+03 -0.16785287100E+04  0.18349969858E+04  0.10100000352E+00 0. -1.
       -3    1    3    3    0  502 -0.12845817431E+03  0.73024228489E+03  0.53535648122E+03  0.91452822230E+03  0.10100000352E+00 0.  1.
</event>
<event>
 5   0  0.1468512E-05  0.2505875E+04  0.7818609E-02  0.8400896E-01
        2   -1    0    0  501    0  0.00000000000E+00  0.00000000000E+00  0.12040374436E+04  0.12040374436E+04  0.25500000920E-02 0. -1.
       -2   -1    0    0    0  501  0.00000000000E+00  0.00000000000E+00 -0.13038230805E+04  0.13038230805E+04  0.25500000920E-02 0.  1.
    10030    2    1    2    0    0  0.00000000000E+00  0.00000000000E+00 -0.99785636873E+02  0.25078605241E+04  0.25058745449E+04 0.  0.
        4    1    3    3  502    0  0.54019226080E+03  0.98965296138E+03  0.49701034129E+03  0.12321694505E+04  0.12699999809E+01 0. -1.
       -4    1    3    3    0  502 -0.54019226080E+03 -0.98965296138E+03 -0.59679597817E+03  0.12756910735E+04  0.12699999809E+01 0.  1.
</event>
<event>
 5   0  0.1572732E-05  0.2494465E+04  0.7818609E-02  0.8404960E-01
       -2   -1    0    0    0  501  0.00000000000E+00  0.00000000000E+00  0.18898099267E+04  0.18898099267E+04  0.25500000920E-02 0.  1.
        2   -1    0    0  501    0  0.00000000000E+00  0.00000000000E+00 -0.82314596135E+03  0.82314596135E+03  0.25500000920E-02 0. -1.
    10030    2    1    2    0    0  0.00000000000E+00  0.00000000000E+00  0.10666639654E+04  0.27129558881E+04  0.24944654008E+04 0.  0.
        1    1    3    3  502    0  0.57690273377E+03  0.12794623666E+03  0.17279012708E+04  0.18261516381E+04  0.50400001928E-02 0.  1.
       -1    1    3    3    0  502 -0.57690273377E+03 -0.12794623666E+03 -0.66123730541E+03  0.88680424998E+03  0.50400001928E-02 0. -1.
</event>
<event>
 5   0  0.6346420E-06  0.2491106E+04  0.7818609E-02  0.8406161E-01
       -1   -1    0    0    0  501  0.00000000000E+00  0.00000000000E+00  0.11933200374E+04  0.11933200374E+04  0.50400001928E-02 0.  1.
        1   -1    0    0  501    0  0.00000000000E+00  0.00000000000E+00 -0.13000717568E+04  0.13000717568E+04  0.50400001928E-02 0. -1.
    10030    2    1    2    0    0  0.00000000000E+00  0.00000000000E+00 -0.10675171943E+03  0.24933917942E+04  0.24911055196E+04 0.  0.
        4    1    3    3  502    0 -0.11573744504E+04  0.41924189139E+03  0.13685298788E+03  0.12385514665E+04  0.12699999809E+01 0.  1.
       -4    1    3    3    0  502  0.11573744504E+04 -0.41924189139E+03 -0.24360470731E+03  0.12548403278E+04  0.12699999809E+01 0. -1.
</event>
<event>
 5   0  0.1550483E-05  0.2476430E+04  0.7818609E-02  0.8411431E-01
        2   -1    0    0  501    0  0.00000000000E+00  0.00000000000E+00  0.88995532659E+03  0.88995532660E+03  0.25500000920E-02 0. -1.
       -2   -1    0    0    0  501  0.00000000000E+00  0.00000000000E+00 -0.17227563955E+04  0.17227563955E+04  0.25500000920E-02 0.  1.
    10030    2    1    2    0    0  0.00000000000E+00  0.00000000000E+00 -0.83280106894E+03  0.26127117221E+04  0.24764298743E+04 0.  0.
        5    1    3    3  502    0  0.10096574412E+04 -0.60568663363E+03 -0.82075395598E+03  0.14352433915E+04  0.46999998093E+01 0.  1.
       -5    1    3    3    0  502 -0.10096574412E+04  0.60568663363E+03 -0.12047112962E+02  0.11774683306E+04  0.46999998093E+01 0. -1.
</event>
<event>
 5   0  0.6346420E-06  0.2499151E+04  0.7818609E-02  0.8403288E-01
        1   -1    0    0  501    0  0.00000000000E+00  0.00000000000E+00  0.17033576769E+04  0.17033576769E+04  0.50400001928E-02 0. -1.
       -1   -1    0    0    0  501  0.00000000000E+00  0.00000000000E+00 -0.91668321807E+03  0.91668321808E+03  0.50400001928E-02 0.  1.
    10030    2    1    2    0    0  0.00000000000E+00  0.00000000000E+00  0.78667445883E+03  0.26200408950E+04  0.24991513734E+04 0.  0.
        4    1    3    3  502    0 -0.42383928316E+03 -0.26953107946E+03  0.15928652186E+04  0.16701820135E+04  0.12699999809E+01 0. -1.
       -4    1    3    3    0  502  0.42383928316E+03  0.26953107946E+03 -0.80619075975E+03  0.94985888149E+03  0.12699999809E+01 0.  1.
</event>
<event>
 5   0  0.6290861E-06  0.2499147E+04  0.7818609E-02  0.8403289E-01
       -1   -1    0    0    0  501  0.00000000000E+00  0.00000000000E+00  0.47491306810E+03  0.47491306813E+03  0.50400001928E-02 0.  1.
        1   -1    0    0  501    0  0.00000000000E+00  0.00000000000E+00 -0.32878310886E+04  0.32878310886E+04  0.50400001928E-02 0. -1.
    10030    2    1    2    0    0  0.00000000000E+00  0.00000000000E+00 -0.28129180205E+04  0.37627441567E+04  0.24991470143E+04 0.  0.
        1    1    3    3  502    0 -0.63410460725E+03 -0.60620873395E+03 -0.27462469517E+04  0.28829585501E+04  0.50400001928E-02 0. -1.
       -1    1    3    3    0  502  0.63410460725E+03  0.60620873395E+03 -0.66671068747E+02  0.87978560654E+03  0.50400001928E-02 0.  1.
</event>
<event>
 5   0  0.6290861E-06  0.2501465E+04  0.7818609E-02  0.8402464E-01
       -1   -1    0    0    0  501  0.00000000000E+00  0.00000000000E+00  0.11950163190E+04  0.11950163190E+04  0.50400001928E-02 0.  1.
        1   -1    0    0  501    0  0.00000000000E+00  0.00000000000E+00 -0.13090462051E+04  0.13090462051E+04  0.50400001928E-02 0. -1.
    10030    2    1    2    0    0  0.00000000000E+00  0.00000000000E+00 -0.11402988611E+03  0.25040625241E+04  0.25014648328E+04 0.  0.
        1    1    3    3  502    0 -0.80717475496E+03 -0.56209152536E+03  0.71635035219E+03  0.12168137882E+04  0.50400001928E-02 0.  1.
       -1    1    3    3    0  502  0.80717475496E+03  0.56209152536E+03 -0.83038023830E+03  0.12872487359E+04  0.50400001928E-02 0. -1.
</event>
<event>
 5   0  0.6105353E-06  0.2461731E+04  0.7818609E-02  0.8416747E-01
       -1   -1    0    0    0  501  0.00000000000E+00  0.00000000000E+00  0.10180061508E+04  0.10180061509E+04  0.50400001928E-02 0.  1.
        1   -1    0    0  501    0  0.00000000000E+00  0.00000000000E+00 -0.14882327707E+04  0.14882327707E+04  0.50400001928E-02 0. -1.
    10030    2    1    2    0    0  0.00000000000E+00  0.00000000000E+00 -0.47022661985E+03  0.25062389216E+04  0.24617311912E+04 0.  0.
        3    1    3    3  502    0 -0.10248775330E+04 -0.28784186829E+03 -0.86418715207E+03  0.13711478195E+04  0.10100000352E+00 0. -1.
       -3    1    3    3    0  502  0.10248775330E+04  0.28784186829E+03  0.39396053222E+03  0.11350911021E+04  0.10100000352E+00 0.  1.
</event>
<event>
 5   0  0.1550483E-05  0.2510083E+04  0.7818609E-02  0.8399402E-01
       -2   -1    0    0    0  501  0.00000000000E+00  0.00000000000E+00  0.10589561633E+04  0.10589561633E+04  0.25500000920E-02 0. -1.
        2   -1    0    0  501    0  0.00000000000E+00  0.00000000000E+00 -0.14874352141E+04  0.14874352141E+04  0.25500000920E-02 0.  1.
    10030    2    1    2    0    0  0.00000000000E+00  0.00000000000E+00 -0.42847905087E+03  0.25463913774E+04  0.25100826182E+04 0.  0.
        5    1    3    3  502    0 -0.12427899192E+04  0.16503884699E+03 -0.27288573225E+03  0.12830640347E+04  0.46999998093E+01 0. -1.
       -5    1    3    3    0  502  0.12427899192E+04 -0.16503884699E+03 -0.15559331862E+03  0.12633273428E+04  0.46999998093E+01 0.  1.
</event>
<event>
 5   0  0.1572732E-05  0.2500345E+04  0.7818609E-02  0.8402863E-01
       -2   -1    0    0    0  501  0.00000000000E+00  0.00000000000E+00  0.91464350168E+03  0.91464350168E+03  0.25500000920E-02 0.  1.
        2   -1    0    0  501    0  0.00000000000E+00  0.00000000000E+00 -0.17087870936E+04  0.17087870936E+04  0.25500000920E-02 0. -1.
    10030    2    1    2    0    0  0.00000000000E+00  0.00000000000E+00 -0.79414359191E+03  0.26234305953E+04  0.25003447850E+04 0.  0.
        1    1    3    3  502    0 -0.12990327794E+03  0.40142376749E+03  0.83768451858E+03  0.93793989968E+03  0.50400001928E-02 0.  1.
       -1    1    3    3    0  502  0.12990327794E+03 -0.40142376749E+03 -0.16318281105E+04  0.16854906956E+04  0.50400001928E-02 0. -1.
</event>
<event>
 5   0  0.6346420E-06  0.2503270E+04  0.7818609E-02  0.8401821E-01
        1   -1    0    0  501    0  0.00000000000E+00  0.00000000000E+00  0.14501791948E+04  0.14501791948E+04  0.50400001928E-02 0.  1.
       -1   -1    0    0    0  501  0.00000000000E+00  0.00000000000E+00 -0.10802737050E+04  0.10802737050E+04  0.50400001928E-02 0. -1.
    10030    2    1    2    0    0  0.00000000000E+00  0.00000000000E+00  0.36990548982E+03  0.25304528999E+04  0.25032702225E+04 0.  0.
        4    1    3    3  502    0  0.10121650146E+04  0.20433508210E+03 -0.53008825916E+03  0.11607006582E+04  0.12699999809E+01 0. -1.
       -4    1    3    3    0  502 -0.10121650146E+04 -0.20433508210E+03  0.89999374897E+03  0.13697522417E+04  0.12699999809E+01 0.  1.
</event>
<event>
 5   0  0.6105353E-06  0.2470071E+04  0.7818609E-02  0.8413726E-01
       -1   -1    0    0    0  501  0.00000000000E+00  0.00000000000E+00  0.69608556665E+03  0.69608556667E+03  0.50400001928E-02 0. -1.
        1   -1    0    0  501    0  0.00000000000E+00  0.00000000000E+00 -0.21912713996E+04  0.21912713996E+04  0.50400001928E-02 0.  1.
    10030    2    1    2    0    0  0.00000000000E+00  0.00000000000E+00 -0.14951858330E+04  0.28873569663E+04  0.24700707633E+04 0.  0.
        3    1    3    3  502    0 -0.59057721874E+03 -0.31553081251E+03 -0.19606832353E+04  0.20718638721E+04  0.10100000352E+00 0.  1.
       -3    1    3    3    0  502  0.59057721874E+03  0.31553081251E+03  0.46549740234E+03  0.81549309423E+03  0.10100000352E+00 0. -1.
</event>
<event>
 5   0  0.1550483E-05  0.2532837E+04  0.7818609E-02  0.8391380E-01
        2   -1    0    0  501    0  0.00000000000E+00  0.00000000000E+00  0.21879593487E+04  0.21879593487E+04  0.25500000920E-02 0. -1.
       -2   -1    0    0    0  501  0.00000000000E+00  0.00000000000E+00 -0.73301916579E+03  0.73301916580E+03  0.25500000920E-02 0.  1.
    10030    2    1    2    0    0  0.00000000000E+00  0.00000000000E+00  0.14549401829E+04  0.29209785145E+04  0.25328372522E+04 0.  0.
        5    1    3    3  502    0  0.63592225171E+03 -0.75888989436E+03 -0.18314199041E+03  0.10069131346E+04  0.46999998093E+01 0.  1.
       -5    1    3    3    0  502 -0.63592225171E+03  0.75888989436E+03  0.16380821733E+04  0.19140653799E+04  0.46999998093E+01 0. -1.
</event>
<event>
 5   0  0.6105353E-06  0.2501196E+04  0.7818609E-02  0.8402560E-01
        1   -1    0    0  501    0  0.00000000000E+00  0.00000000000E+00  0.88290186478E+03  0.88290186480E+03  0.50400001928E-02 0. -1.
       -1   -1    0    0    0  501  0.00000000000E+00  0.00000000000E+00 -0.17714257182E+04  0.17714257182E+04  0.50400001928E-02 0.  1.
    10030    2    1    2    0    0  0.00000000000E+00  0.00000000000E+00 -0.88852385337E+03  0.26543275830E+04  0.25011957700E+04 0.  0.
        3    1    3    3  502    0  0.19572078814E+03  0.11123477062E+04  0.12561705081E+03  0.11363994456E+04  0.10100000352E+00 0. -1.
       -3    1    3    3    0  502 -0.19572078814E+03 -0.11123477062E+04 -0.10141409042E+04  0.15179281373E+04  0.10100000352E+00 0.  1.
</event>
<event>
 5   0  0.6105353E-06  0.2509927E+04  0.7818609E-02  0.8399458E-01
       -1   -1    0    0    0  501  0.00000000000E+00  0.00000000000E+00  0.71792969813E+03  0.71792969815E+03  0.50400001928E-02 0. -1.
        1   -1    0    0  501    0  0.00000000000E+00  0.00000000000E+00 -0.21937147334E+04  0.21937147334E+04  0.50400001928E-02 0.  1.
    10030    2    1    2    0    0  0.00000000000E+00  0.00000000000E+00 -0.14757850353E+04  0.29116444316E+04  0.25099266574E+04 0.  0.
        3    1    3    3  502    0 -0.10502007828E+04  0.42069542264E+03 -0.13679902421E+04  0.17751911547E+04  0.10100000352E+00 0.  1.
       -3    1    3    3    0  502  0.10502007828E+04 -0.42069542264E+03 -0.10779479312E+03  0.11364532769E+04  0.10100000352E+00 0. -1.
</event>
<event>
 5   0  0.1468512E-05  0.2405800E+04  0.7818609E-02  0.8437335E-01
        2   -1    0    0  501    0  0.00000000000E+00  0.00000000000E+00  0.14929164786E+04  0.14929164787E+04  0.25500000920E-02 0. -1.
       -2   -1    0    0    0  501  0.00000000000E+00  0.00000000000E+00 -0.96922241691E+03  0.96922241692E+03  0.25500000920E-02 0.  1.
    10030    2    1    2    0    0  0.00000000000E+00  0.00000000000E+00  0.52369406174E+03  0.24621388956E+04  0.24057997570E+04 0.  0.
        4    1    3    3  502    0  0.44262019829E+03  0.10199611762E+04 -0.20795989305E+03  0.11311420649E+04  0.12699999809E+01 0.  1.
       -4    1    3    3    0  502 -0.44262019829E+03 -0.10199611762E+04  0.73165395479E+03  0.13309968307E+04  0.12699999809E+01 0. -1.
</event>
<event>
 5   0  0.1526824E-05  0.2496345E+04  0.7818609E-02  0.8404289E-01
       -2   -1    0    0    0  501  0.00000000000E+00  0.00000000000E+00  0.74883951243E+03  0.74883951243E+03  0.25500000920E-02 0. -1.
        2   -1    0    0  501    0  0.00000000000E+00  0.00000000000E+00 -0.20804650494E+04  0.20804650494E+04  0.25500000920E-02 0.  1.
    10030    2    1    2    0    0  0.00000000000E+00  0.00000000000E+00 -0.13316255370E+04  0.28293045618E+04  0.24963448746E+04 0.  0.
        2    1    3    3  502    0  0.10760835030E+04  0.37147249751E+03 -0.12459288618E+04  0.16876866564E+04  0.25500000920E-02 0.  1.
       -2    1    3    3    0  502 -0.10760835030E+04 -0.37147249751E+03 -0.85696675230E+02  0.11416179054E+04  0.25500000920E-02 0. -1.
</event>
<event>
 5   0  0.6104486E-06  0.2489080E+04  0.7818609E-02  0.8406886E-01
       -1   -1    0    0    0  501  0.00000000000E+00  0.00000000000E+00  0.74987655301E+03  0.74987655303E+03  0.50400001928E-02 0.  1.
        1   -1    0    0  501    0  0.00000000000E+00  0.00000000000E+00 -0.20655128642E+04  0.20655128642E+04  0.50400001928E-02 0. -1.
    10030    2    1    2    0    0  0.00000000000E+00  0.00000000000E+00 -0.13156363112E+04  0.28153894172E+04  0.24890798837E+04 0.  0.
        2    1    3    3  502    0 -0.40138548039E+03  0.11624985358E+04 -0.44211798199E+03  0.13068976469E+04  0.25500000920E-02 0.  1.
       -2    1    3    3    0  502  0.40138548039E+03 -0.11624985358E+04 -0.87351832919E+03  0.15084917703E+04  0.25500000920E-02 0. -1.
</event>
<event>
 5   0  0.1526824E-05  0.2489598E+04  0.7818609E-02  0.8406701E-01
        2   -1    0    0  501    0  0.00000000000E+00  0.00000000000E+00  0.22241330479E+04  0.22241330479E+04  0.25500000920E-02 0. -1.
       -2   -1    0    0    0  501  0.00000000000E+00  0.00000000000E+00 -0.69668700034E+03  0.69668700034E+03  0.25500000920E-02 0.  1.
    10030    2    1    2    0    0  0.00000000000E+00  0.00000000000E+00  0.15274460476E+04  0.29208200483E+04  0.24895980250E+04 0.  0.
        2    1    3    3  502    0 -0.11966220970E+04  0.30307847312E+03  0.57541073749E+03  0.13619319075E+04  0.25500000920E-02 0. -1.
       -2    1    3    3    0  502  0.11966220970E+04 -0.30307847312E+03  0.95203531007E+03  0.15588881408E+04  0.25500000920E-02 0.  1.
</event>
<event>
 5   0  0.6104486E-06  0.2500524E+04  0.7818609E-02  0.8402799E-01
       -1   -1    0    0    0  501  0.00000000000E+00  0.00000000000E+00  0.11816303340E+04  0.11816303340E+04  0.50400001928E-02 0. -1.
        1   -1    0    0  501    0  0.00000000000E+00  0.00000000000E+00 -0.13228804381E+04  0.13228804381E+04  0.50400001928E-02 0.  1.
    10030    2    1    2    0    0  0.00000000000E+00  0.00000000000E+00 -0.14125010412E+03  0.25045107722E+04  0.25005244682E+04 0.  0.
        2    1    3    3  502    0  0.90191361168E+03  0.79646983677E+03 -0.41078874931E+03  0.12714400341E+04  0.25500000920E-02 0.  1.
       -2    1    3    3    0  502 -0.90191361168E+03 -0.79646983677E+03  0.26953864519E+03  0.12330707381E+04  0.25500000920E-02 0. -1.
</event>
<event>
 5   0  0.5164625E-06  0.2583723E+04  0.7818609E-02  0.8373751E-01
       -3   -1    0    0    0  501  0.00000000000E+00  0.00000000000E+00  0.17003392085E+04  0.17003392115E+04  0.10100000352E+00 0. -1.
        3   -1    0    0  501    0  0.00000000000E+00  0.00000000000E+00 -0.98151350026E+03  0.98151350545E+03  0.10100000352E+00 0.  1.
    10030    2    1    2    0    0  0.00000000000E+00  0.00000000000E+00  0.71882570823E+03  0.26818527169E+04  0.25837228173E+04 0.  0.
        5    1    3    3  502    0 -0.64655716214E+03  0.27081705329E+03  0.14857554917E+04  0.16428236398E+04  0.46999998093E+01 0. -1.
       -5    1    3    3    0  502  0.64655716214E+03 -0.27081705329E+03 -0.76692978352E+03  0.10390290771E+04  0.46999998093E+01 0.  1.
</event>
<event>
 5   0  0.6290861E-06  0.2497985E+04  0.7818609E-02  0.8403704E-01
       -1   -1    0    0    0  501  0.00000000000E+00  0.00000000000E+00  0.89143049454E+03  0.89143049455E+03  0.50400001928E-02 0. -1.
        1   -1    0    0  501    0  0.00000000000E+00  0.00000000000E+00 -0.17499767893E+04  0.17499767893E+04  0.50400001928E-02 0.  1.
    10030    2    1    2    0    0  0.00000000000E+00  0.00000000000E+00 -0.85854629478E+03  0.26414072839E+04  0.24979853280E+04 0.  0.
        1    1    3    3  502    0 -0.58424951168E+03 -0.11036912911E+04 -0.40561168555E+03  0.13130128702E+04  0.50400001928E-02 0.  1.
       -1    1    3    3    0  502  0.58424951168E+03  0.11036912911E+04 -0.45293460923E+03  0.13283944136E+04  0.50400001928E-02 0. -1.
</event>
<event>
 5   0  0.1526824E-05  0.2495319E+04  0.7818609E-02  0.8404655E-01
        2   -1    0    0  501    0  0.00000000000E+00  0.00000000000E+00  0.16350513121E+04  0.16350513121E+04  0.25500000920E-02 0.  1.
       -2   -1    0    0    0  501  0.00000000000E+00  0.00000000000E+00 -0.95205200441E+03  0.95205200442E+03  0.25500000920E-02 0. -1.
    10030    2    1    2    0    0  0.00000000000E+00  0.00000000000E+00  0.68299930765E+03  0.25871033165E+04  0.24953187203E+04 0.  0.
        2    1    3    3  502    0  0.83068238273E+03  0.14402525056E+03 -0.61204592091E+03  0.10418141404E+04  0.25500000920E-02 0. -1.
       -2    1    3    3    0  502 -0.83068238273E+03 -0.14402525056E+03  0.12950452286E+04  0.15452891761E+04  0.25500000920E-02 0.  1.
</event>
<event>
 5   0  0.1468512E-05  0.2485060E+04  0.7818609E-02  0.8408327E-01
        2   -1    0    0  501    0  0.00000000000E+00  0.00000000000E+00  0.13886015820E+04  0.13886015820E+04  0.25500000920E-02 0.  1.
       -2   -1    0    0    0  501  0.00000000000E+00  0.00000000000E+00 -0.11118239290E+04  0.11118239290E+04  0.25500000920E-02 0. -1.
    10030    2    1    2    0    0  0.00000000000E+00  0.00000000000E+00  0.27677765304E+03  0.25004255110E+04  0.24850597310E+04 0.  0.
        4    1    3    3  502    0 -0.70725007457E+02 -0.16289533551E+03 -0.10989883093E+04  0.11132447322E+04  0.12699999809E+01 0. -1.
       -4    1    3    3    0  502  0.70725007457E+02  0.16289533551E+03  0.13757659623E+04  0.13871807787E+04  0.12699999809E+01 0.  1.
</event>
<event>
 5   0  0.1572732E-05  0.2513035E+04  0.7818609E-02  0.8398356E-01
        2   -1    0    0  501    0  0.00000000000E+00  0.00000000000E+00  0.23398476452E+04  0.23398476452E+04  0.25500000920E-02 0. -1.
       -2   -1    0    0    0  501  0.00000000000E+00  0.00000000000E+00 -0.67476031770E+03  0.67476031771E+03  0.25500000920E-02 0.  1.
    10030    2    1    2    0    0  0.00000000000E+00  0.00000000000E+00  0.16650873275E+04  0.30146079629E+04  0.25130350897E+04 0.  0.
        1    1    3    3  502    0 -0.12188282753E+04  0.19792406515E+02  0.11981766536E+04  0.17092575573E+04  0.50400001928E-02 0. -1.
       -1    1    3    3    0  502  0.12188282753E+04 -0.19792406515E+02  0.46691067391E+03  0.13053504056E+04  0.50400001928E-02 0.  1.
</event>
<event>
 5   0  0.1572732E-05  0.2477519E+04  0.7818609E-02  0.8411038E-01
        2   -1    0    0  501    0  0.00000000000E+00  0.00000000000E+00  0.11815397810E+04  0.11815397811E+04  0.25500000920E-02 0.  1.
       -2   -1    0    0    0  501  0.00000000000E+00  0.00000000000E+00 -0.12987504592E+04  0.12987504593E+04  0.25500000920E-02 0. -1.
    10030    2    1    2    0    0  0.00000000000E+00  0.00000000000E+00 -0.11721067820E+03  0.24802902403E+04  0.24775191892E+04 0.  0.
        1    1    3    3  502    0  0.53411728012E+02 -0.51155470203E+03 -0.11868015966E+04  0.12934601098E+04  0.50400001928E-02 0. -1.
       -1    1    3    3    0  502 -0.53411728012E+02  0.51155470203E+03  0.10695909184E+04  0.11868301305E+04  0.50400001928E-02 0.  1.
</event>
<event>
 5   0  0.6104486E-06  0.2499267E+04  0.7818609E-02  0.8403247E-01
        1   -1    0    0  501    0  0.00000000000E+00  0.00000000000E+00  0.12326661961E+04  0.12326661961E+04  0.50400001928E-02 0.  1.
       -1   -1    0    0    0  501  0.00000000000E+00  0.00000000000E+00 -0.12668339465E+04  0.12668339465E+04  0.50400001928E-02 0. -1.
    10030    2    1    2    0    0  0.00000000000E+00  0.00000000000E+00 -0.34167750394E+02  0.24995001427E+04  0.24992665980E+04 0.  0.
        2    1    3    3  502    0 -0.35885115438E+03  0.96359646836E+03 -0.72728478255E+03  0.12594583994E+04  0.25500000920E-02 0. -1.
       -2    1    3    3    0  502  0.35885115438E+03 -0.96359646836E+03  0.69311703216E+03  0.12400417433E+04  0.25500000920E-02 0.  1.
</event>
<event>
 5   0  0.6104486E-06  0.2444110E+04  0.7818609E-02  0.8423172E-01
        1   -1    0    0  501    0  0.00000000000E+00  0.00000000000E+00  0.81118879706E+03  0.81118879708E+03  0.50400001928E-02 0.  1.
       -1   -1    0    0    0  501  0.00000000000E+00  0.00000000000E+00 -0.18410242324E+04  0.18410242324E+04  0.50400001928E-02 0. -1.
    10030    2    1    2    0    0  0.00000000000E+00  0.00000000000E+00 -0.10298354353E+04  0.26522130295E+04  0.24441098441E+04 0.  0.
        2    1    3    3  502    0 -0.31977595945E+03 -0.11637750795E+04 -0.72305383956E+03  0.14069242889E+04  0.25500000920E-02 0. -1.
       -2    1    3    3    0  502  0.31977595945E+03  0.11637750795E+04 -0.30678159575E+03  0.12452887405E+04  0.25500000920E-02 0.  1.
</event>
<event>
 5   0  0.1572732E-05  0.2500984E+04  0.7818609E-02  0.8402635E-01
       -2   -1    0    0    0  501  0.00000000000E+00  0.00000000000E+00  0.11788268529E+04  0.11788268529E+04  0.25500000920E-02 0.  1.
        2   -1    0    0  501    0  0.00000000000E+00  0.00000000000E+00 -0.13265134101E+04  0.13265134101E+04  0.25500000920E-02 0. -1.
    10030    2    1    2    0    0  0.00000000000E+00  0.00000000000E+00 -0.14768655723E+03  0.25053402630E+04  0.25009835094E+04 0.  0.
        1    1    3    3  502    0 -0.24017447635E+03 -0.11266940136E+04 -0.56111272334E+03  0.12813940329E+04  0.50400001928E-02 0. -1.
       -1    1    3    3    0  502  0.24017447635E+03  0.11266940136E+04  0.41342616611E+03  0.12239462301E+04  0.50400001928E-02 0.  1.
</event>
<event>
 5   0  0.1550483E-05  0.2506433E+04  0.7818609E-02  0.8400697E-01
       -2   -1    0    0    0  501  0.00000000000E+00  0.00000000000E+00  0.77083378604E+03  0.77083378604E+03  0.25500000920E-02 0. -1.
        2   -1    0    0  501    0  0.00000000000E+00  0.00000000000E+00 -0.20374718248E+04  0.20374718248E+04  0.25500000920E-02 0.  1.
    10030    2    1    2    0    0  0.00000000000E+00  0.00000000000E+00 -0.12666380388E+04  0.28083056109E+04  0.25064334188E+04 0.  0.
        5    1    3    3  502    0  0.12021927523E+04  0.35195514500E+03 -0.67509491046E+03  0.14229951040E+04  0.46999998093E+01 0. -1.
       -5    1    3    3    0  502 -0.12021927523E+04 -0.35195514500E+03 -0.59154312834E+03  0.13853105069E+04  0.46999998093E+01 0.  1.
</event>
<event>
 5   0  0.1468512E-05  0.2505637E+04  0.7818609E-02  0.8400980E-01
       -2   -1    0    0    0  501  0.00000000000E+00  0.00000000000E+00  0.79930579605E+03  0.79930579606E+03  0.25500000920E-02 0.  1.
        2   -1    0    0  501    0  0.00000000000E+00  0.00000000000E+00 -0.19636470576E+04  0.19636470576E+04  0.25500000920E-02 0. -1.
    10030    2    1    2    0    0  0.00000000000E+00  0.00000000000E+00 -0.11643412616E+04  0.27629528537E+04  0.25056372240E+04 0.  0.
        4    1    3    3  502    0  0.10457404460E+04  0.68987691792E+03 -0.58993812736E+03  0.13847497425E+04  0.12699999809E+01 0. -1.
       -4    1    3    3    0  502 -0.10457404460E+04 -0.68987691792E+03 -0.57440313419E+03  0.13782031112E+04  0.12699999809E+01 0.  1.
</event>
<event>
 5   0  0.6290861E-06  0.2497608E+04  0.7818609E-02  0.8403838E-01
       -1   -1    0    0    0  501  0.00000000000E+00  0.00000000000E+00  0.75552495614E+03  0.75552495616E+03  0.50400001928E-02 0.  1.
        1   -1    0    0  501    0  0.00000000000E+00  0.00000000000E+00 -0.20641427454E+04  0.20641427454E+04  0.50400001928E-02 0. -1.
    10030    2    1    2    0    0  0.00000000000E+00  0.00000000000E+00 -0.13086177893E+04  0.28196677016E+04  0.24976079414E+04 0.  0.
        1    1    3    3  502    0  0.34296296757E+03  0.65912682627E+03 -0.17874478476E+04  0.19357276612E+04  0.50400001928E-02 0. -1.
       -1    1    3    3    0  502 -0.34296296757E+03 -0.65912682627E+03  0.47883005835E+03  0.88394004041E+03  0.50400001928E-02 0.  1.
</event>
<event>
 5   0  0.1501947E-05  0.2508975E+04  0.7818609E-02  0.8399795E-01
       -2   -1    0    0    0  501  0.00000000000E+00  0.00000000000E+00  0.25428204631E+04  0.25428204631E+04  0.25500000920E-02 0.  1.
        2   -1    0    0  501    0  0.00000000000E+00  0.00000000000E+00 -0.61889481549E+03  0.61889481549E+03  0.25500000920E-02 0. -1.
    10030    2    1    2    0    0  0.00000000000E+00  0.00000000000E+00  0.19239256476E+04  0.31617152786E+04  0.25089746123E+04 0.  0.
        3    1    3    3  502    0 -0.43957214233E+02  0.89122386933E+03  0.20731417558E+04  0.22570177164E+04  0.10100000352E+00 0.  1.
       -3    1    3    3    0  502  0.43957214233E+02 -0.89122386933E+03 -0.14921610824E+03  0.90469756223E+03  0.10100000352E+00 0. -1.
</event>
<event>
 5   0  0.1572732E-05  0.2469965E+04  0.7818609E-02  0.8413764E-01
        2   -1    0    0  501    0  0.00000000000E+00  0.00000000000E+00  0.14084830030E+04  0.14084830030E+04  0.25500000920E-02 0. -1.
       -2   -1    0    0    0  501  0.00000000000E+00  0.00000000000E+00 -0.10828544385E+04  0.10828544385E+04  0.25500000920E-02 0.  1.
    10030    2    1    2    0    0  0.00000000000E+00  0.00000000000E+00  0.32562856445E+03  0.24913374415E+04  0.24699652397E+04 0.  0.
        1    1    3    3  502    0 -0.83811968926E+02 -0.12251922431E+04  0.31064017474E+02  0.12284483921E+04  0.50400001928E-02 0.  1.
       -1    1    3    3    0  502  0.83811968926E+02  0.12251922431E+04  0.29456454697E+03  0.12628890494E+04  0.50400001928E-02 0. -1.
</event>
<event>
 5   0  0.6346420E-06  0.2498605E+04  0.7818609E-02  0.8403483E-01
       -1   -1    0    0    0  501  0.00000000000E+00  0.00000000000E+00  0.10317328931E+04  0.10317328931E+04  0.50400001928E-02 0. -1.
        1   -1    0    0  501    0  0.00000000000E+00  0.00000000000E+00 -0.15127524736E+04  0.15127524736E+04  0.50400001928E-02 0.  1.
    10030    2    1    2    0    0  0.00000000000E+00  0.00000000000E+00 -0.48101958048E+03  0.25444853667E+04  0.24986047996E+04 0.  0.
        4    1    3    3  502    0  0.43949268390E+03 -0.11098267219E+04  0.13488588753E+03  0.12012763992E+04  0.12699999809E+01 0.  1.
       -4    1    3    3    0  502 -0.43949268390E+03  0.11098267219E+04 -0.61590546800E+03  0.13432089674E+04  0.12699999809E+01 0. -1.
</event>
<event>
 5   0  0.1501947E-05  0.2497408E+04  0.7818609E-02  0.8403910E-01
        2   -1    0    0  501    0  0.00000000000E+00  0.00000000000E+00  0.10694707504E+04  0.10694707504E+04  0.25500000920E-02 0. -1.
       -2   -1    0    0    0  501  0.00000000000E+00  0.00000000000E+00 -0.14579746129E+04  0.14579746129E+04  0.25500000920E-02 0.  1.
    10030    2    1    2    0    0  0.00000000000E+00  0.00000000000E+00 -0.38850386259E+03  0.25274453633E+04  0.24974076186E+04 0.  0.
        3    1    3    3  502    0 -0.12306714570E+04  0.21088688578E+03 -0.17871542893E+03  0.12613345029E+04  0.10100000352E+00 0.  1.
       -3    1    3    3    0  502  0.12306714570E+04 -0.21088688578E+03 -0.20978843366E+03  0.12661108603E+04  0.10100000352E+00 0. -1.
</event>
<event>
 5   0  0.1572732E-05  0.2486564E+04  0.7818609E-02  0.8407788E-01
       -2   -1    0    0    0  501  0.00000000000E+00  0.00000000000E+00  0.63793632485E+03  0.63793632486E+03  0.25500000920E-02 0.  1.
        2   -1    0    0  501    0  0.00000000000E+00  0.00000000000E+00 -0.24230480831E+04  0.24230480831E+04  0.25500000920E-02 0. -1.
    10030    2    1    2    0    0  0.00000000000E+00  0.00000000000E+00 -0.17851117582E+04  0.30609844079E+04  0.24865642071E+04 0.  0.
        1    1    3    3  502    0  0.34860680360E+03 -0.20272394307E+03 -0.23403020342E+04  0.23747920565E+04  0.50400001928E-02 0. -1.
       -1    1    3    3    0  502 -0.34860680360E+03  0.20272394307E+03  0.55519027594E+03  0.68619235141E+03  0.50400001928E-02 0.  1.
</event>
<event>
 5   0  0.6104486E-06  0.2507232E+04  0.7818609E-02  0.8400413E-01
       -1   -1    0    0    0  501  0.00000000000E+00  0.00000000000E+00  0.18100275825E+04  0.18100275825E+04  0.50400001928E-02 0. -1.
        1   -1    0    0  501    0  0.00000000000E+00  0.00000000000E+00 -0.86824844103E+03  0.86824844105E+03  0.50400001928E-02 0.  1.
    10030    2    1    2    0    0  0.00000000000E+00  0.00000000000E+00  0.94177914151E+03  0.26782760236E+04  0.25072324398E+04 0.  0.
        2    1    3    3  502    0 -0.48701098961E+03 -0.11354026628E+04  0.24369566936E+03  0.12592483830E+04  0.25500000920E-02 0.  1.
       -2    1    3    3    0  502  0.48701098961E+03  0.11354026628E+04  0.69808347215E+03  0.14190276406E+04  0.25500000920E-02 0. -1.
</event>
<event>
 5   0  0.1550483E-05  0.2505836E+04  0.7818609E-02  0.8400909E-01
        2   -1    0    0  501    0  0.00000000000E+00  0.00000000000E+00  0.89404794087E+03  0.89404794087E+03  0.25500000920E-02 0.  1.
       -2   -1    0    0    0  501  0.00000000000E+00  0.00000000000E+00 -0.17558378130E+04  0.17558378130E+04  0.25500000920E-02 0. -1.
    10030    2    1    2    0    0  0.00000000000E+00  0.00000000000E+00 -0.86178987211E+03  0.26498857538E+04  0.25058357338E+04 0.  0.
        5    1    3    3  502    0  0.80452554632E+03  0.39953952833E+02 -0.14457086105E+04  0.16549782928E+04  0.46999998093E+01 0. -1.
       -5    1    3    3    0  502 -0.80452554632E+03 -0.39953952833E+02  0.58391873841E+03  0.99490746107E+03  0.46999998093E+01 0.  1.
</event>
<event>
 5   0  0.6290861E-06  0.2484180E+04  0.7818609E-02  0.8408643E-01
        1   -1    0    0  501    0  0.00000000000E+00  0.00000000000E+00  0.21889633820E+04  0.21889633820E+04  0.50400001928E-02 0.  1.
       -1   -1    0    0    0  501  0.00000000000E+00  0.00000000000E+00 -0.70480287635E+03  0.70480287637E+03  0.50400001928E-02 0. -1.
    10030    2    1    2    0    0  0.00000000000E+00  0.00000000000E+00  0.14841605057E+04  0.28937662584E+04  0.24841800965E+04 0.  0.
        1    1    3    3  502    0  0.34765613414E+03 -0.31527786275E+03  0.20817012608E+04  0.21339505752E+04  0.50400001928E-02 0.  1.
       -1    1    3    3    0  502 -0.34765613414E+03  0.31527786275E+03 -0.59754075511E+03  0.75981568317E+03  0.50400001928E-02 0. -1.
</event>
<event>
 5   0  0.1572732E-05  0.2512195E+04  0.7818609E-02  0.8398654E-01
       -2   -1    0    0    0  501  0.00000000000E+00  0.00000000000E+00  0.12185505198E+04  0.12185505198E+04  0.25500000920E-02 0. -1.
        2   -1    0    0  501    0  0.00000000000E+00  0.00000000000E+00 -0.12948015392E+04  0.12948015392E+04  0.25500000920E-02 0.  1.
    10030    2    1    2    0    0  0.00000000000E+00  0.00000000000E+00 -0.76251019385E+02  0.25133520591E+04  0.25121951267E+04 0.  0.
        1    1    3    3  502    0  0.95577790020E+03 -0.53728244235E+03 -0.65126765953E+03  0.12752777665E+04  0.50400001928E-02 0.  1.
       -1    1    3    3    0  502 -0.95577790020E+03  0.53728244235E+03  0.57501664015E+03  0.12380742925E+04  0.50400001928E-02 0. -1.
</event>
<event>
 5   0  0.1526824E-05  0.2500050E+04  0.7818609E-02  0.8402968E-01
       -2   -1    0    0    0  501  0.00000000000E+00  0.00000000000E+00  0.22779606585E+04  0.22779606585E+04  0.25500000920E-02 0.  1.
        2   -1    0    0  501    0  0.00000000000E+00  0.00000000000E+00 -0.68594770798E+03  0.68594770799E+03  0.25500000920E-02 0. -1.
    10030    2    1    2    0    0  0.00000000000E+00  0.00000000000E+00  0.15920129505E+04  0.29639083665E+04  0.25000495136E+04 0.  0.
        2    1    3    3  502    0 -0.55618837012E+02  0.15778536217E+03 -0.67261484373E+03  0.69310922917E+03  0.25500000920E-02 0. -1.
       -2    1    3    3    0  502  0.55618837012E+02 -0.15778536217E+03  0.22646277943E+04  0.22707991374E+04  0.25500000920E-02 0.  1.
</event>
<event>
 5   0  0.6477703E-06  0.2502659E+04  0.7818609E-02  0.8402039E-01
        1   -1    0    0  501    0  0.00000000000E+00  0.00000000000E+00  0.16681716999E+04  0.16681716999E+04  0.50400001928E-02 0.  1.
       -1   -1    0    0    0  501  0.00000000000E+00  0.00000000000E+00 -0.93864789746E+03  0.93864789748E+03  0.50400001928E-02 0. -1.
    10030    2    1    2    0    0  0.00000000000E+00  0.00000000000E+00  0.72952380241E+03  0.26068195974E+04  0.25026592726E+04 0.  0.
        5    1    3    3  502    0  0.55507816046E+03 -0.72154671215E+03  0.12590168741E+04  0.15536688840E+04  0.46999998093E+01 0.  1.
       -5    1    3    3    0  502 -0.55507816046E+03  0.72154671215E+03 -0.52949307166E+03  0.10531507133E+04  0.46999998093E+01 0. -1.
</event>
<event>
 5   0  0.6105353E-06  0.2500802E+04  0.7818609E-02  0.8402700E-01
        1   -1    0    0  501    0  0.00000000000E+00  0.00000000000E+00  0.15015839979E+04  0.15015839979E+04  0.50400001928E-02 0.  1.
       -1   -1    0    0    0  501  0.00000000000E+00  0.00000000000E+00 -0.10412352521E+04  0.10412352521E+04  0.50400001928E-02 0. -1.
    10030    2    1    2    0    0  0.00000000000E+00  0.00000000000E+00  0.46034874578E+03  0.25428192500E+04  0.25008016256E+04 0.  0.
        3    1    3    3  502    0  0.73604900962E+03  0.66200691993E+03  0.10068676762E+04  0.14120211876E+04  0.10100000352E+00 0. -1.
       -3    1    3    3    0  502 -0.73604900962E+03 -0.66200691993E+03 -0.54651893040E+03  0.11307980625E+04  0.10100000352E+00 0.  1.
</event>
<event>
 5   0  0.1501947E-05  0.2514872E+04  0.7818609E-02  0.8397706E-01
        2   -1    0    0  501    0  0.00000000000E+00  0.00000000000E+00  0.20570781324E+04  0.20570781324E+04  0.25500000920E-02 0. -1.
       -2   -1    0    0    0  501  0.00000000000E+00  0.00000000000E+00 -0.76863632486E+03  0.76863632487E+03  0.25500000920E-02 0.  1.
    10030    2    1    2    0    0  0.00000000000E+00  0.00000000000E+00  0.12884418075E+04  0.28257144572E+04  0.25148717467E+04 0.  0.
        3    1    3    3  502    0  0.11944387380E+03 -0.37336704185E+03 -0.69822475385E+03  0.80074190850E+03  0.10100000352E+00 0.  1.
       -3    1    3    3    0  502 -0.11944387380E+03  0.37336704185E+03  0.19866665614E+04  0.20249725487E+04  0.10100000352E+00 0. -1.
</event>
<event>
 5   0  0.1550483E-05  0.2513639E+04  0.7818609E-02  0.8398143E-01
       -2   -1    0    0    0  501  0.00000000000E+00  0.00000000000E+00  0.14142951991E+04  0.14142951991E+04  0.25500000920E-02 0.  1.
        2   -1    0    0  501    0  0.00000000000E+00  0.00000000000E+00 -0.11168779152E+04  0.11168779152E+04  0.25500000920E-02 0. -1.
    10030    2    1    2    0    0  0.00000000000E+00  0.00000000000E+00  0.29741728391E+03  0.25311731142E+04  0.25136388550E+04 0.  0.
        5    1    3    3  502    0  0.40318790329E+03 -0.11847278370E+04  0.32001727507E+02  0.12518732898E+04  0.46999998093E+01 0. -1.
       -5    1    3    3    0  502 -0.40318790329E+03  0.11847278370E+04  0.26541555640E+03  0.12792998244E+04  0.46999998093E+01 0.  1.
</event>
<event>
 5   0  0.6477703E-06  0.2451584E+04  0.7818609E-02  0.8420440E-01
        1   -1    0    0  501    0  0.00000000000E+00  0.00000000000E+00  0.11883568423E+04  0.11883568423E+04  0.50400001928E-02 0. -1.
       -1   -1    0    0    0  501  0.00000000000E+00  0.00000000000E+00 -0.12644062549E+04  0.12644062549E+04  0.50400001928E-02 0.  1.
    10030    2    1    2    0    0  0.00000000000E+00  0.00000000000E+00 -0.76049412650E+02  0.24527630972E+04  0.24515838346E+04 0.  0.
        5    1    3    3  502    0  0.16420555318E+03  0.84016884382E+02 -0.12504332811E+04  0.12639730144E+04  0.46999998093E+01 0.  1.
       -5    1    3    3    0  502 -0.16420555318E+03 -0.84016884382E+02  0.11743838685E+04  0.11887900829E+04  0.46999998093E+01 0. -1.
</event>
<event>
 5   0  0.1572732E-05  0.2496113E+04  0.7818609E-02  0.8404372E-01
       -2   -1    0    0    0  501  0.00000000000E+00  0.00000000000E+00  0.83666892195E+03  0.83666892195E+03  0.25500000920E-02 0.  1.
        2   -1    0    0  501    0  0.00000000000E+00  0.00000000000E+00 -0.18617216487E+04  0.18617216487E+04  0.25500000920E-02 0. -1.
    10030    2    1    2    0    0  0.00000000000E+00  0.00000000000E+00 -0.10250527268E+04  0.26983905707E+04  0.24961126936E+04 0.  0.
        1    1    3    3  502    0  0.83719891121E+03 -0.32436981056E+03  0.42463175889E+03  0.99319178492E+03  0.50400001928E-02 0.  1.
       -1    1    3    3    0  502 -0.83719891121E+03  0.32436981056E+03 -0.14496844857E+04  0.17051987858E+04  0.50400001928E-02 0. -1.
</event>
<event>
 5   0  0.6290861E-06  0.2500731E+04  0.7818609E-02  0.8402725E-01
       -1   -1    0    0    0  501  0.00000000000E+00  0.00000000000E+00  0.10023984994E+04  0.10023984995E+04  0.50400001928E-02 0. -1.
        1   -1    0    0  501    0  0.00000000000E+00  0.00000000000E+00 -0.15596731686E+04  0.15596731686E+04  0.50400001928E-02 0.  1.
    10030    2    1    2    0    0  0.00000000000E+00  0.00000000000E+00 -0.55727466918E+03  0.25620716681E+04  0.25007311282E+04 0.  0.
        1    1    3    3  502    0  0.10647374774E+04  0.39928949365E+02  0.39174751223E+03  0.11352208288E+04  0.50400001928E-02 0. -1.
       -1    1    3    3    0  502 -0.10647374774E+04 -0.39928949365E+02 -0.94902218140E+03  0.14268508393E+04  0.50400001928E-02 0.  1.
</event>
<event>
 5   0  0.1501947E-05  0.2362035E+04  0.7818609E-02  0.8453855E-01
        2   -1    0    0  501    0  0.00000000000E+00  0.00000000000E+00  0.71475152425E+03  0.71475152426E+03  0.25500000920E-02 0.  1.
       -2   -1    0    0    0  501  0.00000000000E+00  0.00000000000E+00 -0.19514513970E+04  0.19514513970E+04  0.25500000920E-02 0. -1.
    10030    2    1    2    0    0  0.00000000000E+00  0.00000000000E+00 -0.12366998727E+04  0.26662029212E+04  0.23620354447E+04 0.  0.
        3    1    3    3  502    0 -0.44306996258E+03 -0.84194110394E+03  0.17149071987E+03  0.96673930894E+03  0.10100000352E+00 0.  1.
       -3    1    3    3    0  502  0.44306996258E+03  0.84194110394E+03 -0.14081905926E+04  0.16994636123E+04  0.10100000352E+00 0. -1.
</event>
<event>
 5   0  0.1468512E-05  0.2509334E+04  0.7818609E-02  0.8399668E-01
       -2   -1    0    0    0  501  0.00000000000E+00  0.00000000000E+00  0.12965254810E+04  0.12965254810E+04  0.25500000920E-02 0. -1.
        2   -1    0    0  501    0  0.00000000000E+00  0.00000000000E+00 -0.12141600921E+04  0.12141600921E+04  0.25500000920E-02 0.  1.
    10030    2    1    2    0    0  0.00000000000E+00  0.00000000000E+00  0.82365388889E+02  0.25106855732E+04  0.25093341726E+04 0.  0.
        4    1    3    3  502    0 -0.99855276321E+03 -0.48231859255E+03  0.62839657757E+03  0.12746068873E+04  0.12699999809E+01 0. -1.
       -4    1    3    3    0  502  0.99855276321E+03  0.48231859255E+03 -0.54603118868E+03  0.12360786858E+04  0.12699999809E+01 0.  1.
</event>
<event>
 5   0  0.1526824E-05  0.2489276E+04  0.7818609E-02  0.8406816E-01
        2   -1    0    0  501    0  0.00000000000E+00  0.00000000000E+00  0.22899738878E+04  0.22899738878E+04  0.25500000920E-02 0. -1.
       -2   -1    0    0    0  501  0.00000000000E+00  0.00000000000E+00 -0.67648111870E+03  0.67648111871E+03  0.25500000920E-02 0.  1.
    10030    2    1    2    0    0  0.00000000000E+00  0.00000000000E+00  0.16134927691E+04  0.29664550066E+04  0.24892762783E+04 0.  0.
        2    1    3    3  502    0 -0.77501259411E+03  0.16489898073E+03  0.19505786666E+04  0.21053724918E+04  0.25500000920E-02 0. -1.
       -2    1    3    3    0  502  0.77501259411E+03 -0.16489898073E+03 -0.33708589745E+03  0.86108251471E+03  0.25500000920E-02 0.  1.
</event>
<event>
 5   0  0.1526824E-05  0.2460896E+04  0.7818609E-02  0.8417050E-01
        2   -1    0    0  501    0  0.00000000000E+00  0.00000000000E+00  0.95106814217E+03  0.95106814218E+03  0.25500000920E-02 0.  1.
       -2   -1    0    0    0  501  0.00000000000E+00  0.00000000000E+00 -0.15918969663E+04  0.15918969663E+04  0.25500000920E-02 0. -1.
    10030    2    1    2    0    0  0.00000000000E+00  0.00000000000E+00 -0.64082882410E+03  0.25429651085E+04  0.24608961703E+04 0.  0.
        2    1    3    3  502    0  0.99954728199E+03 -0.47264254270E+02  0.41947647380E+03  0.10850295806E+04  0.25500000920E-02 0.  1.
       -2    1    3    3    0  502 -0.99954728199E+03  0.47264254270E+02 -0.10603052979E+04  0.14579355279E+04  0.25500000920E-02 0. -1.
</event>
<event>
 5   0  0.1572732E-05  0.2508600E+04  0.7818609E-02  0.8399928E-01
       -2   -1    0    0    0  501  0.00000000000E+00  0.00000000000E+00  0.16693227855E+04  0.16693227855E+04  0.25500000920E-02 0.  1.
        2   -1    0    0  501    0  0.00000000000E+00  0.00000000000E+00 -0.94245908174E+03  0.94245908174E+03  0.25500000920E-02 0. -1.
    10030    2    1    2    0    0  0.00000000000E+00  0.00000000000E+00  0.72686370376E+03  0.26117818672E+04  0.25085999438E+04 0.  0.
        1    1    3    3  502    0  0.43956461800E+03  0.62249167614E+03 -0.67381682559E+03  0.10172227164E+04  0.50400001928E-02 0. -1.
       -1    1    3    3    0  502 -0.43956461800E+03 -0.62249167614E+03  0.14006805293E+04  0.15945591509E+04  0.50400001928E-02 0.  1.
</event>
<event>
 5   0  0.6477703E-06  0.2511022E+04  0.7818609E-02  0.8399069E-01
        1   -1    0    0  501    0  0.00000000000E+00  0.00000000000E+00  0.10100759624E+04  0.10100759624E+04  0.50400001928E-02 0.  1.
       -1   -1    0    0    0  501  0.00000000000E+00  0.00000000000E+00 -0.15605839244E+04  0.15605839244E+04  0.50400001928E-02 0. -1.
    10030    2    1    2    0    0  0.00000000000E+00  0.00000000000E+00 -0.55050796207E+03  0.25706598868E+04  0.25110223490E+04 0.  0.
        5    1    3    3  502    0  0.15518122357E+03 -0.10781088049E+04  0.36398476739E+03  0.11484366801E+04  0.46999998093E+01 0.  1.
       -5    1    3    3    0  502 -0.15518122357E+03  0.10781088049E+04 -0.91449272946E+03  0.14222232067E+04  0.46999998093E+01 0. -1.
</event>
<event>
 5   0  0.6290861E-06  0.2491861E+04  0.7818609E-02  0.8405891E-01
       -1   -1    0    0    0  501  0.00000000000E+00  0.00000000000E+00  0.12285316490E+04  0.12285316490E+04  0.50400001928E-02 0.  1.
        1   -1    0    0  501    0  0.00000000000E+00  0.00000000000E+00 -0.12635753874E+04  0.12635753874E+04  0.50400001928E-02 0. -1.
    10030    2    1    2    0    0  0.00000000000E+00  0.00000000000E+00 -0.35043738349E+02  0.24921070364E+04  0.24918606336E+04 0.  0.
        1    1    3    3  502    0  0.88366148604E+03  0.81367022096E+03 -0.34834983905E+03  0.12507055852E+04  0.50400001928E-02 0. -1.
       -1    1    3    3    0  502 -0.88366148604E+03 -0.81367022096E+03  0.31330610070E+03  0.12414014512E+04  0.50400001928E-02 0.  1.
</event>
<event>
 5   0  0.1572732E-05  0.2489336E+04  0.7818609E-02  0.8406794E-01
       -2   -1    0    0    0  501  0.00000000000E+00  0.00000000000E+00  0.11178906379E+04  0.11178906379E+04  0.25500000920E-02 0. -1.
        2   -1    0    0  501    0  0.00000000000E+00  0.00000000000E+00 -0.13858234073E+04  0.13858234073E+04  0.25500000920E-02 0.  1.
    10030    2    1    2    0    0  0.00000000000E+00  0.00000000000E+00 -0.26793276941E+03  0.25037140452E+04  0.24893364680E+04 0.  0.
        1    1    3    3  502    0  0.64541718894E+03 -0.10440568600E+04  0.73576924198E+02  0.12296469569E+04  0.50400001928E-02 0.  1.
       -1    1    3    3    0  502 -0.64541718894E+03  0.10440568600E+04 -0.34150969360E+03  0.12740670883E+04  0.50400001928E-02 0. -1.
</event>
<event>
 5   0  0.6104486E-06  0.2487355E+04  0.7818609E-02  0.8407504E-01
        1   -1    0    0  501    0  0.00000000000E+00  0.00000000000E+00  0.14638467164E+04  0.14638467164E+04  0.50400001928E-02 0. -1.
       -1   -1    0    0    0  501  0.00000000000E+00  0.00000000000E+00 -0.10566228803E+04  0.10566228803E+04  0.50400001928E-02 0.  1.
    10030    2    1    2    0    0  0.00000000000E+00  0.00000000000E+00  0.40722383615E+03  0.25204695967E+04  0.24873551687E+04 0.  0.
        2    1    3    3  502    0  0.64681553035E+03 -0.83764552900E+03 -0.45831781323E+03  0.11532890273E+04  0.25500000920E-02 0.  1.
       -2    1    3    3    0  502 -0.64681553035E+03  0.83764552900E+03  0.86554164937E+03  0.13671805694E+04  0.25500000920E-02 0. -1.
</event>
<event>
 5   0  0.6105353E-06  0.2513166E+04  0.7818609E-02  0.8398310E-01
        1   -1    0    0  501    0  0.00000000000E+00  0.00000000000E+00  0.26643196839E+04  0.26643196839E+04  0.50400001928E-02 0. -1.
       -1   -1    0    0    0  501  0.00000000000E+00  0.00000000000E+00 -0.59264672707E+03  0.59264672709E+03  0.50400001928E-02 0.  1.
    10030    2    1    2    0    0  0.00000000000E+00  0.00000000000E+00  0.20716729568E+04  0.32569664110E+04  0.25131656058E+04 0.  0.
        3    1    3    3  502    0  0.11226809316E+04 -0.55844033772E+03  0.11421704763E+04  0.16961195395E+04  0.10100000352E+00 0. -1.
       -3    1    3    3    0  502 -0.11226809316E+04  0.55844033772E+03  0.92950248045E+03  0.15608468715E+04  0.10100000352E+00 0.  1.
</event>
<event>
 5   0  0.6346420E-06  0.2500147E+04  0.7818609E-02  0.8402933E-01
       -1   -1    0    0    0  501  0.00000000000E+00  0.00000000000E+00  0.16318083899E+04  0.16318083899E+04  0.50400001928E-02 0.  1.
        1   -1    0    0  501    0  0.00000000000E+00  0.00000000000E+00 -0.95763893467E+03  0.95763893468E+03  0.50400001928E-02 0. -1.
    10030    2    1    2    0    0  0.00000000000E+00  0.00000000000E+00  0.67416945522E+03  0.25894473246E+04  0.25001465942E+04 0.  0.
        4    1    3    3  502    0  0.50595362262E+03 -0.96972049217E+03 -0.28978984758E+03  0.11315152097E+04  0.12699999809E+01 0. -1.
       -4    1    3    3    0  502 -0.50595362262E+03  0.96972049217E+03  0.96395930280E+03  0.14579321149E+04  0.12699999809E+01 0.  1.
</event>
<event>
 5   0  0.1572732E-05  0.2505859E+04  0.7818609E-02  0.8400901E-01
        2   -1    0    0  501    0  0.00000000000E+00  0.00000000000E+00  0.18125313238E+04  0.18125313238E+04  0.25500000920E-02 0. -1.
       -2   -1    0    0    0  501  0.00000000000E+00  0.00000000000E+00 -0.86609915731E+03  0.86609915731E+03  0.25500000920E-02 0.  1.
    10030    2    1    2    0    0  0.00000000000E+00  0.00000000000E+00  0.94643216645E+03  0.26786304811E+04  0.25058586170E+04 0.  0.
        1    1    3    3  502    0  0.12296916581E+04 -0.21604604977E+03  0.36103068905E+03  0.12996771246E+04  0.50400001928E-02 0. -1.
       -1    1    3    3    0  502 -0.12296916581E+04  0.21604604977E+03  0.58540147740E+03  0.13789533565E+04  0.50400001928E-02 0.  1.
</event>
<event>
 5   0  0.6104486E-06  0.2490910E+04  0.7818609E-02  0.8406231E-01
        1   -1    0    0  501    0  0.00000000000E+00  0.00000000000E+00  0.15696701385E+04  0.15696701386E+04  0.50400001928E-02 0. -1.
       -1   -1    0    0    0  501  0.00000000000E+00  0.00000000000E+00 -0.98820627783E+03  0.98820627784E+03  0.50400001928E-02 0.  1.
    10030    2    1    2    0    0  0.00000000000E+00  0.00000000000E+00  0.58146386072E+03  0.25578764164E+04  0.24909097816E+04 0.  0.
        2    1    3    3  502    0 -0.10918654032E+04 -0.42490011915E+03 -0.14305559187E+03  0.11803283747E+04  0.25500000920E-02 0. -1.
       -2    1    3    3    0  502  0.10918654032E+04  0.42490011915E+03  0.72451945259E+03  0.13775480416E+04  0.25500000920E-02 0.  1.
</event>
<event>
 5   0  0.6477703E-06  0.2496638E+04  0.7818609E-02  0.8404184E-01
        1   -1    0    0  501    0  0.00000000000E+00  0.00000000000E+00  0.20926459221E+04  0.20926459221E+04  0.50400001928E-02 0.  1.
       -1   -1    0    0    0  501  0.00000000000E+00  0.00000000000E+00 -0.74465560352E+03  0.74465560354E+03  0.50400001928E-02 0. -1.
    10030    2    1    2    0    0  0.00000000000E+00  0.00000000000E+00  0.13479903186E+04  0.28373015256E+04  0.24966381493E+04 0.  0.
        5    1    3    3  502    0 -0.33559117411E+03  0.86753729872E+03 -0.27208469177E+03  0.96917210562E+03  0.46999998093E+01 0. -1.
       -5    1    3    3    0  502  0.33559117411E+03 -0.86753729872E+03  0.16200750104E+04  0.18681294200E+04  0.46999998093E+01 0.  1.
</event>
<event>
 5   0  0.6477703E-06  0.2338582E+04  0.7818609E-02  0.8462862E-01
       -1   -1    0    0    0  501  0.00000000000E+00  0.00000000000E+00  0.10063460535E+04  0.10063460535E+04  0.50400001928E-02 0. -1.
        1   -1    0    0  501    0  0.00000000000E+00  0.00000000000E+00 -0.13586198861E+04  0.13586198861E+04  0.50400001928E-02 0.  1.
    10030    2    1    2    0    0  0.00000000000E+00  0.00000000000E+00 -0.35227383262E+03  0.23649659396E+04  0.23385822719E+04 0.  0.
        5    1    3    3  502    0  0.91173384806E+03  0.70292122411E+03  0.30775448377E+02  0.11516623095E+04  0.46999998093E+01 0.  1.
       -5    1    3    3    0  502 -0.91173384806E+03 -0.70292122411E+03 -0.38304928099E+03  0.12133036300E+04  0.46999998093E+01 0. -1.
</event>
<event>
 5   0  0.1572732E-05  0.2498135E+04  0.7818609E-02  0.8403650E-01
       -2   -1    0    0    0  501  0.00000000000E+00  0.00000000000E+00  0.11935466730E+04  0.11935466730E+04  0.25500000920E-02 0.  1.
        2   -1    0    0  501    0  0.00000000000E+00  0.00000000000E+00 -0.13071711811E+04  0.13071711811E+04  0.25500000920E-02 0. -1.
    10030    2    1    2    0    0  0.00000000000E+00  0.00000000000E+00 -0.11362450813E+03  0.25007178541E+04  0.24981351558E+04 0.  0.
        1    1    3    3  502    0  0.97888162517E+03  0.58565453134E+02 -0.83125972674E+03  0.12855473082E+04  0.50400001928E-02 0. -1.
       -1    1    3    3    0  502 -0.97888162517E+03 -0.58565453134E+02  0.71763521861E+03  0.12151705458E+04  0.50400001928E-02 0.  1.
</event>
<event>
 5   0  0.6477703E-06  0.2505740E+04  0.7818609E-02  0.8400943E-01
       -1   -1    0    0    0  501  0.00000000000E+00  0.00000000000E+00  0.91633010587E+03  0.91633010589E+03  0.50400001928E-02 0. -1.
        1   -1    0    0  501    0  0.00000000000E+00  0.00000000000E+00 -0.17130107789E+04  0.17130107789E+04  0.50400001928E-02 0.  1.
    10030    2    1    2    0    0  0.00000000000E+00  0.00000000000E+00 -0.79668067301E+03  0.26293408848E+04  0.25057400890E+04 0.  0.
        5    1    3    3  502    0  0.34077166607E+03  0.11998758136E+04 -0.27492072890E+03  0.12772747526E+04  0.46999998093E+01 0. -1.
       -5    1    3    3    0  502 -0.34077166607E+03 -0.11998758136E+04 -0.52175994412E+03  0.13520661322E+04  0.46999998093E+01 0.  1.
</event>
<event>
 5   0  0.1526824E-05  0.2506745E+04  0.7818609E-02  0.8400586E-01
        2   -1    0    0  501    0  0.00000000000E+00  0.00000000000E+00  0.14146627125E+04  0.14146627125E+04  0.25500000920E-02 0. -1.
       -2   -1    0    0    0  501  0.00000000000E+00  0.00000000000E+00 -0.11104717776E+04  0.11104717776E+04  0.25500000920E-02 0.  1.
    10030    2    1    2    0    0  0.00000000000E+00  0.00000000000E+00  0.30419093491E+03  0.25251344902E+04  0.25067453139E+04 0.  0.
        2    1    3    3  502    0  0.11991407191E+04 -0.35163341676E+03  0.24954443970E+03  0.12743064590E+04  0.25500000920E-02 0. -1.
       -2    1    3    3    0  502 -0.11991407191E+04  0.35163341676E+03  0.54646495209E+02  0.12508280312E+04  0.25500000920E-02 0.  1.
</event>
<event>
 5   0  0.6104486E-06  0.2491234E+04  0.7818609E-02  0.8406115E-01
        1   -1    0    0  501    0  0.00000000000E+00  0.00000000000E+00  0.14371851722E+04  0.14371851722E+04  0.50400001928E-02 0. -1.
       -1   -1    0    0    0  501  0.00000000000E+00  0.00000000000E+00 -0.10795839278E+04  0.10795839278E+04  0.50400001928E-02 0.  1.
    10030    2    1    2    0    0  0.00000000000E+00  0.00000000000E+00  0.35760124436E+03  0.25167691000E+04  0.24912342428E+04 0.  0.
        2    1    3    3  502    0  0.23740171725E+03  0.10013346388E+04 -0.53019860314E+03  0.11576446747E+04  0.25500000920E-02 0.  1.
       -2    1    3    3    0  502 -0.23740171725E+03 -0.10013346388E+04  0.88779984750E+03  0.13591244253E+04  0.25500000920E-02 0. -1.
</event>
<event>
 5   0  0.1550483E-05  0.2512509E+04  0.7818609E-02  0.8398543E-01
       -2   -1    0    0    0  501  0.00000000000E+00  0.00000000000E+00  0.87551046855E+03  0.87551046855E+03  0.25500000920E-02 0. -1.
        2   -1    0    0  501    0  0.00000000000E+00  0.00000000000E+00 -0.18025768846E+04  0.18025768846E+04  0.25500000920E-02 0.  1.
    10030    2    1    2    0    0  0.00000000000E+00  0.00000000000E+00 -0.92706641602E+03  0.26780873531E+04  0.25125086530E+04 0.  0.
        5    1    3    3  502    0  0.51951668601E+03 -0.10423903460E+03  0.75056091942E+03  0.91876392351E+03  0.46999998093E+01 0. -1.
       -5    1    3    3    0  502 -0.51951668601E+03  0.10423903460E+03 -0.16776273354E+04  0.17593234296E+04  0.46999998093E+01 0.  1.
</event>
<event>
 5   0  0.1468512E-05  0.2519155E+04  0.7818609E-02  0.8396193E-01
       -2   -1    0    0    0  501  0.00000000000E+00  0.00000000000E+00  0.99333441390E+03  0.99333441391E+03  0.25500000920E-02 0.  1.
        2   -1    0    0  501    0  0.00000000000E+00  0.00000000000E+00 -0.15971817583E+04  0.15971817583E+04  0.25500000920E-02 0. -1.
    10030    2    1    2    0    0  0.00000000000E+00  0.00000000000E+00 -0.60384734442E+03  0.25905161722E+04  0.25191551011E+04 0.  0.
        4    1    3    3  502    0  0.87117514795E+03  0.87705618578E+03 -0.53501609206E+02  0.12373510927E+04  0.12699999809E+01 0.  1.
       -4    1    3    3    0  502 -0.87117514795E+03 -0.87705618578E+03 -0.55034573521E+03  0.13531650796E+04  0.12699999809E+01 0. -1.
</event>
<event>
 5   0  0.1468512E-05  0.2503821E+04  0.7818609E-02  0.8401626E-01
       -2   -1    0    0    0  501  0.00000000000E+00  0.00000000000E+00  0.88652516726E+03  0.88652516726E+03  0.25500000920E-02 0. -1.
        2   -1    0    0  501    0  0.00000000000E+00  0.00000000000E+00 -0.17678908314E+04  0.17678908314E+04  0.25500000920E-02 0.  1.
    10030    2    1    2    0    0  0.00000000000E+00  0.00000000000E+00 -0.88136566414E+03  0.26544159987E+04  0.25038208522E+04 0.  0.
        4    1    3    3  502    0 -0.13774879470E+03  0.52238676761E+01 -0.17598199381E+04  0.17652109921E+04  0.12699999809E+01 0.  1.
       -4    1    3    3    0  502  0.13774879470E+03 -0.52238676761E+01  0.87845427399E+03  0.88920500653E+03  0.12699999809E+01 0. -1.
</event>
<event>
 5   0  0.6477703E-06  0.2498547E+04  0.7818609E-02  0.8403503E-01
       -1   -1    0    0    0  501  0.00000000000E+00  0.00000000000E+00  0.13474856668E+04  0.13474856668E+04  0.50400001928E-02 0. -1.
        1   -1    0    0  501    0  0.00000000000E+00  0.00000000000E+00 -0.11582199187E+04  0.11582199187E+04  0.50400001928E-02 0.  1.
    10030    2    1    2    0    0  0.00000000000E+00  0.00000000000E+00  0.18926574814E+03  0.25057055856E+04  0.24985473696E+04 0.  0.
        5    1    3    3  502    0  0.11440428644E+04 -0.26003064530E+03 -0.33579675993E+03  0.12203407582E+04  0.46999998093E+01 0.  1.
       -5    1    3    3    0  502 -0.11440428644E+04  0.26003064530E+03  0.52506250807E+03  0.12853648274E+04  0.46999998093E+01 0. -1.
</event>
<event>
 5   0  0.5164625E-06  0.2436486E+04  0.7818609E-02  0.8425969E-01
        3   -1    0    0  501    0  0.00000000000E+00  0.00000000000E+00  0.82390315946E+03  0.82390316565E+03  0.10100000352E+00 0.  1.
       -3   -1    0    0    0  501  0.00000000000E+00  0.00000000000E+00 -0.18013235951E+04  0.18013235979E+04  0.10100000352E+00 0. -1.
    10030    2    1    2    0    0  0.00000000000E+00  0.00000000000E+00 -0.97742043562E+03  0.26252267636E+04  0.24364861691E+04 0.  0.
        4    1    3    3  502    0  0.39131102411E+03 -0.18945353834E+02 -0.17315975150E+04  0.17753632898E+04  0.12699999809E+01 0. -1.
       -4    1    3    3    0  502 -0.39131102411E+03  0.18945353834E+02  0.75417707938E+03  0.84986347374E+03  0.12699999809E+01 0.  1.
</event>
<event>
 5   0  0.6477703E-06  0.2513781E+04  0.7818609E-02  0.8398092E-01
       -1   -1    0    0    0  501  0.00000000000E+00  0.00000000000E+00  0.91200193838E+03  0.91200193840E+03  0.50400001928E-02 0. -1.
        1   -1    0    0  501    0  0.00000000000E+00  0.00000000000E+00 -0.17322049567E+04  0.17322049567E+04  0.50400001928E-02 0.  1.
    10030    2    1    2    0    0  0.00000000000E+00  0.00000000000E+00 -0.82020301833E+03  0.26442068951E+04  0.25137814370E+04 0.  0.
        5    1    3    3  502    0 -0.54752807547E+03 -0.26456165196E+03  0.74695784423E+03  0.96319674635E+03  0.46999998093E+01 0. -1.
       -5    1    3    3    0  502  0.54752807547E+03  0.26456165196E+03 -0.15671608626E+04  0.16810101488E+04  0.46999998093E+01 0.  1.
</event>
<event>
 5   0  0.1468512E-05  0.2527277E+04  0.7818609E-02  0.8393332E-01
       -2   -1    0    0    0  501  0.00000000000E+00  0.00000000000E+00  0.14241058373E+04  0.14241058373E+04  0.25500000920E-02 0. -1.
        2   -1    0    0  501    0  0.00000000000E+00  0.00000000000E+00 -0.11212528790E+04  0.11212528790E+04  0.25500000920E-02 0.  1.
    10030    2    1    2    0    0  0.00000000000E+00  0.00000000000E+00  0.30285295829E+03  0.25453587164E+04  0.25272774048E+04 0.  0.
        4    1    3    3  502    0  0.94810205868E+03  0.83484282427E+03  0.18199328255E+03  0.12763162706E+04  0.12699999809E+01 0.  1.
       -4    1    3    3    0  502 -0.94810205868E+03 -0.83484282427E+03  0.12085967574E+03  0.12690424457E+04  0.12699999809E+01 0. -1.
</event>
<event>
 5   0  0.1550483E-05  0.2525467E+04  0.7818609E-02  0.8393969E-01
        2   -1    0    0  501    0  0.00000000000E+00  0.00000000000E+00  0.11047083400E+04  0.11047083400E+04  0.25500000920E-02 0.  1.
       -2   -1    0    0    0  501  0.00000000000E+00  0.00000000000E+00 -0.14433635716E+04  0.14433635716E+04  0.25500000920E-02 0. -1.
    10030    2    1    2    0    0  0.00000000000E+00  0.00000000000E+00 -0.33865523160E+03  0.25480719117E+04  0.25254669076E+04 0.  0.
        5    1    3    3  502    0  0.94882461714E+02  0.65435813124E+03 -0.12547291487E+04  0.14182928372E+04  0.46999998093E+01 0. -1.
       -5    1    3    3    0  502 -0.94882461714E+02 -0.65435813124E+03  0.91607391712E+03  0.11297790745E+04  0.46999998093E+01 0.  1.
</event>
<event>
 5   0  0.6105353E-06  0.2505852E+04  0.7818609E-02  0.8400904E-01
        1   -1    0    0  501    0  0.00000000000E+00  0.00000000000E+00  0.16027121629E+04  0.16027121629E+04  0.50400001928E-02 0. -1.
       -1   -1    0    0    0  501  0.00000000000E+00  0.00000000000E+00 -0.97947972879E+03  0.97947972880E+03  0.50400001928E-02 0.  1.
    10030    2    1    2    0    0  0.00000000000E+00  0.00000000000E+00  0.62323243408E+03  0.25821918917E+04  0.25058524096E+04 0.  0.
        3    1    3    3  502    0 -0.64297182903E+03  0.86363081653E+03  0.97188033316E+03  0.14504559119E+04  0.10100000352E+00 0.  1.
       -3    1    3    3    0  502  0.64297182903E+03 -0.86363081653E+03 -0.34864789909E+03  0.11317359798E+04  0.10100000352E+00 0. -1.
</event>
<event>
 5   0  0.1468512E-05  0.2510977E+04  0.7818609E-02  0.8399085E-01
        2   -1    0    0  501    0  0.00000000000E+00  0.00000000000E+00  0.10875607891E+04  0.10875607891E+04  0.25500000920E-02 0. -1.
       -2   -1    0    0    0  501  0.00000000000E+00  0.00000000000E+00 -0.14493453527E+04  0.14493453527E+04  0.25500000920E-02 0.  1.
    10030    2    1    2    0    0  0.00000000000E+00  0.00000000000E+00 -0.36178456362E+03  0.25369061418E+04  0.25109768422E+04 0.  0.
        4    1    3    3  502    0  0.11825708505E+04  0.13737551612E+03 -0.58363594525E+03  0.13258877699E+04  0.12699999809E+01 0.  1.
       -4    1    3    3    0  502 -0.11825708505E+04 -0.13737551612E+03  0.22185138163E+03  0.12110183720E+04  0.12699999809E+01 0. -1.
</event>
<event>
 5   0  0.1572732E-05  0.2570297E+04  0.7818609E-02  0.8378361E-01
       -2   -1    0    0    0  501  0.00000000000E+00  0.00000000000E+00  0.59241923577E+03  0.59241923577E+03  0.25500000920E-02 0. -1.
        2   -1    0    0  501    0  0.00000000000E+00  0.00000000000E+00 -0.27879022438E+04  0.27879022438E+04  0.25500000920E-02 0.  1.
    10030    2    1    2    0    0  0.00000000000E+00  0.00000000000E+00 -0.21954830080E+04  0.33803214795E+04  0.25702971942E+04 0.  0.
        1    1    3    3  502    0 -0.47668398727E+03  0.11262404790E+04 -0.57836343149E+03  0.13528301812E+04  0.50400001928E-02 0. -1.
       -1    1    3    3    0  502  0.47668398727E+03 -0.11262404790E+04 -0.16171195765E+04  0.20274912984E+04  0.50400001928E-02 0.  1.
</event>
<event>
 5   0  0.6105353E-06  0.2489392E+04  0.7818609E-02  0.8406775E-01
        1   -1    0    0  501    0  0.00000000000E+00  0.00000000000E+00  0.87127481283E+03  0.87127481284E+03  0.50400001928E-02 0.  1.
       -1   -1    0    0    0  501  0.00000000000E+00  0.00000000000E+00 -0.17781620163E+04  0.17781620163E+04  0.50400001928E-02 0. -1.
    10030    2    1    2    0    0  0.00000000000E+00  0.00000000000E+00 -0.90688720343E+03  0.26494368291E+04  0.24893917152E+04 0.  0.
        3    1    3    3  502    0 -0.66612910852E+03  0.10093333742E+04 -0.13990937237E+03  0.12173974257E+04  0.10100000352E+00 0.  1.
       -3    1    3    3    0  502  0.66612910852E+03 -0.10093333742E+04 -0.76697783106E+03  0.14320394034E+04  0.10100000352E+00 0. -1.
</event>
<event>
 5   0  0.1501947E-05  0.2510497E+04  0.7818609E-02  0.8399255E-01
       -2   -1    0    0    0  501  0.00000000000E+00  0.00000000000E+00  0.11260498009E+04  0.11260498009E+04  0.25500000920E-02 0. -1.
        2   -1    0    0  501    0  0.00000000000E+00  0.00000000000E+00 -0.13992709329E+04  0.13992709329E+04  0.25500000920E-02 0.  1.
    10030    2    1    2    0    0  0.00000000000E+00  0.00000000000E+00 -0.27322113201E+03  0.25253207339E+04  0.25104969671E+04 0.  0.
        3    1    3    3  502    0  0.67818785517E+03 -0.26236247935E+03  0.89260049768E+03  0.11513072987E+04  0.10100000352E+00 0. -1.
       -3    1    3    3    0  502 -0.67818785517E+03  0.26236247935E+03 -0.11658216297E+04  0.13740134351E+04  0.10100000352E+00 0.  1.
</event>
<event>
 5   0  0.6105353E-06  0.2407233E+04  0.7818609E-02  0.8436801E-01
       -1   -1    0    0    0  501  0.00000000000E+00  0.00000000000E+00  0.59523084754E+03  0.59523084756E+03  0.50400001928E-02 0.  1.
        1   -1    0    0  501    0  0.00000000000E+00  0.00000000000E+00 -0.24338328075E+04  0.24338328075E+04  0.50400001928E-02 0. -1.
    10030    2    1    2    0    0  0.00000000000E+00  0.00000000000E+00 -0.18386019599E+04  0.30290636551E+04  0.24072327389E+04 0.  0.
        3    1    3    3  502    0 -0.29013752027E+03  0.11650927502E+04 -0.10251153814E+04  0.15787597831E+04  0.10100000352E+00 0.  1.
       -3    1    3    3    0  502  0.29013752027E+03 -0.11650927502E+04 -0.81348657852E+03  0.14503038719E+04  0.10100000352E+00 0. -1.
</event>
<event>
 5   0  0.6477703E-06  0.2669022E+04  0.7818609E-02  0.8345127E-01
       -1   -1    0    0    0  501  0.00000000000E+00  0.00000000000E+00  0.11359505697E+04  0.11359505697E+04  0.50400001928E-02 0. -1.
        1   -1    0    0  501    0  0.00000000000E+00  0.00000000000E+00 -0.15677789396E+04  0.15677789396E+04  0.50400001928E-02 0.  1.
    10030    2    1    2    0    0  0.00000000000E+00  0.00000000000E+00 -0.43182836985E+03  0.27037295093E+04  0.26690218281E+04 0.  0.
        5    1    3    3  502    0  0.56714000572E+03 -0.10870888029E+04 -0.74953502138E+03  0.14370924430E+04  0.46999998093E+01 0.  1.
       -5    1    3    3    0  502 -0.56714000572E+03  0.10870888029E+04  0.31770665153E+03  0.12666370663E+04  0.46999998093E+01 0. -1.
</event>
<event>
 5   0  0.6290861E-06  0.2501701E+04  0.7818609E-02  0.8402380E-01
       -1   -1    0    0    0  501  0.00000000000E+00  0.00000000000E+00  0.93591790834E+03  0.93591790835E+03  0.50400001928E-02 0. -1.
        1   -1    0    0  501    0  0.00000000000E+00  0.00000000000E+00 -0.16717563864E+04  0.16717563864E+04  0.50400001928E-02 0.  1.
    10030    2    1    2    0    0  0.00000000000E+00  0.00000000000E+00 -0.73583847805E+03  0.26076742947E+04  0.25017008138E+04 0.  0.
        1    1    3    3  502    0  0.79304074854E+03  0.57821293458E+03  0.44041973467E+03  0.10757385227E+04  0.50400001928E-02 0. -1.
       -1    1    3    3    0  502 -0.79304074854E+03 -0.57821293458E+03 -0.11762582127E+04  0.15319357720E+04  0.50400001928E-02 0.  1.
</event>
<event>
 5   0  0.6290861E-06  0.2496420E+04  0.7818609E-02  0.8404262E-01
       -1   -1    0    0    0  501  0.00000000000E+00  0.00000000000E+00  0.63778837605E+03  0.63778837607E+03  0.50400001928E-02 0.  1.
        1   -1    0    0  501    0  0.00000000000E+00  0.00000000000E+00 -0.24428611224E+04  0.24428611224E+04  0.50400001928E-02 0. -1.
    10030    2    1    2    0    0  0.00000000000E+00  0.00000000000E+00 -0.18050727463E+04  0.30806494984E+04  0.24964201795E+04 0.  0.
        1    1    3    3  502    0  0.67586458917E+03 -0.61533442693E+02  0.39022034126E+03  0.78284814762E+03  0.50400001928E-02 0.  1.
       -1    1    3    3    0  502 -0.67586458917E+03  0.61533442693E+02 -0.21952930876E+04  0.22978013508E+04  0.50400001928E-02 0. -1.
</event>
<event>
 5   0  0.1501947E-05  0.2496667E+04  0.7818609E-02  0.8404174E-01
        2   -1    0    0  501    0  0.00000000000E+00  0.00000000000E+00  0.17413653423E+04  0.17413653423E+04  0.25500000920E-02 0.  1.
       -2   -1    0    0    0  501  0.00000000000E+00  0.00000000000E+00 -0.89489383045E+03  0.89489383045E+03  0.25500000920E-02 0. -1.
    10030    2    1    2    0    0  0.00000000000E+00  0.00000000000E+00  0.84647151189E+03  0.26362591728E+04  0.24966674600E+04 0.  0.
        3    1    3    3  502    0 -0.46473194202E+03  0.70912097288E+03 -0.54423983953E+03  0.10074846625E+04  0.10100000352E+00 0. -1.
       -3    1    3    3    0  502  0.46473194202E+03 -0.70912097288E+03  0.13907113514E+04  0.16287745103E+04  0.10100000352E+00 0.  1.
</event>
<event>
 5   0  0.6290861E-06  0.2509248E+04  0.7818609E-02  0.8399698E-01
       -1   -1    0    0    0  501  0.00000000000E+00  0.00000000000E+00  0.79786956704E+03  0.79786956706E+03  0.50400001928E-02 0. -1.
        1   -1    0    0  501    0  0.00000000000E+00  0.00000000000E+00 -0.19728552629E+04  0.19728552629E+04  0.50400001928E-02 0.  1.
    10030    2    1    2    0    0  0.00000000000E+00  0.00000000000E+00 -0.11749856958E+04  0.27707248300E+04  0.25092478351E+04 0.  0.
        1    1    3    3  502    0  0.18771470053E+03 -0.38654183329E+03  0.71407897898E+03  0.83340277532E+03  0.50400001928E-02 0. -1.
       -1    1    3    3    0  502 -0.18771470053E+03  0.38654183329E+03 -0.18890646748E+04  0.19373220546E+04  0.50400001928E-02 0.  1.
</event>
<event>
 5   0  0.6104486E-06  0.2500789E+04  0.7818609E-02  0.8402705E-01
        1   -1    0    0  501    0  0.00000000000E+00  0.00000000000E+00  0.68481121522E+03  0.68481121524E+03  0.50400001928E-02 0. -1.
       -1   -1    0    0    0  501  0.00000000000E+00  0.00000000000E+00 -0.22830908466E+04  0.22830908466E+04  0.50400001928E-02 0.  1.
    10030    2    1    2    0    0  0.00000000000E+00  0.00000000000E+00 -0.15982796313E+04  0.29679020618E+04  0.25007888493E+04 0.  0.
        2    1    3    3  502    0 -0.43237492749E+03  0.40496151113E+03  0.50769697055E+03  0.78019107745E+03  0.25500000920E-02 0. -1.
       -2    1    3    3    0  502  0.43237492749E+03 -0.40496151113E+03 -0.21059766019E+04  0.21877109844E+04  0.25500000920E-02 0.  1.
</event>
<event>
 5   0  0.6477703E-06  0.2500856E+04  0.7818609E-02  0.8402681E-01
        1   -1    0    0  501    0  0.00000000000E+00  0.00000000000E+00  0.14145324379E+04  0.14145324379E+04  0.50400001928E-02 0.  1.
       -1   -1    0    0    0  501  0.00000000000E+00  0.00000000000E+00 -0.11053615794E+04  0.11053615794E+04  0.50400001928E-02 0. -1.
    10030    2    1    2    0    0  0.00000000000E+00  0.00000000000E+00  0.30917085854E+03  0.25198940173E+04  0.25008557013E+04 0.  0.
        5    1    3    3  502    0 -0.19112523420E+03  0.10077986164E+02  0.13996773049E+04  0.14127098318E+04  0.46999998093E+01 0.  1.
       -5    1    3    3    0  502  0.19112523420E+03 -0.10077986164E+02 -0.10905064464E+04  0.11071841855E+04  0.46999998093E+01 0. -1.
</event>
<event>
 5   0  0.1468512E-05  0.2490710E+04  0.7818609E-02  0.8406303E-01
       -2   -1    0    0    0  501  0.00000000000E+00  0.00000000000E+00  0.10153561882E+04  0.10153561882E+04  0.25500000920E-02 0. -1.
        2   -1    0    0  501    0  0.00000000000E+00  0.00000000000E+00 -0.15274535591E+04  0.15274535591E+04  0.25500000920E-02 0.  1.
    10030    2    1    2    0    0  0.00000000000E+00  0.00000000000E+00 -0.51209737096E+03  0.25428097473E+04  0.24907102790E+04 0.  0.
        4    1    3    3  502    0  0.11609455477E+04 -0.38092707067E+03 -0.10162630624E+02  0.12218857925E+04  0.12699999809E+01 0.  1.
       -4    1    3    3    0  502 -0.11609455477E+04  0.38092707067E+03 -0.50193474033E+03  0.13209239548E+04  0.12699999809E+01 0. -1.
</event>
<event>
 5   0  0.1501947E-05  0.2492433E+04  0.7818609E-02  0.8405686E-01
        2   -1    0    0  501    0  0.00000000000E+00  0.00000000000E+00  0.11311281159E+04  0.11311281159E+04  0.25500000920E-02 0. -1.
       -2   -1    0    0    0  501  0.00000000000E+00  0.00000000000E+00 -0.13730150624E+04  0.13730150624E+04  0.25500000920E-02 0.  1.
    10030    2    1    2    0    0  0.00000000000E+00  0.00000000000E+00 -0.24188694648E+03  0.25041431783E+04  0.24924333015E+04 0.  0.
        3    1    3    3  502    0  0.36955684928E+03 -0.15715186389E+03 -0.13062263015E+04  0.13665636224E+04  0.10100000352E+00 0.  1.
       -3    1    3    3    0  502 -0.36955684928E+03  0.15715186389E+03  0.10643393550E+04  0.11375795559E+04  0.10100000352E+00 0. -1.
</event>
<event>
 5   0  0.6290861E-06  0.2478603E+04  0.7818609E-02  0.8410648E-01
       -1   -1    0    0    0  501  0.00000000000E+00  0.00000000000E+00  0.15817325739E+04  0.15817325739E+04  0.50400001928E-02 0. -1.
        1   -1    0    0  501    0  0.00000000000E+00  0.00000000000E+00 -0.97100376732E+03  0.97100376733E+03  0.50400001928E-02 0.  1.
    10030    2    1    2    0    0  0.00000000000E+00  0.00000000000E+00  0.61072880660E+03  0.25527363412E+04  0.24786030648E+04 0.  0.
        1    1    3    3  502    0  0.89827347690E+03  0.80016626746E+03  0.61210969706E+03  0.13497553764E+04  0.50400001928E-02 0. -1.
       -1    1    3    3    0  502 -0.89827347690E+03 -0.80016626746E+03 -0.13808904673E+01  0.12029809648E+04  0.50400001928E-02 0.  1.
</event>
<event>
 5   0  0.6104486E-06  0.2498104E+04  0.7818609E-02  0.8403661E-01
       -1   -1    0    0    0  501  0.00000000000E+00  0.00000000000E+00  0.11945033855E+04  0.11945033855E+04  0.50400001928E-02 0.  1.
        1   -1    0    0  501    0  0.00000000000E+00  0.00000000000E+00 -0.13060914756E+04  0.13060914756E+04  0.50400001928E-02 0. -1.
    10030    2    1    2    0    0  0.00000000000E+00  0.00000000000E+00 -0.11158809012E+03  0.25005948611E+04  0.24981038324E+04 0.  0.
        2    1    3    3  502    0  0.20544630205E+03 -0.22295811223E+03 -0.12687003705E+04  0.13044229118E+04  0.25500000920E-02 0. -1.
       -2    1    3    3    0  502 -0.20544630205E+03  0.22295811223E+03  0.11571122804E+04  0.11961719493E+04  0.25500000920E-02 0.  1.
</event>
<event>
 5   0  0.6346420E-06  0.2508367E+04  0.7818609E-02  0.8400011E-01
       -1   -1    0    0    0  501  0.00000000000E+00  0.00000000000E+00  0.72582745994E+03  0.72582745995E+03  0.50400001928E-02 0. -1.
        1   -1    0    0  501    0  0.00000000000E+00  0.00000000000E+00 -0.21671487827E+04  0.21671487827E+04  0.50400001928E-02 0.  1.
    10030    2    1    2    0    0  0.00000000000E+00  0.00000000000E+00 -0.14413213228E+04  0.28929762427E+04  0.25083668761E+04 0.  0.
        4    1    3    3  502    0 -0.99144526115E+03  0.57258975160E+03 -0.13014666747E+03  0.11522857707E+04  0.12699999809E+01 0. -1.
       -4    1    3    3    0  502  0.99144526115E+03 -0.57258975160E+03 -0.13111746553E+04  0.17406904720E+04  0.12699999809E+01 0.  1.
</event>
<event>
 5   0  0.6105353E-06  0.2498721E+04  0.7818609E-02  0.8403441E-01
       -1   -1    0    0    0  501  0.00000000000E+00  0.00000000000E+00  0.12425763454E+04  0.12425763454E+04  0.50400001928E-02 0.  1.
        1   -1    0    0  501    0  0.00000000000E+00  0.00000000000E+00 -0.12561818918E+04  0.12561818918E+04  0.50400001928E-02 0. -1.
    10030    2    1    2    0    0  0.00000000000E+00  0.00000000000E+00 -0.13605546392E+02  0.24987582372E+04  0.24987211964E+04 0.  0.
        3    1    3    3  502    0 -0.10956565712E+03  0.12404303491E+04  0.94341249351E+02  0.12488283972E+04  0.10100000352E+00 0. -1.
       -3    1    3    3    0  502  0.10956565712E+03 -0.12404303491E+04 -0.10794679574E+03  0.12499298400E+04  0.10100000352E+00 0.  1.
</event>
<event>
 5   0  0.6290861E-06  0.2320756E+04  0.7818609E-02  0.8469782E-01
        1   -1    0    0  501    0  0.00000000000E+00  0.00000000000E+00  0.22744161383E+04  0.22744161383E+04  0.50400001928E-02 0. -1.
       -1   -1    0    0    0  501  0.00000000000E+00  0.00000000000E+00 -0.59200999727E+03  0.59200999729E+03  0.50400001928E-02 0.  1.
    10030    2    1    2    0    0  0.00000000000E+00  0.00000000000E+00  0.16824061410E+04  0.28664261356E+04  0.23207559905E+04 0.  0.
        1    1    3    3  502    0  0.41218928447E+03 -0.16496928794E+03  0.21653608415E+04  0.22104077556E+04  0.50400001928E-02 0. -1.
       -1    1    3    3    0  502 -0.41218928447E+03  0.16496928794E+03 -0.48295470044E+03  0.65601838000E+03  0.50400001928E-02 0.  1.
</event>
<event>
 5   0  0.1468512E-05  0.2483351E+04  0.7818609E-02  0.8408941E-01
       -2   -1    0    0    0  501  0.00000000000E+00  0.00000000000E+00  0.15419029026E+04  0.15419029026E+04  0.25500000920E-02 0.  1.
        2   -1    0    0  501    0  0.00000000000E+00  0.00000000000E+00 -0.99990599403E+03  0.99990599403E+03  0.25500000920E-02 0. -1.
    10030    2    1    2    0    0  0.00000000000E+00  0.00000000000E+00  0.54199690854E+03  0.25418088966E+04  0.24833509253E+04 0.  0.
        4    1    3    3  502    0 -0.41292521779E+03 -0.10148721764E+04 -0.32694827197E+03  0.11434026217E+04  0.12699999809E+01 0. -1.
       -4    1    3    3    0  502  0.41292521779E+03  0.10148721764E+04  0.86894518050E+03  0.13984062749E+04  0.12699999809E+01 0.  1.
</event>
<event>
 5   0  0.1468512E-05  0.2499681E+04  0.7818609E-02  0.8403099E-01
       -2   -1    0    0    0  501  0.00000000000E+00  0.00000000000E+00  0.17117217811E+04  0.17117217811E+04  0.25500000920E-02 0. -1.
        2   -1    0    0  501    0  0.00000000000E+00  0.00000000000E+00 -0.91259098064E+03  0.91259098064E+03  0.25500000920E-02 0.  1.
    10030    2    1    2    0    0  0.00000000000E+00  0.00000000000E+00  0.79913080047E+03  0.26243127618E+04  0.24996814668E+04 0.  0.
        4    1    3    3  502    0  0.15649465768E+03  0.89891493011E+03  0.12962958365E+04  0.15852202175E+04  0.12699999809E+01 0. -1.
       -4    1    3    3    0  502 -0.15649465768E+03 -0.89891493011E+03 -0.49716503604E+03  0.10390925442E+04  0.12699999809E+01 0.  1.
</event>
<event>
 5   0  0.6290861E-06  0.2481655E+04  0.7818609E-02  0.8409550E-01
       -1   -1    0    0    0  501  0.00000000000E+00  0.00000000000E+00  0.12066793972E+04  0.12066793972E+04  0.50400001928E-02 0.  1.
        1   -1    0    0  501    0  0.00000000000E+00  0.00000000000E+00 -0.12759415459E+04  0.12759415459E+04  0.50400001928E-02 0. -1.
    10030    2    1    2    0    0  0.00000000000E+00  0.00000000000E+00 -0.69262148661E+02  0.24826209431E+04  0.24816545895E+04 0.  0.
        1    1    3    3  502    0 -0.60452647930E+03 -0.40821975145E+03 -0.10387932034E+04  0.12693253914E+04  0.50400001928E-02 0. -1.
       -1    1    3    3    0  502  0.60452647930E+03  0.40821975145E+03  0.96953105475E+03  0.12132955517E+04  0.50400001928E-02 0.  1.
</event>
<event>
 5   0  0.6346420E-06  0.2501290E+04  0.7818609E-02  0.8402526E-01
       -1   -1    0    0    0  501  0.00000000000E+00  0.00000000000E+00  0.15685757214E+04  0.15685757214E+04  0.50400001928E-02 0.  1.
        1   -1    0    0  501    0  0.00000000000E+00  0.00000000000E+00 -0.99715521113E+03  0.99715521114E+03  0.50400001928E-02 0. -1.
    10030    2    1    2    0    0  0.00000000000E+00  0.00000000000E+00  0.57142051024E+03  0.25657309325E+04  0.25012904307E+04 0.  0.
        4    1    3    3  502    0  0.11709299894E+04  0.43068248711E+03  0.37482418243E+03  0.13027122574E+04  0.12699999809E+01 0.  1.
       -4    1    3    3    0  502 -0.11709299894E+04 -0.43068248711E+03  0.19659632781E+03  0.12630186752E+04  0.12699999809E+01 0. -1.
</event>
<event>
 5   0  0.1468512E-05  0.2505015E+04  0.7818609E-02  0.8401201E-01
       -2   -1    0    0    0  501  0.00000000000E+00  0.00000000000E+00  0.13809116855E+04  0.13809116855E+04  0.25500000920E-02 0. -1.
        2   -1    0    0  501    0  0.00000000000E+00  0.00000000000E+00 -0.11360425539E+04  0.11360425539E+04  0.25500000920E-02 0.  1.
    10030    2    1    2    0    0  0.00000000000E+00  0.00000000000E+00  0.24486913156E+03  0.25169542394E+04  0.25050145213E+04 0.  0.
        4    1    3    3  502    0 -0.19754396043E+03 -0.61155133930E+03  0.12026187301E+04  0.13635659426E+04  0.12699999809E+01 0. -1.
       -4    1    3    3    0  502  0.19754396043E+03  0.61155133930E+03 -0.95774959854E+03  0.11533882968E+04  0.12699999809E+01 0.  1.
</event>
<event>
 5   0  0.1468512E-05  0.2499921E+04  0.7818609E-02  0.8403014E-01
       -2   -1    0    0    0  501  0.00000000000E+00  0.00000000000E+00  0.26255211669E+04  0.26255211669E+04  0.25500000920E-02 0.  1.
        2   -1    0    0  501    0  0.00000000000E+00  0.00000000000E+00 -0.59508250284E+03  0.59508250284E+03  0.25500000920E-02 0. -1.
    10030    2    1    2    0    0  0.00000000000E+00  0.00000000000E+00  0.20304386641E+04  0.32206036698E+04  0.24999213646E+04 0.  0.
        4    1    3    3  502    0  0.11814447146E+04 -0.39807140857E+03  0.89907633850E+03  0.15370791571E+04  0.12699999809E+01 0.  1.
       -4    1    3    3    0  502 -0.11814447146E+04  0.39807140857E+03  0.11313623256E+04  0.16835245126E+04  0.12699999809E+01 0. -1.
</event>
<event>
 5   0  0.1550483E-05  0.2532077E+04  0.7818609E-02  0.8391646E-01
        2   -1    0    0  501    0  0.00000000000E+00  0.00000000000E+00  0.89922071436E+03  0.89922071437E+03  0.25500000920E-02 0.  1.
       -2   -1    0    0    0  501  0.00000000000E+00  0.00000000000E+00 -0.17824919618E+04  0.17824919618E+04  0.25500000920E-02 0. -1.
    10030    2    1    2    0    0  0.00000000000E+00  0.00000000000E+00 -0.88327124743E+03  0.26817126762E+04  0.25320771673E+04 0.  0.
        5    1    3    3  502    0  0.52878289887E+02  0.15702398446E+03 -0.17709503878E+04  0.17786905328E+04  0.46999998093E+01 0. -1.
       -5    1    3    3    0  502 -0.52878289887E+02 -0.15702398446E+03  0.88767914037E+03  0.90302214341E+03  0.46999998093E+01 0.  1.
</event>
<event>
 5   0  0.1572732E-05  0.2480313E+04  0.7818609E-02  0.8410033E-01
       -2   -1    0    0    0  501  0.00000000000E+00  0.00000000000E+00  0.96219180097E+03  0.96219180097E+03  0.25500000920E-02 0.  1.
        2   -1    0    0  501    0  0.00000000000E+00  0.00000000000E+00 -0.15984222036E+04  0.15984222036E+04  0.25500000920E-02 0. -1.
    10030    2    1    2    0    0  0.00000000000E+00  0.00000000000E+00 -0.63623040259E+03  0.25606140045E+04  0.24803134792E+04 0.  0.
        1    1    3    3  502    0  0.71351069030E+02  0.10371387483E+04  0.37997270870E+03  0.11068545603E+04  0.50400001928E-02 0.  1.
       -1    1    3    3    0  502 -0.71351069030E+02 -0.10371387483E+04 -0.10162031113E+04  0.14537594442E+04  0.50400001928E-02 0. -1.
</event>
<event>
 5   0  0.6477703E-06  0.2507966E+04  0.7818609E-02  0.8400153E-01
        1   -1    0    0  501    0  0.00000000000E+00  0.00000000000E+00  0.19682877769E+04  0.19682877769E+04  0.50400001928E-02 0.  1.
       -1   -1    0    0    0  501  0.00000000000E+00  0.00000000000E+00 -0.79890407950E+03  0.79890407952E+03  0.50400001928E-02 0. -1.
    10030    2    1    2    0    0  0.00000000000E+00  0.00000000000E+00  0.11693836974E+04  0.27671918564E+04  0.25079658168E+04 0.  0.
        5    1    3    3  502    0 -0.53515251375E+03 -0.10261207411E+04  0.51939742621E+02  0.11584609683E+04  0.46999998093E+01 0. -1.
       -5    1    3    3    0  502  0.53515251375E+03  0.10261207411E+04  0.11174439547E+04  0.16087308881E+04  0.46999998093E+01 0.  1.
</event>
<event>
 5   0  0.1550483E-05  0.2502685E+04  0.7818609E-02  0.8402030E-01
        2   -1    0    0  501    0  0.00000000000E+00  0.00000000000E+00  0.20161586699E+04  0.20161586699E+04  0.25500000920E-02 0.  1.
       -2   -1    0    0    0  501  0.00000000000E+00  0.00000000000E+00 -0.77665423253E+03  0.77665423253E+03  0.25500000920E-02 0. -1.
    10030    2    1    2    0    0  0.00000000000E+00  0.00000000000E+00  0.12395044374E+04  0.27928129025E+04  0.25026850896E+04 0.  0.
        5    1    3    3  502    0 -0.10346036869E+04  0.14581703206E+03 -0.14867381073E+03  0.10553641020E+04  0.46999998093E+01 0. -1.
       -5    1    3    3    0  502  0.10346036869E+04 -0.14581703206E+03  0.13881782481E+04  0.17374488005E+04  0.46999998093E+01 0.  1.
</event>
<event>
 5   0  0.6104486E-06  0.2496523E+04  0.7818609E-02  0.8404225E-01
        1   -1    0    0  501    0  0.00000000000E+00  0.00000000000E+00  0.17862031211E+04  0.17862031211E+04  0.50400001928E-02 0.  1.
       -1   -1    0    0    0  501  0.00000000000E+00  0.00000000000E+00 -0.87232880407E+03  0.87232880409E+03  0.50400001928E-02 0. -1.
    10030    2    1    2    0    0  0.00000000000E+00  0.00000000000E+00  0.91387431706E+03  0.26585319252E+04  0.24965227277E+04 0.  0.
        2    1    3    3  502    0 -0.68927284768E+03 -0.48627660755E+03  0.14367521059E+04  0.16660788131E+04  0.25500000920E-02 0.  1.
       -2    1    3    3    0  502  0.68927284768E+03  0.48627660755E+03 -0.52287778888E+03  0.99245311210E+03  0.25500000920E-02 0. -1.
</event>
<event>
 5   0  0.1550483E-05  0.2556568E+04  0.7818609E-02  0.8383105E-01
        2   -1    0    0  501    0  0.00000000000E+00  0.00000000000E+00  0.14110294947E+04  0.14110294947E+04  0.25500000920E-02 0. -1.
       -2   -1    0    0    0  501  0.00000000000E+00  0.00000000000E+00 -0.11580270019E+04  0.11580270019E+04  0.25500000920E-02 0.  1.
    10030    2    1    2    0    0  0.00000000000E+00  0.00000000000E+00  0.25300249283E+03  0.25690564966E+04  0.25565682117E+04 0.  0.
        5    1    3    3  502    0  0.11146797921E+03  0.52475973393E+03  0.12924232408E+04  0.13993490673E+04  0.46999998093E+01 0. -1.
       -5    1    3    3    0  502 -0.11146797921E+03 -0.52475973393E+03 -0.10394207480E+04  0.11697074293E+04  0.46999998093E+01 0.  1.
</event>
<event>
 5   0  0.6105353E-06  0.2531232E+04  0.7818609E-02  0.8391943E-01
       -1   -1    0    0    0  501  0.00000000000E+00  0.00000000000E+00  0.80987829458E+03  0.80987829460E+03  0.50400001928E-02 0.  1.
        1   -1    0    0  501    0  0.00000000000E+00  0.00000000000E+00 -0.19778088228E+04  0.19778088228E+04  0.50400001928E-02 0. -1.
    10030    2    1    2    0    0  0.00000000000E+00  0.00000000000E+00 -0.11679305282E+04  0.27876871174E+04  0.25312324559E+04 0.  0.
        3    1    3    3  502    0  0.83570386382E+03  0.52765310209E+03  0.28667767596E+03  0.10290786385E+04  0.10100000352E+00 0.  1.
       -3    1    3    3    0  502 -0.83570386382E+03 -0.52765310209E+03 -0.14546082042E+04  0.17586084789E+04  0.10100000352E+00 0. -1.
</event>
<event>
 5   0  0.6346420E-06  0.2499178E+04  0.7818609E-02  0.8403278E-01
        1   -1    0    0  501    0  0.00000000000E+00  0.00000000000E+00  0.11498996107E+04  0.11498996107E+04  0.50400001928E-02 0. -1.
       -1   -1    0    0    0  501  0.00000000000E+00  0.00000000000E+00 -0.13579209452E+04  0.13579209452E+04  0.50400001928E-02 0.  1.
    10030    2    1    2    0    0  0.00000000000E+00  0.00000000000E+00 -0.20802133450E+03  0.25078205558E+04  0.24991780778E+04 0.  0.
        4    1    3    3  502    0  0.95835754232E+03  0.44445635791E+03 -0.77376204279E+03  0.13094655187E+04  0.12699999809E+01 0.  1.
       -4    1    3    3    0  502 -0.95835754232E+03 -0.44445635791E+03  0.56574070829E+03  0.11983550371E+04  0.12699999809E+01 0. -1.
</event>
<event>
 5   0  0.6105353E-06  0.2478786E+04  0.7818609E-02  0.8410582E-01
        1   -1    0    0  501    0  0.00000000000E+00  0.00000000000E+00  0.16652311565E+04  0.16652311565E+04  0.50400001928E-02 0.  1.
       -1   -1    0    0    0  501  0.00000000000E+00  0.00000000000E+00 -0.92245174038E+03  0.92245174039E+03  0.50400001928E-02 0. -1.
    10030    2    1    2    0    0  0.00000000000E+00  0.00000000000E+00  0.74277941613E+03  0.25876828969E+04  0.24787862986E+04 0.  0.
        3    1    3    3  502    0 -0.71083198375E+03  0.57365328973E+03  0.12458872393E+04  0.15448609093E+04  0.10100000352E+00 0.  1.
       -3    1    3    3    0  502  0.71083198375E+03 -0.57365328973E+03 -0.50310782312E+03  0.10428219876E+04  0.10100000352E+00 0. -1.
</event>
<event>
 5   0  0.6105353E-06  0.2481860E+04  0.7818609E-02  0.8409477E-01
       -1   -1    0    0    0  501  0.00000000000E+00  0.00000000000E+00  0.10106384908E+04  0.10106384908E+04  0.50400001928E-02 0.  1.
        1   -1    0    0  501    0  0.00000000000E+00  0.00000000000E+00 -0.15236973686E+04  0.15236973686E+04  0.50400001928E-02 0. -1.
    10030    2    1    2    0    0  0.00000000000E+00  0.00000000000E+00 -0.51305887779E+03  0.25343358594E+04  0.24818599550E+04 0.  0.
        3    1    3    3  502    0 -0.91270931832E+03 -0.18041282389E+03  0.58200316473E+03  0.10974127668E+04  0.10100000352E+00 0.  1.
       -3    1    3    3    0  502  0.91270931832E+03  0.18041282389E+03 -0.10950620425E+04  0.14369230926E+04  0.10100000352E+00 0. -1.
</event>
<event>
 5   0  0.1526824E-05  0.2475240E+04  0.7818609E-02  0.8411860E-01
        2   -1    0    0  501    0  0.00000000000E+00  0.00000000000E+00  0.15889404005E+04  0.15889404005E+04  0.25500000920E-02 0. -1.
       -2   -1    0    0    0  501  0.00000000000E+00  0.00000000000E+00 -0.96397750223E+03  0.96397750223E+03  0.25500000920E-02 0.  1.
    10030    2    1    2    0    0  0.00000000000E+00  0.00000000000E+00  0.62496289829E+03  0.25529179028E+04  0.24752396235E+04 0.  0.
        2    1    3    3  502    0  0.11136155730E+04 -0.49939203838E+03  0.52428110112E+03  0.13283082193E+04  0.25500000920E-02 0.  1.
       -2    1    3    3    0  502 -0.11136155730E+04  0.49939203838E+03  0.10068179717E+03  0.12246096834E+04  0.25500000920E-02 0. -1.
</event>
<event>
 5   0  0.6477703E-06  0.2500120E+04  0.7818609E-02  0.8402943E-01
        1   -1    0    0  501    0  0.00000000000E+00  0.00000000000E+00  0.77456060185E+03  0.77456060187E+03  0.50400001928E-02 0. -1.
       -1   -1    0    0    0  501  0.00000000000E+00  0.00000000000E+00 -0.20174660951E+04  0.20174660951E+04  0.50400001928E-02 0.  1.
    10030    2    1    2    0    0  0.00000000000E+00  0.00000000000E+00 -0.12429054932E+04  0.27920266969E+04  0.25001197994E+04 0.  0.
        5    1    3    3  502    0 -0.19339534177E+03 -0.49112214612E+03  0.64399867247E+03  0.83268187249E+03  0.46999998093E+01 0. -1.
       -5    1    3    3    0  502  0.19339534177E+03  0.49112214612E+03 -0.18869041657E+04  0.19593448244E+04  0.46999998093E+01 0.  1.
</event>
<event>
 5   0  0.6104486E-06  0.2498663E+04  0.7818609E-02  0.8403462E-01
        1   -1    0    0  501    0  0.00000000000E+00  0.00000000000E+00  0.16434322671E+04  0.16434322672E+04  0.50400001928E-02 0.  1.
       -1   -1    0    0    0  501  0.00000000000E+00  0.00000000000E+00 -0.94973733011E+03  0.94973733012E+03  0.50400001928E-02 0. -1.
    10030    2    1    2    0    0  0.00000000000E+00  0.00000000000E+00  0.69369493704E+03  0.25931695973E+04  0.24986628213E+04 0.  0.
        2    1    3    3  502    0 -0.10966563180E+04 -0.59699814872E+03  0.39047436905E+03  0.13082553658E+04  0.25500000920E-02 0.  1.
       -2    1    3    3    0  502  0.10966563180E+04  0.59699814872E+03  0.30322056799E+03  0.12849142314E+04  0.25500000920E-02 0. -1.
</event>
<event>
 5   0  0.6105353E-06  0.2503970E+04  0.7818609E-02  0.8401573E-01
        1   -1    0    0  501    0  0.00000000000E+00  0.00000000000E+00  0.13111766149E+04  0.13111766149E+04  0.50400001928E-02 0.  1.
       -1   -1    0    0    0  501  0.00000000000E+00  0.00000000000E+00 -0.11954655158E+04  0.11954655158E+04  0.50400001928E-02 0. -1.
    10030    2    1    2    0    0  0.00000000000E+00  0.00000000000E+00  0.11571109906E+03  0.25066421307E+04  0.25039699905E+04 0.  0.
        3    1    3    3  502    0  0.34302984929E+03  0.40447571687E+03  0.11931717866E+04  0.13057293003E+04  0.10100000352E+00 0.  1.
       -3    1    3    3    0  502 -0.34302984929E+03 -0.40447571687E+03 -0.10774606875E+04  0.12009128305E+04  0.10100000352E+00 0. -1.
</event>
<event>
 5   0  0.1572732E-05  0.2475392E+04  0.7818609E-02  0.8411805E-01
        2   -1    0    0  501    0  0.00000000000E+00  0.00000000000E+00  0.21218444534E+04  0.21218444534E+04  0.25500000920E-02 0.  1.
       -2   -1    0    0    0  501  0.00000000000E+00  0.00000000000E+00 -0.72196205358E+03  0.72196205359E+03  0.25500000920E-02 0. -1.
    10030    2    1    2    0    0  0.00000000000E+00  0.00000000000E+00  0.13998823998E+04  0.28438065070E+04  0.24753918308E+04 0.  0.
        1    1    3    3  502    0  0.87460791137E+03 -0.87410237582E+03  0.63810445858E+03  0.13914637121E+04  0.50400001928E-02 0. -1.
       -1    1    3    3    0  502 -0.87460791137E+03  0.87410237582E+03  0.76177794121E+03  0.14523427949E+04  0.50400001928E-02 0.  1.
</event>
<event>
 5   0  0.1526824E-05  0.2443392E+04  0.7818609E-02  0.8423435E-01
       -2   -1    0    0    0  501  0.00000000000E+00  0.00000000000E+00  0.78497522026E+03  0.78497522027E+03  0.25500000920E-02 0. -1.
        2   -1    0    0  501    0  0.00000000000E+00  0.00000000000E+00 -0.19013866608E+04  0.19013866608E+04  0.25500000920E-02 0.  1.
    10030    2    1    2    0    0  0.00000000000E+00  0.00000000000E+00 -0.11164114405E+04  0.26863618811E+04  0.24433922427E+04 0.  0.
        2    1    3    3  502    0 -0.39585545829E+03 -0.82874201070E+03  0.32752673117E+03  0.97508390602E+03  0.25500000920E-02 0. -1.
       -2    1    3    3    0  502  0.39585545829E+03  0.82874201070E+03 -0.14439381717E+04  0.17112779750E+04  0.25500000920E-02 0.  1.
</event>
<event>
 5   0  0.6105353E-06  0.2500225E+04  0.7818609E-02  0.8402905E-01
        1   -1    0    0  501    0  0.00000000000E+00  0.00000000000E+00  0.18541839415E+04  0.18541839416E+04  0.50400001928E-02 0.  1.
       -1   -1    0    0    0  501  0.00000000000E+00  0.00000000000E+00 -0.84284061884E+03  0.84284061886E+03  0.50400001928E-02 0. -1.
    10030    2    1    2    0    0  0.00000000000E+00  0.00000000000E+00  0.10113433227E+04  0.26970245604E+04  0.25002252225E+04 0.  0.
        3    1    3    3  502    0  0.57755241204E+03  0.92743489985E+03  0.11610100110E+04  0.15942542263E+04  0.10100000352E+00 0.  1.
       -3    1    3    3    0  502 -0.57755241204E+03 -0.92743489985E+03 -0.14966668827E+03  0.11027703342E+04  0.10100000352E+00 0. -1.
</event>
<event>
 5   0  0.1572732E-05  0.2507658E+04  0.7818609E-02  0.8400263E-01
       -2   -1    0    0    0  501  0.00000000000E+00  0.00000000000E+00  0.10190285566E+04  0.10190285566E+04  0.25500000920E-02 0.  1.
        2   -1    0    0  501    0  0.00000000000E+00  0.00000000000E+00 -0.15427308160E+04  0.15427308160E+04  0.25500000920E-02 0. -1.
    10030    2    1    2    0    0  0.00000000000E+00  0.00000000000E+00 -0.52370225932E+03  0.25617593726E+04  0.25076576773E+04 0.  0.
        1    1    3    3  502    0 -0.12190276815E+04 -0.32474139754E+02 -0.55969522525E+03  0.13417681630E+04  0.50400001928E-02 0. -1.
       -1    1    3    3    0  502  0.12190276815E+04  0.32474139754E+02  0.35992965927E+02  0.12199912096E+04  0.50400001928E-02 0.  1.
</event>
<event>
 5   0  0.6290861E-06  0.2507156E+04  0.7818609E-02  0.8400441E-01
        1   -1    0    0  501    0  0.00000000000E+00  0.00000000000E+00  0.13492951231E+04  0.13492951231E+04  0.50400001928E-02 0. -1.
       -1   -1    0    0    0  501  0.00000000000E+00  0.00000000000E+00 -0.11646508353E+04  0.11646508354E+04  0.50400001928E-02 0.  1.
    10030    2    1    2    0    0  0.00000000000E+00  0.00000000000E+00  0.18464428779E+03  0.25139459585E+04  0.25071559124E+04 0.  0.
        1    1    3    3  502    0 -0.38213102671E+03  0.18444756772E+03  0.12750983287E+04  0.13438455174E+04  0.50400001928E-02 0. -1.
       -1    1    3    3    0  502  0.38213102671E+03 -0.18444756772E+03 -0.10904540409E+04  0.11701004411E+04  0.50400001928E-02 0.  1.
</event>
<event>
 5   0  0.6105353E-06  0.2497150E+04  0.7818609E-02  0.8404002E-01
        1   -1    0    0  501    0  0.00000000000E+00  0.00000000000E+00  0.14952537058E+04  0.14952537058E+04  0.50400001928E-02 0.  1.
       -1   -1    0    0    0  501  0.00000000000E+00  0.00000000000E+00 -0.10425920394E+04  0.10425920394E+04  0.50400001928E-02 0. -1.
    10030    2    1    2    0    0  0.00000000000E+00  0.00000000000E+00  0.45266166637E+03  0.25378457452E+04  0.24971500640E+04 0.  0.
        3    1    3    3  502    0 -0.10216338413E+04  0.36133002172E+02  0.95488051107E+03  0.13988702943E+04  0.10100000352E+00 0.  1.
       -3    1    3    3    0  502  0.10216338413E+04 -0.36133002172E+02 -0.50221884470E+03  0.11389754509E+04  0.10100000352E+00 0. -1.
</event>
<event>
 5   0  0.1468512E-05  0.2504944E+04  0.7818609E-02  0.8401226E-01
       -2   -1    0    0    0  501  0.00000000000E+00  0.00000000000E+00  0.16468999047E+04  0.16468999047E+04  0.25500000920E-02 0.  1.
        2   -1    0    0  501    0  0.00000000000E+00  0.00000000000E+00 -0.95250845938E+03  0.95250845938E+03  0.25500000920E-02 0. -1.
    10030    2    1    2    0    0  0.00000000000E+00  0.00000000000E+00  0.69439144528E+03  0.25994083640E+04  0.25049439842E+04 0.  0.
        4    1    3    3  502    0  0.84385881981E+03  0.72270635817E+03  0.94717075505E+03  0.14599781642E+04  0.12699999809E+01 0.  1.
       -4    1    3    3    0  502 -0.84385881981E+03 -0.72270635817E+03 -0.25277930976E+03  0.11394301998E+04  0.12699999809E+01 0. -1.
</event>
<event>
 5   0  0.5164625E-06  0.2524806E+04  0.7818609E-02  0.8394201E-01
        4   -1    0    0  501    0  0.00000000000E+00  0.00000000000E+00  0.12333127042E+04  0.12333133581E+04  0.12699999809E+01 0. -1.
       -4   -1    0    0    0  501  0.00000000000E+00  0.00000000000E+00 -0.12921778790E+04  0.12921785031E+04  0.12699999809E+01 0.  1.
    10030    2    1    2    0    0  0.00000000000E+00  0.00000000000E+00 -0.58865174791E+02  0.25254918612E+04  0.25248057415E+04 0.  0.
        1    1    3    3  502    0  0.39355014191E+03 -0.11914597565E+04  0.10917975206E+03  0.12595150987E+04  0.50400001928E-02 0. -1.
       -1    1    3    3    0  502 -0.39355014191E+03  0.11914597565E+04 -0.16804492685E+03  0.12659767625E+04  0.50400001928E-02 0.  1.
</event>
<event>
 5   0  0.1572732E-05  0.2531092E+04  0.7818609E-02  0.8391992E-01
       -2   -1    0    0    0  501  0.00000000000E+00  0.00000000000E+00  0.69823742936E+03  0.69823742937E+03  0.25500000920E-02 0.  1.
        2   -1    0    0  501    0  0.00000000000E+00  0.00000000000E+00 -0.22937852055E+04  0.22937852055E+04  0.25500000920E-02 0. -1.
    10030    2    1    2    0    0  0.00000000000E+00  0.00000000000E+00 -0.15955477761E+04  0.29920226349E+04  0.25310920058E+04 0.  0.
        1    1    3    3  502    0 -0.87629184071E+03 -0.32271162559E+03 -0.18074739002E+04  0.20344512979E+04  0.50400001928E-02 0. -1.
       -1    1    3    3    0  502  0.87629184071E+03  0.32271162559E+03  0.21192612408E+03  0.95757133701E+03  0.50400001928E-02 0.  1.
</event>
<event>
 5   0  0.1550483E-05  0.2513891E+04  0.7818609E-02  0.8398053E-01
       -2   -1    0    0    0  501  0.00000000000E+00  0.00000000000E+00  0.72644390738E+03  0.72644390738E+03  0.25500000920E-02 0. -1.
        2   -1    0    0  501    0  0.00000000000E+00  0.00000000000E+00 -0.21748573487E+04  0.21748573487E+04  0.25500000920E-02 0.  1.
    10030    2    1    2    0    0  0.00000000000E+00  0.00000000000E+00 -0.14484134413E+04  0.29013012560E+04  0.25138909048E+04 0.  0.
        5    1    3    3  502    0  0.43327988233E+03  0.14676431209E+03 -0.20753602613E+04  0.21251855270E+04  0.46999998093E+01 0.  1.
       -5    1    3    3    0  502 -0.43327988233E+03 -0.14676431209E+03  0.62694682006E+03  0.77611572907E+03  0.46999998093E+01 0. -1.
</event>
<event>
 5   0  0.1468512E-05  0.2407650E+04  0.7818609E-02  0.8436645E-01
        2   -1    0    0  501    0  0.00000000000E+00  0.00000000000E+00  0.14902316590E+04  0.14902316590E+04  0.25500000920E-02 0. -1.
       -2   -1    0    0    0  501  0.00000000000E+00  0.00000000000E+00 -0.97246280254E+03  0.97246280255E+03  0.25500000920E-02 0.  1.
    10030    2    1    2    0    0  0.00000000000E+00  0.00000000000E+00  0.51776885642E+03  0.24626944615E+04  0.24076501868E+04 0.  0.
        4    1    3    3  502    0 -0.56086101203E+03  0.37281012802E+03 -0.76174593343E+03  0.10167649415E+04  0.12699999809E+01 0.  1.
       -4    1    3    3    0  502  0.56086101203E+03 -0.37281012802E+03  0.12795147898E+04  0.14459295200E+04  0.12699999809E+01 0. -1.
</event>
<event>
 5   0  0.6105353E-06  0.2518772E+04  0.7818609E-02  0.8396328E-01
        1   -1    0    0  501    0  0.00000000000E+00  0.00000000000E+00  0.15468588157E+04  0.15468588157E+04  0.50400001928E-02 0.  1.
       -1   -1    0    0    0  501  0.00000000000E+00  0.00000000000E+00 -0.10253380995E+04  0.10253380995E+04  0.50400001928E-02 0. -1.
    10030    2    1    2    0    0  0.00000000000E+00  0.00000000000E+00  0.52152071617E+03  0.25721969152E+04  0.25187721440E+04 0.  0.
        3    1    3    3  502    0 -0.55605259262E+03 -0.29363493228E+03 -0.85354719680E+03  0.10601692254E+04  0.10100000352E+00 0. -1.
       -3    1    3    3    0  502  0.55605259262E+03  0.29363493228E+03  0.13750679130E+04  0.15120276898E+04  0.10100000352E+00 0.  1.
</event>
<event>
 5   0  0.6105353E-06  0.2518682E+04  0.7818609E-02  0.8396360E-01
       -1   -1    0    0    0  501  0.00000000000E+00  0.00000000000E+00  0.97555329736E+03  0.97555329737E+03  0.50400001928E-02 0. -1.
        1   -1    0    0  501    0  0.00000000000E+00  0.00000000000E+00 -0.16256828506E+04  0.16256828506E+04  0.50400001928E-02 0.  1.
    10030    2    1    2    0    0  0.00000000000E+00  0.00000000000E+00 -0.65012955325E+03  0.26012361480E+04  0.25186824059E+04 0.  0.
        3    1    3    3  502    0 -0.10928335385E+04  0.62573852023E+03 -0.33571873845E+03  0.13032808293E+04  0.10100000352E+00 0. -1.
       -3    1    3    3    0  502  0.10928335385E+04 -0.62573852023E+03 -0.31441081480E+03  0.12979553187E+04  0.10100000352E+00 0.  1.
</event>
<event>
 5   0  0.1501947E-05  0.2497611E+04  0.7818609E-02  0.8403837E-01
        2   -1    0    0  501    0  0.00000000000E+00  0.00000000000E+00  0.23124378630E+04  0.23124378630E+04  0.25500000920E-02 0.  1.
       -2   -1    0    0    0  501  0.00000000000E+00  0.00000000000E+00 -0.67440315057E+03  0.67440315058E+03  0.25500000920E-02 0. -1.
    10030    2    1    2    0    0  0.00000000000E+00  0.00000000000E+00  0.16380347124E+04  0.29868410135E+04  0.24976111629E+04 0.  0.
        3    1    3    3  502    0 -0.73148115769E+03 -0.85616792307E+02 -0.38705530377E+03  0.83198962587E+03  0.10100000352E+00 0. -1.
       -3    1    3    3    0  502  0.73148115769E+03  0.85616792307E+02  0.20250900162E+04  0.21548513877E+04  0.10100000352E+00 0.  1.
</event>
<event>
 5   0  0.1468512E-05  0.2528707E+04  0.7818609E-02  0.8392829E-01
        2   -1    0    0  501    0  0.00000000000E+00  0.00000000000E+00  0.18906640369E+04  0.18906640369E+04  0.25500000920E-02 0.  1.
       -2   -1    0    0    0  501  0.00000000000E+00  0.00000000000E+00 -0.84551733937E+03  0.84551733937E+03  0.25500000920E-02 0. -1.
    10030    2    1    2    0    0  0.00000000000E+00  0.00000000000E+00  0.10451466976E+04  0.27361813763E+04  0.25287065675E+04 0.  0.
        4    1    3    3  502    0  0.86973831306E+03  0.78573409746E+03  0.10355653612E+04  0.15640396528E+04  0.12699999809E+01 0.  1.
       -4    1    3    3    0  502 -0.86973831306E+03 -0.78573409746E+03  0.95813363097E+01  0.11721417235E+04  0.12699999809E+01 0. -1.
</event>
<event>
 5   0  0.6104486E-06  0.2507105E+04  0.7818609E-02  0.8400459E-01
       -1   -1    0    0    0  501  0.00000000000E+00  0.00000000000E+00  0.70322807179E+03  0.70322807180E+03  0.50400001928E-02 0. -1.
        1   -1    0    0  501    0  0.00000000000E+00  0.00000000000E+00 -0.22345432599E+04  0.22345432599E+04  0.50400001928E-02 0.  1.
    10030    2    1    2    0    0  0.00000000000E+00  0.00000000000E+00 -0.15313151881E+04  0.29377713317E+04  0.25071047429E+04 0.  0.
        2    1    3    3  502    0  0.76059979406E+03 -0.80236657187E+03 -0.73326508324E+02  0.11080076440E+04  0.25500000920E-02 0.  1.
       -2    1    3    3    0  502 -0.76059979406E+03  0.80236657187E+03 -0.14579886798E+04  0.18297636877E+04  0.25500000920E-02 0. -1.
</event>
<event>
 5   0  0.6290861E-06  0.2499234E+04  0.7818609E-02  0.8403258E-01
        1   -1    0    0  501    0  0.00000000000E+00  0.00000000000E+00  0.21687299126E+04  0.21687299126E+04  0.50400001928E-02 0. -1.
       -1   -1    0    0    0  501  0.00000000000E+00  0.00000000000E+00 -0.72002646873E+03  0.72002646874E+03  0.50400001928E-02 0.  1.
    10030    2    1    2    0    0  0.00000000000E+00  0.00000000000E+00  0.14487034439E+04  0.28887563813E+04  0.24992342352E+04 0.  0.
        1    1    3    3  502    0 -0.34097885586E+03  0.50143383934E+03  0.19872753953E+04  0.20777309672E+04  0.50400001928E-02 0. -1.
       -1    1    3    3    0  502  0.34097885586E+03 -0.50143383934E+03 -0.53857195146E+03  0.81102541409E+03  0.50400001928E-02 0.  1.
</event>
<event>
 5   0  0.6104486E-06  0.2508545E+04  0.7818609E-02  0.8399948E-01
        1   -1    0    0  501    0  0.00000000000E+00  0.00000000000E+00  0.10671657480E+04  0.10671657481E+04  0.50400001928E-02 0. -1.
       -1   -1    0    0    0  501  0.00000000000E+00  0.00000000000E+00 -0.14741845709E+04  0.14741845709E+04  0.50400001928E-02 0.  1.
    10030    2    1    2    0    0  0.00000000000E+00  0.00000000000E+00 -0.40701882281E+03  0.25413503189E+04  0.25085448215E+04 0.  0.
        2    1    3    3  502    0 -0.64834422151E+03  0.69727520787E+02 -0.12889628001E+04  0.14445197322E+04  0.25500000920E-02 0.  1.
       -2    1    3    3    0  502  0.64834422151E+03 -0.69727520787E+02  0.88194397732E+03  0.10968305867E+04  0.25500000920E-02 0. -1.
</event>
<event>
 5   0  0.1468512E-05  0.2494905E+04  0.7818609E-02  0.8404803E-01
       -2   -1    0    0    0  501  0.00000000000E+00  0.00000000000E+00  0.90325555429E+03  0.90325555429E+03  0.25500000920E-02 0.  1.
        2   -1    0    0  501    0  0.00000000000E+00  0.00000000000E+00 -0.17228101017E+04  0.17228101017E+04  0.25500000920E-02 0. -1.
    10030    2    1    2    0    0  0.00000000000E+00  0.00000000000E+00 -0.81955454739E+03  0.26260656560E+04  0.24949050430E+04 0.  0.
        4    1    3    3  502    0  0.28347897311E+03  0.93077355227E+03 -0.12314819730E+04  0.15694741783E+04  0.12699999809E+01 0. -1.
       -4    1    3    3    0  502 -0.28347897311E+03 -0.93077355227E+03  0.41192742557E+03  0.10565914777E+04  0.12699999809E+01 0.  1.
</event>
<event>
 5   0  0.1468512E-05  0.2500102E+04  0.7818609E-02  0.8402949E-01
        2   -1    0    0  501    0  0.00000000000E+00  0.00000000000E+00  0.24423371430E+04  0.24423371430E+04  0.25500000920E-02 0.  1.
       -2   -1    0    0    0  501  0.00000000000E+00  0.00000000000E+00 -0.63980839531E+03  0.63980839532E+03  0.25500000920E-02 0. -1.
    10030    2    1    2    0    0  0.00000000000E+00  0.00000000000E+00  0.18025287477E+04  0.30821455383E+04  0.25001022445E+04 0.  0.
        4    1    3    3  502    0  0.92856462566E+03 -0.83627018237E+03  0.94113791112E+03  0.15643919786E+04  0.12699999809E+01 0. -1.
       -4    1    3    3    0  502 -0.92856462566E+03  0.83627018237E+03  0.86139083659E+03  0.15177535598E+04  0.12699999809E+01 0.  1.
</event>
<event>
 5   0  0.1550483E-05  0.2508625E+04  0.7818609E-02  0.8399919E-01
       -2   -1    0    0    0  501  0.00000000000E+00  0.00000000000E+00  0.17754418020E+04  0.17754418020E+04  0.25500000920E-02 0.  1.
        2   -1    0    0  501    0  0.00000000000E+00  0.00000000000E+00 -0.88614583543E+03  0.88614583544E+03  0.25500000920E-02 0. -1.
    10030    2    1    2    0    0  0.00000000000E+00  0.00000000000E+00  0.88929596656E+03  0.26615876374E+04  0.25086254076E+04 0.  0.
        5    1    3    3  502    0 -0.89911477909E+03 -0.51970494453E+03  0.11909420562E+04  0.15801473623E+04  0.46999998093E+01 0.  1.
       -5    1    3    3    0  502  0.89911477909E+03  0.51970494453E+03 -0.30164608962E+03  0.10814402752E+04  0.46999998093E+01 0. -1.
</event>
<event>
 5   0  0.6105353E-06  0.2470216E+04  0.7818609E-02  0.8413674E-01
       -1   -1    0    0    0  501  0.00000000000E+00  0.00000000000E+00  0.71387292556E+03  0.71387292557E+03  0.50400001928E-02 0. -1.
        1   -1    0    0  501    0  0.00000000000E+00  0.00000000000E+00 -0.21369229288E+04  0.21369229289E+04  0.50400001928E-02 0.  1.
    10030    2    1    2    0    0  0.00000000000E+00  0.00000000000E+00 -0.14230500033E+04  0.28507958544E+04  0.24702157177E+04 0.  0.
        3    1    3    3  502    0 -0.94225985837E+03  0.62347364207E+03 -0.13574082031E+03  0.11379800541E+04  0.10100000352E+00 0. -1.
       -3    1    3    3    0  502  0.94225985837E+03 -0.62347364207E+03 -0.12873091830E+04  0.17128158003E+04  0.10100000352E+00 0.  1.
</event>
<event>
 5   0  0.6104486E-06  0.2530980E+04  0.7818609E-02  0.8392031E-01
       -1   -1    0    0    0  501  0.00000000000E+00  0.00000000000E+00  0.10535619206E+04  0.10535619206E+04  0.50400001928E-02 0.  1.
        1   -1    0    0  501    0  0.00000000000E+00  0.00000000000E+00 -0.15200477168E+04  0.15200477168E+04  0.50400001928E-02 0. -1.
    10030    2    1    2    0    0  0.00000000000E+00  0.00000000000E+00 -0.46648579624E+03  0.25736096374E+04  0.25309795668E+04 0.  0.
        2    1    3    3  502    0  0.13182058478E+03 -0.87678109782E+03 -0.11514150376E+04  0.14532303151E+04  0.25500000920E-02 0. -1.
       -2    1    3    3    0  502 -0.13182058478E+03  0.87678109782E+03  0.68492924134E+03  0.11203793222E+04  0.25500000920E-02 0.  1.
</event>
<event>
 5   0  0.1572732E-05  0.2491446E+04  0.7818609E-02  0.8406039E-01
       -2   -1    0    0    0  501  0.00000000000E+00  0.00000000000E+00  0.57734959475E+03  0.57734959475E+03  0.25500000920E-02 0.  1.
        2   -1    0    0  501    0  0.00000000000E+00  0.00000000000E+00 -0.26878434870E+04  0.26878434870E+04  0.25500000920E-02 0. -1.
    10030    2    1    2    0    0  0.00000000000E+00  0.00000000000E+00 -0.21104938922E+04  0.32651930817E+04  0.24914456430E+04 0.  0.
        1    1    3    3  502    0 -0.56004507840E+02  0.13158486300E+03 -0.26770500368E+04  0.26808670203E+04  0.50400001928E-02 0. -1.
       -1    1    3    3    0  502  0.56004507840E+02 -0.13158486300E+03  0.56655614457E+03  0.58432606141E+03  0.50400001928E-02 0.  1.
</event>
<event>
 5   0  0.6346420E-06  0.2547689E+04  0.7818609E-02  0.8386190E-01
        1   -1    0    0  501    0  0.00000000000E+00  0.00000000000E+00  0.12065808984E+04  0.12065808984E+04  0.50400001928E-02 0. -1.
       -1   -1    0    0    0  501  0.00000000000E+00  0.00000000000E+00 -0.13448579233E+04  0.13448579233E+04  0.50400001928E-02 0.  1.
    10030    2    1    2    0    0  0.00000000000E+00  0.00000000000E+00 -0.13827702493E+03  0.25514388217E+04  0.25476890559E+04 0.  0.
        4    1    3    3  502    0  0.99230047576E+03 -0.73177318203E+03 -0.38980667160E+03  0.12930982477E+04  0.12699999809E+01 0.  1.
       -4    1    3    3    0  502 -0.99230047576E+03  0.73177318203E+03  0.25152964667E+03  0.12583405740E+04  0.12699999809E+01 0. -1.
</event>
<event>
 5   0  0.1468512E-05  0.2489831E+04  0.7818609E-02  0.8406617E-01
        2   -1    0    0  501    0  0.00000000000E+00  0.00000000000E+00  0.23272720750E+04  0.23272720750E+04  0.25500000920E-02 0.  1.
       -2   -1    0    0    0  501  0.00000000000E+00  0.00000000000E+00 -0.66593607132E+03  0.66593607132E+03  0.25500000920E-02 0. -1.
    10030    2    1    2    0    0  0.00000000000E+00  0.00000000000E+00  0.16613360037E+04  0.29932081463E+04  0.24898308557E+04 0.  0.
        4    1    3    3  502    0 -0.23353585879E+03  0.69413644214E+02 -0.63699582123E+03  0.68199892999E+03  0.12699999809E+01 0. -1.
       -4    1    3    3    0  502  0.23353585879E+03 -0.69413644214E+02  0.22983318249E+04  0.23112092164E+04  0.12699999809E+01 0.  1.
</event>
<event>
 5   0  0.1526824E-05  0.2526830E+04  0.7818609E-02  0.8393489E-01
        2   -1    0    0  501    0  0.00000000000E+00  0.00000000000E+00  0.21344096235E+04  0.21344096235E+04  0.25500000920E-02 0. -1.
       -2   -1    0    0    0  501  0.00000000000E+00  0.00000000000E+00 -0.74784974343E+03  0.74784974343E+03  0.25500000920E-02 0.  1.
    10030    2    1    2    0    0  0.00000000000E+00  0.00000000000E+00  0.13865598801E+04  0.28822593669E+04  0.25268301797E+04 0.  0.
        2    1    3    3  502    0 -0.91540149199E+03 -0.58281311906E+03 -0.44708737603E+02  0.10861076809E+04  0.25500000920E-02 0.  1.
       -2    1    3    3    0  502  0.91540149199E+03  0.58281311906E+03  0.14312686177E+04  0.17961516860E+04  0.25500000920E-02 0. -1.
</event>
<event>
 5   0  0.6346420E-06  0.2475087E+04  0.7818609E-02  0.8411915E-01
       -1   -1    0    0    0  501  0.00000000000E+00  0.00000000000E+00  0.71324882845E+03  0.71324882847E+03  0.50400001928E-02 0.  1.
        1   -1    0    0  501    0  0.00000000000E+00  0.00000000000E+00 -0.21472370474E+04  0.21472370474E+04  0.50400001928E-02 0. -1.
    10030    2    1    2    0    0  0.00000000000E+00  0.00000000000E+00 -0.14339882189E+04  0.28604858758E+04  0.24750873184E+04 0.  0.
        4    1    3    3  502    0  0.26028722041E+03  0.31533436139E+02 -0.21147687018E+04  0.21309603632E+04  0.12699999809E+01 0. -1.
       -4    1    3    3    0  502 -0.26028722041E+03 -0.31533436139E+02  0.68078048290E+03  0.72952551258E+03  0.12699999809E+01 0.  1.
</event>
<event>
 5   0  0.1468512E-05  0.2500179E+04  0.7818609E-02  0.8402922E-01
       -2   -1    0    0    0  501  0.00000000000E+00  0.00000000000E+00  0.15023409465E+04  0.15023409465E+04  0.25500000920E-02 0.  1.
        2   -1    0    0  501    0  0.00000000000E+00  0.00000000000E+00 -0.10401921457E+04  0.10401921457E+04  0.25500000920E-02 0. -1.
    10030    2    1    2    0    0  0.00000000000E+00  0.00000000000E+00  0.46214880083E+03  0.25425330922E+04  0.25001785958E+04 0.  0.
        4    1    3    3  502    0 -0.34841826053E+03  0.26574148999E+03  0.14216802883E+04  0.14876794947E+04  0.12699999809E+01 0.  1.
       -4    1    3    3    0  502  0.34841826053E+03 -0.26574148999E+03 -0.95953148750E+03  0.10548535975E+04  0.12699999809E+01 0. -1.
</event>
<event>
 5   0  0.6105353E-06  0.2492300E+04  0.7818609E-02  0.8405734E-01
       -1   -1    0    0    0  501  0.00000000000E+00  0.00000000000E+00  0.49068194398E+03  0.49068194401E+03  0.50400001928E-02 0. -1.
        1   -1    0    0  501    0  0.00000000000E+00  0.00000000000E+00 -0.31647594770E+04  0.31647594770E+04  0.50400001928E-02 0.  1.
    10030    2    1    2    0    0  0.00000000000E+00  0.00000000000E+00 -0.26740775330E+04  0.36554414210E+04  0.24923004092E+04 0.  0.
        3    1    3    3  502    0 -0.68891680910E+02 -0.29008658644E+03 -0.31116739720E+04  0.31259256564E+04  0.10100000352E+00 0.  1.
       -3    1    3    3    0  502  0.68891680910E+02  0.29008658644E+03  0.43759643898E+03  0.52951576458E+03  0.10100000352E+00 0. -1.
</event>
<event>
 5   0  0.1550483E-05  0.2480629E+04  0.7818609E-02  0.8409919E-01
       -2   -1    0    0    0  501  0.00000000000E+00  0.00000000000E+00  0.11673875073E+04  0.11673875073E+04  0.25500000920E-02 0. -1.
        2   -1    0    0  501    0  0.00000000000E+00  0.00000000000E+00 -0.13177971435E+04  0.13177971435E+04  0.25500000920E-02 0.  1.
    10030    2    1    2    0    0  0.00000000000E+00  0.00000000000E+00 -0.15040963628E+03  0.24851846508E+04  0.24806288900E+04 0.  0.
        5    1    3    3  502    0  0.70792191806E+03  0.98365403644E+03 -0.33956274680E+03  0.12585919333E+04  0.46999998093E+01 0. -1.
       -5    1    3    3    0  502 -0.70792191806E+03 -0.98365403644E+03  0.18915311052E+03  0.12265927175E+04  0.46999998093E+01 0.  1.
</event>
<event>
 5   0  0.1550483E-05  0.2509259E+04  0.7818609E-02  0.8399694E-01
        2   -1    0    0  501    0  0.00000000000E+00  0.00000000000E+00  0.28889823535E+04  0.28889823535E+04  0.25500000920E-02 0. -1.
       -2   -1    0    0    0  501  0.00000000000E+00  0.00000000000E+00 -0.54486151573E+03  0.54486151574E+03  0.25500000920E-02 0.  1.
    10030    2    1    2    0    0  0.00000000000E+00  0.00000000000E+00  0.23441208378E+04  0.34338438693E+04  0.25092590971E+04 0.  0.
        5    1    3    3  502    0  0.77243794696E+03 -0.82039692711E+03  0.19270310334E+04  0.22323042341E+04  0.46999998093E+01 0. -1.
       -5    1    3    3    0  502 -0.77243794696E+03  0.82039692711E+03  0.41708980437E+03  0.12015396351E+04  0.46999998093E+01 0.  1.
</event>
<event>
 5   0  0.1572732E-05  0.2512913E+04  0.7818609E-02  0.8398400E-01
       -2   -1    0    0    0  501  0.00000000000E+00  0.00000000000E+00  0.10153827399E+04  0.10153827399E+04  0.25500000920E-02 0.  1.
        2   -1    0    0  501    0  0.00000000000E+00  0.00000000000E+00 -0.15547660482E+04  0.15547660482E+04  0.25500000920E-02 0. -1.
    10030    2    1    2    0    0  0.00000000000E+00  0.00000000000E+00 -0.53938330830E+03  0.25701487880E+04  0.25129127401E+04 0.  0.
        1    1    3    3  502    0  0.11968766249E+04  0.33174358619E+03 -0.75323301413E+02  0.12442833528E+04  0.50400001928E-02 0.  1.
       -1    1    3    3    0  502 -0.11968766249E+04 -0.33174358619E+03 -0.46406000689E+03  0.13258654352E+04  0.50400001928E-02 0. -1.
</event>
<event>
 5   0  0.6346420E-06  0.2541315E+04  0.7818609E-02  0.8388413E-01
        1   -1    0    0  501    0  0.00000000000E+00  0.00000000000E+00  0.99811855324E+03  0.99811855325E+03  0.50400001928E-02 0.  1.
       -1   -1    0    0    0  501  0.00000000000E+00  0.00000000000E+00 -0.16176144802E+04  0.16176144802E+04  0.50400001928E-02 0. -1.
    10030    2    1    2    0    0  0.00000000000E+00  0.00000000000E+00 -0.61949592694E+03  0.26157330334E+04  0.25413154268E+04 0.  0.
        4    1    3    3  502    0  0.92301233993E+03 -0.84560439072E+03 -0.85253681309E+02  0.12546985169E+04  0.12699999809E+01 0.  1.
       -4    1    3    3    0  502 -0.92301233993E+03  0.84560439072E+03 -0.53424224563E+03  0.13610345165E+04  0.12699999809E+01 0. -1.
</event>
<event>
 5   0  0.6105353E-06  0.2517591E+04  0.7818609E-02  0.8396745E-01
        1   -1    0    0  501    0  0.00000000000E+00  0.00000000000E+00  0.16477129304E+04  0.16477129304E+04  0.50400001928E-02 0. -1.
       -1   -1    0    0    0  501  0.00000000000E+00  0.00000000000E+00 -0.96167628673E+03  0.96167628674E+03  0.50400001928E-02 0.  1.
    10030    2    1    2    0    0  0.00000000000E+00  0.00000000000E+00  0.68603664369E+03  0.26093892172E+04  0.25175912715E+04 0.  0.
        3    1    3    3  502    0  0.11669369356E+04 -0.29381056130E+03  0.72594880595E+03  0.14053711739E+04  0.10100000352E+00 0. -1.
       -3    1    3    3    0  502 -0.11669369356E+04  0.29381056130E+03 -0.39912162265E+02  0.12040180432E+04  0.10100000352E+00 0.  1.
</event>
<event>
 5   0  0.6105353E-06  0.2493224E+04  0.7818609E-02  0.8405403E-01
        1   -1    0    0  501    0  0.00000000000E+00  0.00000000000E+00  0.16031490241E+04  0.16031490241E+04  0.50400001928E-02 0.  1.
       -1   -1    0    0    0  501  0.00000000000E+00  0.00000000000E+00 -0.96936807006E+03  0.96936807008E+03  0.50400001928E-02 0. -1.
    10030    2    1    2    0    0  0.00000000000E+00  0.00000000000E+00  0.63378095402E+03  0.25725170942E+04  0.24932239976E+04 0.  0.
        3    1    3    3  502    0 -0.87428459661E+03 -0.59288588124E+03 -0.36609344617E+03  0.11179944748E+04  0.10100000352E+00 0. -1.
       -3    1    3    3    0  502  0.87428459661E+03  0.59288588124E+03  0.99987440019E+03  0.14545226194E+04  0.10100000352E+00 0.  1.
</event>
<event>
 5   0  0.1468512E-05  0.2493350E+04  0.7818609E-02  0.8405358E-01
       -2   -1    0    0    0  501  0.00000000000E+00  0.00000000000E+00  0.82181195923E+03  0.82181195924E+03  0.25500000920E-02 0. -1.
        2   -1    0    0  501    0  0.00000000000E+00  0.00000000000E+00 -0.18911857437E+04  0.18911857437E+04  0.25500000920E-02 0.  1.
    10030    2    1    2    0    0  0.00000000000E+00  0.00000000000E+00 -0.10693737845E+04  0.27129977030E+04  0.24933504056E+04 0.  0.
        4    1    3    3  502    0 -0.10237124342E+03  0.10952661528E+04 -0.11729717233E+04  0.16080895788E+04  0.12699999809E+01 0.  1.
       -4    1    3    3    0  502  0.10237124342E+03 -0.10952661528E+04  0.10359793885E+03  0.11049081241E+04  0.12699999809E+01 0. -1.
</event>
<event>
 5   0  0.6477703E-06  0.2502782E+04  0.7818609E-02  0.8401995E-01
        1   -1    0    0  501    0  0.00000000000E+00  0.00000000000E+00  0.20137854879E+04  0.20137854879E+04  0.50400001928E-02 0.  1.
       -1   -1    0    0    0  501  0.00000000000E+00  0.00000000000E+00 -0.77762963366E+03  0.77762963367E+03  0.50400001928E-02 0. -1.
    10030    2    1    2    0    0  0.00000000000E+00  0.00000000000E+00  0.12361558542E+04  0.27914151216E+04  0.25027818692E+04 0.  0.
        5    1    3    3  502    0  0.52118112786E+03  0.65750113257E+03  0.16536015616E+04  0.18542809178E+04  0.46999998093E+01 0.  1.
       -5    1    3    3    0  502 -0.52118112786E+03 -0.65750113257E+03 -0.41744570738E+03  0.93713420382E+03  0.46999998093E+01 0. -1.
</event>
<event>
 5   0  0.6346420E-06  0.2528577E+04  0.7818609E-02  0.8392875E-01
       -1   -1    0    0    0  501  0.00000000000E+00  0.00000000000E+00  0.12106771395E+04  0.12106771395E+04  0.50400001928E-02 0. -1.
        1   -1    0    0  501    0  0.00000000000E+00  0.00000000000E+00 -0.13202743193E+04  0.13202743193E+04  0.50400001928E-02 0.  1.
    10030    2    1    2    0    0  0.00000000000E+00  0.00000000000E+00 -0.10959717981E+03  0.25309514588E+04  0.25285774153E+04 0.  0.
        4    1    3    3  502    0 -0.87586703063E+03  0.14353277926E+03  0.84642424261E+03  0.12264502947E+04  0.12699999809E+01 0. -1.
       -4    1    3    3    0  502  0.87586703063E+03 -0.14353277926E+03 -0.95602142241E+03  0.13045011641E+04  0.12699999809E+01 0.  1.
</event>
<event>
 5   0  0.6104486E-06  0.2503974E+04  0.7818609E-02  0.8401571E-01
        1   -1    0    0  501    0  0.00000000000E+00  0.00000000000E+00  0.24133685210E+04  0.24133685210E+04  0.50400001928E-02 0.  1.
       -1   -1    0    0    0  501  0.00000000000E+00  0.00000000000E+00 -0.64949512008E+03  0.64949512010E+03  0.50400001928E-02 0. -1.
    10030    2    1    2    0    0  0.00000000000E+00  0.00000000000E+00  0.17638734009E+04  0.30628636411E+04  0.25039737038E+04 0.  0.
        2    1    3    3  502    0  0.73686910536E+03 -0.22703125372E+03 -0.32460840890E+03  0.83659421928E+03  0.25500000920E-02 0. -1.
       -2    1    3    3    0  502 -0.73686910536E+03  0.22703125372E+03  0.20884818098E+04  0.22262694218E+04  0.25500000920E-02 0.  1.
</event>
<event>
 5   0  0.1501947E-05  0.2510834E+04  0.7818609E-02  0.8399136E-01
        2   -1    0    0  501    0  0.00000000000E+00  0.00000000000E+00  0.10672106343E+04  0.10672106343E+04  0.25500000920E-02 0.  1.
       -2   -1    0    0    0  501  0.00000000000E+00  0.00000000000E+00 -0.14768139348E+04  0.14768139348E+04  0.25500000920E-02 0. -1.
    10030    2    1    2    0    0  0.00000000000E+00  0.00000000000E+00 -0.40960330049E+03  0.25440245691E+04  0.25108337548E+04 0.  0.
        3    1    3    3  502    0  0.79521768734E+03  0.41511368578E+01 -0.11890766105E+04  0.14304864900E+04  0.10100000352E+00 0. -1.
       -3    1    3    3    0  502 -0.79521768734E+03 -0.41511368578E+01  0.77947331006E+03  0.11135380791E+04  0.10100000352E+00 0.  1.
</event>
<event>
 5   0  0.1468512E-05  0.2504764E+04  0.7818609E-02  0.8401290E-01
        2   -1    0    0  501    0  0.00000000000E+00  0.00000000000E+00  0.20770036838E+04  0.20770036838E+04  0.25500000920E-02 0.  1.
       -2   -1    0    0    0  501  0.00000000000E+00  0.00000000000E+00 -0.75515558575E+03  0.75515558575E+03  0.25500000920E-02 0. -1.
    10030    2    1    2    0    0  0.00000000000E+00  0.00000000000E+00  0.13218480981E+04  0.28321592696E+04  0.25047642072E+04 0.  0.
        4    1    3    3  502    0  0.16290464267E+03  0.95883976936E+03  0.15530725266E+04  0.18324703304E+04  0.12699999809E+01 0.  1.
       -4    1    3    3    0  502 -0.16290464267E+03 -0.95883976936E+03 -0.23122442853E+03  0.99968893920E+03  0.12699999809E+01 0. -1.
</event>
<event>
 5   0  0.1572732E-05  0.2497412E+04  0.7818609E-02  0.8403908E-01
        2   -1    0    0  501    0  0.00000000000E+00  0.00000000000E+00  0.94176343300E+03  0.94176343300E+03  0.25500000920E-02 0. -1.
       -2   -1    0    0    0  501  0.00000000000E+00  0.00000000000E+00 -0.16556884638E+04  0.16556884638E+04  0.25500000920E-02 0.  1.
    10030    2    1    2    0    0  0.00000000000E+00  0.00000000000E+00 -0.71392503081E+03  0.25974518968E+04  0.24974121419E+04 0.  0.
        1    1    3    3  502    0 -0.29968777959E+02  0.73792888108E+03  0.69026199263E+03  0.10108900928E+04  0.50400001928E-02 0. -1.
       -1    1    3    3    0  502  0.29968777959E+02 -0.73792888108E+03 -0.14041870234E+04  0.15865618040E+04  0.50400001928E-02 0.  1.
</event>
<event>
 5   0  0.1501947E-05  0.2504781E+04  0.7818609E-02  0.8401284E-01
       -2   -1    0    0    0  501  0.00000000000E+00  0.00000000000E+00  0.16883883096E+04  0.16883883096E+04  0.25500000920E-02 0. -1.
        2   -1    0    0  501    0  0.00000000000E+00  0.00000000000E+00 -0.92898153226E+03  0.92898153227E+03  0.25500000920E-02 0.  1.
    10030    2    1    2    0    0  0.00000000000E+00  0.00000000000E+00  0.75940677731E+03  0.26173698418E+04  0.25047806761E+04 0.  0.
        3    1    3    3  502    0 -0.40356776222E+03 -0.95166910863E+03  0.11185504625E+04  0.15230548836E+04  0.10100000352E+00 0. -1.
       -3    1    3    3    0  502  0.40356776222E+03  0.95166910863E+03 -0.35914368521E+03  0.10943149582E+04  0.10100000352E+00 0.  1.
</event>
<event>
 5   0  0.6477703E-06  0.2486603E+04  0.7818609E-02  0.8407774E-01
        1   -1    0    0  501    0  0.00000000000E+00  0.00000000000E+00  0.10819182671E+04  0.10819182671E+04  0.50400001928E-02 0.  1.
       -1   -1    0    0    0  501  0.00000000000E+00  0.00000000000E+00 -0.14287570622E+04  0.14287570622E+04  0.50400001928E-02 0. -1.
    10030    2    1    2    0    0  0.00000000000E+00  0.00000000000E+00 -0.34683879511E+03  0.25106753293E+04  0.24866027949E+04 0.  0.
        5    1    3    3  502    0  0.34118774967E+03  0.86677236991E+03 -0.10048429375E+04  0.13701951835E+04  0.46999998093E+01 0. -1.
       -5    1    3    3    0  502 -0.34118774967E+03 -0.86677236991E+03  0.65800414237E+03  0.11404801459E+04  0.46999998093E+01 0.  1.
</event>
<event>
 5   0  0.6346420E-06  0.2494754E+04  0.7818609E-02  0.8404857E-01
        1   -1    0    0  501    0  0.00000000000E+00  0.00000000000E+00  0.12172582735E+04  0.12172582735E+04  0.50400001928E-02 0.  1.
       -1   -1    0    0    0  501  0.00000000000E+00  0.00000000000E+00 -0.12782414170E+04  0.12782414171E+04  0.50400001928E-02 0. -1.
    10030    2    1    2    0    0  0.00000000000E+00  0.00000000000E+00 -0.60983143553E+02  0.24954996906E+04  0.24947544492E+04 0.  0.
        4    1    3    3  502    0  0.11894325079E+04  0.68858639451E+02 -0.40000295531E+03  0.12567796864E+04  0.12699999809E+01 0. -1.
       -4    1    3    3    0  502 -0.11894325079E+04 -0.68858639451E+02  0.33901981176E+03  0.12387200041E+04  0.12699999809E+01 0.  1.
</event>
<event>
 5   0  0.6477703E-06  0.2483007E+04  0.7818609E-02  0.8409064E-01
        1   -1    0    0  501    0  0.00000000000E+00  0.00000000000E+00  0.15902810990E+04  0.15902810990E+04  0.50400001928E-02 0.  1.
       -1   -1    0    0    0  501  0.00000000000E+00  0.00000000000E+00 -0.96921932619E+03  0.96921932621E+03  0.50400001928E-02 0. -1.
    10030    2    1    2    0    0  0.00000000000E+00  0.00000000000E+00  0.62106177279E+03  0.25595004252E+04  0.24830071891E+04 0.  0.
        5    1    3    3  502    0  0.63149092487E+03  0.62415592588E+03  0.12049941573E+04  0.14967913739E+04  0.46999998093E+01 0. -1.
       -5    1    3    3    0  502 -0.63149092487E+03 -0.62415592588E+03 -0.58393238449E+03  0.10627090513E+04  0.46999998093E+01 0.  1.
</event>
<event>
 5   0  0.6290861E-06  0.2465937E+04  0.7818609E-02  0.8415222E-01
        1   -1    0    0  501    0  0.00000000000E+00  0.00000000000E+00  0.20043676876E+04  0.20043676876E+04  0.50400001928E-02 0. -1.
       -1   -1    0    0    0  501  0.00000000000E+00  0.00000000000E+00 -0.75844921215E+03  0.75844921217E+03  0.50400001928E-02 0.  1.
    10030    2    1    2    0    0  0.00000000000E+00  0.00000000000E+00  0.12459184754E+04  0.27628168997E+04  0.24659368147E+04 0.  0.
        1    1    3    3  502    0 -0.86623600820E+03  0.86298880714E+03  0.80045072161E+03  0.14614499173E+04  0.50400001928E-02 0.  1.
       -1    1    3    3    0  502  0.86623600820E+03 -0.86298880714E+03  0.44546775380E+03  0.13013669824E+04  0.50400001928E-02 0. -1.
</event>
<event>
 5   0  0.1468512E-05  0.2535481E+04  0.7818609E-02  0.8390453E-01
        2   -1    0    0  501    0  0.00000000000E+00  0.00000000000E+00  0.17575280489E+04  0.17575280489E+04  0.25500000920E-02 0. -1.
       -2   -1    0    0    0  501  0.00000000000E+00  0.00000000000E+00 -0.91444718592E+03  0.91444718593E+03  0.25500000920E-02 0.  1.
    10030    2    1    2    0    0  0.00000000000E+00  0.00000000000E+00  0.84308086300E+03  0.26719752348E+04  0.25354814758E+04 0.  0.
        4    1    3    3  502    0 -0.56070940503E+03 -0.40521859675E+03 -0.69798977895E+03  0.98274538536E+03  0.12699999809E+01 0.  1.
       -4    1    3    3    0  502  0.56070940503E+03  0.40521859675E+03  0.15410706419E+04  0.16892298495E+04  0.12699999809E+01 0. -1.
</event>
<event>
 5   0  0.1572732E-05  0.2396385E+04  0.7818609E-02  0.8440858E-01
       -2   -1    0    0    0  501  0.00000000000E+00  0.00000000000E+00  0.17956445901E+04  0.17956445901E+04  0.25500000920E-02 0.  1.
        2   -1    0    0  501    0  0.00000000000E+00  0.00000000000E+00 -0.79952651854E+03  0.79952651855E+03  0.25500000920E-02 0. -1.
    10030    2    1    2    0    0  0.00000000000E+00  0.00000000000E+00  0.99611807159E+03  0.25951711087E+04  0.23963851675E+04 0.  0.
        1    1    3    3  502    0 -0.21415842650E+03  0.39924259805E+03  0.16993100535E+04  0.17586680022E+04  0.50400001928E-02 0.  1.
       -1    1    3    3    0  502  0.21415842650E+03 -0.39924259805E+03 -0.70319198194E+03  0.83650310653E+03  0.50400001928E-02 0. -1.
</event>
<event>
 5   0  0.1526824E-05  0.2467053E+04  0.7818609E-02  0.8414818E-01
       -2   -1    0    0    0  501  0.00000000000E+00  0.00000000000E+00  0.11235615616E+04  0.11235615616E+04  0.25500000920E-02 0. -1.
        2   -1    0    0  501    0  0.00000000000E+00  0.00000000000E+00 -0.13542543442E+04  0.13542543442E+04  0.25500000920E-02 0.  1.
    10030    2    1    2    0    0  0.00000000000E+00  0.00000000000E+00 -0.23069278255E+03  0.24778159058E+04  0.24670534050E+04 0.  0.
        2    1    3    3  502    0  0.12014481084E+04  0.35642965940E+02  0.16306344877E+03  0.12129870842E+04  0.25500000920E-02 0. -1.
       -2    1    3    3    0  502 -0.12014481084E+04 -0.35642965940E+02 -0.39375623132E+03  0.12648288216E+04  0.25500000920E-02 0.  1.
</event>
<event>
 5   0  0.6105353E-06  0.2500781E+04  0.7818609E-02  0.8402707E-01
       -1   -1    0    0    0  501  0.00000000000E+00  0.00000000000E+00  0.90726970149E+03  0.90726970150E+03  0.50400001928E-02 0.  1.
        1   -1    0    0  501    0  0.00000000000E+00  0.00000000000E+00 -0.17232769878E+04  0.17232769878E+04  0.50400001928E-02 0. -1.
    10030    2    1    2    0    0  0.00000000000E+00  0.00000000000E+00 -0.81600728632E+03  0.26305466893E+04  0.25007814765E+04 0.  0.
        3    1    3    3  502    0  0.37205307946E+03  0.10000077173E+04  0.27777535488E+03  0.11025416484E+04  0.10100000352E+00 0.  1.
       -3    1    3    3    0  502 -0.37205307946E+03 -0.10000077173E+04 -0.10937826412E+04  0.15280050409E+04  0.10100000352E+00 0. -1.
</event>
<event>
 5   0  0.1501947E-05  0.2500944E+04  0.7818609E-02  0.8402649E-01
        2   -1    0    0  501    0  0.00000000000E+00  0.00000000000E+00  0.10218048602E+04  0.10218048602E+04  0.25500000920E-02 0. -1.
       -2   -1    0    0    0  501  0.00000000000E+00  0.00000000000E+00 -0.15303123298E+04  0.15303123298E+04  0.25500000920E-02 0.  1.
    10030    2    1    2    0    0  0.00000000000E+00  0.00000000000E+00 -0.50850746954E+03  0.25521171900E+04  0.25009442826E+04 0.  0.
        3    1    3    3  502    0 -0.13086679235E+03 -0.36717108814E+02 -0.15227518661E+04  0.15288059130E+04  0.10100000352E+00 0.  1.
       -3    1    3    3    0  502  0.13086679235E+03  0.36717108814E+02  0.10142443966E+04  0.10233112770E+04  0.10100000352E+00 0. -1.
</event>
<event>
 5   0  0.1550483E-05  0.2533688E+04  0.7818609E-02  0.8391081E-01
        2   -1    0    0  501    0  0.00000000000E+00  0.00000000000E+00  0.14653363523E+04  0.14653363523E+04  0.25500000920E-02 0. -1.
       -2   -1    0    0    0  501  0.00000000000E+00  0.00000000000E+00 -0.10952394149E+04  0.10952394149E+04  0.25500000920E-02 0.  1.
    10030    2    1    2    0    0  0.00000000000E+00  0.00000000000E+00  0.37009693744E+03  0.25605757672E+04  0.25336883227E+04 0.  0.
        5    1    3    3  502    0 -0.63995692717E+03  0.12034972646E+03  0.12832461993E+04  0.14390176591E+04  0.46999998093E+01 0. -1.
       -5    1    3    3    0  502  0.63995692717E+03 -0.12034972646E+03 -0.91314926187E+03  0.11215581081E+04  0.46999998093E+01 0.  1.
</event>
<event>
 5   0  0.1572732E-05  0.2489023E+04  0.7818609E-02  0.8406907E-01
       -2   -1    0    0    0  501  0.00000000000E+00  0.00000000000E+00  0.98164130203E+03  0.98164130203E+03  0.25500000920E-02 0.  1.
        2   -1    0    0  501    0  0.00000000000E+00  0.00000000000E+00 -0.15777747557E+04  0.15777747557E+04  0.25500000920E-02 0. -1.
    10030    2    1    2    0    0  0.00000000000E+00  0.00000000000E+00 -0.59613345368E+03  0.25594160577E+04  0.24890229935E+04 0.  0.
        1    1    3    3  502    0  0.34278917799E+03  0.92161113710E+03 -0.10824893318E+04  0.14624139845E+04  0.50400001928E-02 0.  1.
       -1    1    3    3    0  502 -0.34278917799E+03 -0.92161113710E+03  0.48635587809E+03  0.10970020733E+04  0.50400001928E-02 0. -1.
</event>
<event>
 5   0  0.6105353E-06  0.2537712E+04  0.7818609E-02  0.8389672E-01
       -1   -1    0    0    0  501  0.00000000000E+00  0.00000000000E+00  0.16948729512E+04  0.16948729512E+04  0.50400001928E-02 0. -1.
        1   -1    0    0  501    0  0.00000000000E+00  0.00000000000E+00 -0.94992121987E+03  0.94992121988E+03  0.50400001928E-02 0.  1.
    10030    2    1    2    0    0  0.00000000000E+00  0.00000000000E+00  0.74495173128E+03  0.26447941710E+04  0.25377121833E+04 0.  0.
        3    1    3    3  502    0  0.34383948778E+03  0.91358492754E+02 -0.89687632301E+03  0.96486222671E+03  0.10100000352E+00 0.  1.
       -3    1    3    3    0  502 -0.34383948778E+03 -0.91358492754E+02  0.16418280543E+04  0.16799319443E+04  0.10100000352E+00 0. -1.
</event>
<event>
 5   0  0.6346420E-06  0.2480445E+04  0.7818609E-02  0.8409985E-01
        1   -1    0    0  501    0  0.00000000000E+00  0.00000000000E+00  0.21794381148E+04  0.21794381148E+04  0.50400001928E-02 0. -1.
       -1   -1    0    0    0  501  0.00000000000E+00  0.00000000000E+00 -0.70575621873E+03  0.70575621874E+03  0.50400001928E-02 0.  1.
    10030    2    1    2    0    0  0.00000000000E+00  0.00000000000E+00  0.14736818961E+04  0.28851943335E+04  0.24804451237E+04 0.  0.
        4    1    3    3  502    0 -0.89627854199E+03  0.77694591098E+03  0.31553637642E+03  0.12274057973E+04  0.12699999809E+01 0.  1.
       -4    1    3    3    0  502  0.89627854199E+03 -0.77694591098E+03  0.11581455196E+04  0.16577885363E+04  0.12699999809E+01 0. -1.
</event>
<event>
 5   0  0.6105353E-06  0.2496725E+04  0.7818609E-02  0.8404153E-01
       -1   -1    0    0    0  501  0.00000000000E+00  0.00000000000E+00  0.16437099500E+04  0.16437099500E+04  0.50400001928E-02 0. -1.
        1   -1    0    0  501    0  0.00000000000E+00  0.00000000000E+00 -0.94810469739E+03  0.94810469740E+03  0.50400001928E-02 0.  1.
    10030    2    1    2    0    0  0.00000000000E+00  0.00000000000E+00  0.69560525257E+03  0.25918146474E+04  0.24967251549E+04 0.  0.
        3    1    3    3  502    0  0.88940823402E+03  0.15457279179E+03 -0.54728332443E+03  0.10556793084E+04  0.10100000352E+00 0.  1.
       -3    1    3    3    0  502 -0.88940823402E+03 -0.15457279179E+03  0.12428885770E+04  0.15361353390E+04  0.10100000352E+00 0. -1.
</event>
<event>
 5   0  0.1468512E-05  0.2503145E+04  0.7818609E-02  0.8401866E-01
       -2   -1    0    0    0  501  0.00000000000E+00  0.00000000000E+00  0.18499595839E+04  0.18499595839E+04  0.25500000920E-02 0.  1.
        2   -1    0    0  501    0  0.00000000000E+00  0.00000000000E+00 -0.84673973563E+03  0.84673973563E+03  0.25500000920E-02 0. -1.
    10030    2    1    2    0    0  0.00000000000E+00  0.00000000000E+00  0.10032198482E+04  0.26966993195E+04  0.25031454524E+04 0.  0.
        4    1    3    3  502    0 -0.35753927696E+03  0.46646432196E+03  0.16920456148E+04  0.17912127940E+04  0.12699999809E+01 0.  1.
       -4    1    3    3    0  502  0.35753927696E+03 -0.46646432196E+03 -0.68882576653E+03  0.90548652545E+03  0.12699999809E+01 0. -1.
</event>
<event>
 5   0  0.1550483E-05  0.2503358E+04  0.7818609E-02  0.8401790E-01
        2   -1    0    0  501    0  0.00000000000E+00  0.00000000000E+00  0.18766690996E+04  0.18766690996E+04  0.25500000920E-02 0.  1.
       -2   -1    0    0    0  501  0.00000000000E+00  0.00000000000E+00 -0.83483008126E+03  0.83483008126E+03  0.25500000920E-02 0. -1.
    10030    2    1    2    0    0  0.00000000000E+00  0.00000000000E+00  0.10418390184E+04  0.27114991809E+04  0.25033575989E+04 0.  0.
        5    1    3    3  502    0  0.57877667046E+03 -0.58408412210E+03 -0.50122794805E+03  0.96300999053E+03  0.46999998093E+01 0. -1.
       -5    1    3    3    0  502 -0.57877667046E+03  0.58408412210E+03  0.15430669664E+04  0.17484891904E+04  0.46999998093E+01 0.  1.
</event>
<event>
 5   0  0.1526824E-05  0.2433143E+04  0.7818609E-02  0.8427199E-01
        2   -1    0    0  501    0  0.00000000000E+00  0.00000000000E+00  0.80760515307E+03  0.80760515307E+03  0.25500000920E-02 0. -1.
       -2   -1    0    0    0  501  0.00000000000E+00  0.00000000000E+00 -0.18326354685E+04  0.18326354685E+04  0.25500000920E-02 0.  1.
    10030    2    1    2    0    0  0.00000000000E+00  0.00000000000E+00 -0.10250303154E+04  0.26402406216E+04  0.24331426987E+04 0.  0.
        2    1    3    3  502    0  0.63554037195E+02  0.77347412952E+03  0.50410797531E+03  0.92543297729E+03  0.25500000920E-02 0. -1.
       -2    1    3    3    0  502 -0.63554037195E+02 -0.77347412952E+03 -0.15291382907E+04  0.17148076443E+04  0.25500000920E-02 0.  1.
</event>
<event>
 5   0  0.1501947E-05  0.2500830E+04  0.7818609E-02  0.8402690E-01
        2   -1    0    0  501    0  0.00000000000E+00  0.00000000000E+00  0.20358883553E+04  0.20358883553E+04  0.25500000920E-02 0. -1.
       -2   -1    0    0    0  501  0.00000000000E+00  0.00000000000E+00 -0.76798808674E+03  0.76798808674E+03  0.25500000920E-02 0.  1.
    10030    2    1    2    0    0  0.00000000000E+00  0.00000000000E+00  0.12679002686E+04  0.28038764421E+04  0.25008302644E+04 0.  0.
        3    1    3    3  502    0  0.11698382597E+03  0.83790955964E+03  0.16662626788E+04  0.18687452931E+04  0.10100000352E+00 0. -1.
       -3    1    3    3    0  502 -0.11698382597E+03 -0.83790955964E+03 -0.39836241019E+03  0.93513114894E+03  0.10100000352E+00 0.  1.
</event>
<event>
 5   0  0.1526824E-05  0.2492253E+04  0.7818609E-02  0.8405751E-01
       -2   -1    0    0    0  501  0.00000000000E+00  0.00000000000E+00  0.13057123894E+04  0.13057123894E+04  0.25500000920E-02 0. -1.
        2   -1    0    0  501    0  0.00000000000E+00  0.00000000000E+00 -0.11892593534E+04  0.11892593534E+04  0.25500000920E-02 0.  1.
    10030    2    1    2    0    0  0.00000000000E+00  0.00000000000E+00  0.11645303606E+03  0.24949717428E+04  0.24922525329E+04 0.  0.
        2    1    3    3  502    0 -0.11628334114E+04  0.20522901874E+03 -0.34036638359E+03  0.12288815110E+04  0.25500000920E-02 0.  1.
       -2    1    3    3    0  502  0.11628334114E+04 -0.20522901874E+03  0.45681941965E+03  0.12660902318E+04  0.25500000920E-02 0. -1.
</event>
<event>
 5   0  0.1501947E-05  0.2503891E+04  0.7818609E-02  0.8401601E-01
       -2   -1    0    0    0  501  0.00000000000E+00  0.00000000000E+00  0.66893785242E+03  0.66893785242E+03  0.25500000920E-02 0. -1.
        2   -1    0    0  501    0  0.00000000000E+00  0.00000000000E+00 -0.23430690356E+04  0.23430690356E+04  0.25500000920E-02 0.  1.
    10030    2    1    2    0    0  0.00000000000E+00  0.00000000000E+00 -0.16741311831E+04  0.30120068880E+04  0.25038910270E+04 0.  0.
        3    1    3    3  502    0 -0.95695086331E+03  0.66263629072E+02  0.13069310700E+03  0.96810460269E+03  0.10100000352E+00 0. -1.
       -3    1    3    3    0  502  0.95695086331E+03 -0.66263629072E+02 -0.18048242901E+04  0.20439022853E+04  0.10100000352E+00 0.  1.
</event>
<event>
 5   0  0.1501947E-05  0.2491117E+04  0.7818609E-02  0.8406157E-01
       -2   -1    0    0    0  501  0.00000000000E+00  0.00000000000E+00  0.58711244956E+03  0.58711244957E+03  0.25500000920E-02 0. -1.
        2   -1    0    0  501    0  0.00000000000E+00  0.00000000000E+00 -0.26424501983E+04  0.26424501983E+04  0.25500000920E-02 0.  1.
    10030    2    1    2    0    0  0.00000000000E+00  0.00000000000E+00 -0.20553377488E+04  0.32295626479E+04  0.24911165439E+04 0.  0.
        3    1    3    3  502    0  0.32055338354E+03 -0.77723550428E+03 -0.22190931322E+04  0.23730199831E+04  0.10100000352E+00 0. -1.
       -3    1    3    3    0  502 -0.32055338354E+03  0.77723550428E+03  0.16375538339E+03  0.85654266479E+03  0.10100000352E+00 0.  1.
</event>
<event>
 5   0  0.1468512E-05  0.2505366E+04  0.7818609E-02  0.8401076E-01
        2   -1    0    0  501    0  0.00000000000E+00  0.00000000000E+00  0.10323103969E+04  0.10323103969E+04  0.25500000920E-02 0.  1.
       -2   -1    0    0    0  501  0.00000000000E+00  0.00000000000E+00 -0.15200993359E+04  0.15200993359E+04  0.25500000920E-02 0. -1.
    10030    2    1    2    0    0  0.00000000000E+00  0.00000000000E+00 -0.48778893892E+03  0.25524097328E+04  0.25053657208E+04 0.  0.
        4    1    3    3  502    0  0.77863696742E+02 -0.10976804158E+04  0.36588241569E+03  0.11596709040E+04  0.12699999809E+01 0. -1.
       -4    1    3    3    0  502 -0.77863696742E+02  0.10976804158E+04 -0.85367135462E+03  0.13927388288E+04  0.12699999809E+01 0.  1.
</event>
<event>
 5   0  0.6477703E-06  0.2501515E+04  0.7818609E-02  0.8402446E-01
        1   -1    0    0  501    0  0.00000000000E+00  0.00000000000E+00  0.18515454470E+04  0.18515454470E+04  0.50400001928E-02 0.  1.
       -1   -1    0    0    0  501  0.00000000000E+00  0.00000000000E+00 -0.84491244580E+03  0.84491244582E+03  0.50400001928E-02 0. -1.
    10030    2    1    2    0    0  0.00000000000E+00  0.00000000000E+00  0.10066330012E+04  0.26964578928E+04  0.25015145749E+04 0.  0.
        5    1    3    3  502    0  0.59488340457E+03 -0.24020907280E+03 -0.65403364571E+03  0.91617070648E+03  0.46999998093E+01 0. -1.
       -5    1    3    3    0  502 -0.59488340457E+03  0.24020907280E+03  0.16606666469E+04  0.17802871863E+04  0.46999998093E+01 0.  1.
</event>
<event>
 5   0  0.6104486E-06  0.2461041E+04  0.7818609E-02  0.8416998E-01
       -1   -1    0    0    0  501  0.00000000000E+00  0.00000000000E+00  0.95367177253E+03  0.95367177254E+03  0.50400001928E-02 0. -1.
        1   -1    0    0  501    0  0.00000000000E+00  0.00000000000E+00 -0.15877375336E+04  0.15877375336E+04  0.50400001928E-02 0.  1.
    10030    2    1    2    0    0  0.00000000000E+00  0.00000000000E+00 -0.63406576109E+03  0.25414093062E+04  0.24610408107E+04 0.  0.
        2    1    3    3  502    0 -0.33140475728E+03 -0.11841457463E+04 -0.36491748269E+03  0.12826515625E+04  0.25500000920E-02 0.  1.
       -2    1    3    3    0  502  0.33140475728E+03  0.11841457463E+04 -0.26914827840E+03  0.12587577437E+04  0.25500000920E-02 0. -1.
</event>
<event>
 5   0  0.6104486E-06  0.2501941E+04  0.7818609E-02  0.8402294E-01
        1   -1    0    0  501    0  0.00000000000E+00  0.00000000000E+00  0.25400412392E+04  0.25400412392E+04  0.50400001928E-02 0.  1.
       -1   -1    0    0    0  501  0.00000000000E+00  0.00000000000E+00 -0.61610324916E+03  0.61610324918E+03  0.50400001928E-02 0. -1.
    10030    2    1    2    0    0  0.00000000000E+00  0.00000000000E+00  0.19239379900E+04  0.31561444884E+04  0.25019413746E+04 0.  0.
        2    1    3    3  502    0  0.23041847467E+03 -0.10963444864E+04  0.25976202327E+03  0.11500174847E+04  0.25500000920E-02 0. -1.
       -2    1    3    3    0  502 -0.23041847467E+03  0.10963444864E+04  0.16641759668E+04  0.20061270037E+04  0.25500000920E-02 0.  1.
</event>
<event>
 5   0  0.6105353E-06  0.2504310E+04  0.7818609E-02  0.8401452E-01
        1   -1    0    0  501    0  0.00000000000E+00  0.00000000000E+00  0.20955297698E+04  0.20955297699E+04  0.50400001928E-02 0. -1.
       -1   -1    0    0    0  501  0.00000000000E+00  0.00000000000E+00 -0.74820798404E+03  0.74820798406E+03  0.50400001928E-02 0.  1.
    10030    2    1    2    0    0  0.00000000000E+00  0.00000000000E+00  0.13473217858E+04  0.28437377539E+04  0.25043099685E+04 0.  0.
        3    1    3    3  502    0 -0.82283849284E+03 -0.44437051614E+03  0.16192055149E+04  0.18698542325E+04  0.10100000352E+00 0. -1.
       -3    1    3    3    0  502  0.82283849284E+03  0.44437051614E+03 -0.27188372914E+03  0.97388352142E+03  0.10100000352E+00 0.  1.
</event>
<event>
 5   0  0.1572732E-05  0.2481516E+04  0.7818609E-02  0.8409600E-01
       -2   -1    0    0    0  501  0.00000000000E+00  0.00000000000E+00  0.68173202831E+03  0.68173202831E+03  0.25500000920E-02 0. -1.
        2   -1    0    0  501    0  0.00000000000E+00  0.00000000000E+00 -0.22581891456E+04  0.22581891456E+04  0.25500000920E-02 0.  1.
    10030    2    1    2    0    0  0.00000000000E+00  0.00000000000E+00 -0.15764571172E+04  0.29399211739E+04  0.24815155583E+04 0.  0.
        1    1    3    3  502    0  0.44326793729E+03  0.82756822302E+03  0.17288040292E+03  0.95459062520E+03  0.50400001928E-02 0. -1.
       -1    1    3    3    0  502 -0.44326793729E+03 -0.82756822302E+03 -0.17493375202E+04  0.19853305487E+04  0.50400001928E-02 0.  1.
</event>
<event>
 5   0  0.6105353E-06  0.2526128E+04  0.7818609E-02  0.8393736E-01
        1   -1    0    0  501    0  0.00000000000E+00  0.00000000000E+00  0.11639808913E+04  0.11639808913E+04  0.50400001928E-02 0. -1.
       -1   -1    0    0    0  501  0.00000000000E+00  0.00000000000E+00 -0.13705813489E+04  0.13705813489E+04  0.50400001928E-02 0.  1.
    10030    2    1    2    0    0  0.00000000000E+00  0.00000000000E+00 -0.20660045762E+03  0.25345622402E+04  0.25261278670E+04 0.  0.
        3    1    3    3  502    0 -0.72827041768E+03 -0.22730977305E+02 -0.11384600480E+04  0.13516603825E+04  0.10100000352E+00 0.  1.
       -3    1    3    3    0  502  0.72827041768E+03  0.22730977305E+02  0.93185959034E+03  0.11829018577E+04  0.10100000352E+00 0. -1.
</event>
<event>
 5   0  0.1501947E-05  0.2636714E+04  0.7818609E-02  0.8355836E-01
       -2   -1    0    0    0  501  0.00000000000E+00  0.00000000000E+00  0.80885966307E+03  0.80885966308E+03  0.25500000920E-02 0. -1.
        2   -1    0    0  501    0  0.00000000000E+00  0.00000000000E+00 -0.21487843513E+04  0.21487843513E+04  0.25500000920E-02 0.  1.
    10030    2    1    2    0    0  0.00000000000E+00  0.00000000000E+00 -0.13399246883E+04  0.29576440144E+04  0.26367138536E+04 0.  0.
        3    1    3    3  502    0  0.52305389223E+03 -0.11599726405E+02  0.68742754863E+03  0.86387300725E+03  0.10100000352E+00 0. -1.
       -3    1    3    3    0  502 -0.52305389223E+03  0.11599726405E+02 -0.20273522369E+04  0.20937710072E+04  0.10100000352E+00 0.  1.
</event>
<event>
 5   0  0.6290861E-06  0.2492912E+04  0.7818609E-02  0.8405515E-01
       -1   -1    0    0    0  501  0.00000000000E+00  0.00000000000E+00  0.58310334520E+03  0.58310334522E+03  0.50400001928E-02 0.  1.
        1   -1    0    0  501    0  0.00000000000E+00  0.00000000000E+00 -0.26644557601E+04  0.26644557602E+04  0.50400001928E-02 0. -1.
    10030    2    1    2    0    0  0.00000000000E+00  0.00000000000E+00 -0.20813524149E+04  0.32475591054E+04  0.24929124067E+04 0.  0.
        1    1    3    3  502    0 -0.47144778026E+03 -0.59886690302E+03 -0.23255199909E+04  0.24472326831E+04  0.50400001928E-02 0. -1.
       -1    1    3    3    0  502  0.47144778026E+03  0.59886690302E+03  0.24416757596E+03  0.80032642229E+03  0.50400001928E-02 0.  1.
</event>
<event>
 5   0  0.1468512E-05  0.2506906E+04  0.7818609E-02  0.8400529E-01
        2   -1    0    0  501    0  0.00000000000E+00  0.00000000000E+00  0.15189658100E+04  0.15189658100E+04  0.25500000920E-02 0. -1.
       -2   -1    0    0    0  501  0.00000000000E+00  0.00000000000E+00 -0.10343515000E+04  0.10343515000E+04  0.25500000920E-02 0.  1.
    10030    2    1    2    0    0  0.00000000000E+00  0.00000000000E+00  0.48461431002E+03  0.25533173101E+04  0.25069061124E+04 0.  0.
        4    1    3    3  502    0 -0.50065016536E+03  0.84170680324E+02  0.14095641700E+04  0.14982016065E+04  0.12699999809E+01 0. -1.
       -4    1    3    3    0  502  0.50065016536E+03 -0.84170680324E+02 -0.92494985997E+03  0.10551157035E+04  0.12699999809E+01 0.  1.
</event>
<event>
 5   0  0.1468512E-05  0.2501617E+04  0.7818609E-02  0.8402410E-01
        2   -1    0    0  501    0  0.00000000000E+00  0.00000000000E+00  0.64626963190E+03  0.64626963190E+03  0.25500000920E-02 0.  1.
       -2   -1    0    0    0  501  0.00000000000E+00  0.00000000000E+00 -0.24208508430E+04  0.24208508430E+04  0.25500000920E-02 0. -1.
    10030    2    1    2    0    0  0.00000000000E+00  0.00000000000E+00 -0.17745812111E+04  0.30671204749E+04  0.25016173834E+04 0.  0.
        4    1    3    3  502    0  0.96138346463E+03 -0.18538866721E+03 -0.18416416392E+04  0.20857307267E+04  0.12699999809E+01 0. -1.
       -4    1    3    3    0  502 -0.96138346463E+03  0.18538866721E+03  0.67060428127E+02  0.98138974822E+03  0.12699999809E+01 0.  1.
</event>
<event>
 5   0  0.6477703E-06  0.2496663E+04  0.7818609E-02  0.8404175E-01
       -1   -1    0    0    0  501  0.00000000000E+00  0.00000000000E+00  0.33114677956E+04  0.33114677956E+04  0.50400001928E-02 0. -1.
        1   -1    0    0  501    0  0.00000000000E+00  0.00000000000E+00 -0.47058616750E+03  0.47058616753E+03  0.50400001928E-02 0.  1.
    10030    2    1    2    0    0  0.00000000000E+00  0.00000000000E+00  0.28408816281E+04  0.37820539631E+04  0.24966625233E+04 0.  0.
        5    1    3    3  502    0 -0.45354523755E+03  0.92927524412E+03  0.24798064504E+04  0.26867671807E+04  0.46999998093E+01 0. -1.
       -5    1    3    3    0  502  0.45354523755E+03 -0.92927524412E+03  0.36107517770E+03  0.10952867824E+04  0.46999998093E+01 0.  1.
</event>
<event>
 5   0  0.6105353E-06  0.2511085E+04  0.7818609E-02  0.8399047E-01
        1   -1    0    0  501    0  0.00000000000E+00  0.00000000000E+00  0.97739874190E+03  0.97739874192E+03  0.50400001928E-02 0.  1.
       -1   -1    0    0    0  501  0.00000000000E+00  0.00000000000E+00 -0.16128391113E+04  0.16128391113E+04  0.50400001928E-02 0. -1.
    10030    2    1    2    0    0  0.00000000000E+00  0.00000000000E+00 -0.63544036943E+03  0.25902378533E+04  0.25110849594E+04 0.  0.
        3    1    3    3  502    0  0.86794000437E+03 -0.65420538921E+03 -0.96608891560E+03  0.14541775495E+04  0.10100000352E+00 0. -1.
       -3    1    3    3    0  502 -0.86794000437E+03  0.65420538921E+03  0.33064854617E+03  0.11360603037E+04  0.10100000352E+00 0.  1.
</event>
<event>
 5   0  0.6104486E-06  0.2503145E+04  0.7818609E-02  0.8401866E-01
        1   -1    0    0  501    0  0.00000000000E+00  0.00000000000E+00  0.10632461229E+04  0.10632461229E+04  0.50400001928E-02 0. -1.
       -1   -1    0    0    0  501  0.00000000000E+00  0.00000000000E+00 -0.14732560808E+04  0.14732560808E+04  0.50400001928E-02 0.  1.
    10030    2    1    2    0    0  0.00000000000E+00  0.00000000000E+00 -0.41000995795E+03  0.25365022038E+04  0.25031450745E+04 0.  0.
        2    1    3    3  502    0  0.33370830962E+03 -0.49368217194E+03 -0.13202855422E+04  0.14485293355E+04  0.25500000920E-02 0.  1.
       -2    1    3    3    0  502 -0.33370830962E+03  0.49368217194E+03  0.91027558425E+03  0.10879728683E+04  0.25500000920E-02 0. -1.
</event>
<event>
 5   0  0.1468512E-05  0.2518266E+04  0.7818609E-02  0.8396507E-01
        2   -1    0    0  501    0  0.00000000000E+00  0.00000000000E+00  0.15646469212E+04  0.15646469212E+04  0.25500000920E-02 0. -1.
       -2   -1    0    0    0  501  0.00000000000E+00  0.00000000000E+00 -0.10132738596E+04  0.10132738596E+04  0.25500000920E-02 0.  1.
    10030    2    1    2    0    0  0.00000000000E+00  0.00000000000E+00  0.55137306157E+03  0.25779207808E+04  0.25182659310E+04 0.  0.
        4    1    3    3  502    0 -0.18841934200E+03  0.11658807714E+04  0.72264647303E+03  0.13845574598E+04  0.12699999809E+01 0. -1.
       -4    1    3    3    0  502  0.18841934200E+03 -0.11658807714E+04 -0.17127341147E+03  0.11933633210E+04  0.12699999809E+01 0.  1.
</event>
<event>
 5   0  0.6105353E-06  0.2492087E+04  0.7818609E-02  0.8405810E-01
       -1   -1    0    0    0  501  0.00000000000E+00  0.00000000000E+00  0.84625490428E+03  0.84625490430E+03  0.50400001928E-02 0.  1.
        1   -1    0    0  501    0  0.00000000000E+00  0.00000000000E+00 -0.18347003691E+04  0.18347003691E+04  0.50400001928E-02 0. -1.
    10030    2    1    2    0    0  0.00000000000E+00  0.00000000000E+00 -0.98844546485E+03  0.26809552734E+04  0.24920868246E+04 0.  0.
        3    1    3    3  502    0 -0.77516010865E+03 -0.69348354244E+03 -0.12323974752E+04  0.16126364019E+04  0.10100000352E+00 0. -1.
       -3    1    3    3    0  502  0.77516010865E+03  0.69348354244E+03  0.24395201037E+03  0.10683188715E+04  0.10100000352E+00 0.  1.
</event>
<event>
 5   0  0.1526824E-05  0.2476922E+04  0.7818609E-02  0.8411253E-01
        2   -1    0    0  501    0  0.00000000000E+00  0.00000000000E+00  0.19146049688E+04  0.19146049688E+04  0.25500000920E-02 0.  1.
       -2   -1    0    0    0  501  0.00000000000E+00  0.00000000000E+00 -0.80109797786E+03  0.80109797786E+03  0.25500000920E-02 0. -1.
    10030    2    1    2    0    0  0.00000000000E+00  0.00000000000E+00  0.11135069909E+04  0.27157029467E+04  0.24769224202E+04 0.  0.
        2    1    3    3  502    0  0.34268074198E+03 -0.10641825064E+03  0.18563629096E+04  0.18907242494E+04  0.25500000920E-02 0.  1.
       -2    1    3    3    0  502 -0.34268074198E+03  0.10641825064E+03 -0.74285591869E+03  0.82497869726E+03  0.25500000920E-02 0. -1.
</event>
<event>
 5   0  0.1468512E-05  0.2515341E+04  0.7818609E-02  0.8397540E-01
        2   -1    0    0  501    0  0.00000000000E+00  0.00000000000E+00  0.99969651051E+03  0.99969651052E+03  0.25500000920E-02 0.  1.
       -2   -1    0    0    0  501  0.00000000000E+00  0.00000000000E+00 -0.15822154670E+04  0.15822154670E+04  0.25500000920E-02 0. -1.
    10030    2    1    2    0    0  0.00000000000E+00  0.00000000000E+00 -0.58251895649E+03  0.25819119775E+04  0.25153411548E+04 0.  0.
        4    1    3    3  502    0  0.11962330039E+04 -0.73036678581E+02 -0.68269968686E+03  0.13792709057E+04  0.12699999809E+01 0. -1.
       -4    1    3    3    0  502 -0.11962330039E+04  0.73036678581E+02  0.10018073037E+03  0.12026410718E+04  0.12699999809E+01 0.  1.
</event>
<event>
 5   0  0.6477703E-06  0.2514157E+04  0.7818609E-02  0.8397959E-01
       -1   -1    0    0    0  501  0.00000000000E+00  0.00000000000E+00  0.87908652770E+03  0.87908652772E+03  0.50400001928E-02 0. -1.
        1   -1    0    0  501    0  0.00000000000E+00  0.00000000000E+00 -0.17976003602E+04  0.17976003603E+04  0.50400001928E-02 0.  1.
    10030    2    1    2    0    0  0.00000000000E+00  0.00000000000E+00 -0.91851383255E+03  0.26766868880E+04  0.25141569234E+04 0.  0.
        5    1    3    3  502    0  0.46639220573E+03 -0.46573607303E+02 -0.17010801784E+04  0.17644791451E+04  0.46999998093E+01 0.  1.
       -5    1    3    3    0  502 -0.46639220573E+03  0.46573607303E+02  0.78256634581E+03  0.91220774282E+03  0.46999998093E+01 0. -1.
</event>
<event>
 5   0  0.6104486E-06  0.2501405E+04  0.7818609E-02  0.8402485E-01
        1   -1    0    0  501    0  0.00000000000E+00  0.00000000000E+00  0.14789130885E+04  0.14789130886E+04  0.50400001928E-02 0. -1.
       -1   -1    0    0    0  501  0.00000000000E+00  0.00000000000E+00 -0.10577067072E+04  0.10577067072E+04  0.50400001928E-02 0.  1.
    10030    2    1    2    0    0  0.00000000000E+00  0.00000000000E+00  0.42120638137E+03  0.25366197958E+04  0.25014046399E+04 0.  0.
        2    1    3    3  502    0 -0.11640377694E+04 -0.41617310998E+03  0.18002257812E+02  0.12363284625E+04  0.25500000920E-02 0. -1.
       -2    1    3    3    0  502  0.11640377694E+04  0.41617310998E+03  0.40320412355E+03  0.13002913332E+04  0.25500000920E-02 0.  1.
</event>
<event>
 5   0  0.1526824E-05  0.2505590E+04  0.7818609E-02  0.8400997E-01
        2   -1    0    0  501    0  0.00000000000E+00  0.00000000000E+00  0.10954946017E+04  0.10954946017E+04  0.25500000920E-02 0. -1.
       -2   -1    0    0    0  501  0.00000000000E+00  0.00000000000E+00 -0.14326821114E+04  0.14326821114E+04  0.25500000920E-02 0.  1.
    10030    2    1    2    0    0  0.00000000000E+00  0.00000000000E+00 -0.33718750968E+03  0.25281767131E+04  0.25055901652E+04 0.  0.
        2    1    3    3  502    0 -0.79079286983E+03 -0.90631429805E+03  0.18490211601E+03  0.12169419716E+04  0.25500000920E-02 0. -1.
       -2    1    3    3    0  502  0.79079286983E+03  0.90631429805E+03 -0.52208962569E+03  0.13112347414E+04  0.25500000920E-02 0.  1.
</event>
<event>
 5   0  0.1501947E-05  0.2495437E+04  0.7818609E-02  0.8404613E-01
        2   -1    0    0  501    0  0.00000000000E+00  0.00000000000E+00  0.14732987181E+04  0.14732987181E+04  0.25500000920E-02 0.  1.
       -2   -1    0    0    0  501  0.00000000000E+00  0.00000000000E+00 -0.10566775071E+04  0.10566775071E+04  0.25500000920E-02 0. -1.
    10030    2    1    2    0    0  0.00000000000E+00  0.00000000000E+00  0.41662121104E+03  0.25299762252E+04  0.24954371294E+04 0.  0.
        3    1    3    3  502    0  0.37733448216E+03  0.11474550142E+04  0.52531595114E+03  0.13171906391E+04  0.10100000352E+00 0.  1.
       -3    1    3    3    0  502 -0.37733448216E+03 -0.11474550142E+04 -0.10869474010E+03  0.12127855861E+04  0.10100000352E+00 0. -1.
</event>
<event>
 5   0  0.1550483E-05  0.2529179E+04  0.7818609E-02  0.8392664E-01
        2   -1    0    0  501    0  0.00000000000E+00  0.00000000000E+00  0.11659860348E+04  0.11659860348E+04  0.25500000920E-02 0.  1.
       -2   -1    0    0    0  501  0.00000000000E+00  0.00000000000E+00 -0.13715313238E+04  0.13715313238E+04  0.25500000920E-02 0. -1.
    10030    2    1    2    0    0  0.00000000000E+00  0.00000000000E+00 -0.20554528895E+03  0.25375173586E+04  0.25291788152E+04 0.  0.
        5    1    3    3  502    0 -0.36424279363E+03  0.81819094371E+03 -0.99849547617E+03  0.13413144818E+04  0.46999998093E+01 0. -1.
       -5    1    3    3    0  502  0.36424279363E+03 -0.81819094371E+03  0.79295018722E+03  0.11962028768E+04  0.46999998093E+01 0.  1.
</event>
<event>
 5   0  0.6104486E-06  0.2504643E+04  0.7818609E-02  0.8401333E-01
       -1   -1    0    0    0  501  0.00000000000E+00  0.00000000000E+00  0.18819344370E+04  0.18819344370E+04  0.50400001928E-02 0.  1.
        1   -1    0    0  501    0  0.00000000000E+00  0.00000000000E+00 -0.83334943088E+03  0.83334943090E+03  0.50400001928E-02 0. -1.
    10030    2    1    2    0    0  0.00000000000E+00  0.00000000000E+00  0.10485850061E+04  0.27152838679E+04  0.25046428824E+04 0.  0.
        2    1    3    3  502    0  0.81872294528E+03 -0.18652436300E+03 -0.48293542151E+03  0.96867188484E+03  0.25500000920E-02 0. -1.
       -2    1    3    3    0  502 -0.81872294528E+03  0.18652436300E+03  0.15315204276E+04  0.17466119830E+04  0.25500000920E-02 0.  1.
</event>
<event>
 5   0  0.1526824E-05  0.2547048E+04  0.7818609E-02  0.8386414E-01
        2   -1    0    0  501    0  0.00000000000E+00  0.00000000000E+00  0.14614848856E+04  0.14614848856E+04  0.25500000920E-02 0.  1.
       -2   -1    0    0    0  501  0.00000000000E+00  0.00000000000E+00 -0.11097367746E+04  0.11097367746E+04  0.25500000920E-02 0. -1.
    10030    2    1    2    0    0  0.00000000000E+00  0.00000000000E+00  0.35174811108E+03  0.25712216602E+04  0.25470481135E+04 0.  0.
        2    1    3    3  502    0  0.97503272099E+03  0.72529334150E+03 -0.20869329964E+03  0.12330012699E+04  0.25500000920E-02 0. -1.
       -2    1    3    3    0  502 -0.97503272099E+03 -0.72529334150E+03  0.56044141072E+03  0.13382203903E+04  0.25500000920E-02 0.  1.
</event>
<event>
 5   0  0.6104486E-06  0.2474708E+04  0.7818609E-02  0.8412052E-01
       -1   -1    0    0    0  501  0.00000000000E+00  0.00000000000E+00  0.13913803907E+04  0.13913803907E+04  0.50400001928E-02 0. -1.
        1   -1    0    0  501    0  0.00000000000E+00  0.00000000000E+00 -0.11003784819E+04  0.11003784820E+04  0.50400001928E-02 0.  1.
    10030    2    1    2    0    0  0.00000000000E+00  0.00000000000E+00  0.29100190873E+03  0.24917588726E+04  0.24747080976E+04 0.  0.
        2    1    3    3  502    0  0.70752826617E+03  0.95025151563E+03  0.50499150381E+03  0.12878628069E+04  0.25500000920E-02 0. -1.
       -2    1    3    3    0  502 -0.70752826617E+03 -0.95025151563E+03 -0.21398959509E+03  0.12038960658E+04  0.25500000920E-02 0.  1.
</event>
<event>
 5   0  0.1550483E-05  0.2510265E+04  0.7818609E-02  0.8399338E-01
       -2   -1    0    0    0  501  0.00000000000E+00  0.00000000000E+00  0.84310053167E+03  0.84310053168E+03  0.25500000920E-02 0.  1.
        2   -1    0    0  501    0  0.00000000000E+00  0.00000000000E+00 -0.18685280390E+04  0.18685280390E+04  0.25500000920E-02 0. -1.
    10030    2    1    2    0    0  0.00000000000E+00  0.00000000000E+00 -0.10254275073E+04  0.27116285707E+04  0.25102645144E+04 0.  0.
        5    1    3    3  502    0  0.72431817700E+03  0.29728539722E+03 -0.15723830460E+04  0.17565380617E+04  0.46999998093E+01 0. -1.
       -5    1    3    3    0  502 -0.72431817700E+03 -0.29728539722E+03  0.54695553871E+03  0.95509050893E+03  0.46999998093E+01 0.  1.
</event>
<event>
 5   0  0.6290861E-06  0.2494869E+04  0.7818609E-02  0.8404816E-01
       -1   -1    0    0    0  501  0.00000000000E+00  0.00000000000E+00  0.94956442773E+03  0.94956442775E+03  0.50400001928E-02 0. -1.
        1   -1    0    0  501    0  0.00000000000E+00  0.00000000000E+00 -0.16387442536E+04  0.16387442536E+04  0.50400001928E-02 0.  1.
    10030    2    1    2    0    0  0.00000000000E+00  0.00000000000E+00 -0.68917982589E+03  0.25883086814E+04  0.24948693348E+04 0.  0.
        1    1    3    3  502    0  0.45765315947E+03  0.11374048922E+04 -0.10584741659E+03  0.12305852180E+04  0.50400001928E-02 0.  1.
       -1    1    3    3    0  502 -0.45765315947E+03 -0.11374048922E+04 -0.58333240930E+03  0.13577234634E+04  0.50400001928E-02 0. -1.
</event>
<event>
 5   0  0.6104486E-06  0.2479463E+04  0.7818609E-02  0.8410339E-01
        1   -1    0    0  501    0  0.00000000000E+00  0.00000000000E+00  0.15921148779E+04  0.15921148779E+04  0.50400001928E-02 0.  1.
       -1   -1    0    0    0  501  0.00000000000E+00  0.00000000000E+00 -0.96534126934E+03  0.96534126935E+03  0.50400001928E-02 0. -1.
    10030    2    1    2    0    0  0.00000000000E+00  0.00000000000E+00  0.62677360855E+03  0.25574561472E+04  0.24794630041E+04 0.  0.
        2    1    3    3  502    0 -0.39931904000E+03  0.62965992572E+03  0.13350002248E+04  0.15291019973E+04  0.25500000920E-02 0.  1.
       -2    1    3    3    0  502  0.39931904000E+03 -0.62965992572E+03 -0.70822661627E+03  0.10283541500E+04  0.25500000920E-02 0. -1.
</event>
<event>
 5   0  0.6290861E-06  0.2510982E+04  0.7818609E-02  0.8399084E-01
       -1   -1    0    0    0  501  0.00000000000E+00  0.00000000000E+00  0.98580611094E+03  0.98580611095E+03  0.50400001928E-02 0.  1.
        1   -1    0    0  501    0  0.00000000000E+00  0.00000000000E+00 -0.15989528780E+04  0.15989528780E+04  0.50400001928E-02 0. -1.
    10030    2    1    2    0    0  0.00000000000E+00  0.00000000000E+00 -0.61314676703E+03  0.25847589889E+04  0.25109818942E+04 0.  0.
        1    1    3    3  502    0  0.71807888110E+03 -0.96352669912E+03 -0.68090129384E+03  0.13811761479E+04  0.50400001928E-02 0. -1.
       -1    1    3    3    0  502 -0.71807888110E+03  0.96352669912E+03  0.67754526811E+02  0.12035828411E+04  0.50400001928E-02 0.  1.
</event>
<event>
 5   0  0.1550483E-05  0.2505814E+04  0.7818609E-02  0.8400917E-01
        2   -1    0    0  501    0  0.00000000000E+00  0.00000000000E+00  0.15477381438E+04  0.15477381438E+04  0.25500000920E-02 0.  1.
       -2   -1    0    0    0  501  0.00000000000E+00  0.00000000000E+00 -0.10142388159E+04  0.10142388159E+04  0.25500000920E-02 0. -1.
    10030    2    1    2    0    0  0.00000000000E+00  0.00000000000E+00  0.53349932791E+03  0.25619769598E+04  0.25058141211E+04 0.  0.
        5    1    3    3  502    0  0.31136804263E+03  0.47037666777E+03 -0.87705121371E+03  0.10428064005E+04  0.46999998093E+01 0. -1.
       -5    1    3    3    0  502 -0.31136804263E+03 -0.47037666777E+03  0.14105505416E+04  0.15191705592E+04  0.46999998093E+01 0.  1.
</event>
<event>
 5   0  0.6477703E-06  0.2497231E+04  0.7818609E-02  0.8403973E-01
        1   -1    0    0  501    0  0.00000000000E+00  0.00000000000E+00  0.16575786802E+04  0.16575786803E+04  0.50400001928E-02 0.  1.
       -1   -1    0    0    0  501  0.00000000000E+00  0.00000000000E+00 -0.94055305827E+03  0.94055305829E+03  0.50400001928E-02 0. -1.
    10030    2    1    2    0    0  0.00000000000E+00  0.00000000000E+00  0.71702562197E+03  0.25981317385E+04  0.24972310242E+04 0.  0.
        5    1    3    3  502    0  0.10738433766E+04  0.38213726164E+03  0.88886444313E+03  0.14454309297E+04  0.46999998093E+01 0.  1.
       -5    1    3    3    0  502 -0.10738433766E+04 -0.38213726164E+03 -0.17183882116E+03  0.11527008088E+04  0.46999998093E+01 0. -1.
</event>
<event>
 5   0  0.6105353E-06  0.2494797E+04  0.7818609E-02  0.8404841E-01
       -1   -1    0    0    0  501  0.00000000000E+00  0.00000000000E+00  0.10641969081E+04  0.10641969081E+04  0.50400001928E-02 0. -1.
        1   -1    0    0  501    0  0.00000000000E+00  0.00000000000E+00 -0.14621386912E+04  0.14621386912E+04  0.50400001928E-02 0.  1.
    10030    2    1    2    0    0  0.00000000000E+00  0.00000000000E+00 -0.39794178311E+03  0.25263355994E+04  0.24947973661E+04 0.  0.
        3    1    3    3  502    0 -0.11801615738E+04 -0.35459492740E+03 -0.39502772411E+03  0.12940501597E+04  0.10100000352E+00 0.  1.
       -3    1    3    3    0  502  0.11801615738E+04  0.35459492740E+03 -0.29140590036E+01  0.12322854397E+04  0.10100000352E+00 0. -1.
</event>
<event>
 5   0  0.1572732E-05  0.2493015E+04  0.7818609E-02  0.8405478E-01
       -2   -1    0    0    0  501  0.00000000000E+00  0.00000000000E+00  0.18283065128E+04  0.18283065128E+04  0.25500000920E-02 0.  1.
        2   -1    0    0  501    0  0.00000000000E+00  0.00000000000E+00 -0.84984703841E+03  0.84984703842E+03  0.25500000920E-02 0. -1.
    10030    2    1    2    0    0  0.00000000000E+00  0.00000000000E+00  0.97845947443E+03  0.26781535513E+04  0.24930149420E+04 0.  0.
        1    1    3    3  502    0  0.44596527747E+03  0.50330448862E+03  0.16167353167E+04  0.17510092864E+04  0.50400001928E-02 0.  1.
       -1    1    3    3    0  502 -0.44596527747E+03 -0.50330448862E+03 -0.63827584225E+03  0.92714426483E+03  0.50400001928E-02 0. -1.
</event>
<event>
 5   0  0.6105353E-06  0.2259405E+04  0.7818609E-02  0.8494101E-01
       -1   -1    0    0    0  501  0.00000000000E+00  0.00000000000E+00  0.10599070309E+04  0.10599070309E+04  0.50400001928E-02 0.  1.
        1   -1    0    0  501    0  0.00000000000E+00  0.00000000000E+00 -0.12040937733E+04  0.12040937733E+04  0.50400001928E-02 0. -1.
    10030    2    1    2    0    0  0.00000000000E+00  0.00000000000E+00 -0.14418674238E+03  0.22640008043E+04  0.22594047502E+04 0.  0.
        3    1    3    3  502    0  0.51934620961E+03  0.90694598033E+03  0.35767995578E+03  0.11046295567E+04  0.10100000352E+00 0. -1.
       -3    1    3    3    0  502 -0.51934620961E+03 -0.90694598033E+03 -0.50186669817E+03  0.11593712475E+04  0.10100000352E+00 0.  1.
</event>
<event>
 5   0  0.1501947E-05  0.2525068E+04  0.7818609E-02  0.8394109E-01
       -2   -1    0    0    0  501  0.00000000000E+00  0.00000000000E+00  0.66104949734E+03  0.66104949734E+03  0.25500000920E-02 0. -1.
        2   -1    0    0  501    0  0.00000000000E+00  0.00000000000E+00 -0.24113054275E+04  0.24113054275E+04  0.25500000920E-02 0.  1.
    10030    2    1    2    0    0  0.00000000000E+00  0.00000000000E+00 -0.17502559302E+04  0.30723549249E+04  0.25250681106E+04 0.  0.
        3    1    3    3  502    0 -0.83580186168E+02  0.94276861350E+03  0.14155681082E+03  0.95699354596E+03  0.10100000352E+00 0. -1.
       -3    1    3    3    0  502  0.83580186168E+02 -0.94276861350E+03 -0.18918127410E+04  0.21153613789E+04  0.10100000352E+00 0.  1.
</event>
<event>
 5   0  0.6290861E-06  0.2529100E+04  0.7818609E-02  0.8392691E-01
        1   -1    0    0  501    0  0.00000000000E+00  0.00000000000E+00  0.11550597144E+04  0.11550597144E+04  0.50400001928E-02 0.  1.
       -1   -1    0    0    0  501  0.00000000000E+00  0.00000000000E+00 -0.13844195807E+04  0.13844195808E+04  0.50400001928E-02 0. -1.
    10030    2    1    2    0    0  0.00000000000E+00  0.00000000000E+00 -0.22935986631E+03  0.25394792952E+04  0.25291004611E+04 0.  0.
        1    1    3    3  502    0 -0.54834911058E+03  0.45237286577E+03 -0.11648012649E+04  0.13645841650E+04  0.50400001928E-02 0. -1.
       -1    1    3    3    0  502  0.54834911058E+03 -0.45237286577E+03  0.93544139856E+03  0.11748951302E+04  0.50400001928E-02 0.  1.
</event>
<event>
 5   0  0.6290861E-06  0.2462891E+04  0.7818609E-02  0.8416326E-01
        1   -1    0    0  501    0  0.00000000000E+00  0.00000000000E+00  0.19138008660E+04  0.19138008660E+04  0.50400001928E-02 0.  1.
       -1   -1    0    0    0  501  0.00000000000E+00  0.00000000000E+00 -0.79238025498E+03  0.79238025500E+03  0.50400001928E-02 0. -1.
    10030    2    1    2    0    0  0.00000000000E+00  0.00000000000E+00  0.11214206110E+04  0.27061811210E+04  0.24628909990E+04 0.  0.
        1    1    3    3  502    0 -0.10723396735E+04 -0.46644874349E+03  0.13661560563E+03  0.11773489836E+04  0.50400001928E-02 0. -1.
       -1    1    3    3    0  502  0.10723396735E+04  0.46644874349E+03  0.98480500538E+03  0.15288321374E+04  0.50400001928E-02 0.  1.
</event>
<event>
 5   0  0.1572732E-05  0.2490867E+04  0.7818609E-02  0.8406247E-01
        2   -1    0    0  501    0  0.00000000000E+00  0.00000000000E+00  0.16653361991E+04  0.16653361991E+04  0.25500000920E-02 0.  1.
       -2   -1    0    0    0  501  0.00000000000E+00  0.00000000000E+00 -0.93140592611E+03  0.93140592612E+03  0.25500000920E-02 0. -1.
    10030    2    1    2    0    0  0.00000000000E+00  0.00000000000E+00  0.73393027301E+03  0.25967421252E+04  0.24908665198E+04 0.  0.
        1    1    3    3  502    0  0.65777342187E+03 -0.89955378071E+03 -0.21276648673E+03  0.11345186013E+04  0.50400001928E-02 0. -1.
       -1    1    3    3    0  502 -0.65777342187E+03  0.89955378071E+03  0.94669675974E+03  0.14622235239E+04  0.50400001928E-02 0.  1.
</event>
<event>
 5   0  0.6105353E-06  0.2497174E+04  0.7818609E-02  0.8403993E-01
       -1   -1    0    0    0  501  0.00000000000E+00  0.00000000000E+00  0.17912286266E+04  0.17912286266E+04  0.50400001928E-02 0. -1.
        1   -1    0    0  501    0  0.00000000000E+00  0.00000000000E+00 -0.87033554633E+03  0.87033554635E+03  0.50400001928E-02 0.  1.
    10030    2    1    2    0    0  0.00000000000E+00  0.00000000000E+00  0.92089308028E+03  0.26615641730E+04  0.24971743595E+04 0.  0.
        3    1    3    3  502    0 -0.94815078783E+03  0.26515560857E+03 -0.35800603636E+03  0.10475999931E+04  0.10100000352E+00 0.  1.
       -3    1    3    3    0  502  0.94815078783E+03 -0.26515560857E+03  0.12788991166E+04  0.16139641799E+04  0.10100000352E+00 0. -1.
</event>
<event>
 5   0  0.6290861E-06  0.2522156E+04  0.7818609E-02  0.8395135E-01
        1   -1    0    0  501    0  0.00000000000E+00  0.00000000000E+00  0.19809284623E+04  0.19809284623E+04  0.50400001928E-02 0. -1.
       -1   -1    0    0    0  501  0.00000000000E+00  0.00000000000E+00 -0.80281440197E+03  0.80281440199E+03  0.50400001928E-02 0.  1.
    10030    2    1    2    0    0  0.00000000000E+00  0.00000000000E+00  0.11781140604E+04  0.27837428643E+04  0.25221561402E+04 0.  0.
        1    1    3    3  502    0  0.84141015126E+03 -0.72113051136E+03  0.12534146006E+04  0.16730356894E+04  0.50400001928E-02 0. -1.
       -1    1    3    3    0  502 -0.84141015126E+03  0.72113051136E+03 -0.75300540217E+02  0.11107071749E+04  0.50400001928E-02 0.  1.
</event>
<event>
 5   0  0.1501947E-05  0.2490998E+04  0.7818609E-02  0.8406199E-01
        2   -1    0    0  501    0  0.00000000000E+00  0.00000000000E+00  0.17397820947E+04  0.17397820947E+04  0.25500000920E-02 0. -1.
       -2   -1    0    0    0  501  0.00000000000E+00  0.00000000000E+00 -0.89164511260E+03  0.89164511260E+03  0.25500000920E-02 0.  1.
    10030    2    1    2    0    0  0.00000000000E+00  0.00000000000E+00  0.84813698212E+03  0.26314272073E+04  0.24909983555E+04 0.  0.
        3    1    3    3  502    0  0.87384317822E+03 -0.84586005767E+03  0.14024549522E+03  0.12242344328E+04  0.10100000352E+00 0. -1.
       -3    1    3    3    0  502 -0.87384317822E+03  0.84586005767E+03  0.70789148689E+03  0.14071927745E+04  0.10100000352E+00 0.  1.
</event>
<event>
 5   0  0.1550483E-05  0.2242475E+04  0.7818609E-02  0.8500954E-01
       -2   -1    0    0    0  501  0.00000000000E+00  0.00000000000E+00  0.65899125500E+03  0.65899125500E+03  0.25500000920E-02 0.  1.
        2   -1    0    0  501    0  0.00000000000E+00  0.00000000000E+00 -0.19077239385E+04  0.19077239385E+04  0.25500000920E-02 0. -1.
    10030    2    1    2    0    0  0.00000000000E+00  0.00000000000E+00 -0.12487326835E+04  0.25667151935E+04  0.22424748760E+04 0.  0.
        5    1    3    3  502    0  0.26200379945E+03 -0.68511482144E+03  0.34625912699E+03  0.81113857170E+03  0.46999998093E+01 0.  1.
       -5    1    3    3    0  502 -0.26200379945E+03  0.68511482144E+03 -0.15949918105E+04  0.17555766218E+04  0.46999998093E+01 0. -1.
</event>
<event>
 5   0  0.1526824E-05  0.2509272E+04  0.7818609E-02  0.8399690E-01
        2   -1    0    0  501    0  0.00000000000E+00  0.00000000000E+00  0.14360222114E+04  0.14360222114E+04  0.25500000920E-02 0.  1.
       -2   -1    0    0    0  501  0.00000000000E+00  0.00000000000E+00 -0.10961611060E+04  0.10961611060E+04  0.25500000920E-02 0. -1.
    10030    2    1    2    0    0  0.00000000000E+00  0.00000000000E+00  0.33986110540E+03  0.25321833174E+04  0.25092721618E+04 0.  0.
        2    1    3    3  502    0 -0.86432484147E+03  0.90819844602E+03  0.12227814342E+03  0.12596959130E+04  0.25500000920E-02 0. -1.
       -2    1    3    3    0  502  0.86432484147E+03 -0.90819844602E+03  0.21758296198E+03  0.12724874044E+04  0.25500000920E-02 0.  1.
</event>
<event>
 5   0  0.1526824E-05  0.2489236E+04  0.7818609E-02  0.8406830E-01
       -2   -1    0    0    0  501  0.00000000000E+00  0.00000000000E+00  0.14272782987E+04  0.14272782987E+04  0.25500000920E-02 0. -1.
        2   -1    0    0  501    0  0.00000000000E+00  0.00000000000E+00 -0.10853346053E+04  0.10853346053E+04  0.25500000920E-02 0.  1.
    10030    2    1    2    0    0  0.00000000000E+00  0.00000000000E+00  0.34194369337E+03  0.25126129040E+04  0.24892364524E+04 0.  0.
        2    1    3    3  502    0  0.20963716887E+03 -0.10285395961E+04  0.84600700946E+03  0.13481725792E+04  0.25500000920E-02 0. -1.
       -2    1    3    3    0  502 -0.20963716887E+03  0.10285395961E+04 -0.50406331609E+03  0.11644403248E+04  0.25500000920E-02 0.  1.
</event>
<event>
 5   0  0.1501947E-05  0.2513781E+04  0.7818609E-02  0.8398092E-01
        2   -1    0    0  501    0  0.00000000000E+00  0.00000000000E+00  0.13925704793E+04  0.13925704793E+04  0.25500000920E-02 0. -1.
       -2   -1    0    0    0  501  0.00000000000E+00  0.00000000000E+00 -0.11344304354E+04  0.11344304354E+04  0.25500000920E-02 0.  1.
    10030    2    1    2    0    0  0.00000000000E+00  0.00000000000E+00  0.25814004398E+03  0.25270009147E+04  0.25137814823E+04 0.  0.
        3    1    3    3  502    0 -0.34480193800E+03 -0.97549777523E+03  0.84646852729E+03  0.13367846737E+04  0.10100000352E+00 0. -1.
       -3    1    3    3    0  502  0.34480193800E+03  0.97549777523E+03 -0.58832848330E+03  0.11902162410E+04  0.10100000352E+00 0.  1.
</event>
<event>
 5   0  0.6104486E-06  0.2755326E+04  0.7818609E-02  0.8317274E-01
       -1   -1    0    0    0  501  0.00000000000E+00  0.00000000000E+00  0.12569386500E+04  0.12569386500E+04  0.50400001928E-02 0. -1.
        1   -1    0    0  501    0  0.00000000000E+00  0.00000000000E+00 -0.15099822420E+04  0.15099822420E+04  0.50400001928E-02 0.  1.
    10030    2    1    2    0    0  0.00000000000E+00  0.00000000000E+00 -0.25304359200E+03  0.27669208921E+04  0.27553257818E+04 0.  0.
        2    1    3    3  502    0  0.49775766845E+03  0.93340805937E+03  0.75976907208E+03  0.13024063670E+04  0.25500000920E-02 0. -1.
       -2    1    3    3    0  502 -0.49775766845E+03 -0.93340805937E+03 -0.10128126641E+04  0.14645145251E+04  0.25500000920E-02 0.  1.
</event>
<event>
 5   0  0.1572732E-05  0.2496481E+04  0.7818609E-02  0.8404240E-01
        2   -1    0    0  501    0  0.00000000000E+00  0.00000000000E+00  0.68050818498E+03  0.68050818499E+03  0.25500000920E-02 0.  1.
       -2   -1    0    0    0  501  0.00000000000E+00  0.00000000000E+00 -0.22896182134E+04  0.22896182134E+04  0.25500000920E-02 0. -1.
    10030    2    1    2    0    0  0.00000000000E+00  0.00000000000E+00 -0.16091100284E+04  0.29701263984E+04  0.24964806706E+04 0.  0.
        1    1    3    3  502    0 -0.10122321896E+03  0.77477908065E+03 -0.19626750103E+04  0.21124918840E+04  0.50400001928E-02 0. -1.
       -1    1    3    3    0  502  0.10122321896E+03 -0.77477908065E+03  0.35356498186E+03  0.85763451441E+03  0.50400001928E-02 0.  1.
</event>
<event>
 5   0  0.6105353E-06  0.2485887E+04  0.7818609E-02  0.8408031E-01
       -1   -1    0    0    0  501  0.00000000000E+00  0.00000000000E+00  0.14040214749E+04  0.14040214750E+04  0.50400001928E-02 0. -1.
        1   -1    0    0  501    0  0.00000000000E+00  0.00000000000E+00 -0.11003455804E+04  0.11003455804E+04  0.50400001928E-02 0.  1.
    10030    2    1    2    0    0  0.00000000000E+00  0.00000000000E+00  0.30367589459E+03  0.25043670553E+04  0.24858872257E+04 0.  0.
        3    1    3    3  502    0 -0.40404506494E+03 -0.68044208492E+03 -0.81375208446E+03  0.11350974895E+04  0.10100000352E+00 0.  1.
       -3    1    3    3    0  502  0.40404506494E+03  0.68044208492E+03  0.11174279790E+04  0.13692695659E+04  0.10100000352E+00 0. -1.
</event>
<event>
 5   0  0.6105353E-06  0.2521210E+04  0.7818609E-02  0.8395468E-01
       -1   -1    0    0    0  501  0.00000000000E+00  0.00000000000E+00  0.83103517612E+03  0.83103517613E+03  0.50400001928E-02 0.  1.
        1   -1    0    0  501    0  0.00000000000E+00  0.00000000000E+00 -0.19122229626E+04  0.19122229626E+04  0.50400001928E-02 0. -1.
    10030    2    1    2    0    0  0.00000000000E+00  0.00000000000E+00 -0.10811877865E+04  0.27432581387E+04  0.25212096672E+04 0.  0.
        3    1    3    3  502    0 -0.21157156144E+03  0.12005585582E+04 -0.19135634660E+03  0.12339856720E+04  0.10100000352E+00 0.  1.
       -3    1    3    3    0  502  0.21157156144E+03 -0.12005585582E+04 -0.88983143989E+03  0.15092724667E+04  0.10100000352E+00 0. -1.
</event>
<event>
 5   0  0.6346420E-06  0.2483042E+04  0.7818609E-02  0.8409052E-01
        1   -1    0    0  501    0  0.00000000000E+00  0.00000000000E+00  0.13810906054E+04  0.13810906054E+04  0.50400001928E-02 0. -1.
       -1   -1    0    0    0  501  0.00000000000E+00  0.00000000000E+00 -0.11160558973E+04  0.11160558973E+04  0.50400001928E-02 0.  1.
    10030    2    1    2    0    0  0.00000000000E+00  0.00000000000E+00  0.26503470809E+03  0.24971465027E+04  0.24830419367E+04 0.  0.
        4    1    3    3  502    0 -0.92579582191E+03 -0.57612207778E+02  0.96240514556E+03  0.13366534134E+04  0.12699999809E+01 0. -1.
       -4    1    3    3    0  502  0.92579582191E+03  0.57612207778E+02 -0.69737043747E+03  0.11604930893E+04  0.12699999809E+01 0.  1.
</event>
<event>
 5   0  0.1468512E-05  0.2526320E+04  0.7818609E-02  0.8393668E-01
        2   -1    0    0  501    0  0.00000000000E+00  0.00000000000E+00  0.20093690984E+04  0.20093690984E+04  0.25500000920E-02 0. -1.
       -2   -1    0    0    0  501  0.00000000000E+00  0.00000000000E+00 -0.79406695046E+03  0.79406695046E+03  0.25500000920E-02 0.  1.
    10030    2    1    2    0    0  0.00000000000E+00  0.00000000000E+00  0.12153021479E+04  0.28034360488E+04  0.25263203220E+04 0.  0.
        4    1    3    3  502    0  0.91475971341E+03 -0.20525641657E+03  0.15470666241E+04  0.18089588945E+04  0.12699999809E+01 0. -1.
       -4    1    3    3    0  502 -0.91475971341E+03  0.20525641657E+03 -0.33176447620E+03  0.99447715428E+03  0.12699999809E+01 0.  1.
</event>
<event>
 5   0  0.6105353E-06  0.2496632E+04  0.7818609E-02  0.8404186E-01
       -1   -1    0    0    0  501  0.00000000000E+00  0.00000000000E+00  0.93786989640E+03  0.93786989641E+03  0.50400001928E-02 0.  1.
        1   -1    0    0  501    0  0.00000000000E+00  0.00000000000E+00 -0.16615237748E+04  0.16615237748E+04  0.50400001928E-02 0. -1.
    10030    2    1    2    0    0  0.00000000000E+00  0.00000000000E+00 -0.72365387844E+03  0.25993936713E+04  0.24966322361E+04 0.  0.
        3    1    3    3  502    0 -0.68266547341E+03 -0.10435349602E+04 -0.42159858105E+03  0.13163368625E+04  0.10100000352E+00 0. -1.
       -3    1    3    3    0  502  0.68266547341E+03  0.10435349602E+04 -0.30205529739E+03  0.12830568088E+04  0.10100000352E+00 0.  1.
</event>
<event>
 5   0  0.1550483E-05  0.2512103E+04  0.7818609E-02  0.8398687E-01
        2   -1    0    0  501    0  0.00000000000E+00  0.00000000000E+00  0.22822249825E+04  0.22822249825E+04  0.25500000920E-02 0. -1.
       -2   -1    0    0    0  501  0.00000000000E+00  0.00000000000E+00 -0.69128364786E+03  0.69128364786E+03  0.25500000920E-02 0.  1.
    10030    2    1    2    0    0  0.00000000000E+00  0.00000000000E+00  0.15909413347E+04  0.29735086304E+04  0.25121025546E+04 0.  0.
        5    1    3    3  502    0  0.16342864982E+03 -0.85046809848E+03 -0.28137136721E+03  0.91060246342E+03  0.46999998093E+01 0.  1.
       -5    1    3    3    0  502 -0.16342864982E+03  0.85046809848E+03  0.18723127019E+04  0.20629061670E+04  0.46999998093E+01 0. -1.
</event>
<event>
 5   0  0.6105353E-06  0.2491438E+04  0.7818609E-02  0.8406042E-01
        1   -1    0    0  501    0  0.00000000000E+00  0.00000000000E+00  0.16775137272E+04  0.16775137272E+04  0.50400001928E-02 0. -1.
       -1   -1    0    0    0  501  0.00000000000E+00  0.00000000000E+00 -0.92506885922E+03  0.92506885923E+03  0.50400001928E-02 0.  1.
    10030    2    1    2    0    0  0.00000000000E+00  0.00000000000E+00  0.75244486794E+03  0.26025825864E+04  0.24914379061E+04 0.  0.
        3    1    3    3  502    0  0.10946091298E+04  0.89953546845E+02  0.99028551493E+03  0.14788259529E+04  0.10100000352E+00 0. -1.
       -3    1    3    3    0  502 -0.10946091298E+04 -0.89953546845E+02 -0.23784064699E+03  0.11237566335E+04  0.10100000352E+00 0.  1.
</event>
<event>
 5   0  0.1572732E-05  0.2230092E+04  0.7818609E-02  0.8506006E-01
        2   -1    0    0  501    0  0.00000000000E+00  0.00000000000E+00  0.10369896062E+04  0.10369896062E+04  0.25500000920E-02 0.  1.
       -2   -1    0    0    0  501  0.00000000000E+00  0.00000000000E+00 -0.11989782781E+04  0.11989782782E+04  0.25500000920E-02 0. -1.
    10030    2    1    2    0    0  0.00000000000E+00  0.00000000000E+00 -0.16198867191E+03  0.22359678844E+04  0.22300923860E+04 0.  0.
        1    1    3    3  502    0  0.10611853437E+03 -0.92597653570E+03 -0.69468072227E+03  0.11624435444E+04  0.50400001928E-02 0. -1.
       -1    1    3    3    0  502 -0.10611853437E+03  0.92597653570E+03  0.53269205037E+03  0.10735243400E+04  0.50400001928E-02 0.  1.
</event>
<event>
 5   0  0.6105353E-06  0.2492498E+04  0.7818609E-02  0.8405663E-01
        1   -1    0    0  501    0  0.00000000000E+00  0.00000000000E+00  0.12925706387E+04  0.12925706387E+04  0.50400001928E-02 0. -1.
       -1   -1    0    0    0  501  0.00000000000E+00  0.00000000000E+00 -0.12015875848E+04  0.12015875849E+04  0.50400001928E-02 0.  1.
    10030    2    1    2    0    0  0.00000000000E+00  0.00000000000E+00  0.90983053865E+02  0.24941582236E+04  0.24924982103E+04 0.  0.
        3    1    3    3  502    0  0.63124934501E+03 -0.92599506321E+03 -0.50002678252E+03  0.12271794433E+04  0.10100000352E+00 0.  1.
       -3    1    3    3    0  502 -0.63124934501E+03  0.92599506321E+03  0.59100983639E+03  0.12669787802E+04  0.10100000352E+00 0. -1.
</event>
<event>
 5   0  0.1550483E-05  0.2512218E+04  0.7818609E-02  0.8398646E-01
       -2   -1    0    0    0  501  0.00000000000E+00  0.00000000000E+00  0.11508997017E+04  0.11508997017E+04  0.25500000920E-02 0. -1.
        2   -1    0    0  501    0  0.00000000000E+00  0.00000000000E+00 -0.13709363601E+04  0.13709363601E+04  0.25500000920E-02 0.  1.
    10030    2    1    2    0    0  0.00000000000E+00  0.00000000000E+00 -0.22003665848E+03  0.25218360618E+04  0.25122183407E+04 0.  0.
        5    1    3    3  502    0  0.72251434452E+03  0.10416585756E+03 -0.11361404439E+04  0.13504498148E+04  0.46999998093E+01 0.  1.
       -5    1    3    3    0  502 -0.72251434452E+03 -0.10416585756E+03  0.91610378546E+03  0.11713862470E+04  0.46999998093E+01 0. -1.
</event>
<event>
 5   0  0.1501947E-05  0.2454084E+04  0.7818609E-02  0.8419528E-01
       -2   -1    0    0    0  501  0.00000000000E+00  0.00000000000E+00  0.64354400104E+03  0.64354400105E+03  0.25500000920E-02 0. -1.
        2   -1    0    0  501    0  0.00000000000E+00  0.00000000000E+00 -0.23395945450E+04  0.23395945450E+04  0.25500000920E-02 0.  1.
    10030    2    1    2    0    0  0.00000000000E+00  0.00000000000E+00 -0.16960505440E+04  0.29831385461E+04  0.24540839711E+04 0.  0.
        3    1    3    3  502    0 -0.76598314759E+03  0.52818595836E+03  0.12438006510E+03  0.93871241592E+03  0.10100000352E+00 0. -1.
       -3    1    3    3    0  502  0.76598314759E+03 -0.52818595836E+03 -0.18204306091E+04  0.20444261302E+04  0.10100000352E+00 0.  1.
</event>
<event>
 5   0  0.1501947E-05  0.2509440E+04  0.7818609E-02  0.8399630E-01
       -2   -1    0    0    0  501  0.00000000000E+00  0.00000000000E+00  0.10527737725E+04  0.10527737725E+04  0.25500000920E-02 0.  1.
        2   -1    0    0  501    0  0.00000000000E+00  0.00000000000E+00 -0.14954038502E+04  0.14954038502E+04  0.25500000920E-02 0. -1.
    10030    2    1    2    0    0  0.00000000000E+00  0.00000000000E+00 -0.44263007767E+03  0.25481776228E+04  0.25094397406E+04 0.  0.
        3    1    3    3  502    0 -0.35972060932E+03 -0.11894620894E+04 -0.39749542384E+03  0.13046921480E+04  0.10100000352E+00 0. -1.
       -3    1    3    3    0  502  0.35972060932E+03  0.11894620894E+04 -0.45134653832E+02  0.12434854748E+04  0.10100000352E+00 0.  1.
</event>
<event>
 5   0  0.6290861E-06  0.2511710E+04  0.7818609E-02  0.8398825E-01
        1   -1    0    0  501    0  0.00000000000E+00  0.00000000000E+00  0.14576081511E+04  0.14576081511E+04  0.50400001928E-02 0.  1.
       -1   -1    0    0    0  501  0.00000000000E+00  0.00000000000E+00 -0.10820276960E+04  0.10820276960E+04  0.50400001928E-02 0. -1.
    10030    2    1    2    0    0  0.00000000000E+00  0.00000000000E+00  0.37558045510E+03  0.25396358470E+04  0.25117104844E+04 0.  0.
        1    1    3    3  502    0  0.44072507344E+03 -0.53833479172E+03  0.12449427921E+04  0.14261575979E+04  0.50400001928E-02 0.  1.
       -1    1    3    3    0  502 -0.44072507344E+03  0.53833479172E+03 -0.86936233700E+03  0.11134782492E+04  0.50400001928E-02 0. -1.
</event>
<event>
 5   0  0.6346420E-06  0.2462707E+04  0.7818609E-02  0.8416393E-01
       -1   -1    0    0    0  501  0.00000000000E+00  0.00000000000E+00  0.80762977875E+03  0.80762977877E+03  0.50400001928E-02 0.  1.
        1   -1    0    0  501    0  0.00000000000E+00  0.00000000000E+00 -0.18773844448E+04  0.18773844448E+04  0.50400001928E-02 0. -1.
    10030    2    1    2    0    0  0.00000000000E+00  0.00000000000E+00 -0.10697546661E+04  0.26850142236E+04  0.24627071152E+04 0.  0.
        4    1    3    3  502    0  0.16904110039E+03 -0.24831074203E+03 -0.18368237449E+04  0.18612243822E+04  0.12699999809E+01 0. -1.
       -4    1    3    3    0  502 -0.16904110039E+03  0.24831074203E+03  0.76706907881E+03  0.82378984140E+03  0.12699999809E+01 0.  1.
</event>
<event>
 5   0  0.6290861E-06  0.2503767E+04  0.7818609E-02  0.8401645E-01
        1   -1    0    0  501    0  0.00000000000E+00  0.00000000000E+00  0.66870941796E+03  0.66870941797E+03  0.50400001928E-02 0.  1.
       -1   -1    0    0    0  501  0.00000000000E+00  0.00000000000E+00 -0.23436369631E+04  0.23436369631E+04  0.50400001928E-02 0. -1.
    10030    2    1    2    0    0  0.00000000000E+00  0.00000000000E+00 -0.16749275451E+04  0.30123463811E+04  0.25037668498E+04 0.  0.
        1    1    3    3  502    0  0.21540998037E+03 -0.13102758443E+03 -0.23127738488E+04  0.23264764265E+04  0.50400001928E-02 0. -1.
       -1    1    3    3    0  502 -0.21540998037E+03  0.13102758443E+03  0.63784630362E+03  0.68586995458E+03  0.50400001928E-02 0.  1.
</event>
<event>
 5   0  0.5164625E-06  0.2574308E+04  0.7818609E-02  0.8376981E-01
       -3   -1    0    0    0  501  0.00000000000E+00  0.00000000000E+00  0.79877198896E+03  0.79877199535E+03  0.10100000352E+00 0. -1.
        3   -1    0    0  501    0  0.00000000000E+00  0.00000000000E+00 -0.20741402692E+04  0.20741402716E+04  0.10100000352E+00 0.  1.
    10030    2    1    2    0    0  0.00000000000E+00  0.00000000000E+00 -0.12753682802E+04  0.28729122670E+04  0.25743077989E+04 0.  0.
        4    1    3    3  502    0  0.68494348484E+03  0.59286680088E+02 -0.18520688104E+04  0.19755563720E+04  0.12699999809E+01 0.  1.
       -4    1    3    3    0  502 -0.68494348484E+03 -0.59286680088E+02  0.57670053014E+03  0.89735589496E+03  0.12699999809E+01 0. -1.
</event>
<event>
 5   0  0.6105353E-06  0.2497506E+04  0.7818609E-02  0.8403874E-01
        1   -1    0    0  501    0  0.00000000000E+00  0.00000000000E+00  0.12256431105E+04  0.12256431105E+04  0.50400001928E-02 0.  1.
       -1   -1    0    0    0  501  0.00000000000E+00  0.00000000000E+00 -0.12722989669E+04  0.12722989669E+04  0.50400001928E-02 0. -1.
    10030    2    1    2    0    0  0.00000000000E+00  0.00000000000E+00 -0.46655856427E+02  0.24979420774E+04  0.24975063269E+04 0.  0.
        3    1    3    3  502    0 -0.19413216385E+03 -0.57985335803E+03  0.10656536796E+04  0.12286313479E+04  0.10100000352E+00 0.  1.
       -3    1    3    3    0  502  0.19413216385E+03  0.57985335803E+03 -0.11123095361E+04  0.12693107295E+04  0.10100000352E+00 0. -1.
</event>
<event>
 5   0  0.6346420E-06  0.2484801E+04  0.7818609E-02  0.8408420E-01
        1   -1    0    0  501    0  0.00000000000E+00  0.00000000000E+00  0.81802833610E+03  0.81802833612E+03  0.50400001928E-02 0. -1.
       -1   -1    0    0    0  501  0.00000000000E+00  0.00000000000E+00 -0.18869263329E+04  0.18869263329E+04  0.50400001928E-02 0.  1.
    10030    2    1    2    0    0  0.00000000000E+00  0.00000000000E+00 -0.10688979968E+04  0.27049546690E+04  0.24848011659E+04 0.  0.
        4    1    3    3  502    0  0.11313332762E+04 -0.44752258878E+03 -0.26041970100E+03  0.12441910958E+04  0.12699999809E+01 0.  1.
       -4    1    3    3    0  502 -0.11313332762E+04  0.44752258878E+03 -0.80847829580E+03  0.14607635733E+04  0.12699999809E+01 0. -1.
</event>
<event>
 5   0  0.6104486E-06  0.2511059E+04  0.7818609E-02  0.8399056E-01
        1   -1    0    0  501    0  0.00000000000E+00  0.00000000000E+00  0.23278453569E+04  0.23278453569E+04  0.50400001928E-02 0. -1.
       -1   -1    0    0    0  501  0.00000000000E+00  0.00000000000E+00 -0.67717338831E+03  0.67717338833E+03  0.50400001928E-02 0.  1.
    10030    2    1    2    0    0  0.00000000000E+00  0.00000000000E+00  0.16506719686E+04  0.30050187452E+04  0.25110594798E+04 0.  0.
        2    1    3    3  502    0  0.58794941592E+03  0.70700917707E+03 -0.19770247680E+03  0.94054918079E+03  0.25500000920E-02 0.  1.
       -2    1    3    3    0  502 -0.58794941592E+03 -0.70700917707E+03  0.18483744454E+04  0.20644695644E+04  0.25500000920E-02 0. -1.
</event>
<event>
 5   0  0.1526824E-05  0.2511820E+04  0.7818609E-02  0.8398787E-01
       -2   -1    0    0    0  501  0.00000000000E+00  0.00000000000E+00  0.11715441365E+04  0.11715441365E+04  0.25500000920E-02 0.  1.
        2   -1    0    0  501    0  0.00000000000E+00  0.00000000000E+00 -0.13463514532E+04  0.13463514532E+04  0.25500000920E-02 0. -1.
    10030    2    1    2    0    0  0.00000000000E+00  0.00000000000E+00 -0.17480731676E+03  0.25178955897E+04  0.25118201772E+04 0.  0.
        2    1    3    3  502    0 -0.11541836896E+04 -0.45948920356E+03  0.97541464651E+02  0.12461078023E+04  0.25500000920E-02 0. -1.
       -2    1    3    3    0  502  0.11541836896E+04  0.45948920356E+03 -0.27234878141E+03  0.12717877875E+04  0.25500000920E-02 0.  1.
</event>
<event>
 5   0  0.6477703E-06  0.2507069E+04  0.7818609E-02  0.8400472E-01
       -1   -1    0    0    0  501  0.00000000000E+00  0.00000000000E+00  0.97423049001E+03  0.97423049002E+03  0.50400001928E-02 0. -1.
        1   -1    0    0  501    0  0.00000000000E+00  0.00000000000E+00 -0.16129122666E+04  0.16129122666E+04  0.50400001928E-02 0.  1.
    10030    2    1    2    0    0  0.00000000000E+00  0.00000000000E+00 -0.63868177658E+03  0.25871427566E+04  0.25070686531E+04 0.  0.
        5    1    3    3  502    0  0.11919656643E+04 -0.38299556444E+03 -0.38344143904E+03  0.13093957288E+04  0.46999998093E+01 0. -1.
       -5    1    3    3    0  502 -0.11919656643E+04  0.38299556444E+03 -0.25524033754E+03  0.12777470279E+04  0.46999998093E+01 0.  1.
</event>
<event>
 5   0  0.6105353E-06  0.2435390E+04  0.7818609E-02  0.8426372E-01
        1   -1    0    0  501    0  0.00000000000E+00  0.00000000000E+00  0.15692095193E+04  0.15692095194E+04  0.50400001928E-02 0.  1.
       -1   -1    0    0    0  501  0.00000000000E+00  0.00000000000E+00 -0.94492238244E+03  0.94492238245E+03  0.50400001928E-02 0. -1.
    10030    2    1    2    0    0  0.00000000000E+00  0.00000000000E+00  0.62428713691E+03  0.25141319018E+04  0.24353900694E+04 0.  0.
        3    1    3    3  502    0 -0.66014074601E+03  0.78953693721E+03 -0.35976664938E+03  0.10902231111E+04  0.10100000352E+00 0. -1.
       -3    1    3    3    0  502  0.66014074601E+03 -0.78953693721E+03  0.98405378629E+03  0.14239087907E+04  0.10100000352E+00 0.  1.
</event>
<event>
 5   0  0.1526824E-05  0.2481306E+04  0.7818609E-02  0.8409676E-01
       -2   -1    0    0    0  501  0.00000000000E+00  0.00000000000E+00  0.97067400673E+03  0.97067400673E+03  0.25500000920E-02 0.  1.
        2   -1    0    0  501    0  0.00000000000E+00  0.00000000000E+00 -0.15857228699E+04  0.15857228699E+04  0.25500000920E-02 0. -1.
    10030    2    1    2    0    0  0.00000000000E+00  0.00000000000E+00 -0.61504886317E+03  0.25563968766E+04  0.24813060849E+04 0.  0.
        2    1    3    3  502    0 -0.72471506468E+03 -0.99339224973E+03 -0.47737685366E+03  0.13190635873E+04  0.25500000920E-02 0. -1.
       -2    1    3    3    0  502  0.72471506468E+03  0.99339224973E+03 -0.13767200950E+03  0.12373332894E+04  0.25500000920E-02 0.  1.
</event>
<event>
 5   0  0.6104486E-06  0.2523079E+04  0.7818609E-02  0.8394809E-01
        1   -1    0    0  501    0  0.00000000000E+00  0.00000000000E+00  0.17244745700E+04  0.17244745700E+04  0.50400001928E-02 0.  1.
       -1   -1    0    0    0  501  0.00000000000E+00  0.00000000000E+00 -0.92287965240E+03  0.92287965242E+03  0.50400001928E-02 0. -1.
    10030    2    1    2    0    0  0.00000000000E+00  0.00000000000E+00  0.80159491763E+03  0.26473542225E+04  0.25230794611E+04 0.  0.
        2    1    3    3  502    0 -0.12229529123E+01 -0.11138798084E+04 -0.22061746705E+03  0.11355182913E+04  0.25500000920E-02 0.  1.
       -2    1    3    3    0  502  0.12229529123E+01  0.11138798084E+04  0.10222123847E+04  0.15118359311E+04  0.25500000920E-02 0. -1.
</event>
<event>
 5   0  0.6477703E-06  0.2504614E+04  0.7818609E-02  0.8401343E-01
        1   -1    0    0  501    0  0.00000000000E+00  0.00000000000E+00  0.18807186805E+04  0.18807186805E+04  0.50400001928E-02 0. -1.
       -1   -1    0    0    0  501  0.00000000000E+00  0.00000000000E+00 -0.83386915049E+03  0.83386915051E+03  0.50400001928E-02 0.  1.
    10030    2    1    2    0    0  0.00000000000E+00  0.00000000000E+00  0.10468495300E+04  0.27145878310E+04  0.25046143723E+04 0.  0.
        5    1    3    3  502    0 -0.56610655216E+03 -0.84682367144E+03 -0.26611305959E+03  0.10528177475E+04  0.46999998093E+01 0.  1.
       -5    1    3    3    0  502  0.56610655216E+03  0.84682367144E+03  0.13129625896E+04  0.16617700836E+04  0.46999998093E+01 0. -1.
</event>
<event>
 5   0  0.1572732E-05  0.2546117E+04  0.7818609E-02  0.8386738E-01
       -2   -1    0    0    0  501  0.00000000000E+00  0.00000000000E+00  0.93888201872E+03  0.93888201872E+03  0.25500000920E-02 0.  1.
        2   -1    0    0  501    0  0.00000000000E+00  0.00000000000E+00 -0.17261778363E+04  0.17261778363E+04  0.25500000920E-02 0. -1.
    10030    2    1    2    0    0  0.00000000000E+00  0.00000000000E+00 -0.78729581763E+03  0.26650598551E+04  0.25461165187E+04 0.  0.
        1    1    3    3  502    0 -0.65806878568E+03 -0.54042919569E+03 -0.13841965713E+04  0.16251518053E+04  0.50400001928E-02 0. -1.
       -1    1    3    3    0  502  0.65806878568E+03  0.54042919569E+03  0.59690075366E+03  0.10399080498E+04  0.50400001928E-02 0.  1.
</event>
<event>
 5   0  0.1526824E-05  0.2524884E+04  0.7818609E-02  0.8394174E-01
        2   -1    0    0  501    0  0.00000000000E+00  0.00000000000E+00  0.15391487023E+04  0.15391487023E+04  0.25500000920E-02 0.  1.
       -2   -1    0    0    0  501  0.00000000000E+00  0.00000000000E+00 -0.10354813543E+04  0.10354813543E+04  0.25500000920E-02 0. -1.
    10030    2    1    2    0    0  0.00000000000E+00  0.00000000000E+00  0.50366734800E+03  0.25746300566E+04  0.25248839837E+04 0.  0.
        2    1    3    3  502    0  0.94198261715E+03  0.84003506926E+03  0.22354517302E+03  0.12817810316E+04  0.25500000920E-02 0.  1.
       -2    1    3    3    0  502 -0.94198261715E+03 -0.84003506926E+03  0.28012217499E+03  0.12928490250E+04  0.25500000920E-02 0. -1.
</event>
<event>
 5   0  0.1468512E-05  0.2510933E+04  0.7818609E-02  0.8399101E-01
       -2   -1    0    0    0  501  0.00000000000E+00  0.00000000000E+00  0.90545395197E+03  0.90545395197E+03  0.25500000920E-02 0. -1.
        2   -1    0    0  501    0  0.00000000000E+00  0.00000000000E+00 -0.17407797814E+04  0.17407797814E+04  0.25500000920E-02 0.  1.
    10030    2    1    2    0    0  0.00000000000E+00  0.00000000000E+00 -0.83532582945E+03  0.26462337334E+04  0.25109328407E+04 0.  0.
        4    1    3    3  502    0  0.34860583700E+03  0.35297343530E+03  0.79777188517E+03  0.93944551161E+03  0.12699999809E+01 0. -1.
       -4    1    3    3    0  502 -0.34860583700E+03 -0.35297343530E+03 -0.16330977146E+04  0.17067882218E+04  0.12699999809E+01 0.  1.
</event>
<event>
 5   0  0.1550483E-05  0.2522532E+04  0.7818609E-02  0.8395002E-01
        2   -1    0    0  501    0  0.00000000000E+00  0.00000000000E+00  0.12549392074E+04  0.12549392074E+04  0.25500000920E-02 0. -1.
       -2   -1    0    0    0  501  0.00000000000E+00  0.00000000000E+00 -0.12676247108E+04  0.12676247108E+04  0.25500000920E-02 0.  1.
    10030    2    1    2    0    0  0.00000000000E+00  0.00000000000E+00 -0.12685503356E+02  0.25225639182E+04  0.25225320215E+04 0.  0.
        5    1    3    3  502    0 -0.27831506111E+02  0.28022201720E+03 -0.12357772203E+04  0.12674645557E+04  0.46999998093E+01 0.  1.
       -5    1    3    3    0  502  0.27831506111E+02 -0.28022201720E+03  0.12230917170E+04  0.12550993625E+04  0.46999998093E+01 0. -1.
</event>
<event>
 5   0  0.1468512E-05  0.2524459E+04  0.7818609E-02  0.8394323E-01
       -2   -1    0    0    0  501  0.00000000000E+00  0.00000000000E+00  0.16065885675E+04  0.16065885675E+04  0.25500000920E-02 0. -1.
        2   -1    0    0  501    0  0.00000000000E+00  0.00000000000E+00 -0.99168068578E+03  0.99168068579E+03  0.25500000920E-02 0.  1.
    10030    2    1    2    0    0  0.00000000000E+00  0.00000000000E+00  0.61490788170E+03  0.25982692533E+04  0.25244586369E+04 0.  0.
        4    1    3    3  502    0 -0.56555738369E+03 -0.11274174744E+04  0.35677071078E+03  0.13108059615E+04  0.12699999809E+01 0.  1.
       -4    1    3    3    0  502  0.56555738369E+03  0.11274174744E+04  0.25813717092E+03  0.12874632918E+04  0.12699999809E+01 0. -1.
</event>
<event>
 5   0  0.1572732E-05  0.2491563E+04  0.7818609E-02  0.8405998E-01
       -2   -1    0    0    0  501  0.00000000000E+00  0.00000000000E+00  0.98179198575E+03  0.98179198575E+03  0.25500000920E-02 0. -1.
        2   -1    0    0  501    0  0.00000000000E+00  0.00000000000E+00 -0.15807535472E+04  0.15807535472E+04  0.25500000920E-02 0.  1.
    10030    2    1    2    0    0  0.00000000000E+00  0.00000000000E+00 -0.59896156150E+03  0.25625455330E+04  0.24915626937E+04 0.  0.
        1    1    3    3  502    0  0.77693919659E+03  0.70312025972E+03 -0.99244030969E+03  0.14432430090E+04  0.50400001928E-02 0.  1.
       -1    1    3    3    0  502 -0.77693919659E+03 -0.70312025972E+03  0.39347874819E+03  0.11193025240E+04  0.50400001928E-02 0. -1.
</event>
<event>
 5   0  0.6346420E-06  0.2299239E+04  0.7818609E-02  0.8478221E-01
       -1   -1    0    0    0  501  0.00000000000E+00  0.00000000000E+00  0.10412808064E+04  0.10412808064E+04  0.50400001928E-02 0. -1.
        1   -1    0    0  501    0  0.00000000000E+00  0.00000000000E+00 -0.12692299427E+04  0.12692299427E+04  0.50400001928E-02 0.  1.
    10030    2    1    2    0    0  0.00000000000E+00  0.00000000000E+00 -0.22794913629E+03  0.23105107491E+04  0.22992388116E+04 0.  0.
        4    1    3    3  502    0  0.97617544973E+03  0.26582143297E+03  0.43463556889E+03  0.11011308885E+04  0.12699999809E+01 0. -1.
       -4    1    3    3    0  502 -0.97617544973E+03 -0.26582143297E+03 -0.66258470517E+03  0.12093798606E+04  0.12699999809E+01 0.  1.
</event>
<event>
 5   0  0.1526824E-05  0.2502118E+04  0.7818609E-02  0.8402232E-01
       -2   -1    0    0    0  501  0.00000000000E+00  0.00000000000E+00  0.13822107371E+04  0.13822107371E+04  0.25500000920E-02 0.  1.
        2   -1    0    0  501    0  0.00000000000E+00  0.00000000000E+00 -0.11323513114E+04  0.11323513114E+04  0.25500000920E-02 0. -1.
    10030    2    1    2    0    0  0.00000000000E+00  0.00000000000E+00  0.24985942578E+03  0.25145620485E+04  0.25021176158E+04 0.  0.
        2    1    3    3  502    0  0.36042079594E+03 -0.78483433777E+03 -0.78471296217E+03  0.11668943915E+04  0.25500000920E-02 0. -1.
       -2    1    3    3    0  502 -0.36042079594E+03  0.78483433777E+03  0.10345723879E+04  0.13476676570E+04  0.25500000920E-02 0.  1.
</event>
<event>
 5   0  0.1501947E-05  0.2498662E+04  0.7818609E-02  0.8403462E-01
       -2   -1    0    0    0  501  0.00000000000E+00  0.00000000000E+00  0.80561868838E+03  0.80561868838E+03  0.25500000920E-02 0.  1.
        2   -1    0    0  501    0  0.00000000000E+00  0.00000000000E+00 -0.19374283048E+04  0.19374283048E+04  0.25500000920E-02 0. -1.
    10030    2    1    2    0    0  0.00000000000E+00  0.00000000000E+00 -0.11318096165E+04  0.27430469932E+04  0.24986624020E+04 0.  0.
        3    1    3    3  502    0  0.12185145891E+04  0.25699771682E+03 -0.67570084339E+03  0.14168264786E+04  0.10100000352E+00 0. -1.
       -3    1    3    3    0  502 -0.12185145891E+04 -0.25699771682E+03 -0.45610877307E+03  0.13262205147E+04  0.10100000352E+00 0.  1.
</event>
<event>
 5   0  0.5164625E-06  0.2315649E+04  0.7818609E-02  0.8471776E-01
       -4   -1    0    0    0  501  0.00000000000E+00  0.00000000000E+00  0.12019145056E+04  0.12019151766E+04  0.12699999809E+01 0. -1.
        4   -1    0    0  501    0  0.00000000000E+00  0.00000000000E+00 -0.11153506927E+04  0.11153514157E+04  0.12699999809E+01 0.  1.
    10030    2    1    2    0    0  0.00000000000E+00  0.00000000000E+00  0.86563812927E+02  0.23172665923E+04  0.23156491889E+04 0.  0.
        4    1    3    3  502    0  0.22699784989E+03 -0.97986868315E+03 -0.53060406654E+03  0.11371952112E+04  0.12699999809E+01 0.  1.
       -4    1    3    3    0  502 -0.22699784989E+03  0.97986868315E+03  0.61716787947E+03  0.11800713811E+04  0.12699999809E+01 0. -1.
</event>
<event>
 5   0  0.1572732E-05  0.2488452E+04  0.7818609E-02  0.8407111E-01
       -2   -1    0    0    0  501  0.00000000000E+00  0.00000000000E+00  0.12595934844E+04  0.12595934844E+04  0.25500000920E-02 0.  1.
        2   -1    0    0  501    0  0.00000000000E+00  0.00000000000E+00 -0.12290457807E+04  0.12290457807E+04  0.25500000920E-02 0. -1.
    10030    2    1    2    0    0  0.00000000000E+00  0.00000000000E+00  0.30547703746E+02  0.24886392651E+04  0.24884517736E+04 0.  0.
        1    1    3    3  502    0 -0.52588213736E+03  0.76917142062E+03  0.83990942071E+03  0.12544419204E+04  0.50400001928E-02 0.  1.
       -1    1    3    3    0  502  0.52588213736E+03 -0.76917142062E+03 -0.80936171696E+03  0.12341973447E+04  0.50400001928E-02 0. -1.
</event>
<event>
 5   0  0.6290861E-06  0.2529700E+04  0.7818609E-02  0.8392481E-01
        1   -1    0    0  501    0  0.00000000000E+00  0.00000000000E+00  0.10728046885E+04  0.10728046886E+04  0.50400001928E-02 0. -1.
       -1   -1    0    0    0  501  0.00000000000E+00  0.00000000000E+00 -0.14912733181E+04  0.14912733181E+04  0.50400001928E-02 0.  1.
    10030    2    1    2    0    0  0.00000000000E+00  0.00000000000E+00 -0.41846862956E+03  0.25640780067E+04  0.25296995929E+04 0.  0.
        1    1    3    3  502    0  0.11232331503E+04  0.13195835298E+03 -0.78330509754E+03  0.13757298400E+04  0.50400001928E-02 0.  1.
       -1    1    3    3    0  502 -0.11232331503E+04 -0.13195835298E+03  0.36483646798E+03  0.11883481667E+04  0.50400001928E-02 0. -1.
</event>
<event>
 5   0  0.1526824E-05  0.2488987E+04  0.7818609E-02  0.8406920E-01
        2   -1    0    0  501    0  0.00000000000E+00  0.00000000000E+00  0.12559835434E+04  0.12559835434E+04  0.25500000920E-02 0.  1.
       -2   -1    0    0    0  501  0.00000000000E+00  0.00000000000E+00 -0.12331085065E+04  0.12331085065E+04  0.25500000920E-02 0. -1.
    10030    2    1    2    0    0  0.00000000000E+00  0.00000000000E+00  0.22875036920E+02  0.24890920499E+04  0.24889869356E+04 0.  0.
        2    1    3    3  502    0 -0.72977060110E+03 -0.75501238424E+03  0.67941419879E+03  0.12506848061E+04  0.25500000920E-02 0.  1.
       -2    1    3    3    0  502  0.72977060110E+03  0.75501238424E+03 -0.65653916187E+03  0.12384072439E+04  0.25500000920E-02 0. -1.
</event>
<event>
 5   0  0.6477703E-06  0.2517375E+04  0.7818609E-02  0.8396822E-01
       -1   -1    0    0    0  501  0.00000000000E+00  0.00000000000E+00  0.85756372273E+03  0.85756372274E+03  0.50400001928E-02 0.  1.
        1   -1    0    0  501    0  0.00000000000E+00  0.00000000000E+00 -0.18474358780E+04  0.18474358780E+04  0.50400001928E-02 0. -1.
    10030    2    1    2    0    0  0.00000000000E+00  0.00000000000E+00 -0.98987215522E+03  0.27049996007E+04  0.25173748144E+04 0.  0.
        5    1    3    3  502    0 -0.38605129641E+03 -0.99189353891E+03 -0.12168612143E+04  0.16166823129E+04  0.46999998093E+01 0. -1.
       -5    1    3    3    0  502  0.38605129641E+03  0.99189353891E+03  0.22698905908E+03  0.10883172878E+04  0.46999998093E+01 0.  1.
</event>
<event>
 5   0  0.1550483E-05  0.2491448E+04  0.7818609E-02  0.8406038E-01
        2   -1    0    0  501    0  0.00000000000E+00  0.00000000000E+00  0.16209825334E+04  0.16209825334E+04  0.25500000920E-02 0. -1.
       -2   -1    0    0    0  501  0.00000000000E+00  0.00000000000E+00 -0.95733826405E+03  0.95733826405E+03  0.25500000920E-02 0.  1.
    10030    2    1    2    0    0  0.00000000000E+00  0.00000000000E+00  0.66364426938E+03  0.25783207975E+04  0.24914482572E+04 0.  0.
        5    1    3    3  502    0 -0.97829044195E+03 -0.42540362625E+03 -0.33386937554E+03  0.11178154069E+04  0.46999998093E+01 0.  1.
       -5    1    3    3    0  502  0.97829044195E+03  0.42540362625E+03  0.99751364493E+03  0.14605053906E+04  0.46999998093E+01 0. -1.
</event>
<event>
 5   0  0.6346420E-06  0.2519905E+04  0.7818609E-02  0.8395928E-01
       -1   -1    0    0    0  501  0.00000000000E+00  0.00000000000E+00  0.12784865056E+04  0.12784865056E+04  0.50400001928E-02 0. -1.
        1   -1    0    0  501    0  0.00000000000E+00  0.00000000000E+00 -0.12416870787E+04  0.12416870787E+04  0.50400001928E-02 0.  1.
    10030    2    1    2    0    0  0.00000000000E+00  0.00000000000E+00  0.36799426905E+02  0.25201735843E+04  0.25199048985E+04 0.  0.
        4    1    3    3  502    0  0.30795776963E+03  0.78208580213E+03 -0.92030697762E+03  0.12463798521E+04  0.12699999809E+01 0.  1.
       -4    1    3    3    0  502 -0.30795776963E+03 -0.78208580213E+03  0.95710640453E+03  0.12737937322E+04  0.12699999809E+01 0. -1.
</event>
<event>
 5   0  0.1468512E-05  0.2495299E+04  0.7818609E-02  0.8404662E-01
       -2   -1    0    0    0  501  0.00000000000E+00  0.00000000000E+00  0.63018056014E+03  0.63018056014E+03  0.25500000920E-02 0.  1.
        2   -1    0    0  501    0  0.00000000000E+00  0.00000000000E+00 -0.24701315578E+04  0.24701315578E+04  0.25500000920E-02 0. -1.
    10030    2    1    2    0    0  0.00000000000E+00  0.00000000000E+00 -0.18399509977E+04  0.31003121180E+04  0.24952986905E+04 0.  0.
        4    1    3    3  502    0 -0.11143045307E+04  0.52823438233E+03 -0.11554575717E+04  0.16899082705E+04  0.12699999809E+01 0.  1.
       -4    1    3    3    0  502  0.11143045307E+04 -0.52823438233E+03 -0.68449342600E+03  0.14104038475E+04  0.12699999809E+01 0. -1.
</event>
<event>
 5   0  0.6290861E-06  0.2499066E+04  0.7818609E-02  0.8403318E-01
        1   -1    0    0  501    0  0.00000000000E+00  0.00000000000E+00  0.22847050872E+04  0.22847050872E+04  0.50400001928E-02 0. -1.
       -1   -1    0    0    0  501  0.00000000000E+00  0.00000000000E+00 -0.68338493899E+03  0.68338493901E+03  0.50400001928E-02 0.  1.
    10030    2    1    2    0    0  0.00000000000E+00  0.00000000000E+00  0.16013201482E+04  0.29680900262E+04  0.24990662629E+04 0.  0.
        1    1    3    3  502    0 -0.10244055340E+04 -0.27801287620E+03  0.15836600351E+04  0.19064828780E+04  0.50400001928E-02 0. -1.
       -1    1    3    3    0  502  0.10244055340E+04  0.27801287620E+03  0.17660113098E+02  0.10616071482E+04  0.50400001928E-02 0.  1.
</event>
<event>
 5   0  0.1572732E-05  0.2497773E+04  0.7818609E-02  0.8403779E-01
        2   -1    0    0  501    0  0.00000000000E+00  0.00000000000E+00  0.21537677414E+04  0.21537677414E+04  0.25500000920E-02 0. -1.
       -2   -1    0    0    0  501  0.00000000000E+00  0.00000000000E+00 -0.72418084912E+03  0.72418084913E+03  0.25500000920E-02 0.  1.
    10030    2    1    2    0    0  0.00000000000E+00  0.00000000000E+00  0.14295868923E+04  0.28779485906E+04  0.24977728894E+04 0.  0.
        1    1    3    3  502    0 -0.81684731775E+03  0.22208235747E+03  0.17727902859E+04  0.19645217005E+04  0.50400001928E-02 0. -1.
       -1    1    3    3    0  502  0.81684731775E+03 -0.22208235747E+03 -0.34320339360E+03  0.91342689003E+03  0.50400001928E-02 0.  1.
</event>
<event>
 5   0  0.6346420E-06  0.2509944E+04  0.7818609E-02  0.8399452E-01
        1   -1    0    0  501    0  0.00000000000E+00  0.00000000000E+00  0.12966633389E+04  0.12966633389E+04  0.50400001928E-02 0. -1.
       -1   -1    0    0    0  501  0.00000000000E+00  0.00000000000E+00 -0.12146207746E+04  0.12146207746E+04  0.50400001928E-02 0.  1.
    10030    2    1    2    0    0  0.00000000000E+00  0.00000000000E+00  0.82042564273E+02  0.25112841135E+04  0.25099436082E+04 0.  0.
        4    1    3    3  502    0  0.19512751324E+03 -0.38504862542E+03  0.12200459127E+04  0.12941602808E+04  0.12699999809E+01 0. -1.
       -4    1    3    3    0  502 -0.19512751324E+03  0.38504862542E+03 -0.11380033484E+04  0.12171238327E+04  0.12699999809E+01 0.  1.
</event>
<event>
 5   0  0.1501947E-05  0.2537349E+04  0.7818609E-02  0.8389799E-01
       -2   -1    0    0    0  501  0.00000000000E+00  0.00000000000E+00  0.14800673621E+04  0.14800673621E+04  0.25500000920E-02 0.  1.
        2   -1    0    0  501    0  0.00000000000E+00  0.00000000000E+00 -0.10874742877E+04  0.10874742877E+04  0.25500000920E-02 0. -1.
    10030    2    1    2    0    0  0.00000000000E+00  0.00000000000E+00  0.39259307437E+03  0.25675416498E+04  0.25373491682E+04 0.  0.
        3    1    3    3  502    0  0.89108408779E+03 -0.76834761580E+03  0.67643848490E+03  0.13571875126E+04  0.10100000352E+00 0.  1.
       -3    1    3    3    0  502 -0.89108408779E+03  0.76834761580E+03 -0.28384541053E+03  0.12103541372E+04  0.10100000352E+00 0. -1.
</event>
<event>
 5   0  0.6105353E-06  0.2507942E+04  0.7818609E-02  0.8400162E-01
        1   -1    0    0  501    0  0.00000000000E+00  0.00000000000E+00  0.80694725959E+03  0.80694725960E+03  0.50400001928E-02 0.  1.
       -1   -1    0    0    0  501  0.00000000000E+00  0.00000000000E+00 -0.19486322426E+04  0.19486322426E+04  0.50400001928E-02 0. -1.
    10030    2    1    2    0    0  0.00000000000E+00  0.00000000000E+00 -0.11416849831E+04  0.27555795022E+04  0.25079421430E+04 0.  0.
        3    1    3    3  502    0 -0.29069379063E+03  0.95480562967E+02 -0.19069877667E+04  0.19313782049E+04  0.10100000352E+00 0. -1.
       -3    1    3    3    0  502  0.29069379063E+03 -0.95480562967E+02  0.76530278361E+03  0.82420129739E+03  0.10100000352E+00 0.  1.
</event>
<event>
 5   0  0.1572732E-05  0.2460960E+04  0.7818609E-02  0.8417027E-01
        2   -1    0    0  501    0  0.00000000000E+00  0.00000000000E+00  0.15371507528E+04  0.15371507528E+04  0.25500000920E-02 0. -1.
       -2   -1    0    0    0  501  0.00000000000E+00  0.00000000000E+00 -0.98499158685E+03  0.98499158685E+03  0.25500000920E-02 0.  1.
    10030    2    1    2    0    0  0.00000000000E+00  0.00000000000E+00  0.55215916600E+03  0.25221423397E+04  0.24609596171E+04 0.  0.
        1    1    3    3  502    0 -0.55873398353E+03 -0.93740853831E+03 -0.30652692907E+03  0.11335242346E+04  0.50400001928E-02 0.  1.
       -1    1    3    3    0  502  0.55873398353E+03  0.93740853831E+03  0.85868609507E+03  0.13886181051E+04  0.50400001928E-02 0. -1.
</event>
<event>
 5   0  0.6346420E-06  0.2549987E+04  0.7818609E-02  0.8385391E-01
       -1   -1    0    0    0  501  0.00000000000E+00  0.00000000000E+00  0.83910509899E+03  0.83910509901E+03  0.50400001928E-02 0. -1.
        1   -1    0    0  501    0  0.00000000000E+00  0.00000000000E+00 -0.19373117919E+04  0.19373117919E+04  0.50400001928E-02 0.  1.
    10030    2    1    2    0    0  0.00000000000E+00  0.00000000000E+00 -0.10982066929E+04  0.27764168909E+04  0.25499868258E+04 0.  0.
        4    1    3    3  502    0  0.48814803676E+03  0.28336165159E+02 -0.18311654120E+04  0.18953257828E+04  0.12699999809E+01 0.  1.
       -4    1    3    3    0  502 -0.48814803676E+03 -0.28336165159E+02  0.73295871906E+03  0.88109110811E+03  0.12699999809E+01 0. -1.
</event>
<event>
 5   0  0.1501947E-05  0.2500724E+04  0.7818609E-02  0.8402728E-01
        2   -1    0    0  501    0  0.00000000000E+00  0.00000000000E+00  0.11495163960E+04  0.11495163960E+04  0.25500000920E-02 0. -1.
       -2   -1    0    0    0  501  0.00000000000E+00  0.00000000000E+00 -0.13600543082E+04  0.13600543082E+04  0.25500000920E-02 0.  1.
    10030    2    1    2    0    0  0.00000000000E+00  0.00000000000E+00 -0.21053791218E+03  0.25095707041E+04  0.25007236766E+04 0.  0.
        3    1    3    3  502    0 -0.54469026947E+03  0.45516294836E+03 -0.11382520439E+04  0.13414464301E+04  0.10100000352E+00 0.  1.
       -3    1    3    3    0  502  0.54469026947E+03 -0.45516294836E+03  0.92771413171E+03  0.11681242740E+04  0.10100000352E+00 0. -1.
</event>
<event>
 5   0  0.6346420E-06  0.2497232E+04  0.7818609E-02  0.8403972E-01
       -1   -1    0    0    0  501  0.00000000000E+00  0.00000000000E+00  0.12468718823E+04  0.12468718823E+04  0.50400001928E-02 0. -1.
        1   -1    0    0  501    0  0.00000000000E+00  0.00000000000E+00 -0.12503624161E+04  0.12503624161E+04  0.50400001928E-02 0.  1.
    10030    2    1    2    0    0  0.00000000000E+00  0.00000000000E+00 -0.34905337654E+01  0.24972342984E+04  0.24972318589E+04 0.  0.
        4    1    3    3  502    0  0.26383323663E+03  0.83954222263E+03  0.88403266183E+03  0.12473790444E+04  0.12699999809E+01 0. -1.
       -4    1    3    3    0  502 -0.26383323663E+03 -0.83954222263E+03 -0.88752319559E+03  0.12498552540E+04  0.12699999809E+01 0.  1.
</event>
<event>
 5   0  0.5164625E-06  0.2489277E+04  0.7818609E-02  0.8406816E-01
        3   -1    0    0  501    0  0.00000000000E+00  0.00000000000E+00  0.70440841279E+03  0.70440842003E+03  0.10100000352E+00 0. -1.
       -3   -1    0    0    0  501  0.00000000000E+00  0.00000000000E+00 -0.21991849829E+04  0.21991849852E+04  0.10100000352E+00 0.  1.
    10030    2    1    2    0    0  0.00000000000E+00  0.00000000000E+00 -0.14947765701E+04  0.29035934052E+04  0.24892765351E+04 0.  0.
        1    1    3    3  502    0  0.61625196038E+03  0.60064391699E+03  0.30149085632E+03  0.91183130576E+03  0.50400001928E-02 0. -1.
       -1    1    3    3    0  502 -0.61625196038E+03 -0.60064391699E+03 -0.17962674264E+04  0.19917620995E+04  0.50400001928E-02 0.  1.
</event>
<event>
 5   0  0.6346420E-06  0.2502932E+04  0.7818609E-02  0.8401942E-01
       -1   -1    0    0    0  501  0.00000000000E+00  0.00000000000E+00  0.97814140124E+03  0.97814140125E+03  0.50400001928E-02 0. -1.
        1   -1    0    0  501    0  0.00000000000E+00  0.00000000000E+00 -0.16011668182E+04  0.16011668182E+04  0.50400001928E-02 0.  1.
    10030    2    1    2    0    0  0.00000000000E+00  0.00000000000E+00 -0.62302541698E+03  0.25793082195E+04  0.25029323245E+04 0.  0.
        4    1    3    3  502    0 -0.23212069891E+03 -0.12006026279E+04 -0.37234614764E+02  0.12234029256E+04  0.12699999809E+01 0. -1.
       -4    1    3    3    0  502  0.23212069891E+03  0.12006026279E+04 -0.58579080222E+03  0.13559052938E+04  0.12699999809E+01 0.  1.
</event>
<event>
 5   0  0.6477703E-06  0.2477479E+04  0.7818609E-02  0.8411053E-01
        1   -1    0    0  501    0  0.00000000000E+00  0.00000000000E+00  0.20180082283E+04  0.20180082284E+04  0.50400001928E-02 0.  1.
       -1   -1    0    0    0  501  0.00000000000E+00  0.00000000000E+00 -0.76039091171E+03  0.76039091173E+03  0.50400001928E-02 0. -1.
    10030    2    1    2    0    0  0.00000000000E+00  0.00000000000E+00  0.12576173166E+04  0.27783991401E+04  0.24774786511E+04 0.  0.
        5    1    3    3  502    0  0.41773424141E+03  0.21056483503E+03  0.19151282639E+04  0.19714405402E+04  0.46999998093E+01 0.  1.
       -5    1    3    3    0  502 -0.41773424141E+03 -0.21056483503E+03 -0.65751094727E+03  0.80695859992E+03  0.46999998093E+01 0. -1.
</event>
<event>
 5   0  0.1526824E-05  0.2503999E+04  0.7818609E-02  0.8401562E-01
        2   -1    0    0  501    0  0.00000000000E+00  0.00000000000E+00  0.16049184169E+04  0.16049184169E+04  0.25500000920E-02 0. -1.
       -2   -1    0    0    0  501  0.00000000000E+00  0.00000000000E+00 -0.97668719782E+03  0.97668719782E+03  0.25500000920E-02 0.  1.
    10030    2    1    2    0    0  0.00000000000E+00  0.00000000000E+00  0.62823121907E+03  0.25816056147E+04  0.25039994180E+04 0.  0.
        2    1    3    3  502    0  0.38727817955E+03 -0.88850098582E+03  0.11311961041E+04  0.14896385522E+04  0.25500000920E-02 0. -1.
       -2    1    3    3    0  502 -0.38727817955E+03  0.88850098582E+03 -0.50296488501E+03  0.10919670626E+04  0.25500000920E-02 0.  1.
</event>
<event>
 5   0  0.1468512E-05  0.2505600E+04  0.7818609E-02  0.8400993E-01
       -2   -1    0    0    0  501  0.00000000000E+00  0.00000000000E+00  0.64741161356E+03  0.64741161356E+03  0.25500000920E-02 0. -1.
        2   -1    0    0  501    0  0.00000000000E+00  0.00000000000E+00 -0.24242806270E+04  0.24242806270E+04  0.25500000920E-02 0.  1.
    10030    2    1    2    0    0  0.00000000000E+00  0.00000000000E+00 -0.17768690134E+04  0.30716922405E+04  0.25055996747E+04 0.  0.
        4    1    3    3  502    0  0.91203338094E+03 -0.84424433376E+03 -0.10820867339E+04  0.16478673174E+04  0.12699999809E+01 0. -1.
       -4    1    3    3    0  502 -0.91203338094E+03  0.84424433376E+03 -0.69478227948E+03  0.14238249232E+04  0.12699999809E+01 0.  1.
</event>
<event>
 5   0  0.1550483E-05  0.2492034E+04  0.7818609E-02  0.8405829E-01
        2   -1    0    0  501    0  0.00000000000E+00  0.00000000000E+00  0.13147352524E+04  0.13147352524E+04  0.25500000920E-02 0. -1.
       -2   -1    0    0    0  501  0.00000000000E+00  0.00000000000E+00 -0.11808908275E+04  0.11808908275E+04  0.25500000920E-02 0.  1.
    10030    2    1    2    0    0  0.00000000000E+00  0.00000000000E+00  0.13384442493E+03  0.24956260800E+04  0.24920343499E+04 0.  0.
        5    1    3    3  502    0 -0.10839473673E+04 -0.59317661475E+03 -0.93734437063E+02  0.12391967665E+04  0.46999998093E+01 0.  1.
       -5    1    3    3    0  502  0.10839473673E+04  0.59317661475E+03  0.22757886199E+03  0.12564293135E+04  0.46999998093E+01 0. -1.
</event>
<event>
 5   0  0.1550483E-05  0.2436053E+04  0.7818609E-02  0.8426128E-01
        2   -1    0    0  501    0  0.00000000000E+00  0.00000000000E+00  0.16323679597E+04  0.16323679597E+04  0.25500000920E-02 0. -1.
       -2   -1    0    0    0  501  0.00000000000E+00  0.00000000000E+00 -0.90885647309E+03  0.90885647310E+03  0.25500000920E-02 0.  1.
    10030    2    1    2    0    0  0.00000000000E+00  0.00000000000E+00  0.72351148662E+03  0.25412244328E+04  0.24360526978E+04 0.  0.
        5    1    3    3  502    0  0.58892050279E+03 -0.14604059276E+03  0.14634822089E+04  0.15842845323E+04  0.46999998093E+01 0. -1.
       -5    1    3    3    0  502 -0.58892050279E+03  0.14604059276E+03 -0.73997072232E+03  0.95693990053E+03  0.46999998093E+01 0.  1.
</event>
<event>
 5   0  0.6346420E-06  0.2503406E+04  0.7818609E-02  0.8401773E-01
        1   -1    0    0  501    0  0.00000000000E+00  0.00000000000E+00  0.10796832994E+04  0.10796832994E+04  0.50400001928E-02 0. -1.
       -1   -1    0    0    0  501  0.00000000000E+00  0.00000000000E+00 -0.14511291715E+04  0.14511291715E+04  0.50400001928E-02 0.  1.
    10030    2    1    2    0    0  0.00000000000E+00  0.00000000000E+00 -0.37144587210E+03  0.25308124709E+04  0.25034056257E+04 0.  0.
        4    1    3    3  502    0 -0.11231187173E+03  0.92793107357E+03  0.65591057838E+03  0.11418801748E+04  0.12699999809E+01 0. -1.
       -4    1    3    3    0  502  0.11231187173E+03 -0.92793107357E+03 -0.10273564505E+04  0.13889322961E+04  0.12699999809E+01 0.  1.
</event>
<event>
 5   0  0.6290861E-06  0.2495300E+04  0.7818609E-02  0.8404662E-01
       -1   -1    0    0    0  501  0.00000000000E+00  0.00000000000E+00  0.14383897903E+04  0.14383897903E+04  0.50400001928E-02 0.  1.
        1   -1    0    0  501    0  0.00000000000E+00  0.00000000000E+00 -0.10822037250E+04  0.10822037250E+04  0.50400001928E-02 0. -1.
    10030    2    1    2    0    0  0.00000000000E+00  0.00000000000E+00  0.35618606529E+03  0.25205935154E+04  0.24953002137E+04 0.  0.
        1    1    3    3  502    0 -0.12037262973E+04  0.29013227770E+03  0.23251772080E+02  0.12384160780E+04  0.50400001928E-02 0. -1.
       -1    1    3    3    0  502  0.12037262973E+04 -0.29013227770E+03  0.33293429321E+03  0.12821774374E+04  0.50400001928E-02 0.  1.
</event>
<event>
 5   0  0.1501947E-05  0.2510337E+04  0.7818609E-02  0.8399312E-01
       -2   -1    0    0    0  501  0.00000000000E+00  0.00000000000E+00  0.13636112845E+04  0.13636112845E+04  0.25500000920E-02 0.  1.
        2   -1    0    0  501    0  0.00000000000E+00  0.00000000000E+00 -0.11553493611E+04  0.11553493611E+04  0.25500000920E-02 0. -1.
    10030    2    1    2    0    0  0.00000000000E+00  0.00000000000E+00  0.20826192344E+03  0.25189606456E+04  0.25103365721E+04 0.  0.
        3    1    3    3  502    0  0.39782369225E+03  0.11075613904E+04  0.54208367520E+03  0.12956892547E+04  0.10100000352E+00 0.  1.
       -3    1    3    3    0  502 -0.39782369225E+03 -0.11075613904E+04 -0.33382175176E+03  0.12232713909E+04  0.10100000352E+00 0. -1.
</event>
<event>
 5   0  0.1572732E-05  0.2505008E+04  0.7818609E-02  0.8401204E-01
       -2   -1    0    0    0  501  0.00000000000E+00  0.00000000000E+00  0.15696191223E+04  0.15696191223E+04  0.25500000920E-02 0.  1.
        2   -1    0    0  501    0  0.00000000000E+00  0.00000000000E+00 -0.99945625948E+03  0.99945625949E+03  0.25500000920E-02 0. -1.
    10030    2    1    2    0    0  0.00000000000E+00  0.00000000000E+00  0.57016286283E+03  0.25690753818E+04  0.25050075104E+04 0.  0.
        1    1    3    3  502    0 -0.10806250046E+04  0.61692779028E+03  0.13854476309E+03  0.12520163539E+04  0.50400001928E-02 0. -1.
       -1    1    3    3    0  502  0.10806250046E+04 -0.61692779028E+03  0.43161809974E+03  0.13170590279E+04  0.50400001928E-02 0.  1.
</event>
<event>
 5   0  0.1550483E-05  0.2516185E+04  0.7818609E-02  0.8397242E-01
        2   -1    0    0  501    0  0.00000000000E+00  0.00000000000E+00  0.17788407565E+04  0.17788407565E+04  0.25500000920E-02 0. -1.
       -2   -1    0    0    0  501  0.00000000000E+00  0.00000000000E+00 -0.88979142167E+03  0.88979142167E+03  0.25500000920E-02 0.  1.
    10030    2    1    2    0    0  0.00000000000E+00  0.00000000000E+00  0.88904933479E+03  0.26686321781E+04  0.25161854030E+04 0.  0.
        5    1    3    3  502    0  0.13962635075E+03  0.48099812426E+03  0.16685353892E+04  0.17420927497E+04  0.46999998093E+01 0. -1.
       -5    1    3    3    0  502 -0.13962635075E+03 -0.48099812426E+03 -0.77948605445E+03  0.92653942844E+03  0.46999998093E+01 0.  1.
</event>
<event>
 5   0  0.6105353E-06  0.2462215E+04  0.7818609E-02  0.8416572E-01
       -1   -1    0    0    0  501  0.00000000000E+00  0.00000000000E+00  0.12847397410E+04  0.12847397410E+04  0.50400001928E-02 0.  1.
        1   -1    0    0  501    0  0.00000000000E+00  0.00000000000E+00 -0.11797138234E+04  0.11797138234E+04  0.50400001928E-02 0. -1.
    10030    2    1    2    0    0  0.00000000000E+00  0.00000000000E+00  0.10502591758E+03  0.24644535644E+04  0.24622146389E+04 0.  0.
        3    1    3    3  502    0 -0.10759782713E+04 -0.55087494949E+03 -0.18100751040E+03  0.12222750015E+04  0.10100000352E+00 0.  1.
       -3    1    3    3    0  502  0.10759782713E+04  0.55087494949E+03  0.28603342798E+03  0.12421785630E+04  0.10100000352E+00 0. -1.
</event>
<event>
 5   0  0.1526824E-05  0.2607498E+04  0.7818609E-02  0.8365659E-01
        2   -1    0    0  501    0  0.00000000000E+00  0.00000000000E+00  0.23922301264E+04  0.23922301264E+04  0.25500000920E-02 0. -1.
       -2   -1    0    0    0  501  0.00000000000E+00  0.00000000000E+00 -0.71053440329E+03  0.71053440329E+03  0.25500000920E-02 0.  1.
    10030    2    1    2    0    0  0.00000000000E+00  0.00000000000E+00  0.16816957231E+04  0.31027645297E+04  0.26074982688E+04 0.  0.
        2    1    3    3  502    0  0.70854619511E+03  0.30141671707E+03 -0.41106327063E+03  0.87284750123E+03  0.25500000920E-02 0.  1.
       -2    1    3    3    0  502 -0.70854619511E+03 -0.30141671707E+03  0.20927589937E+04  0.22299170285E+04  0.25500000920E-02 0. -1.
</event>
<event>
 5   0  0.6290861E-06  0.2495157E+04  0.7818609E-02  0.8404713E-01
        1   -1    0    0  501    0  0.00000000000E+00  0.00000000000E+00  0.15470297687E+04  0.15470297687E+04  0.50400001928E-02 0. -1.
       -1   -1    0    0    0  501  0.00000000000E+00  0.00000000000E+00 -0.10060908054E+04  0.10060908054E+04  0.50400001928E-02 0.  1.
    10030    2    1    2    0    0  0.00000000000E+00  0.00000000000E+00  0.54093896324E+03  0.25531205741E+04  0.24951572504E+04 0.  0.
        1    1    3    3  502    0 -0.12204231821E+04  0.16137490489E+03  0.47760178925E+03  0.13204461642E+04  0.50400001928E-02 0.  1.
       -1    1    3    3    0  502  0.12204231821E+04 -0.16137490489E+03  0.63337173984E+02  0.12326744100E+04  0.50400001928E-02 0. -1.
</event>
<event>
 5   0  0.1501947E-05  0.2493787E+04  0.7818609E-02  0.8405202E-01
       -2   -1    0    0    0  501  0.00000000000E+00  0.00000000000E+00  0.81213861021E+03  0.81213861021E+03  0.25500000920E-02 0. -1.
        2   -1    0    0  501    0  0.00000000000E+00  0.00000000000E+00 -0.19143823627E+04  0.19143823627E+04  0.25500000920E-02 0.  1.
    10030    2    1    2    0    0  0.00000000000E+00  0.00000000000E+00 -0.11022437525E+04  0.27265209729E+04  0.24937873457E+04 0.  0.
        3    1    3    3  502    0  0.71337383985E+03  0.79756313842E+03 -0.12509650960E+04  0.16461843386E+04  0.10100000352E+00 0.  1.
       -3    1    3    3    0  502 -0.71337383985E+03 -0.79756313842E+03  0.14872134351E+03  0.10803366343E+04  0.10100000352E+00 0. -1.
</event>
<event>
 5   0  0.1526824E-05  0.2505723E+04  0.7818609E-02  0.8400949E-01
       -2   -1    0    0    0  501  0.00000000000E+00  0.00000000000E+00  0.73583038631E+03  0.73583038631E+03  0.25500000920E-02 0. -1.
        2   -1    0    0  501    0  0.00000000000E+00  0.00000000000E+00 -0.21331850422E+04  0.21331850422E+04  0.25500000920E-02 0.  1.
    10030    2    1    2    0    0  0.00000000000E+00  0.00000000000E+00 -0.13973546559E+04  0.28690154285E+04  0.25057233476E+04 0.  0.
        2    1    3    3  502    0  0.40483868996E+03  0.19459125974E+03 -0.20378213782E+04  0.20867381467E+04  0.25500000920E-02 0.  1.
       -2    1    3    3    0  502 -0.40483868996E+03 -0.19459125974E+03  0.64046672233E+03  0.78227728183E+03  0.25500000920E-02 0. -1.
</event>
<event>
 5   0  0.6290861E-06  0.2521923E+04  0.7818609E-02  0.8395217E-01
       -1   -1    0    0    0  501  0.00000000000E+00  0.00000000000E+00  0.89536612590E+03  0.89536612592E+03  0.50400001928E-02 0.  1.
        1   -1    0    0  501    0  0.00000000000E+00  0.00000000000E+00 -0.17758366363E+04  0.17758366363E+04  0.50400001928E-02 0. -1.
    10030    2    1    2    0    0  0.00000000000E+00  0.00000000000E+00 -0.88047051037E+03  0.26712027622E+04  0.25219230514E+04 0.  0.
        1    1    3    3  502    0  0.22809349021E+03 -0.12381845531E+04 -0.51435106642E+03  0.13600311200E+04  0.50400001928E-02 0.  1.
       -1    1    3    3    0  502 -0.22809349021E+03  0.12381845531E+04 -0.36611944395E+03  0.13111716422E+04  0.50400001928E-02 0. -1.
</event>
<event>
 5   0  0.1550483E-05  0.2502791E+04  0.7818609E-02  0.8401992E-01
       -2   -1    0    0    0  501  0.00000000000E+00  0.00000000000E+00  0.56818502528E+03  0.56818502528E+03  0.25500000920E-02 0.  1.
        2   -1    0    0  501    0  0.00000000000E+00  0.00000000000E+00 -0.27561270525E+04  0.27561270525E+04  0.25500000920E-02 0. -1.
    10030    2    1    2    0    0  0.00000000000E+00  0.00000000000E+00 -0.21879420272E+04  0.33243120777E+04  0.25027905378E+04 0.  0.
        5    1    3    3  502    0 -0.11150505330E+04  0.38080307665E+03 -0.16537575219E+04  0.20305872809E+04  0.46999998093E+01 0. -1.
       -5    1    3    3    0  502  0.11150505330E+04 -0.38080307665E+03 -0.53418450528E+03  0.12937247968E+04  0.46999998093E+01 0.  1.
</event>
<event>
 5   0  0.1526824E-05  0.2522386E+04  0.7818609E-02  0.8395054E-01
       -2   -1    0    0    0  501  0.00000000000E+00  0.00000000000E+00  0.90279292737E+03  0.90279292737E+03  0.25500000920E-02 0.  1.
        2   -1    0    0  501    0  0.00000000000E+00  0.00000000000E+00 -0.17618738467E+04  0.17618738467E+04  0.25500000920E-02 0. -1.
    10030    2    1    2    0    0  0.00000000000E+00  0.00000000000E+00 -0.85908091931E+03  0.26646667740E+04  0.25223855754E+04 0.  0.
        2    1    3    3  502    0  0.31475462934E+03 -0.41156248979E+03  0.78516869447E+03  0.94071464243E+03  0.25500000920E-02 0.  1.
       -2    1    3    3    0  502 -0.31475462934E+03  0.41156248979E+03 -0.16442496138E+04  0.17239521316E+04  0.25500000920E-02 0. -1.
</event>
<event>
 5   0  0.1550483E-05  0.2495473E+04  0.7818609E-02  0.8404600E-01
       -2   -1    0    0    0  501  0.00000000000E+00  0.00000000000E+00  0.26892025828E+04  0.26892025828E+04  0.25500000920E-02 0.  1.
        2   -1    0    0  501    0  0.00000000000E+00  0.00000000000E+00 -0.57892495016E+03  0.57892495017E+03  0.25500000920E-02 0. -1.
    10030    2    1    2    0    0  0.00000000000E+00  0.00000000000E+00  0.21102776326E+04  0.32681275329E+04  0.24954730784E+04 0.  0.
        5    1    3    3  502    0  0.10362052419E+04 -0.35674274546E+03  0.18363565275E+04  0.21385074412E+04  0.46999998093E+01 0.  1.
       -5    1    3    3    0  502 -0.10362052419E+04  0.35674274546E+03  0.27392110510E+03  0.11296200917E+04  0.46999998093E+01 0. -1.
</event>
<event>
 5   0  0.6290861E-06  0.2507096E+04  0.7818609E-02  0.8400462E-01
       -1   -1    0    0    0  501  0.00000000000E+00  0.00000000000E+00  0.74568132140E+03  0.74568132141E+03  0.50400001928E-02 0. -1.
        1   -1    0    0  501    0  0.00000000000E+00  0.00000000000E+00 -0.21073117320E+04  0.21073117320E+04  0.50400001928E-02 0.  1.
    10030    2    1    2    0    0  0.00000000000E+00  0.00000000000E+00 -0.13616304106E+04  0.28529930534E+04  0.25070963260E+04 0.  0.
        1    1    3    3  502    0  0.59962449793E+03  0.11460215392E+03 -0.19267201546E+04  0.20211219029E+04  0.50400001928E-02 0.  1.
       -1    1    3    3    0  502 -0.59962449793E+03 -0.11460215392E+03  0.56508974402E+03  0.83187115050E+03  0.50400001928E-02 0. -1.
</event>
<event>
 5   0  0.1468512E-05  0.2510397E+04  0.7818609E-02  0.8399291E-01
       -2   -1    0    0    0  501  0.00000000000E+00  0.00000000000E+00  0.57712915801E+03  0.57712915801E+03  0.25500000920E-02 0. -1.
        2   -1    0    0  501    0  0.00000000000E+00  0.00000000000E+00 -0.27299324336E+04  0.27299324336E+04  0.25500000920E-02 0.  1.
    10030    2    1    2    0    0  0.00000000000E+00  0.00000000000E+00 -0.21528032756E+04  0.33070615917E+04  0.25103972649E+04 0.  0.
        4    1    3    3  502    0 -0.48176847104E+03  0.10048914673E+04 -0.18372921029E+04  0.21488489023E+04  0.12699999809E+01 0.  1.
       -4    1    3    3    0  502  0.48176847104E+03 -0.10048914673E+04 -0.31551117270E+03  0.11582126893E+04  0.12699999809E+01 0. -1.
</event>
<event>
 5   0  0.1501947E-05  0.2489424E+04  0.7818609E-02  0.8406763E-01
       -2   -1    0    0    0  501  0.00000000000E+00  0.00000000000E+00  0.68001960846E+03  0.68001960846E+03  0.25500000920E-02 0.  1.
        2   -1    0    0  501    0  0.00000000000E+00  0.00000000000E+00 -0.22783278928E+04  0.22783278928E+04  0.25500000920E-02 0. -1.
    10030    2    1    2    0    0  0.00000000000E+00  0.00000000000E+00 -0.15983082843E+04  0.29583475012E+04  0.24894237418E+04 0.  0.
        3    1    3    3  502    0  0.88771519631E+03 -0.85589085694E+03 -0.59776126360E+03  0.13703670921E+04  0.10100000352E+00 0.  1.
       -3    1    3    3    0  502 -0.88771519631E+03  0.85589085694E+03 -0.10005470207E+04  0.15879804091E+04  0.10100000352E+00 0. -1.
</event>
<event>
 5   0  0.1550483E-05  0.2507097E+04  0.7818609E-02  0.8400462E-01
        2   -1    0    0  501    0  0.00000000000E+00  0.00000000000E+00  0.17813209803E+04  0.17813209803E+04  0.25500000920E-02 0.  1.
       -2   -1    0    0    0  501  0.00000000000E+00  0.00000000000E+00 -0.88214527514E+03  0.88214527514E+03  0.25500000920E-02 0. -1.
    10030    2    1    2    0    0  0.00000000000E+00  0.00000000000E+00  0.89917570517E+03  0.26634662555E+04  0.25070970355E+04 0.  0.
        5    1    3    3  502    0 -0.57908531731E+02  0.11274575572E+04 -0.12923145988E+03  0.11363260103E+04  0.46999998093E+01 0. -1.
       -5    1    3    3    0  502  0.57908531731E+02 -0.11274575572E+04  0.10284071651E+04  0.15271402452E+04  0.46999998093E+01 0.  1.
</event>
<event>
 5   0  0.1501947E-05  0.2493498E+04  0.7818609E-02  0.8405305E-01
       -2   -1    0    0    0  501  0.00000000000E+00  0.00000000000E+00  0.13245348212E+04  0.13245348212E+04  0.25500000920E-02 0. -1.
        2   -1    0    0  501    0  0.00000000000E+00  0.00000000000E+00 -0.11735317295E+04  0.11735317295E+04  0.25500000920E-02 0.  1.
    10030    2    1    2    0    0  0.00000000000E+00  0.00000000000E+00  0.15100309167E+03  0.24980665506E+04  0.24934984575E+04 0.  0.
        3    1    3    3  502    0 -0.26284888621E+03 -0.54148503649E+03  0.11693296232E+04  0.13151529795E+04  0.10100000352E+00 0. -1.
       -3    1    3    3    0  502  0.26284888621E+03  0.54148503649E+03 -0.10183265315E+04  0.11829135711E+04  0.10100000352E+00 0.  1.
</event>
<event>
 5   0  0.6105353E-06  0.2548765E+04  0.7818609E-02  0.8385816E-01
        1   -1    0    0  501    0  0.00000000000E+00  0.00000000000E+00  0.11108318991E+04  0.11108318991E+04  0.50400001928E-02 0.  1.
       -1   -1    0    0    0  501  0.00000000000E+00  0.00000000000E+00 -0.14620133480E+04  0.14620133480E+04  0.50400001928E-02 0. -1.
    10030    2    1    2    0    0  0.00000000000E+00  0.00000000000E+00 -0.35118144887E+03  0.25728452471E+04  0.25487652414E+04 0.  0.
        3    1    3    3  502    0 -0.11722292869E+04  0.42922766540E+03  0.83137565745E+02  0.12511074114E+04  0.10100000352E+00 0. -1.
       -3    1    3    3    0  502  0.11722292869E+04 -0.42922766540E+03 -0.43431901462E+03  0.13217378357E+04  0.10100000352E+00 0.  1.
</event>
<event>
 5   0  0.6105353E-06  0.2443628E+04  0.7818609E-02  0.8423348E-01
       -1   -1    0    0    0  501  0.00000000000E+00  0.00000000000E+00  0.14737633845E+04  0.14737633846E+04  0.50400001928E-02 0. -1.
        1   -1    0    0  501    0  0.00000000000E+00  0.00000000000E+00 -0.10129369591E+04  0.10129369592E+04  0.50400001928E-02 0.  1.
    10030    2    1    2    0    0  0.00000000000E+00  0.00000000000E+00  0.46082642540E+03  0.24867003437E+04  0.24436279596E+04 0.  0.
        3    1    3    3  502    0 -0.68355345234E+03 -0.63607758831E+02 -0.79811369499E+03  0.10527472391E+04  0.10100000352E+00 0.  1.
       -3    1    3    3    0  502  0.68355345234E+03  0.63607758831E+02  0.12589401204E+04  0.14339531046E+04  0.10100000352E+00 0. -1.
</event>
<event>
 5   0  0.1468512E-05  0.2512048E+04  0.7818609E-02  0.8398706E-01
        2   -1    0    0  501    0  0.00000000000E+00  0.00000000000E+00  0.15466406656E+04  0.15466406656E+04  0.25500000920E-02 0. -1.
       -2   -1    0    0    0  501  0.00000000000E+00  0.00000000000E+00 -0.10200146708E+04  0.10200146708E+04  0.25500000920E-02 0.  1.
    10030    2    1    2    0    0  0.00000000000E+00  0.00000000000E+00  0.52662599480E+03  0.25666553364E+04  0.25120479051E+04 0.  0.
        4    1    3    3  502    0 -0.52648954463E+03 -0.11382794553E+04  0.19309350411E+03  0.12689200421E+04  0.12699999809E+01 0.  1.
       -4    1    3    3    0  502  0.52648954463E+03  0.11382794553E+04  0.33353249069E+03  0.12977352943E+04  0.12699999809E+01 0. -1.
</event>
<event>
 5   0  0.6477703E-06  0.2453010E+04  0.7818609E-02  0.8419920E-01
        1   -1    0    0  501    0  0.00000000000E+00  0.00000000000E+00  0.11928633790E+04  0.11928633790E+04  0.50400001928E-02 0. -1.
       -1   -1    0    0    0  501  0.00000000000E+00  0.00000000000E+00 -0.12610952699E+04  0.12610952699E+04  0.50400001928E-02 0.  1.
    10030    2    1    2    0    0  0.00000000000E+00  0.00000000000E+00 -0.68231890931E+02  0.24539586489E+04  0.24530098776E+04 0.  0.
        5    1    3    3  502    0  0.26921680593E+03  0.49350514656E+03 -0.11246142841E+04  0.12573004400E+04  0.46999998093E+01 0.  1.
       -5    1    3    3    0  502 -0.26921680593E+03 -0.49350514656E+03  0.10563823932E+04  0.11966582089E+04  0.46999998093E+01 0. -1.
</event>
<event>
 5   0  0.6105353E-06  0.2523441E+04  0.7818609E-02  0.8394682E-01
       -1   -1    0    0    0  501  0.00000000000E+00  0.00000000000E+00  0.12571806101E+04  0.12571806101E+04  0.50400001928E-02 0.  1.
        1   -1    0    0  501    0  0.00000000000E+00  0.00000000000E+00 -0.12662764617E+04  0.12662764617E+04  0.50400001928E-02 0. -1.
    10030    2    1    2    0    0  0.00000000000E+00  0.00000000000E+00 -0.90958515464E+01  0.25234570718E+04  0.25234406786E+04 0.  0.
        3    1    3    3  502    0 -0.19429217625E+03 -0.29148790233E+03 -0.12166711236E+04  0.12660976582E+04  0.10100000352E+00 0. -1.
       -3    1    3    3    0  502  0.19429217625E+03  0.29148790233E+03  0.12075752721E+04  0.12573594136E+04  0.10100000352E+00 0.  1.
</event>
<event>
 5   0  0.5164625E-06  0.2503621E+04  0.7818609E-02  0.8401697E-01
        3   -1    0    0  501    0  0.00000000000E+00  0.00000000000E+00  0.11308723383E+04  0.11308723428E+04  0.10100000352E+00 0.  1.
       -3   -1    0    0    0  501  0.00000000000E+00  0.00000000000E+00 -0.13856816943E+04  0.13856816980E+04  0.10100000352E+00 0. -1.
    10030    2    1    2    0    0  0.00000000000E+00  0.00000000000E+00 -0.25480935601E+03  0.25165540408E+04  0.25036206646E+04 0.  0.
        3    1    3    3  502    0  0.51281872910E+03  0.82952932502E+03 -0.91626916729E+03  0.13381521390E+04  0.10100000352E+00 0. -1.
       -3    1    3    3    0  502 -0.51281872910E+03 -0.82952932502E+03  0.66145981128E+03  0.11784019018E+04  0.10100000352E+00 0.  1.
</event>
<event>
 5   0  0.6105353E-06  0.2474830E+04  0.7818609E-02  0.8412008E-01
       -1   -1    0    0    0  501  0.00000000000E+00  0.00000000000E+00  0.11845853174E+04  0.11845853174E+04  0.50400001928E-02 0. -1.
        1   -1    0    0  501    0  0.00000000000E+00  0.00000000000E+00 -0.12926003254E+04  0.12926003255E+04  0.50400001928E-02 0.  1.
    10030    2    1    2    0    0  0.00000000000E+00  0.00000000000E+00 -0.10801500805E+03  0.24771856429E+04  0.24748295835E+04 0.  0.
        3    1    3    3  502    0 -0.65056360703E+03 -0.58536288245E+03 -0.92966183534E+03  0.12767747841E+04  0.10100000352E+00 0.  1.
       -3    1    3    3    0  502  0.65056360703E+03  0.58536288245E+03  0.82164682730E+03  0.12004108588E+04  0.10100000352E+00 0. -1.
</event>
<event>
 5   0  0.1572732E-05  0.2496186E+04  0.7818609E-02  0.8404346E-01
       -2   -1    0    0    0  501  0.00000000000E+00  0.00000000000E+00  0.76233079182E+03  0.76233079182E+03  0.25500000920E-02 0.  1.
        2   -1    0    0  501    0  0.00000000000E+00  0.00000000000E+00 -0.20433853386E+04  0.20433853386E+04  0.25500000920E-02 0. -1.
    10030    2    1    2    0    0  0.00000000000E+00  0.00000000000E+00 -0.12810545468E+04  0.28057161304E+04  0.24961855405E+04 0.  0.
        1    1    3    3  502    0 -0.33553044688E+03 -0.11161052521E+03  0.70485031569E+03  0.78857565120E+03  0.50400001928E-02 0.  1.
       -1    1    3    3    0  502  0.33553044688E+03  0.11161052521E+03 -0.19859048625E+04  0.20171404792E+04  0.50400001928E-02 0. -1.
</event>
<event>
 5   0  0.6104486E-06  0.2509021E+04  0.7818609E-02  0.8399779E-01
        1   -1    0    0  501    0  0.00000000000E+00  0.00000000000E+00  0.10819071775E+04  0.10819071776E+04  0.50400001928E-02 0. -1.
       -1   -1    0    0    0  501  0.00000000000E+00  0.00000000000E+00 -0.14546499751E+04  0.14546499751E+04  0.50400001928E-02 0.  1.
    10030    2    1    2    0    0  0.00000000000E+00  0.00000000000E+00 -0.37274279752E+03  0.25365571526E+04  0.25090207244E+04 0.  0.
        2    1    3    3  502    0  0.11037649603E+04  0.40866631524E+03 -0.62529174929E+03  0.13327771819E+04  0.25500000920E-02 0.  1.
       -2    1    3    3    0  502 -0.11037649603E+04 -0.40866631524E+03  0.25254895177E+03  0.12037799707E+04  0.25500000920E-02 0. -1.
</event>
<event>
 5   0  0.6105353E-06  0.2526127E+04  0.7818609E-02  0.8393737E-01
       -1   -1    0    0    0  501  0.00000000000E+00  0.00000000000E+00  0.83349039452E+03  0.83349039454E+03  0.50400001928E-02 0. -1.
        1   -1    0    0  501    0  0.00000000000E+00  0.00000000000E+00 -0.19140339283E+04  0.19140339283E+04  0.50400001928E-02 0.  1.
    10030    2    1    2    0    0  0.00000000000E+00  0.00000000000E+00 -0.10805435338E+04  0.27475243229E+04  0.25261265955E+04 0.  0.
        3    1    3    3  502    0 -0.56063280650E+03  0.57468892710E+03  0.52025136224E+03  0.95668071830E+03  0.10100000352E+00 0. -1.
       -3    1    3    3    0  502  0.56063280650E+03 -0.57468892710E+03 -0.16007948960E+04  0.17908436046E+04  0.10100000352E+00 0.  1.
</event>
<event>
 5   0  0.6104486E-06  0.2507493E+04  0.7818609E-02  0.8400321E-01
       -1   -1    0    0    0  501  0.00000000000E+00  0.00000000000E+00  0.11951812774E+04  0.11951812774E+04  0.50400001928E-02 0. -1.
        1   -1    0    0  501    0  0.00000000000E+00  0.00000000000E+00 -0.13151815017E+04  0.13151815017E+04  0.50400001928E-02 0.  1.
    10030    2    1    2    0    0  0.00000000000E+00  0.00000000000E+00 -0.12000022434E+03  0.25103627791E+04  0.25074930167E+04 0.  0.
        2    1    3    3  502    0  0.86344944381E+03 -0.38876060583E+02  0.84923752340E+03  0.12117180618E+04  0.25500000920E-02 0. -1.
       -2    1    3    3    0  502 -0.86344944381E+03  0.38876060583E+02 -0.96923774774E+03  0.12986447173E+04  0.25500000920E-02 0.  1.
</event>
<event>
 5   0  0.6105353E-06  0.2500171E+04  0.7818609E-02  0.8402925E-01
        1   -1    0    0  501    0  0.00000000000E+00  0.00000000000E+00  0.17527251428E+04  0.17527251428E+04  0.50400001928E-02 0.  1.
       -1   -1    0    0    0  501  0.00000000000E+00  0.00000000000E+00 -0.89159058941E+03  0.89159058942E+03  0.50400001928E-02 0. -1.
    10030    2    1    2    0    0  0.00000000000E+00  0.00000000000E+00  0.86113455339E+03  0.26443157322E+04  0.25001705887E+04 0.  0.
        3    1    3    3  502    0 -0.39327777401E+03 -0.21386854994E+03  0.16650386193E+04  0.17241695908E+04  0.10100000352E+00 0.  1.
       -3    1    3    3    0  502  0.39327777401E+03  0.21386854994E+03 -0.80390406587E+03  0.92014614138E+03  0.10100000352E+00 0. -1.
</event>
<event>
 5   0  0.1550483E-05  0.2378767E+04  0.7818609E-02  0.8447496E-01
        2   -1    0    0  501    0  0.00000000000E+00  0.00000000000E+00  0.92949166749E+03  0.92949166750E+03  0.25500000920E-02 0. -1.
       -2   -1    0    0    0  501  0.00000000000E+00  0.00000000000E+00 -0.15219425386E+04  0.15219425386E+04  0.25500000920E-02 0.  1.
    10030    2    1    2    0    0  0.00000000000E+00  0.00000000000E+00 -0.59245087113E+03  0.24514342061E+04  0.23787668302E+04 0.  0.
        5    1    3    3  502    0 -0.21635909643E+03 -0.75976590892E+03 -0.12125187153E+04  0.14471624718E+04  0.46999998093E+01 0.  1.
       -5    1    3    3    0  502  0.21635909643E+03  0.75976590892E+03  0.62006784415E+03  0.10042717343E+04  0.46999998093E+01 0. -1.
</event>
<event>
 5   0  0.1572732E-05  0.2468717E+04  0.7818609E-02  0.8414216E-01
       -2   -1    0    0    0  501  0.00000000000E+00  0.00000000000E+00  0.73699732977E+03  0.73699732978E+03  0.25500000920E-02 0.  1.
        2   -1    0    0  501    0  0.00000000000E+00  0.00000000000E+00 -0.20673630458E+04  0.20673630458E+04  0.25500000920E-02 0. -1.
    10030    2    1    2    0    0  0.00000000000E+00  0.00000000000E+00 -0.13303657160E+04  0.28043603755E+04  0.24687171117E+04 0.  0.
        1    1    3    3  502    0 -0.26875105771E+03  0.36476256529E+03  0.63912425712E+03  0.78342751811E+03  0.50400001928E-02 0.  1.
       -1    1    3    3    0  502  0.26875105771E+03 -0.36476256529E+03 -0.19694899731E+04  0.20209328574E+04  0.50400001928E-02 0. -1.
</event>
<event>
 5   0  0.6290861E-06  0.2484853E+04  0.7818609E-02  0.8408402E-01
       -1   -1    0    0    0  501  0.00000000000E+00  0.00000000000E+00  0.11659183270E+04  0.11659183270E+04  0.50400001928E-02 0. -1.
        1   -1    0    0  501    0  0.00000000000E+00  0.00000000000E+00 -0.13239548701E+04  0.13239548701E+04  0.50400001928E-02 0.  1.
    10030    2    1    2    0    0  0.00000000000E+00  0.00000000000E+00 -0.15803654305E+03  0.24898731971E+04  0.24848527097E+04 0.  0.
        1    1    3    3  502    0  0.11505560800E+04 -0.86582261855E+01 -0.54876069557E+03  0.12747519598E+04  0.50400001928E-02 0.  1.
       -1    1    3    3    0  502 -0.11505560800E+04  0.86582261855E+01  0.39072415252E+03  0.12151212373E+04  0.50400001928E-02 0. -1.
</event>
<event>
 5   0  0.1526824E-05  0.2499840E+04  0.7818609E-02  0.8403043E-01
       -2   -1    0    0    0  501  0.00000000000E+00  0.00000000000E+00  0.77317455159E+03  0.77317455160E+03  0.25500000920E-02 0.  1.
        2   -1    0    0  501    0  0.00000000000E+00  0.00000000000E+00 -0.20206299416E+04  0.20206299416E+04  0.25500000920E-02 0. -1.
    10030    2    1    2    0    0  0.00000000000E+00  0.00000000000E+00 -0.12474553900E+04  0.27938044932E+04  0.24998397141E+04 0.  0.
        2    1    3    3  502    0  0.75997562188E+03  0.95345195368E+03 -0.31630604297E+03  0.12596360929E+04  0.25500000920E-02 0. -1.
       -2    1    3    3    0  502 -0.75997562188E+03 -0.95345195368E+03 -0.93114934703E+03  0.15341684002E+04  0.25500000920E-02 0.  1.
</event>
<event>
 5   0  0.1550483E-05  0.2498122E+04  0.7818609E-02  0.8403655E-01
       -2   -1    0    0    0  501  0.00000000000E+00  0.00000000000E+00  0.10782870278E+04  0.10782870278E+04  0.25500000920E-02 0. -1.
        2   -1    0    0  501    0  0.00000000000E+00  0.00000000000E+00 -0.14468809555E+04  0.14468809555E+04  0.25500000920E-02 0.  1.
    10030    2    1    2    0    0  0.00000000000E+00  0.00000000000E+00 -0.36859392771E+03  0.25251679833E+04  0.24981216665E+04 0.  0.
        5    1    3    3  502    0  0.11065994354E+04  0.48959894857E+03 -0.49726403774E+03  0.13082671952E+04  0.46999998093E+01 0.  1.
       -5    1    3    3    0  502 -0.11065994354E+04 -0.48959894857E+03  0.12867011003E+03  0.12169007881E+04  0.46999998093E+01 0. -1.
</event>
<event>
 5   0  0.6104486E-06  0.2495156E+04  0.7818609E-02  0.8404713E-01
        1   -1    0    0  501    0  0.00000000000E+00  0.00000000000E+00  0.12072256293E+04  0.12072256293E+04  0.50400001928E-02 0.  1.
       -1   -1    0    0    0  501  0.00000000000E+00  0.00000000000E+00 -0.12892793638E+04  0.12892793638E+04  0.50400001928E-02 0. -1.
    10030    2    1    2    0    0  0.00000000000E+00  0.00000000000E+00 -0.82053734449E+02  0.24965049931E+04  0.24951561806E+04 0.  0.
        2    1    3    3  502    0 -0.88507013545E+03 -0.76673327669E+03  0.38958007075E+03  0.12340995478E+04  0.25500000920E-02 0.  1.
       -2    1    3    3    0  502  0.88507013545E+03  0.76673327669E+03 -0.47163380520E+03  0.12624054454E+04  0.25500000920E-02 0. -1.
</event>
<event>
 5   0  0.1526824E-05  0.2585853E+04  0.7818609E-02  0.8373023E-01
       -2   -1    0    0    0  501  0.00000000000E+00  0.00000000000E+00  0.23542129878E+04  0.23542129878E+04  0.25500000920E-02 0. -1.
        2   -1    0    0  501    0  0.00000000000E+00  0.00000000000E+00 -0.71007110844E+03  0.71007110844E+03  0.25500000920E-02 0.  1.
    10030    2    1    2    0    0  0.00000000000E+00  0.00000000000E+00  0.16441418794E+04  0.30642840962E+04  0.25858527613E+04 0.  0.
        2    1    3    3  502    0 -0.10874682199E+03  0.82874675505E+03  0.19909894530E+04  0.21593253709E+04  0.25500000920E-02 0. -1.
       -2    1    3    3    0  502  0.10874682199E+03 -0.82874675505E+03 -0.34684757363E+03  0.90495872538E+03  0.25500000920E-02 0.  1.
</event>
<event>
 5   0  0.1501947E-05  0.2494476E+04  0.7818609E-02  0.8404956E-01
       -2   -1    0    0    0  501  0.00000000000E+00  0.00000000000E+00  0.12731206907E+04  0.12731206907E+04  0.25500000920E-02 0.  1.
        2   -1    0    0  501    0  0.00000000000E+00  0.00000000000E+00 -0.12218819065E+04  0.12218819065E+04  0.25500000920E-02 0. -1.
    10030    2    1    2    0    0  0.00000000000E+00  0.00000000000E+00  0.51238784194E+02  0.24950025972E+04  0.24944764074E+04 0.  0.
        3    1    3    3  502    0 -0.44042239145E+03 -0.34798751180E+03 -0.10884090423E+04  0.12246229807E+04  0.10100000352E+00 0. -1.
       -3    1    3    3    0  502  0.44042239145E+03  0.34798751180E+03  0.11396478265E+04  0.12703796165E+04  0.10100000352E+00 0.  1.
</event>
<event>
 5   0  0.5164625E-06  0.2507144E+04  0.7818609E-02  0.8400445E-01
        3   -1    0    0  501    0  0.00000000000E+00  0.00000000000E+00  0.12584149848E+04  0.12584149889E+04  0.10100000352E+00 0.  1.
       -3   -1    0    0    0  501  0.00000000000E+00  0.00000000000E+00 -0.12487480109E+04  0.12487480150E+04  0.10100000352E+00 0. -1.
    10030    2    1    2    0    0  0.00000000000E+00  0.00000000000E+00  0.96669739331E+01  0.25071630039E+04  0.25071443671E+04 0.  0.
        4    1    3    3  502    0  0.60819360644E+03  0.10149373340E+04 -0.40922798261E+03  0.12519849877E+04  0.12699999809E+01 0. -1.
       -4    1    3    3    0  502 -0.60819360644E+03 -0.10149373340E+04  0.41889495654E+03  0.12551780162E+04  0.12699999809E+01 0.  1.
</event>
<event>
 5   0  0.6477703E-06  0.2481954E+04  0.7818609E-02  0.8409443E-01
       -1   -1    0    0    0  501  0.00000000000E+00  0.00000000000E+00  0.86811233844E+03  0.86811233845E+03  0.50400001928E-02 0. -1.
        1   -1    0    0  501    0  0.00000000000E+00  0.00000000000E+00 -0.17739916213E+04  0.17739916213E+04  0.50400001928E-02 0.  1.
    10030    2    1    2    0    0  0.00000000000E+00  0.00000000000E+00 -0.90587928290E+03  0.26421039598E+04  0.24819540808E+04 0.  0.
        5    1    3    3  502    0 -0.37139661486E+03 -0.58819952590E+03 -0.15469115544E+04  0.16961343033E+04  0.46999998093E+01 0.  1.
       -5    1    3    3    0  502  0.37139661486E+03  0.58819952590E+03  0.64103227152E+03  0.94596965645E+03  0.46999998093E+01 0. -1.
</event>
<event>
 5   0  0.1572732E-05  0.2496667E+04  0.7818609E-02  0.8404174E-01
       -2   -1    0    0    0  501  0.00000000000E+00  0.00000000000E+00  0.15799675108E+04  0.15799675108E+04  0.25500000920E-02 0.  1.
        2   -1    0    0  501    0  0.00000000000E+00  0.00000000000E+00 -0.98630947052E+03  0.98630947052E+03  0.25500000920E-02 0. -1.
    10030    2    1    2    0    0  0.00000000000E+00  0.00000000000E+00  0.59365804024E+03  0.25662769813E+04  0.24966673138E+04 0.  0.
        1    1    3    3  502    0 -0.27675147030E+03 -0.62188566558E+03 -0.77877064532E+03  0.10343195229E+04  0.50400001928E-02 0. -1.
       -1    1    3    3    0  502  0.27675147030E+03  0.62188566558E+03  0.13724286856E+04  0.15319574584E+04  0.50400001928E-02 0.  1.
</event>
<event>
 5   0  0.6346420E-06  0.2499152E+04  0.7818609E-02  0.8403288E-01
       -1   -1    0    0    0  501  0.00000000000E+00  0.00000000000E+00  0.13947046857E+04  0.13947046857E+04  0.50400001928E-02 0. -1.
        1   -1    0    0  501    0  0.00000000000E+00  0.00000000000E+00 -0.11195488675E+04  0.11195488675E+04  0.50400001928E-02 0.  1.
    10030    2    1    2    0    0  0.00000000000E+00  0.00000000000E+00  0.27515581816E+03  0.25142535532E+04  0.24991518972E+04 0.  0.
        4    1    3    3  502    0  0.10226180217E+03  0.10679518539E+04 -0.50696485024E+03  0.11865890657E+04  0.12699999809E+01 0.  1.
       -4    1    3    3    0  502 -0.10226180217E+03 -0.10679518539E+04  0.78212066840E+03  0.13276644875E+04  0.12699999809E+01 0. -1.
</event>
<event>
 5   0  0.6104486E-06  0.2498402E+04  0.7818609E-02  0.8403555E-01
       -1   -1    0    0    0  501  0.00000000000E+00  0.00000000000E+00  0.17239558662E+04  0.17239558662E+04  0.50400001928E-02 0.  1.
        1   -1    0    0  501    0  0.00000000000E+00  0.00000000000E+00 -0.90518769176E+03  0.90518769178E+03  0.50400001928E-02 0. -1.
    10030    2    1    2    0    0  0.00000000000E+00  0.00000000000E+00  0.81876817446E+03  0.26291435580E+04  0.24984023946E+04 0.  0.
        2    1    3    3  502    0  0.15357998365E+03  0.77483116134E+03 -0.60901548090E+03  0.99742167408E+03  0.25500000920E-02 0. -1.
       -2    1    3    3    0  502 -0.15357998365E+03 -0.77483116134E+03  0.14277836554E+04  0.16317218839E+04  0.25500000920E-02 0.  1.
</event>
<event>
 5   0  0.1468512E-05  0.2510422E+04  0.7818609E-02  0.8399282E-01
       -2   -1    0    0    0  501  0.00000000000E+00  0.00000000000E+00  0.15046047271E+04  0.15046047271E+04  0.25500000920E-02 0.  1.
        2   -1    0    0  501    0  0.00000000000E+00  0.00000000000E+00 -0.10471552525E+04  0.10471552525E+04  0.25500000920E-02 0. -1.
    10030    2    1    2    0    0  0.00000000000E+00  0.00000000000E+00  0.45744947466E+03  0.25517599796E+04  0.25104220704E+04 0.  0.
        4    1    3    3  502    0 -0.68813601593E+03  0.66885073937E+03 -0.59370952311E+03  0.11284436622E+04  0.12699999809E+01 0. -1.
       -4    1    3    3    0  502  0.68813601593E+03 -0.66885073937E+03  0.10511589978E+04  0.14233163174E+04  0.12699999809E+01 0.  1.
</event>
<event>
 5   0  0.1526824E-05  0.2494180E+04  0.7818609E-02  0.8405062E-01
       -2   -1    0    0    0  501  0.00000000000E+00  0.00000000000E+00  0.77297220421E+03  0.77297220422E+03  0.25500000920E-02 0.  1.
        2   -1    0    0  501    0  0.00000000000E+00  0.00000000000E+00 -0.20120173438E+04  0.20120173438E+04  0.25500000920E-02 0. -1.
    10030    2    1    2    0    0  0.00000000000E+00  0.00000000000E+00 -0.12390451396E+04  0.27849895481E+04  0.24941800105E+04 0.  0.
        2    1    3    3  502    0 -0.27152722783E+02 -0.12467880303E+04 -0.61508160318E+03  0.13905189827E+04  0.25500000920E-02 0.  1.
       -2    1    3    3    0  502  0.27152722783E+02  0.12467880303E+04 -0.62396353645E+03  0.13944705653E+04  0.25500000920E-02 0. -1.
</event>
<event>
 5   0  0.1501947E-05  0.2507266E+04  0.7818609E-02  0.8400402E-01
       -2   -1    0    0    0  501  0.00000000000E+00  0.00000000000E+00  0.25254179832E+04  0.25254179832E+04  0.25500000920E-02 0.  1.
        2   -1    0    0  501    0  0.00000000000E+00  0.00000000000E+00 -0.62231095244E+03  0.62231095244E+03  0.25500000920E-02 0. -1.
    10030    2    1    2    0    0  0.00000000000E+00  0.00000000000E+00  0.19031070308E+04  0.31477289357E+04  0.25072656584E+04 0.  0.
        3    1    3    3  502    0  0.10167690047E+03  0.38102262588E+03  0.24455194291E+04  0.24771115683E+04  0.10100000352E+00 0.  1.
       -3    1    3    3    0  502 -0.10167690047E+03 -0.38102262588E+03 -0.54241239825E+03  0.67061736743E+03  0.10100000352E+00 0. -1.
</event>
<event>
 5   0  0.6104486E-06  0.2515362E+04  0.7818609E-02  0.8397533E-01
       -1   -1    0    0    0  501  0.00000000000E+00  0.00000000000E+00  0.13236384560E+04  0.13236384560E+04  0.50400001928E-02 0. -1.
        1   -1    0    0  501    0  0.00000000000E+00  0.00000000000E+00 -0.11950106162E+04  0.11950106162E+04  0.50400001928E-02 0.  1.
    10030    2    1    2    0    0  0.00000000000E+00  0.00000000000E+00  0.12862783984E+03  0.25186490722E+04  0.25153624049E+04 0.  0.
        2    1    3    3  502    0 -0.31721081407E+03  0.57957420730E+03 -0.10072400028E+04  0.12046000936E+04  0.25500000920E-02 0.  1.
       -2    1    3    3    0  502  0.31721081407E+03 -0.57957420730E+03  0.11358678426E+04  0.13140489786E+04  0.25500000920E-02 0. -1.
</event>
<event>
 5   0  0.1468512E-05  0.2499590E+04  0.7818609E-02  0.8403132E-01
       -2   -1    0    0    0  501  0.00000000000E+00  0.00000000000E+00  0.88098440008E+03  0.88098440008E+03  0.25500000920E-02 0.  1.
        2   -1    0    0  501    0  0.00000000000E+00  0.00000000000E+00 -0.17730028411E+04  0.17730028411E+04  0.25500000920E-02 0. -1.
    10030    2    1    2    0    0  0.00000000000E+00  0.00000000000E+00 -0.89201844105E+03  0.26539872412E+04  0.24995902419E+04 0.  0.
        4    1    3    3  502    0 -0.10463885712E+04 -0.67856644303E+03 -0.35971952727E+03  0.12979912213E+04  0.12699999809E+01 0.  1.
       -4    1    3    3    0  502  0.10463885712E+04  0.67856644303E+03 -0.53229891378E+03  0.13559960199E+04  0.12699999809E+01 0. -1.
</event>
<event>
 5   0  0.1501947E-05  0.2499710E+04  0.7818609E-02  0.8403089E-01
        2   -1    0    0  501    0  0.00000000000E+00  0.00000000000E+00  0.10263076703E+04  0.10263076703E+04  0.25500000920E-02 0.  1.
       -2   -1    0    0    0  501  0.00000000000E+00  0.00000000000E+00 -0.15220943868E+04  0.15220943868E+04  0.25500000920E-02 0. -1.
    10030    2    1    2    0    0  0.00000000000E+00  0.00000000000E+00 -0.49578671641E+03  0.25484020571E+04  0.24997096984E+04 0.  0.
        3    1    3    3  502    0 -0.46193477801E+03 -0.84217081642E+03 -0.10631591635E+04  0.14328094222E+04  0.10100000352E+00 0. -1.
       -3    1    3    3    0  502  0.46193477801E+03  0.84217081642E+03  0.56737244709E+03  0.11155926349E+04  0.10100000352E+00 0.  1.
</event>
<event>
 5   0  0.6105353E-06  0.2489574E+04  0.7818609E-02  0.8406709E-01
        1   -1    0    0  501    0  0.00000000000E+00  0.00000000000E+00  0.12511652509E+04  0.12511652509E+04  0.50400001928E-02 0. -1.
       -1   -1    0    0    0  501  0.00000000000E+00  0.00000000000E+00 -0.12384416163E+04  0.12384416164E+04  0.50400001928E-02 0.  1.
    10030    2    1    2    0    0  0.00000000000E+00  0.00000000000E+00  0.12723634592E+02  0.24896068673E+04  0.24895743537E+04 0.  0.
        3    1    3    3  502    0  0.31131554962E+03  0.30713336802E+03 -0.11590918736E+04  0.12388471491E+04  0.10100000352E+00 0.  1.
       -3    1    3    3    0  502 -0.31131554962E+03 -0.30713336802E+03  0.11718155082E+04  0.12507597182E+04  0.10100000352E+00 0. -1.
</event>
<event>
 5   0  0.1501947E-05  0.2468803E+04  0.7818609E-02  0.8414185E-01
        2   -1    0    0  501    0  0.00000000000E+00  0.00000000000E+00  0.23446412521E+04  0.23446412521E+04  0.25500000920E-02 0. -1.
       -2   -1    0    0    0  501  0.00000000000E+00  0.00000000000E+00 -0.64988490582E+03  0.64988490583E+03  0.25500000920E-02 0.  1.
    10030    2    1    2    0    0  0.00000000000E+00  0.00000000000E+00  0.16947563463E+04  0.29945261580E+04  0.24688029159E+04 0.  0.
        3    1    3    3  502    0  0.27094928897E+03  0.11843957728E+04  0.11118452822E+04  0.16469386162E+04  0.10100000352E+00 0.  1.
       -3    1    3    3    0  502 -0.27094928897E+03 -0.11843957728E+04  0.58291106409E+03  0.13475875417E+04  0.10100000352E+00 0. -1.
</event>
<event>
 5   0  0.6104486E-06  0.2465999E+04  0.7818609E-02  0.8415200E-01
        1   -1    0    0  501    0  0.00000000000E+00  0.00000000000E+00  0.18088504261E+04  0.18088504261E+04  0.50400001928E-02 0. -1.
       -1   -1    0    0    0  501  0.00000000000E+00  0.00000000000E+00 -0.84047179215E+03  0.84047179217E+03  0.50400001928E-02 0.  1.
    10030    2    1    2    0    0  0.00000000000E+00  0.00000000000E+00  0.96837863390E+03  0.26493222182E+04  0.24659989938E+04 0.  0.
        2    1    3    3  502    0 -0.10778975049E+04 -0.59575690480E+03  0.54773397158E+03  0.13478879123E+04  0.25500000920E-02 0.  1.
       -2    1    3    3    0  502  0.10778975049E+04  0.59575690480E+03  0.42064466232E+03  0.13014343059E+04  0.25500000920E-02 0. -1.
</event>
<event>
 5   0  0.6290861E-06  0.2332324E+04  0.7818609E-02  0.8465284E-01
       -1   -1    0    0    0  501  0.00000000000E+00  0.00000000000E+00  0.77686773021E+03  0.77686773022E+03  0.50400001928E-02 0.  1.
        1   -1    0    0  501    0  0.00000000000E+00  0.00000000000E+00 -0.17505341081E+04  0.17505341081E+04  0.50400001928E-02 0. -1.
    10030    2    1    2    0    0  0.00000000000E+00  0.00000000000E+00 -0.97366637787E+03  0.25274018383E+04  0.23323236990E+04 0.  0.
        1    1    3    3  502    0  0.11232783275E+04 -0.69819879653E+02 -0.15582660434E+03  0.11361826206E+04  0.50400001928E-02 0. -1.
       -1    1    3    3    0  502 -0.11232783275E+04  0.69819879653E+02 -0.81783977353E+03  0.13912192177E+04  0.50400001928E-02 0.  1.
</event>
<event>
 5   0  0.1468512E-05  0.2494583E+04  0.7818609E-02  0.8404918E-01
       -2   -1    0    0    0  501  0.00000000000E+00  0.00000000000E+00  0.97214336871E+03  0.97214336871E+03  0.25500000920E-02 0. -1.
        2   -1    0    0  501    0  0.00000000000E+00  0.00000000000E+00 -0.16003153790E+04  0.16003153790E+04  0.25500000920E-02 0.  1.
    10030    2    1    2    0    0  0.00000000000E+00  0.00000000000E+00 -0.62817201030E+03  0.25724587477E+04  0.24945829179E+04 0.  0.
        4    1    3    3  502    0  0.35930088346E+03 -0.10723086067E+04  0.22844785467E+03  0.11537473328E+04  0.12699999809E+01 0. -1.
       -4    1    3    3    0  502 -0.35930088346E+03  0.10723086067E+04 -0.85661986496E+03  0.14187114149E+04  0.12699999809E+01 0.  1.
</event>
<event>
 5   0  0.1468512E-05  0.2456707E+04  0.7818609E-02  0.8418573E-01
        2   -1    0    0  501    0  0.00000000000E+00  0.00000000000E+00  0.18414347311E+04  0.18414347311E+04  0.25500000920E-02 0.  1.
       -2   -1    0    0    0  501  0.00000000000E+00  0.00000000000E+00 -0.81938957273E+03  0.81938957273E+03  0.25500000920E-02 0. -1.
    10030    2    1    2    0    0  0.00000000000E+00  0.00000000000E+00  0.10220451584E+04  0.26608243039E+04  0.24567070786E+04 0.  0.
        4    1    3    3  502    0  0.11348265946E+04  0.35695669040E+03  0.17965972503E+03  0.12031328722E+04  0.12699999809E+01 0. -1.
       -4    1    3    3    0  502 -0.11348265946E+04 -0.35695669040E+03  0.84238543336E+03  0.14576914316E+04  0.12699999809E+01 0.  1.
</event>
<event>
 5   0  0.1468512E-05  0.2388206E+04  0.7818609E-02  0.8443932E-01
        2   -1    0    0  501    0  0.00000000000E+00  0.00000000000E+00  0.15844500055E+04  0.15844500055E+04  0.25500000920E-02 0. -1.
       -2   -1    0    0    0  501  0.00000000000E+00  0.00000000000E+00 -0.89992249417E+03  0.89992249418E+03  0.25500000920E-02 0.  1.
    10030    2    1    2    0    0  0.00000000000E+00  0.00000000000E+00  0.68452751129E+03  0.24843724996E+04  0.23882061894E+04 0.  0.
        4    1    3    3  502    0 -0.34139372025E+03 -0.51314650337E+03  0.14061939646E+04  0.15353345189E+04  0.12699999809E+01 0. -1.
       -4    1    3    3    0  502  0.34139372025E+03  0.51314650337E+03 -0.72166645328E+03  0.94903798071E+03  0.12699999809E+01 0.  1.
</event>
<event>
 5   0  0.6290861E-06  0.2443055E+04  0.7818609E-02  0.8423558E-01
        1   -1    0    0  501    0  0.00000000000E+00  0.00000000000E+00  0.14289707519E+04  0.14289707519E+04  0.50400001928E-02 0. -1.
       -1   -1    0    0    0  501  0.00000000000E+00  0.00000000000E+00 -0.10441985359E+04  0.10441985359E+04  0.50400001928E-02 0.  1.
    10030    2    1    2    0    0  0.00000000000E+00  0.00000000000E+00  0.38477221606E+03  0.24731692878E+04  0.24430547820E+04 0.  0.
        1    1    3    3  502    0  0.62933484548E+03  0.97641891243E+03  0.57476281104E+03  0.12960742761E+04  0.50400001928E-02 0. -1.
       -1    1    3    3    0  502 -0.62933484548E+03 -0.97641891243E+03 -0.18999059498E+03  0.11770950117E+04  0.50400001928E-02 0.  1.
</event>
<event>
 5   0  0.1501947E-05  0.2502114E+04  0.7818609E-02  0.8402233E-01
       -2   -1    0    0    0  501  0.00000000000E+00  0.00000000000E+00  0.98471732638E+03  0.98471732638E+03  0.25500000920E-02 0. -1.
        2   -1    0    0  501    0  0.00000000000E+00  0.00000000000E+00 -0.15894342098E+04  0.15894342098E+04  0.25500000920E-02 0.  1.
    10030    2    1    2    0    0  0.00000000000E+00  0.00000000000E+00 -0.60471688343E+03  0.25741515362E+04  0.25021138308E+04 0.  0.
        3    1    3    3  502    0 -0.69870143763E+03  0.54437911964E+03  0.60660077786E+03  0.10735440553E+04  0.10100000352E+00 0. -1.
       -3    1    3    3    0  502  0.69870143763E+03 -0.54437911964E+03 -0.12113176613E+04  0.15006074809E+04  0.10100000352E+00 0.  1.
</event>
<event>
 5   0  0.1572732E-05  0.2514685E+04  0.7818609E-02  0.8397773E-01
       -2   -1    0    0    0  501  0.00000000000E+00  0.00000000000E+00  0.10498062128E+04  0.10498062128E+04  0.25500000920E-02 0. -1.
        2   -1    0    0  501    0  0.00000000000E+00  0.00000000000E+00 -0.15059060871E+04  0.15059060871E+04  0.25500000920E-02 0.  1.
    10030    2    1    2    0    0  0.00000000000E+00  0.00000000000E+00 -0.45609987431E+03  0.25557123000E+04  0.25146845259E+04 0.  0.
        1    1    3    3  502    0  0.26521244948E+03  0.98981960838E+03 -0.96851709541E+03  0.14100020796E+04  0.50400001928E-02 0.  1.
       -1    1    3    3    0  502 -0.26521244948E+03 -0.98981960838E+03  0.51241722110E+03  0.11457102203E+04  0.50400001928E-02 0. -1.
</event>
<event>
 5   0  0.6104486E-06  0.2489600E+04  0.7818609E-02  0.8406700E-01
        1   -1    0    0  501    0  0.00000000000E+00  0.00000000000E+00  0.12049904586E+04  0.12049904586E+04  0.50400001928E-02 0. -1.
       -1   -1    0    0    0  501  0.00000000000E+00  0.00000000000E+00 -0.12859244363E+04  0.12859244364E+04  0.50400001928E-02 0.  1.
    10030    2    1    2    0    0  0.00000000000E+00  0.00000000000E+00 -0.80933977755E+02  0.24909148950E+04  0.24895997078E+04 0.  0.
        2    1    3    3  502    0 -0.11192482519E+04  0.33991081938E+03  0.38551685234E+03  0.12316165223E+04  0.25500000920E-02 0.  1.
       -2    1    3    3    0  502  0.11192482519E+04 -0.33991081938E+03 -0.46645083010E+03  0.12592983727E+04  0.25500000920E-02 0. -1.
</event>
<event>
 5   0  0.6290861E-06  0.2529153E+04  0.7818609E-02  0.8392673E-01
       -1   -1    0    0    0  501  0.00000000000E+00  0.00000000000E+00  0.59689206285E+03  0.59689206287E+03  0.50400001928E-02 0.  1.
        1   -1    0    0  501    0  0.00000000000E+00  0.00000000000E+00 -0.26791333632E+04  0.26791333632E+04  0.50400001928E-02 0. -1.
    10030    2    1    2    0    0  0.00000000000E+00  0.00000000000E+00 -0.20822413004E+04  0.32760254261E+04  0.25291527750E+04 0.  0.
        1    1    3    3  502    0  0.50125511083E+03  0.11597428773E+04 -0.97144799596E+03  0.15937287838E+04  0.50400001928E-02 0. -1.
       -1    1    3    3    0  502 -0.50125511083E+03 -0.11597428773E+04 -0.11107933044E+04  0.16822966423E+04  0.50400001928E-02 0.  1.
</event>
<event>
 5   0  0.6104486E-06  0.2479584E+04  0.7818609E-02  0.8410295E-01
       -1   -1    0    0    0  501  0.00000000000E+00  0.00000000000E+00  0.10780434785E+04  0.10780434785E+04  0.50400001928E-02 0. -1.
        1   -1    0    0  501    0  0.00000000000E+00  0.00000000000E+00 -0.14258091994E+04  0.14258091994E+04  0.50400001928E-02 0.  1.
    10030    2    1    2    0    0  0.00000000000E+00  0.00000000000E+00 -0.34776572088E+03  0.25038526780E+04  0.24795840853E+04 0.  0.
        2    1    3    3  502    0  0.97021747779E+03  0.71538036332E+03 -0.46653535475E+03  0.12925735011E+04  0.25500000920E-02 0.  1.
       -2    1    3    3    0  502 -0.97021747779E+03 -0.71538036332E+03  0.11876963387E+03  0.12112791769E+04  0.25500000920E-02 0. -1.
</event>
<event>
 5   0  0.1501947E-05  0.2516262E+04  0.7818609E-02  0.8397215E-01
       -2   -1    0    0    0  501  0.00000000000E+00  0.00000000000E+00  0.93313942293E+03  0.93313942294E+03  0.25500000920E-02 0.  1.
        2   -1    0    0  501    0  0.00000000000E+00  0.00000000000E+00 -0.16963103807E+04  0.16963103807E+04  0.25500000920E-02 0. -1.
    10030    2    1    2    0    0  0.00000000000E+00  0.00000000000E+00 -0.76317095776E+03  0.26294498036E+04  0.25162623788E+04 0.  0.
        3    1    3    3  502    0  0.97934160207E+03 -0.99555502794E+02 -0.12003295314E+04  0.15523570034E+04  0.10100000352E+00 0. -1.
       -3    1    3    3    0  502 -0.97934160207E+03  0.99555502794E+02  0.43715857366E+03  0.10770928003E+04  0.10100000352E+00 0.  1.
</event>
<event>
 5   0  0.6104486E-06  0.2480979E+04  0.7818609E-02  0.8409793E-01
        1   -1    0    0  501    0  0.00000000000E+00  0.00000000000E+00  0.14147336611E+04  0.14147336611E+04  0.50400001928E-02 0. -1.
       -1   -1    0    0    0  501  0.00000000000E+00  0.00000000000E+00 -0.10877056744E+04  0.10877056744E+04  0.50400001928E-02 0.  1.
    10030    2    1    2    0    0  0.00000000000E+00  0.00000000000E+00  0.32702798670E+03  0.25024393355E+04  0.24809787028E+04 0.  0.
        2    1    3    3  502    0  0.14047155154E+03 -0.10838083565E+04 -0.42845363152E+03  0.11738591588E+04  0.25500000920E-02 0.  1.
       -2    1    3    3    0  502 -0.14047155154E+03  0.10838083565E+04  0.75548161823E+03  0.13285801767E+04  0.25500000920E-02 0. -1.
</event>
<event>
 5   0  0.1468512E-05  0.2465061E+04  0.7818609E-02  0.8415540E-01
       -2   -1    0    0    0  501  0.00000000000E+00  0.00000000000E+00  0.10541376674E+04  0.10541376674E+04  0.25500000920E-02 0.  1.
        2   -1    0    0  501    0  0.00000000000E+00  0.00000000000E+00 -0.14411127395E+04  0.14411127395E+04  0.25500000920E-02 0. -1.
    10030    2    1    2    0    0  0.00000000000E+00  0.00000000000E+00 -0.38697507209E+03  0.24952504069E+04  0.24650608282E+04 0.  0.
        4    1    3    3  502    0  0.14117974487E+03 -0.87228549186E+03  0.67628884063E+03  0.11127362259E+04  0.12699999809E+01 0.  1.
       -4    1    3    3    0  502 -0.14117974487E+03  0.87228549186E+03 -0.10632639127E+04  0.13825141810E+04  0.12699999809E+01 0. -1.
</event>
<event>
 5   0  0.6105353E-06  0.2503455E+04  0.7818609E-02  0.8401756E-01
       -1   -1    0    0    0  501  0.00000000000E+00  0.00000000000E+00  0.14670332613E+04  0.14670332613E+04  0.50400001928E-02 0.  1.
        1   -1    0    0  501    0  0.00000000000E+00  0.00000000000E+00 -0.10680206948E+04  0.10680206948E+04  0.50400001928E-02 0. -1.
    10030    2    1    2    0    0  0.00000000000E+00  0.00000000000E+00  0.39901256647E+03  0.25350539561E+04  0.25034551189E+04 0.  0.
        3    1    3    3  502    0 -0.10910071586E+03 -0.98529875431E+02 -0.10592488675E+04  0.10694013634E+04  0.10100000352E+00 0. -1.
       -3    1    3    3    0  502  0.10910071586E+03  0.98529875431E+02  0.14582614340E+04  0.14656525927E+04  0.10100000352E+00 0.  1.
</event>
<event>
 5   0  0.6290861E-06  0.2496012E+04  0.7818609E-02  0.8404408E-01
        1   -1    0    0  501    0  0.00000000000E+00  0.00000000000E+00  0.26187132147E+04  0.26187132147E+04  0.50400001928E-02 0.  1.
       -1   -1    0    0    0  501  0.00000000000E+00  0.00000000000E+00 -0.59476487727E+03  0.59476487729E+03  0.50400001928E-02 0. -1.
    10030    2    1    2    0    0  0.00000000000E+00  0.00000000000E+00  0.20239483374E+04  0.32134780920E+04  0.24960117338E+04 0.  0.
        1    1    3    3  502    0  0.58938024796E+03 -0.15064858822E+03 -0.39095977304E+03  0.72312766368E+03  0.50400001928E-02 0. -1.
       -1    1    3    3    0  502 -0.58938024796E+03  0.15064858822E+03  0.24149081104E+04  0.24903504283E+04  0.50400001928E-02 0.  1.
</event>
<event>
 5   0  0.1468512E-05  0.2496698E+04  0.7818609E-02  0.8404163E-01
        2   -1    0    0  501    0  0.00000000000E+00  0.00000000000E+00  0.11037685469E+04  0.11037685469E+04  0.25500000920E-02 0.  1.
       -2   -1    0    0    0  501  0.00000000000E+00  0.00000000000E+00 -0.14118678476E+04  0.14118678476E+04  0.25500000920E-02 0. -1.
    10030    2    1    2    0    0  0.00000000000E+00  0.00000000000E+00 -0.30809930073E+03  0.25156363945E+04  0.24966980775E+04 0.  0.
        4    1    3    3  502    0  0.11181659973E+04  0.50944636551E+03  0.67946149853E+02  0.12306295499E+04  0.12699999809E+01 0.  1.
       -4    1    3    3    0  502 -0.11181659973E+04 -0.50944636551E+03 -0.37604545058E+03  0.12850068446E+04  0.12699999809E+01 0. -1.
</event>
<event>
 5   0  0.1550483E-05  0.2491006E+04  0.7818609E-02  0.8406197E-01
       -2   -1    0    0    0  501  0.00000000000E+00  0.00000000000E+00  0.10476164851E+04  0.10476164851E+04  0.25500000920E-02 0.  1.
        2   -1    0    0  501    0  0.00000000000E+00  0.00000000000E+00 -0.14807684110E+04  0.14807684110E+04  0.25500000920E-02 0. -1.
    10030    2    1    2    0    0  0.00000000000E+00  0.00000000000E+00 -0.43315192591E+03  0.25283848962E+04  0.24910057391E+04 0.  0.
        5    1    3    3  502    0 -0.75710822188E+03 -0.90132833638E+03  0.19653218208E+03  0.11934205538E+04  0.46999998093E+01 0. -1.
       -5    1    3    3    0  502  0.75710822188E+03  0.90132833638E+03 -0.62968410799E+03  0.13349643424E+04  0.46999998093E+01 0.  1.
</event>
<event>
 5   0  0.6104486E-06  0.2599875E+04  0.7818609E-02  0.8368244E-01
       -1   -1    0    0    0  501  0.00000000000E+00  0.00000000000E+00  0.10911357049E+04  0.10911357049E+04  0.50400001928E-02 0. -1.
        1   -1    0    0  501    0  0.00000000000E+00  0.00000000000E+00 -0.15486956904E+04  0.15486956905E+04  0.50400001928E-02 0.  1.
    10030    2    1    2    0    0  0.00000000000E+00  0.00000000000E+00 -0.45755998558E+03  0.26398313953E+04  0.25998747384E+04 0.  0.
        2    1    3    3  502    0 -0.63485702280E+03 -0.46533479318E+03  0.82165179452E+03  0.11378451479E+04  0.25500000920E-02 0. -1.
       -2    1    3    3    0  502  0.63485702280E+03  0.46533479318E+03 -0.12792117801E+04  0.15019862474E+04  0.25500000920E-02 0.  1.
</event>
<event>
 5   0  0.6104486E-06  0.2667948E+04  0.7818609E-02  0.8345480E-01
        1   -1    0    0  501    0  0.00000000000E+00  0.00000000000E+00  0.16100297966E+04  0.16100297966E+04  0.50400001928E-02 0.  1.
       -1   -1    0    0    0  501  0.00000000000E+00  0.00000000000E+00 -0.11052505645E+04  0.11052505645E+04  0.50400001928E-02 0. -1.
    10030    2    1    2    0    0  0.00000000000E+00  0.00000000000E+00  0.50477923208E+03  0.27152803612E+04  0.26679477818E+04 0.  0.
        2    1    3    3  502    0 -0.87987454283E+03  0.10022724943E+04  0.22438827062E+03  0.13524346416E+04  0.25500000920E-02 0.  1.
       -2    1    3    3    0  502  0.87987454283E+03 -0.10022724943E+04  0.28039096146E+03  0.13628457195E+04  0.25500000920E-02 0. -1.
</event>
<event>
 5   0  0.6290861E-06  0.2468038E+04  0.7818609E-02  0.8414461E-01
        1   -1    0    0  501    0  0.00000000000E+00  0.00000000000E+00  0.16973508442E+04  0.16973508442E+04  0.50400001928E-02 0.  1.
       -1   -1    0    0    0  501  0.00000000000E+00  0.00000000000E+00 -0.89716462748E+03  0.89716462750E+03  0.50400001928E-02 0. -1.
    10030    2    1    2    0    0  0.00000000000E+00  0.00000000000E+00  0.80018621676E+03  0.25945154717E+04  0.24680381990E+04 0.  0.
        1    1    3    3  502    0  0.29469612766E+03 -0.96179017927E+03 -0.35132136575E+03  0.10655106094E+04  0.50400001928E-02 0. -1.
       -1    1    3    3    0  502 -0.29469612766E+03  0.96179017927E+03  0.11515075825E+04  0.15290048624E+04  0.50400001928E-02 0.  1.
</event>
<event>
 5   0  0.6477703E-06  0.2489515E+04  0.7818609E-02  0.8406730E-01
       -1   -1    0    0    0  501  0.00000000000E+00  0.00000000000E+00  0.70711295082E+03  0.70711295084E+03  0.50400001928E-02 0. -1.
        1   -1    0    0  501    0  0.00000000000E+00  0.00000000000E+00 -0.21911931647E+04  0.21911931647E+04  0.50400001928E-02 0.  1.
    10030    2    1    2    0    0  0.00000000000E+00  0.00000000000E+00 -0.14840802139E+04  0.28983061155E+04  0.24895148640E+04 0.  0.
        5    1    3    3  502    0  0.82007014823E+03  0.93433841987E+03 -0.81470408042E+03  0.14863607098E+04  0.46999998093E+01 0. -1.
       -5    1    3    3    0  502 -0.82007014823E+03 -0.93433841987E+03 -0.66937613343E+03  0.14119454058E+04  0.46999998093E+01 0.  1.
</event>
<event>
 5   0  0.6105353E-06  0.2324437E+04  0.7818609E-02  0.8468348E-01
        1   -1    0    0  501    0  0.00000000000E+00  0.00000000000E+00  0.22124280999E+04  0.22124280999E+04  0.50400001928E-02 0. -1.
       -1   -1    0    0    0  501  0.00000000000E+00  0.00000000000E+00 -0.61052914630E+03  0.61052914632E+03  0.50400001928E-02 0.  1.
    10030    2    1    2    0    0  0.00000000000E+00  0.00000000000E+00  0.16018989536E+04  0.28229572462E+04  0.23244369977E+04 0.  0.
        3    1    3    3  502    0 -0.33943632764E+03 -0.28624467583E+03 -0.50345991786E+03  0.67128602999E+03  0.10100000352E+00 0.  1.
       -3    1    3    3    0  502  0.33943632764E+03  0.28624467583E+03  0.21053588714E+04  0.21516712162E+04  0.10100000352E+00 0. -1.
</event>
<event>
 5   0  0.1572732E-05  0.2497296E+04  0.7818609E-02  0.8403949E-01
       -2   -1    0    0    0  501  0.00000000000E+00  0.00000000000E+00  0.75427242242E+03  0.75427242242E+03  0.25500000920E-02 0.  1.
        2   -1    0    0  501    0  0.00000000000E+00  0.00000000000E+00 -0.20670543947E+04  0.20670543947E+04  0.25500000920E-02 0. -1.
    10030    2    1    2    0    0  0.00000000000E+00  0.00000000000E+00 -0.13127819723E+04  0.28213268172E+04  0.24972962384E+04 0.  0.
        1    1    3    3  502    0  0.58892906448E+03 -0.10631339377E+04 -0.97996386058E+03  0.15612240007E+04  0.50400001928E-02 0.  1.
       -1    1    3    3    0  502 -0.58892906448E+03  0.10631339377E+04 -0.33281811174E+03  0.12601028164E+04  0.50400001928E-02 0. -1.
</event>
<event>
 5   0  0.6477703E-06  0.2507060E+04  0.7818609E-02  0.8400475E-01
       -1   -1    0    0    0  501  0.00000000000E+00  0.00000000000E+00  0.10881351785E+04  0.10881351785E+04  0.50400001928E-02 0.  1.
        1   -1    0    0  501    0  0.00000000000E+00  0.00000000000E+00 -0.14440646492E+04  0.14440646492E+04  0.50400001928E-02 0. -1.
    10030    2    1    2    0    0  0.00000000000E+00  0.00000000000E+00 -0.35592947072E+03  0.25321998277E+04  0.25070600669E+04 0.  0.
        5    1    3    3  502    0 -0.88020886356E+03  0.91131898205E+01 -0.10793625862E+04  0.13928016285E+04  0.46999998093E+01 0.  1.
       -5    1    3    3    0  502  0.88020886356E+03 -0.91131898205E+01  0.72343311550E+03  0.11393981992E+04  0.46999998093E+01 0. -1.
</event>
<event>
 5   0  0.6290861E-06  0.2502012E+04  0.7818609E-02  0.8402269E-01
        1   -1    0    0  501    0  0.00000000000E+00  0.00000000000E+00  0.20660543449E+04  0.20660543449E+04  0.50400001928E-02 0. -1.
       -1   -1    0    0    0  501  0.00000000000E+00  0.00000000000E+00 -0.75749011396E+03  0.75749011397E+03  0.50400001928E-02 0.  1.
    10030    2    1    2    0    0  0.00000000000E+00  0.00000000000E+00  0.13085642309E+04  0.28235444589E+04  0.25020117835E+04 0.  0.
        1    1    3    3  502    0 -0.16643851817E+03  0.12259574365E+04  0.86341393903E+03  0.15086938214E+04  0.50400001928E-02 0.  1.
       -1    1    3    3    0  502  0.16643851817E+03 -0.12259574365E+04  0.44515029189E+03  0.13148506375E+04  0.50400001928E-02 0. -1.
</event>
<event>
 5   0  0.6105353E-06  0.2490990E+04  0.7818609E-02  0.8406203E-01
       -1   -1    0    0    0  501  0.00000000000E+00  0.00000000000E+00  0.12582901959E+04  0.12582901959E+04  0.50400001928E-02 0.  1.
        1   -1    0    0  501    0  0.00000000000E+00  0.00000000000E+00 -0.12328294377E+04  0.12328294377E+04  0.50400001928E-02 0. -1.
    10030    2    1    2    0    0  0.00000000000E+00  0.00000000000E+00  0.25460758245E+02  0.24911196336E+04  0.24909895180E+04 0.  0.
        3    1    3    3  502    0  0.16562835085E+03 -0.85197790926E+02 -0.12188231961E+04  0.12329725900E+04  0.10100000352E+00 0. -1.
       -3    1    3    3    0  502 -0.16562835085E+03  0.85197790926E+02  0.12442839543E+04  0.12581470436E+04  0.10100000352E+00 0.  1.
</event>
<event>
 5   0  0.6346420E-06  0.2575733E+04  0.7818609E-02  0.8376491E-01
        1   -1    0    0  501    0  0.00000000000E+00  0.00000000000E+00  0.10659546277E+04  0.10659546278E+04  0.50400001928E-02 0. -1.
       -1   -1    0    0    0  501  0.00000000000E+00  0.00000000000E+00 -0.15559764663E+04  0.15559764663E+04  0.50400001928E-02 0.  1.
    10030    2    1    2    0    0  0.00000000000E+00  0.00000000000E+00 -0.49002183852E+03  0.26219310940E+04  0.25757331499E+04 0.  0.
        4    1    3    3  502    0  0.87170159804E+03  0.71207958215E+03 -0.88207750454E+03  0.14300291411E+04  0.12699999809E+01 0.  1.
       -4    1    3    3    0  502 -0.87170159804E+03 -0.71207958215E+03  0.39205566602E+03  0.11919019530E+04  0.12699999809E+01 0. -1.
</event>
<event>
 5   0  0.6105353E-06  0.2494545E+04  0.7818609E-02  0.8404931E-01
       -1   -1    0    0    0  501  0.00000000000E+00  0.00000000000E+00  0.91223858848E+03  0.91223858850E+03  0.50400001928E-02 0.  1.
        1   -1    0    0  501    0  0.00000000000E+00  0.00000000000E+00 -0.17053531896E+04  0.17053531896E+04  0.50400001928E-02 0. -1.
    10030    2    1    2    0    0  0.00000000000E+00  0.00000000000E+00 -0.79311460111E+03  0.26175917781E+04  0.24945452384E+04 0.  0.
        3    1    3    3  502    0 -0.40169018792E+03 -0.11806557069E+04 -0.37593941268E+03  0.13025487927E+04  0.10100000352E+00 0. -1.
       -3    1    3    3    0  502  0.40169018792E+03  0.11806557069E+04 -0.41717518843E+03  0.13150429854E+04  0.10100000352E+00 0.  1.
</event>
<event>
 5   0  0.1572732E-05  0.2504861E+04  0.7818609E-02  0.8401256E-01
        2   -1    0    0  501    0  0.00000000000E+00  0.00000000000E+00  0.12004295690E+04  0.12004295690E+04  0.25500000920E-02 0.  1.
       -2   -1    0    0    0  501  0.00000000000E+00  0.00000000000E+00 -0.13066839946E+04  0.13066839946E+04  0.25500000920E-02 0. -1.
    10030    2    1    2    0    0  0.00000000000E+00  0.00000000000E+00 -0.10625442559E+03  0.25071135635E+04  0.25048609577E+04 0.  0.
        1    1    3    3  502    0 -0.11101706681E+04  0.29417422554E+03 -0.55314099546E+03  0.12747479548E+04  0.50400001928E-02 0. -1.
       -1    1    3    3    0  502  0.11101706681E+04 -0.29417422554E+03  0.44688656987E+03  0.12323656088E+04  0.50400001928E-02 0.  1.
</event>
<event>
 5   0  0.1501947E-05  0.2506603E+04  0.7818609E-02  0.8400637E-01
        2   -1    0    0  501    0  0.00000000000E+00  0.00000000000E+00  0.24776944786E+04  0.24776944786E+04  0.25500000920E-02 0. -1.
       -2   -1    0    0    0  501  0.00000000000E+00  0.00000000000E+00 -0.63396199393E+03  0.63396199393E+03  0.25500000920E-02 0.  1.
    10030    2    1    2    0    0  0.00000000000E+00  0.00000000000E+00  0.18437324847E+04  0.31116564725E+04  0.25066025868E+04 0.  0.
        3    1    3    3  502    0 -0.83936779195E+03  0.75609189091E+03  0.24813555905E+03  0.11566263457E+04  0.10100000352E+00 0.  1.
       -3    1    3    3    0  502  0.83936779195E+03 -0.75609189091E+03  0.15955969256E+04  0.19550301269E+04  0.10100000352E+00 0. -1.
</event>
<event>
 5   0  0.6105353E-06  0.2508301E+04  0.7818609E-02  0.8400034E-01
       -1   -1    0    0    0  501  0.00000000000E+00  0.00000000000E+00  0.12144284877E+04  0.12144284877E+04  0.50400001928E-02 0.  1.
        1   -1    0    0  501    0  0.00000000000E+00  0.00000000000E+00 -0.12951717765E+04  0.12951717765E+04  0.50400001928E-02 0. -1.
    10030    2    1    2    0    0  0.00000000000E+00  0.00000000000E+00 -0.80743288769E+02  0.25096002643E+04  0.25083010201E+04 0.  0.
        3    1    3    3  502    0 -0.31894274506E+03 -0.84113297781E+03  0.83395990478E+03  0.12266695945E+04  0.10100000352E+00 0.  1.
       -3    1    3    3    0  502  0.31894274506E+03  0.84113297781E+03 -0.91470319355E+03  0.12829306698E+04  0.10100000352E+00 0. -1.
</event>
<event>
 5   0  0.5164625E-06  0.2507512E+04  0.7818609E-02  0.8400314E-01
        4   -1    0    0  501    0  0.00000000000E+00  0.00000000000E+00  0.13837787875E+04  0.13837793703E+04  0.12699999809E+01 0.  1.
       -4   -1    0    0    0  501  0.00000000000E+00  0.00000000000E+00 -0.11359488761E+04  0.11359495860E+04  0.12699999809E+01 0. -1.
    10030    2    1    2    0    0  0.00000000000E+00  0.00000000000E+00  0.24782991141E+03  0.25197289563E+04  0.25075115848E+04 0.  0.
        1    1    3    3  502    0 -0.28074475010E+03 -0.11829013618E+04  0.43172481404E+03  0.12901393574E+04  0.50400001928E-02 0.  1.
       -1    1    3    3    0  502  0.28074475010E+03  0.11829013618E+04 -0.18389490263E+03  0.12295895989E+04  0.50400001928E-02 0. -1.
</event>
<event>
 5   0  0.6346420E-06  0.2521182E+04  0.7818609E-02  0.8395478E-01
       -1   -1    0    0    0  501  0.00000000000E+00  0.00000000000E+00  0.59104653811E+03  0.59104653813E+03  0.50400001928E-02 0. -1.
        1   -1    0    0  501    0  0.00000000000E+00  0.00000000000E+00 -0.26886038940E+04  0.26886038940E+04  0.50400001928E-02 0.  1.
    10030    2    1    2    0    0  0.00000000000E+00  0.00000000000E+00 -0.20975573559E+04  0.32796504322E+04  0.25211822814E+04 0.  0.
        4    1    3    3  502    0 -0.93798313042E+03  0.35253672072E+03 -0.53833880446E+02  0.10034910024E+04  0.12699999809E+01 0. -1.
       -4    1    3    3    0  502  0.93798313042E+03 -0.35253672072E+03 -0.20437234755E+04  0.22761594297E+04  0.12699999809E+01 0.  1.
</event>
<event>
 5   0  0.6104486E-06  0.2549397E+04  0.7818609E-02  0.8385596E-01
       -1   -1    0    0    0  501  0.00000000000E+00  0.00000000000E+00  0.12543067993E+04  0.12543067993E+04  0.50400001928E-02 0. -1.
        1   -1    0    0  501    0  0.00000000000E+00  0.00000000000E+00 -0.12954221873E+04  0.12954221873E+04  0.50400001928E-02 0.  1.
    10030    2    1    2    0    0  0.00000000000E+00  0.00000000000E+00 -0.41115388075E+02  0.25497289866E+04  0.25493974641E+04 0.  0.
        2    1    3    3  502    0  0.25197016767E+03 -0.43976797321E+03 -0.11903131496E+04  0.12937272626E+04  0.25500000920E-02 0.  1.
       -2    1    3    3    0  502 -0.25197016767E+03  0.43976797321E+03  0.11491977616E+04  0.12560017241E+04  0.25500000920E-02 0. -1.
</event>
<event>
 5   0  0.6290861E-06  0.2502331E+04  0.7818609E-02  0.8402155E-01
       -1   -1    0    0    0  501  0.00000000000E+00  0.00000000000E+00  0.14109122454E+04  0.14109122454E+04  0.50400001928E-02 0. -1.
        1   -1    0    0  501    0  0.00000000000E+00  0.00000000000E+00 -0.11095058472E+04  0.11095058473E+04  0.50400001928E-02 0.  1.
    10030    2    1    2    0    0  0.00000000000E+00  0.00000000000E+00  0.30140639816E+03  0.25204180927E+04  0.25023312221E+04 0.  0.
        1    1    3    3  502    0  0.35166941243E+03  0.44553968563E+03  0.12737684802E+04  0.13945117885E+04  0.50400001928E-02 0. -1.
       -1    1    3    3    0  502 -0.35166941243E+03 -0.44553968563E+03 -0.97236208204E+03  0.11259063042E+04  0.50400001928E-02 0.  1.
</event>
<event>
 5   0  0.6477703E-06  0.2492767E+04  0.7818609E-02  0.8405567E-01
        1   -1    0    0  501    0  0.00000000000E+00  0.00000000000E+00  0.91768574000E+03  0.91768574002E+03  0.50400001928E-02 0.  1.
       -1   -1    0    0    0  501  0.00000000000E+00  0.00000000000E+00 -0.16928146534E+04  0.16928146534E+04  0.50400001928E-02 0. -1.
    10030    2    1    2    0    0  0.00000000000E+00  0.00000000000E+00 -0.77512891342E+03  0.26105003934E+04  0.24927670312E+04 0.  0.
        5    1    3    3  502    0  0.93223008213E+03  0.82717409006E+03 -0.40160970645E+03  0.13094206152E+04  0.46999998093E+01 0.  1.
       -5    1    3    3    0  502 -0.93223008213E+03 -0.82717409006E+03 -0.37351920697E+03  0.13010797782E+04  0.46999998093E+01 0. -1.
</event>
<event>
 5   0  0.1550483E-05  0.2476762E+04  0.7818609E-02  0.8411311E-01
        2   -1    0    0  501    0  0.00000000000E+00  0.00000000000E+00  0.10161213797E+04  0.10161213797E+04  0.25500000920E-02 0. -1.
       -2   -1    0    0    0  501  0.00000000000E+00  0.00000000000E+00 -0.15092561280E+04  0.15092561280E+04  0.25500000920E-02 0.  1.
    10030    2    1    2    0    0  0.00000000000E+00  0.00000000000E+00 -0.49313474828E+03  0.25253775078E+04  0.24767619338E+04 0.  0.
        5    1    3    3  502    0 -0.89264009665E+03  0.24306205289E+03  0.59280432537E+03  0.10987832188E+04  0.46999998093E+01 0. -1.
       -5    1    3    3    0  502  0.89264009665E+03 -0.24306205289E+03 -0.10859390736E+04  0.14265942890E+04  0.46999998093E+01 0.  1.
</event>
<event>
 5   0  0.1468512E-05  0.2503747E+04  0.7818609E-02  0.8401652E-01
        2   -1    0    0  501    0  0.00000000000E+00  0.00000000000E+00  0.12680395759E+04  0.12680395759E+04  0.25500000920E-02 0.  1.
       -2   -1    0    0    0  501  0.00000000000E+00  0.00000000000E+00 -0.12359134301E+04  0.12359134301E+04  0.25500000920E-02 0. -1.
    10030    2    1    2    0    0  0.00000000000E+00  0.00000000000E+00  0.32126145759E+02  0.25039530060E+04  0.25037469055E+04 0.  0.
        4    1    3    3  502    0 -0.11655736489E+04 -0.26573786902E+03  0.38758656370E+03  0.12567432130E+04  0.12699999809E+01 0.  1.
       -4    1    3    3    0  502  0.11655736489E+04  0.26573786902E+03 -0.35546041794E+03  0.12472097930E+04  0.12699999809E+01 0. -1.
</event>
<event>
 5   0  0.6477703E-06  0.2386297E+04  0.7818609E-02  0.8444652E-01
       -1   -1    0    0    0  501  0.00000000000E+00  0.00000000000E+00  0.11667816944E+04  0.11667816944E+04  0.50400001928E-02 0.  1.
        1   -1    0    0  501    0  0.00000000000E+00  0.00000000000E+00 -0.12201112035E+04  0.12201112035E+04  0.50400001928E-02 0. -1.
    10030    2    1    2    0    0  0.00000000000E+00  0.00000000000E+00 -0.53329509125E+02  0.23868928978E+04  0.23862970622E+04 0.  0.
        5    1    3    3  502    0  0.38246968892E+03  0.12306919890E+02  0.11037266230E+04  0.11681905117E+04  0.46999998093E+01 0.  1.
       -5    1    3    3    0  502 -0.38246968892E+03 -0.12306919890E+02 -0.11570561321E+04  0.12187023862E+04  0.46999998093E+01 0. -1.
</event>
<event>
 5   0  0.5164625E-06  0.2506088E+04  0.7818609E-02  0.8400820E-01
        3   -1    0    0  501    0  0.00000000000E+00  0.00000000000E+00  0.80306102734E+03  0.80306103369E+03  0.10100000352E+00 0. -1.
       -3   -1    0    0    0  501  0.00000000000E+00  0.00000000000E+00 -0.19551675084E+04  0.19551675110E+04  0.10100000352E+00 0.  1.
    10030    2    1    2    0    0  0.00000000000E+00  0.00000000000E+00 -0.11521064811E+04  0.27582285447E+04  0.25060876603E+04 0.  0.
        1    1    3    3  502    0 -0.11724918678E+04 -0.40067339046E+03 -0.37061153600E+03  0.12933016881E+04  0.50400001928E-02 0. -1.
       -1    1    3    3    0  502  0.11724918678E+04  0.40067339046E+03 -0.78149494509E+03  0.14649268566E+04  0.50400001928E-02 0.  1.
</event>
<event>
 5   0  0.1572732E-05  0.2505549E+04  0.7818609E-02  0.8401012E-01
       -2   -1    0    0    0  501  0.00000000000E+00  0.00000000000E+00  0.12043312355E+04  0.12043312355E+04  0.25500000920E-02 0.  1.
        2   -1    0    0  501    0  0.00000000000E+00  0.00000000000E+00 -0.13031658953E+04  0.13031658953E+04  0.25500000920E-02 0. -1.
    10030    2    1    2    0    0  0.00000000000E+00  0.00000000000E+00 -0.98834659815E+02  0.25074971308E+04  0.25055485569E+04 0.  0.
        1    1    3    3  502    0  0.80391035373E+02 -0.23378758054E+03 -0.12785109030E+04  0.13021941024E+04  0.50400001928E-02 0. -1.
       -1    1    3    3    0  502 -0.80391035373E+02  0.23378758054E+03  0.11796762432E+04  0.12053030283E+04  0.50400001928E-02 0.  1.
</event>
<event>
 5   0  0.1468512E-05  0.2499057E+04  0.7818609E-02  0.8403322E-01
       -2   -1    0    0    0  501  0.00000000000E+00  0.00000000000E+00  0.63298141524E+03  0.63298141525E+03  0.25500000920E-02 0. -1.
        2   -1    0    0  501    0  0.00000000000E+00  0.00000000000E+00 -0.24666152183E+04  0.24666152183E+04  0.25500000920E-02 0.  1.
    10030    2    1    2    0    0  0.00000000000E+00  0.00000000000E+00 -0.18336338031E+04  0.30995966336E+04  0.24990570956E+04 0.  0.
        4    1    3    3  502    0  0.44852731553E+03  0.76199977044E+02 -0.23602356433E+04  0.24036840670E+04  0.12699999809E+01 0.  1.
       -4    1    3    3    0  502 -0.44852731553E+03 -0.76199977044E+02  0.52660184021E+03  0.69591256655E+03  0.12699999809E+01 0. -1.
</event>
<event>
 5   0  0.1468512E-05  0.2186132E+04  0.7818609E-02  0.8524223E-01
       -2   -1    0    0    0  501  0.00000000000E+00  0.00000000000E+00  0.79452888160E+03  0.79452888160E+03  0.25500000920E-02 0. -1.
        2   -1    0    0  501    0  0.00000000000E+00  0.00000000000E+00 -0.15037756993E+04  0.15037756993E+04  0.25500000920E-02 0.  1.
    10030    2    1    2    0    0  0.00000000000E+00  0.00000000000E+00 -0.70924681774E+03  0.22983045809E+04  0.21861319490E+04 0.  0.
        4    1    3    3  502    0 -0.10703536586E+04 -0.21944538572E+03 -0.32173938512E+03  0.11390044235E+04  0.12699999809E+01 0.  1.
       -4    1    3    3    0  502  0.10703536586E+04  0.21944538572E+03 -0.38750743262E+03  0.11593001575E+04  0.12699999809E+01 0. -1.
</event>
<event>
 5   0  0.6290861E-06  0.2476610E+04  0.7818609E-02  0.8411366E-01
        1   -1    0    0  501    0  0.00000000000E+00  0.00000000000E+00  0.86721614307E+03  0.86721614308E+03  0.50400001928E-02 0.  1.
       -1   -1    0    0    0  501  0.00000000000E+00  0.00000000000E+00 -0.17681863769E+04  0.17681863769E+04  0.50400001928E-02 0. -1.
    10030    2    1    2    0    0  0.00000000000E+00  0.00000000000E+00 -0.90097023382E+03  0.26354025200E+04  0.24766104014E+04 0.  0.
        1    1    3    3  502    0 -0.86699409490E+03  0.47037006433E+03 -0.12471333861E+04  0.15900529679E+04  0.50400001928E-02 0. -1.
       -1    1    3    3    0  502  0.86699409490E+03 -0.47037006433E+03  0.34616315227E+03  0.10453495521E+04  0.50400001928E-02 0.  1.
</event>
<event>
 5   0  0.6105353E-06  0.2488725E+04  0.7818609E-02  0.8407013E-01
       -1   -1    0    0    0  501  0.00000000000E+00  0.00000000000E+00  0.10359411855E+04  0.10359411855E+04  0.50400001928E-02 0. -1.
        1   -1    0    0  501    0  0.00000000000E+00  0.00000000000E+00 -0.14947156157E+04  0.14947156157E+04  0.50400001928E-02 0.  1.
    10030    2    1    2    0    0  0.00000000000E+00  0.00000000000E+00 -0.45877443021E+03  0.25306568012E+04  0.24887245464E+04 0.  0.
        3    1    3    3  502    0  0.62555927415E+02 -0.12361423413E+04 -0.35991007823E+03  0.12889904603E+04  0.10100000352E+00 0.  1.
       -3    1    3    3    0  502 -0.62555927415E+02  0.12361423413E+04 -0.98864351972E+02  0.12416663410E+04  0.10100000352E+00 0. -1.
</event>
<event>
 5   0  0.6105353E-06  0.2531252E+04  0.7818609E-02  0.8391936E-01
        1   -1    0    0  501    0  0.00000000000E+00  0.00000000000E+00  0.20376380342E+04  0.20376380342E+04  0.50400001928E-02 0.  1.
       -1   -1    0    0    0  501  0.00000000000E+00  0.00000000000E+00 -0.78611068250E+03  0.78611068251E+03  0.50400001928E-02 0. -1.
    10030    2    1    2    0    0  0.00000000000E+00  0.00000000000E+00  0.12515273517E+04  0.28237487168E+04  0.25312518846E+04 0.  0.
        3    1    3    3  502    0  0.19502493864E+03  0.64771147072E+02 -0.76737506777E+03  0.79441458510E+03  0.10100000352E+00 0. -1.
       -3    1    3    3    0  502 -0.19502493864E+03 -0.64771147072E+02  0.20189024195E+04  0.20293341317E+04  0.10100000352E+00 0.  1.
</event>
<event>
 5   0  0.1468512E-05  0.2501998E+04  0.7818609E-02  0.8402274E-01
       -2   -1    0    0    0  501  0.00000000000E+00  0.00000000000E+00  0.77309488417E+03  0.77309488417E+03  0.25500000920E-02 0.  1.
        2   -1    0    0  501    0  0.00000000000E+00  0.00000000000E+00 -0.20243286024E+04  0.20243286024E+04  0.25500000920E-02 0. -1.
    10030    2    1    2    0    0  0.00000000000E+00  0.00000000000E+00 -0.12512337182E+04  0.27974234866E+04  0.25019976710E+04 0.  0.
        4    1    3    3  502    0 -0.48281859997E+03 -0.11483049473E+04 -0.49677869316E+03  0.13410849098E+04  0.12699999809E+01 0.  1.
       -4    1    3    3    0  502  0.48281859997E+03  0.11483049473E+04 -0.75445502507E+03  0.14563385768E+04  0.12699999809E+01 0. -1.
</event>
<event>
 5   0  0.6346420E-06  0.2514628E+04  0.7818609E-02  0.8397793E-01
       -1   -1    0    0    0  501  0.00000000000E+00  0.00000000000E+00  0.10421235528E+04  0.10421235529E+04  0.50400001928E-02 0. -1.
        1   -1    0    0  501    0  0.00000000000E+00  0.00000000000E+00 -0.15169390895E+04  0.15169390895E+04  0.50400001928E-02 0.  1.
    10030    2    1    2    0    0  0.00000000000E+00  0.00000000000E+00 -0.47481553666E+03  0.25590626424E+04  0.25146275696E+04 0.  0.
        4    1    3    3  502    0  0.35103879562E+03 -0.11794940443E+04 -0.49964690747E+03  0.13281878939E+04  0.12699999809E+01 0.  1.
       -4    1    3    3    0  502 -0.35103879562E+03  0.11794940443E+04  0.24831370818E+02  0.12308747485E+04  0.12699999809E+01 0. -1.
</event>
<event>
 5   0  0.1572732E-05  0.2464776E+04  0.7818609E-02  0.8415643E-01
       -2   -1    0    0    0  501  0.00000000000E+00  0.00000000000E+00  0.79324119208E+03  0.79324119209E+03  0.25500000920E-02 0.  1.
        2   -1    0    0  501    0  0.00000000000E+00  0.00000000000E+00 -0.19146517265E+04  0.19146517265E+04  0.25500000920E-02 0. -1.
    10030    2    1    2    0    0  0.00000000000E+00  0.00000000000E+00 -0.11214105344E+04  0.27078929186E+04  0.24647763533E+04 0.  0.
        1    1    3    3  502    0 -0.80518311773E+02  0.10813883855E+04 -0.12040378445E+04  0.16203676034E+04  0.50400001928E-02 0. -1.
       -1    1    3    3    0  502  0.80518311773E+02 -0.10813883855E+04  0.82627310134E+02  0.10875253152E+04  0.50400001928E-02 0.  1.
</event>
<event>
 5   0  0.6477703E-06  0.2479333E+04  0.7818609E-02  0.8410385E-01
       -1   -1    0    0    0  501  0.00000000000E+00  0.00000000000E+00  0.11601310679E+04  0.11601310679E+04  0.50400001928E-02 0. -1.
        1   -1    0    0  501    0  0.00000000000E+00  0.00000000000E+00 -0.13246550534E+04  0.13246550534E+04  0.50400001928E-02 0.  1.
    10030    2    1    2    0    0  0.00000000000E+00  0.00000000000E+00 -0.16452398554E+03  0.24847861213E+04  0.24793333634E+04 0.  0.
        5    1    3    3  502    0  0.87836187919E+02  0.48037831532E+03  0.10596616871E+04  0.11667834002E+04  0.46999998093E+01 0. -1.
       -5    1    3    3    0  502 -0.87836187919E+02 -0.48037831532E+03 -0.12241856727E+04  0.13180027211E+04  0.46999998093E+01 0.  1.
</event>
<event>
 5   0  0.1501947E-05  0.2492641E+04  0.7818609E-02  0.8405612E-01
        2   -1    0    0  501    0  0.00000000000E+00  0.00000000000E+00  0.18583096080E+04  0.18583096080E+04  0.25500000920E-02 0.  1.
       -2   -1    0    0    0  501  0.00000000000E+00  0.00000000000E+00 -0.83587483865E+03  0.83587483865E+03  0.25500000920E-02 0. -1.
    10030    2    1    2    0    0  0.00000000000E+00  0.00000000000E+00  0.10224347693E+04  0.26941844466E+04  0.24926405627E+04 0.  0.
        3    1    3    3  502    0  0.67835008034E+02 -0.13293640700E+03  0.18486164466E+04  0.18546310828E+04  0.10100000352E+00 0.  1.
       -3    1    3    3    0  502 -0.67835008034E+02  0.13293640700E+03 -0.82618167726E+03  0.83955336379E+03  0.10100000352E+00 0. -1.
</event>
<event>
 5   0  0.1572732E-05  0.2512666E+04  0.7818609E-02  0.8398487E-01
       -2   -1    0    0    0  501  0.00000000000E+00  0.00000000000E+00  0.76537958266E+03  0.76537958266E+03  0.25500000920E-02 0.  1.
        2   -1    0    0  501    0  0.00000000000E+00  0.00000000000E+00 -0.20622084128E+04  0.20622084128E+04  0.25500000920E-02 0. -1.
    10030    2    1    2    0    0  0.00000000000E+00  0.00000000000E+00 -0.12968288302E+04  0.28275879955E+04  0.25126656876E+04 0.  0.
        1    1    3    3  502    0  0.12454348545E+04  0.14328589181E+03 -0.55607261608E+03  0.13714428818E+04  0.50400001928E-02 0. -1.
       -1    1    3    3    0  502 -0.12454348545E+04 -0.14328589181E+03 -0.74075621411E+03  0.14561451138E+04  0.50400001928E-02 0.  1.
</event>
<event>
 5   0  0.6477703E-06  0.2504852E+04  0.7818609E-02  0.8401259E-01
        1   -1    0    0  501    0  0.00000000000E+00  0.00000000000E+00  0.17494945569E+04  0.17494945569E+04  0.50400001928E-02 0.  1.
       -1   -1    0    0    0  501  0.00000000000E+00  0.00000000000E+00 -0.89658551881E+03  0.89658551882E+03  0.50400001928E-02 0. -1.
    10030    2    1    2    0    0  0.00000000000E+00  0.00000000000E+00  0.85290903810E+03  0.26460800757E+04  0.25048524787E+04 0.  0.
        5    1    3    3  502    0  0.82692757893E+03  0.49587597516E+03  0.12707983295E+04  0.15951967552E+04  0.46999998093E+01 0.  1.
       -5    1    3    3    0  502 -0.82692757893E+03 -0.49587597516E+03 -0.41788929139E+03  0.10508833205E+04  0.46999998093E+01 0. -1.
</event>
<event>
 5   0  0.6104486E-06  0.2453178E+04  0.7818609E-02  0.8419858E-01
        1   -1    0    0  501    0  0.00000000000E+00  0.00000000000E+00  0.15905535676E+04  0.15905535676E+04  0.50400001928E-02 0. -1.
       -1   -1    0    0    0  501  0.00000000000E+00  0.00000000000E+00 -0.94591019946E+03  0.94591019947E+03  0.50400001928E-02 0.  1.
    10030    2    1    2    0    0  0.00000000000E+00  0.00000000000E+00  0.64464336813E+03  0.25364637671E+04  0.24531782181E+04 0.  0.
        2    1    3    3  502    0  0.98584843749E+03 -0.58663584582E+03  0.77120617608E+03  0.13823160722E+04  0.25500000920E-02 0. -1.
       -2    1    3    3    0  502 -0.98584843749E+03  0.58663584582E+03 -0.12656280796E+03  0.11541476949E+04  0.25500000920E-02 0.  1.
</event>
<event>
 5   0  0.1526824E-05  0.2473421E+04  0.7818609E-02  0.8412516E-01
        2   -1    0    0  501    0  0.00000000000E+00  0.00000000000E+00  0.65109970737E+03  0.65109970737E+03  0.25500000920E-02 0. -1.
       -2   -1    0    0    0  501  0.00000000000E+00  0.00000000000E+00 -0.23490293314E+04  0.23490293315E+04  0.25500000920E-02 0.  1.
    10030    2    1    2    0    0  0.00000000000E+00  0.00000000000E+00 -0.16979296241E+04  0.30001290388E+04  0.24734205549E+04 0.  0.
        2    1    3    3  502    0  0.10582588334E+04  0.63856641925E+03 -0.90004531014E+03  0.15289736396E+04  0.25500000920E-02 0.  1.
       -2    1    3    3    0  502 -0.10582588334E+04 -0.63856641925E+03 -0.79788431394E+03  0.14711553992E+04  0.25500000920E-02 0. -1.
</event>
<event>
 5   0  0.1526824E-05  0.2492589E+04  0.7818609E-02  0.8405630E-01
        2   -1    0    0  501    0  0.00000000000E+00  0.00000000000E+00  0.23386790248E+04  0.23386790248E+04  0.25500000920E-02 0.  1.
       -2   -1    0    0    0  501  0.00000000000E+00  0.00000000000E+00 -0.66415712506E+03  0.66415712506E+03  0.25500000920E-02 0. -1.
    10030    2    1    2    0    0  0.00000000000E+00  0.00000000000E+00  0.16745218998E+04  0.30028361499E+04  0.24925892863E+04 0.  0.
        2    1    3    3  502    0 -0.59907439816E+03  0.10572790634E+04  0.50400972430E+03  0.13155816032E+04  0.25500000920E-02 0.  1.
       -2    1    3    3    0  502  0.59907439816E+03 -0.10572790634E+04  0.11705121755E+04  0.16872545467E+04  0.25500000920E-02 0. -1.
</event>
<event>
 5   0  0.6105353E-06  0.2504753E+04  0.7818609E-02  0.8401294E-01
       -1   -1    0    0    0  501  0.00000000000E+00  0.00000000000E+00  0.17635171569E+04  0.17635171569E+04  0.50400001928E-02 0.  1.
        1   -1    0    0  501    0  0.00000000000E+00  0.00000000000E+00 -0.88938553684E+03  0.88938553685E+03  0.50400001928E-02 0. -1.
    10030    2    1    2    0    0  0.00000000000E+00  0.00000000000E+00  0.87413162002E+03  0.26529026937E+04  0.25047528048E+04 0.  0.
        3    1    3    3  502    0 -0.28181192697E+03  0.20480832911E+03  0.17111644562E+04  0.17462669384E+04  0.10100000352E+00 0.  1.
       -3    1    3    3    0  502  0.28181192697E+03 -0.20480832911E+03 -0.83703283614E+03  0.90663575533E+03  0.10100000352E+00 0. -1.
</event>
<event>
 5   0  0.6104486E-06  0.2516332E+04  0.7818609E-02  0.8397190E-01
       -1   -1    0    0    0  501  0.00000000000E+00  0.00000000000E+00  0.57638329323E+03  0.57638329325E+03  0.50400001928E-02 0. -1.
        1   -1    0    0  501    0  0.00000000000E+00  0.00000000000E+00 -0.27464053557E+04  0.27464053557E+04  0.50400001928E-02 0.  1.
    10030    2    1    2    0    0  0.00000000000E+00  0.00000000000E+00 -0.21700220624E+04  0.33227886489E+04  0.25163323815E+04 0.  0.
        2    1    3    3  502    0  0.71390969357E+03 -0.35795240952E+03  0.19877653411E+03  0.82298790305E+03  0.25500000920E-02 0. -1.
       -2    1    3    3    0  502 -0.71390969357E+03  0.35795240952E+03 -0.23687985966E+04  0.24998007459E+04  0.25500000920E-02 0.  1.
</event>
<event>
 5   0  0.1572732E-05  0.2514545E+04  0.7818609E-02  0.8397822E-01
       -2   -1    0    0    0  501  0.00000000000E+00  0.00000000000E+00  0.19335893448E+04  0.19335893448E+04  0.25500000920E-02 0.  1.
        2   -1    0    0  501    0  0.00000000000E+00  0.00000000000E+00 -0.81751312733E+03  0.81751312734E+03  0.25500000920E-02 0. -1.
    10030    2    1    2    0    0  0.00000000000E+00  0.00000000000E+00  0.11160762175E+04  0.27511024722E+04  0.25145454240E+04 0.  0.
        1    1    3    3  502    0  0.96625871415E+03  0.32799196710E+02 -0.32131751075E+03  0.10188113823E+04  0.50400001928E-02 0. -1.
       -1    1    3    3    0  502 -0.96625871415E+03 -0.32799196710E+02  0.14373937283E+04  0.17322910899E+04  0.50400001928E-02 0.  1.
</event>
<event>
 5   0  0.6346420E-06  0.2490449E+04  0.7818609E-02  0.8406396E-01
       -1   -1    0    0    0  501  0.00000000000E+00  0.00000000000E+00  0.16959455601E+04  0.16959455601E+04  0.50400001928E-02 0.  1.
        1   -1    0    0  501    0  0.00000000000E+00  0.00000000000E+00 -0.91428897577E+03  0.91428897578E+03  0.50400001928E-02 0. -1.
    10030    2    1    2    0    0  0.00000000000E+00  0.00000000000E+00  0.78165658430E+03  0.26102345358E+04  0.24904492198E+04 0.  0.
        4    1    3    3  502    0  0.66700531201E+03 -0.39626970806E+03  0.14116653722E+04  0.16108154779E+04  0.12699999809E+01 0.  1.
       -4    1    3    3    0  502 -0.66700531201E+03  0.39626970806E+03 -0.63000878789E+03  0.99941905800E+03  0.12699999809E+01 0. -1.
</event>
<event>
 5   0  0.1572732E-05  0.2499394E+04  0.7818609E-02  0.8403201E-01
       -2   -1    0    0    0  501  0.00000000000E+00  0.00000000000E+00  0.76623805711E+03  0.76623805712E+03  0.25500000920E-02 0.  1.
        2   -1    0    0  501    0  0.00000000000E+00  0.00000000000E+00 -0.20381957824E+04  0.20381957824E+04  0.25500000920E-02 0. -1.
    10030    2    1    2    0    0  0.00000000000E+00  0.00000000000E+00 -0.12719577253E+04  0.28044338395E+04  0.24993944677E+04 0.  0.
        1    1    3    3  502    0  0.83181465571E+03 -0.72681224499E+03  0.19790643751E+02  0.11047910800E+04  0.50400001928E-02 0.  1.
       -1    1    3    3    0  502 -0.83181465571E+03  0.72681224499E+03 -0.12917483690E+04  0.16996427595E+04  0.50400001928E-02 0. -1.
</event>
<event>
 5   0  0.6290861E-06  0.2466484E+04  0.7818609E-02  0.8415024E-01
        1   -1    0    0  501    0  0.00000000000E+00  0.00000000000E+00  0.13048563331E+04  0.13048563331E+04  0.50400001928E-02 0. -1.
       -1   -1    0    0    0  501  0.00000000000E+00  0.00000000000E+00 -0.11655585164E+04  0.11655585164E+04  0.50400001928E-02 0.  1.
    10030    2    1    2    0    0  0.00000000000E+00  0.00000000000E+00  0.13929781668E+03  0.24704148495E+04  0.24664844713E+04 0.  0.
        1    1    3    3  502    0  0.48121650864E+02  0.11208297388E+03 -0.11595018719E+04  0.11659000288E+04  0.50400001928E-02 0.  1.
       -1    1    3    3    0  502 -0.48121650864E+02 -0.11208297388E+03  0.12987996886E+04  0.13045148207E+04  0.50400001928E-02 0. -1.
</event>
<event>
 5   0  0.1468512E-05  0.2436943E+04  0.7818609E-02  0.8425801E-01
        2   -1    0    0  501    0  0.00000000000E+00  0.00000000000E+00  0.10821760934E+04  0.10821760934E+04  0.25500000920E-02 0. -1.
       -2   -1    0    0    0  501  0.00000000000E+00  0.00000000000E+00 -0.13719327918E+04  0.13719327918E+04  0.25500000920E-02 0.  1.
    10030    2    1    2    0    0  0.00000000000E+00  0.00000000000E+00 -0.28975669838E+03  0.24541088852E+04  0.24369430597E+04 0.  0.
        4    1    3    3  502    0 -0.76131066083E+03 -0.60777002060E+03 -0.88194439600E+03  0.13140798495E+04  0.12699999809E+01 0.  1.
       -4    1    3    3    0  502  0.76131066083E+03  0.60777002060E+03  0.59218769762E+03  0.11400290357E+04  0.12699999809E+01 0. -1.
</event>
<event>
 5   0  0.5164625E-06  0.2502801E+04  0.7818609E-02  0.8401988E-01
        3   -1    0    0  501    0  0.00000000000E+00  0.00000000000E+00  0.82732583612E+03  0.82732584228E+03  0.10100000352E+00 0. -1.
       -3   -1    0    0    0  501  0.00000000000E+00  0.00000000000E+00 -0.18928493044E+04  0.18928493071E+04  0.10100000352E+00 0.  1.
    10030    2    1    2    0    0  0.00000000000E+00  0.00000000000E+00 -0.10655234683E+04  0.27201751494E+04  0.25028009473E+04 0.  0.
        1    1    3    3  502    0  0.75715232459E+03  0.52454239149E+03  0.38791115010E+03  0.99944956026E+03  0.50400001928E-02 0. -1.
       -1    1    3    3    0  502 -0.75715232459E+03 -0.52454239149E+03 -0.14534346184E+04  0.17207255891E+04  0.50400001928E-02 0.  1.
</event>
<event>
 5   0  0.1501947E-05  0.2567851E+04  0.7818609E-02  0.8379204E-01
       -2   -1    0    0    0  501  0.00000000000E+00  0.00000000000E+00  0.13703103818E+04  0.13703103818E+04  0.25500000920E-02 0.  1.
        2   -1    0    0  501    0  0.00000000000E+00  0.00000000000E+00 -0.12029863504E+04  0.12029863504E+04  0.25500000920E-02 0. -1.
    10030    2    1    2    0    0  0.00000000000E+00  0.00000000000E+00  0.16732403136E+03  0.25732967322E+04  0.25678509965E+04 0.  0.
        3    1    3    3  502    0 -0.37490496146E+02 -0.12822307652E+04  0.13803020542E+03  0.12901835607E+04  0.10100000352E+00 0. -1.
       -3    1    3    3    0  502  0.37490496146E+02  0.12822307652E+04  0.29293825941E+02  0.12831131715E+04  0.10100000352E+00 0.  1.
</event>
<event>
 5   0  0.1526824E-05  0.2532580E+04  0.7818609E-02  0.8391470E-01
       -2   -1    0    0    0  501  0.00000000000E+00  0.00000000000E+00  0.85755560183E+03  0.85755560184E+03  0.25500000920E-02 0.  1.
        2   -1    0    0  501    0  0.00000000000E+00  0.00000000000E+00 -0.18698376710E+04  0.18698376710E+04  0.25500000920E-02 0. -1.
    10030    2    1    2    0    0  0.00000000000E+00  0.00000000000E+00 -0.10122820692E+04  0.27273932729E+04  0.25325795303E+04 0.  0.
        2    1    3    3  502    0 -0.26479061354E+02  0.60999080161E+03 -0.17008462142E+04  0.18071158688E+04  0.25500000920E-02 0. -1.
       -2    1    3    3    0  502  0.26479061354E+02 -0.60999080161E+03  0.68856414500E+03  0.92027740412E+03  0.25500000920E-02 0.  1.
</event>
<event>
 5   0  0.1572732E-05  0.2526224E+04  0.7818609E-02  0.8393702E-01
       -2   -1    0    0    0  501  0.00000000000E+00  0.00000000000E+00  0.10739830654E+04  0.10739830654E+04  0.25500000920E-02 0. -1.
        2   -1    0    0  501    0  0.00000000000E+00  0.00000000000E+00 -0.14855470939E+04  0.14855470939E+04  0.25500000920E-02 0.  1.
    10030    2    1    2    0    0  0.00000000000E+00  0.00000000000E+00 -0.41156402857E+03  0.25595301593E+04  0.25262243936E+04 0.  0.
        1    1    3    3  502    0 -0.97403135092E+03  0.61514207997E+03  0.31903905857E+03  0.11953755778E+04  0.50400001928E-02 0. -1.
       -1    1    3    3    0  502  0.97403135092E+03 -0.61514207997E+03 -0.73060308714E+03  0.13641545815E+04  0.50400001928E-02 0.  1.
</event>
<event>
 5   0  0.6346420E-06  0.2492786E+04  0.7818609E-02  0.8405560E-01
        1   -1    0    0  501    0  0.00000000000E+00  0.00000000000E+00  0.21103076201E+04  0.21103076201E+04  0.50400001928E-02 0. -1.
       -1   -1    0    0    0  501  0.00000000000E+00  0.00000000000E+00 -0.73614648949E+03  0.73614648951E+03  0.50400001928E-02 0.  1.
    10030    2    1    2    0    0  0.00000000000E+00  0.00000000000E+00  0.13741611306E+04  0.28464541096E+04  0.24927860288E+04 0.  0.
        4    1    3    3  502    0 -0.84594548607E+03  0.76714878321E+02 -0.35446178035E+03  0.92040953091E+03  0.12699999809E+01 0.  1.
       -4    1    3    3    0  502  0.84594548607E+03 -0.76714878321E+02  0.17286229109E+04  0.19260445787E+04  0.12699999809E+01 0. -1.
</event>
<event>
 5   0  0.1526824E-05  0.2479677E+04  0.7818609E-02  0.8410262E-01
       -2   -1    0    0    0  501  0.00000000000E+00  0.00000000000E+00  0.81391659573E+03  0.81391659573E+03  0.25500000920E-02 0. -1.
        2   -1    0    0  501    0  0.00000000000E+00  0.00000000000E+00 -0.18886453102E+04  0.18886453102E+04  0.25500000920E-02 0.  1.
    10030    2    1    2    0    0  0.00000000000E+00  0.00000000000E+00 -0.10747287145E+04  0.27025619059E+04  0.24796772060E+04 0.  0.
        2    1    3    3  502    0 -0.57808256173E+03  0.83020320771E+03 -0.13185789440E+04  0.16619468240E+04  0.25500000920E-02 0.  1.
       -2    1    3    3    0  502  0.57808256173E+03 -0.83020320771E+03  0.24385022954E+03  0.10406150819E+04  0.25500000920E-02 0. -1.
</event>
<event>
 5   0  0.6105353E-06  0.2514730E+04  0.7818609E-02  0.8397757E-01
        1   -1    0    0  501    0  0.00000000000E+00  0.00000000000E+00  0.18328519346E+04  0.18328519346E+04  0.50400001928E-02 0.  1.
       -1   -1    0    0    0  501  0.00000000000E+00  0.00000000000E+00 -0.86257171448E+03  0.86257171449E+03  0.50400001928E-02 0. -1.
    10030    2    1    2    0    0  0.00000000000E+00  0.00000000000E+00  0.97028022015E+03  0.26954236491E+04  0.25147295963E+04 0.  0.
        3    1    3    3  502    0  0.12474682984E+04  0.13717735163E+03  0.40231244366E+03  0.13178960862E+04  0.10100000352E+00 0. -1.
       -3    1    3    3    0  502 -0.12474682984E+04 -0.13717735163E+03  0.56796777649E+03  0.13775275630E+04  0.10100000352E+00 0.  1.
</event>
<event>
 5   0  0.6346420E-06  0.2514459E+04  0.7818609E-02  0.8397852E-01
        1   -1    0    0  501    0  0.00000000000E+00  0.00000000000E+00  0.10107272176E+04  0.10107272176E+04  0.50400001928E-02 0.  1.
       -1   -1    0    0    0  501  0.00000000000E+00  0.00000000000E+00 -0.15638508328E+04  0.15638508328E+04  0.50400001928E-02 0. -1.
    10030    2    1    2    0    0  0.00000000000E+00  0.00000000000E+00 -0.55312361516E+03  0.25745780504E+04  0.25144594655E+04 0.  0.
        4    1    3    3  502    0 -0.19100532152E+03  0.93822466431E+03 -0.11108287782E+04  0.14665233517E+04  0.12699999809E+01 0. -1.
       -4    1    3    3    0  502  0.19100532152E+03 -0.93822466431E+03  0.55770516305E+03  0.11080546987E+04  0.12699999809E+01 0.  1.
</event>
<event>
 5   0  0.6104486E-06  0.2498946E+04  0.7818609E-02  0.8403361E-01
       -1   -1    0    0    0  501  0.00000000000E+00  0.00000000000E+00  0.85136939739E+03  0.85136939740E+03  0.50400001928E-02 0.  1.
        1   -1    0    0  501    0  0.00000000000E+00  0.00000000000E+00 -0.18337319579E+04  0.18337319579E+04  0.50400001928E-02 0. -1.
    10030    2    1    2    0    0  0.00000000000E+00  0.00000000000E+00 -0.98236256055E+03  0.26851013553E+04  0.24989463956E+04 0.  0.
        2    1    3    3  502    0  0.10961545340E+04 -0.33260354271E+01  0.15317211366E+03  0.11068096139E+04  0.25500000920E-02 0.  1.
       -2    1    3    3    0  502 -0.10961545340E+04  0.33260354271E+01 -0.11355346742E+04  0.15782917415E+04  0.25500000920E-02 0. -1.
</event>
<event>
 5   0  0.6477703E-06  0.2493722E+04  0.7818609E-02  0.8405226E-01
        1   -1    0    0  501    0  0.00000000000E+00  0.00000000000E+00  0.16271628667E+04  0.16271628667E+04  0.50400001928E-02 0.  1.
       -1   -1    0    0    0  501  0.00000000000E+00  0.00000000000E+00 -0.95544358698E+03  0.95544358700E+03  0.50400001928E-02 0. -1.
    10030    2    1    2    0    0  0.00000000000E+00  0.00000000000E+00  0.67171927974E+03  0.25826064537E+04  0.24937219781E+04 0.  0.
        5    1    3    3  502    0 -0.82603281349E+03  0.76032200645E+03 -0.22589496887E+03  0.11451944767E+04  0.46999998093E+01 0. -1.
       -5    1    3    3    0  502  0.82603281349E+03 -0.76032200645E+03  0.89761424861E+03  0.14374119770E+04  0.46999998093E+01 0.  1.
</event>
<event>
 5   0  0.1501947E-05  0.2503834E+04  0.7818609E-02  0.8401621E-01
        2   -1    0    0  501    0  0.00000000000E+00  0.00000000000E+00  0.23034694396E+04  0.23034694396E+04  0.25500000920E-02 0. -1.
       -2   -1    0    0    0  501  0.00000000000E+00  0.00000000000E+00 -0.68040697283E+03  0.68040697283E+03  0.25500000920E-02 0.  1.
    10030    2    1    2    0    0  0.00000000000E+00  0.00000000000E+00  0.16230624667E+04  0.29838764124E+04  0.25038343942E+04 0.  0.
        3    1    3    3  502    0  0.12221840876E+04  0.27069006507E+03  0.83181164275E+03  0.15029696186E+04  0.10100000352E+00 0. -1.
       -3    1    3    3    0  502 -0.12221840876E+04 -0.27069006507E+03  0.79125082399E+03  0.14809067938E+04  0.10100000352E+00 0.  1.
</event>
<event>
 5   0  0.1468512E-05  0.2584300E+04  0.7818609E-02  0.8373554E-01
        2   -1    0    0  501    0  0.00000000000E+00  0.00000000000E+00  0.15015071588E+04  0.15015071588E+04  0.25500000920E-02 0.  1.
       -2   -1    0    0    0  501  0.00000000000E+00  0.00000000000E+00 -0.11119839285E+04  0.11119839285E+04  0.25500000920E-02 0. -1.
    10030    2    1    2    0    0  0.00000000000E+00  0.00000000000E+00  0.38952323033E+03  0.26134910872E+04  0.25843001598E+04 0.  0.
        4    1    3    3  502    0  0.36316109559E+03 -0.11131493023E+04  0.74743516796E+03  0.13891178114E+04  0.12699999809E+01 0.  1.
       -4    1    3    3    0  502 -0.36316109559E+03  0.11131493023E+04 -0.35791193763E+03  0.12243732759E+04  0.12699999809E+01 0. -1.
</event>
<event>
 5   0  0.1501947E-05  0.2498837E+04  0.7818609E-02  0.8403400E-01
        2   -1    0    0  501    0  0.00000000000E+00  0.00000000000E+00  0.85189086580E+03  0.85189086581E+03  0.25500000920E-02 0. -1.
       -2   -1    0    0    0  501  0.00000000000E+00  0.00000000000E+00 -0.18324490384E+04  0.18324490384E+04  0.25500000920E-02 0.  1.
    10030    2    1    2    0    0  0.00000000000E+00  0.00000000000E+00 -0.98055817258E+03  0.26843399042E+04  0.24988370078E+04 0.  0.
        3    1    3    3  502    0  0.10663271507E+04  0.58605358018E+03 -0.18542659859E+03  0.12308108810E+04  0.10100000352E+00 0. -1.
       -3    1    3    3    0  502 -0.10663271507E+04 -0.58605358018E+03 -0.79513157399E+03  0.14535290232E+04  0.10100000352E+00 0.  1.
</event>
<event>
 5   0  0.6104486E-06  0.2523185E+04  0.7818609E-02  0.8394772E-01
       -1   -1    0    0    0  501  0.00000000000E+00  0.00000000000E+00  0.88428406432E+03  0.88428406433E+03  0.50400001928E-02 0. -1.
        1   -1    0    0  501    0  0.00000000000E+00  0.00000000000E+00 -0.17998924551E+04  0.17998924551E+04  0.50400001928E-02 0.  1.
    10030    2    1    2    0    0  0.00000000000E+00  0.00000000000E+00 -0.91560839075E+03  0.26841765194E+04  0.25231854593E+04 0.  0.
        2    1    3    3  502    0 -0.43058403869E+03  0.16055553465E+03  0.79208053597E+03  0.91573591692E+03  0.25500000920E-02 0. -1.
       -2    1    3    3    0  502  0.43058403869E+03 -0.16055553465E+03 -0.17076889267E+04  0.17684406025E+04  0.25500000920E-02 0.  1.
</event>
<event>
 5   0  0.6104486E-06  0.2498096E+04  0.7818609E-02  0.8403664E-01
       -1   -1    0    0    0  501  0.00000000000E+00  0.00000000000E+00  0.11372237667E+04  0.11372237667E+04  0.50400001928E-02 0.  1.
        1   -1    0    0  501    0  0.00000000000E+00  0.00000000000E+00 -0.13718674788E+04  0.13718674788E+04  0.50400001928E-02 0. -1.
    10030    2    1    2    0    0  0.00000000000E+00  0.00000000000E+00 -0.23464371203E+03  0.25090912455E+04  0.24980955159E+04 0.  0.
        2    1    3    3  502    0 -0.95005011115E+03 -0.50918375451E+03  0.51653197564E+03  0.11952692548E+04  0.25500000920E-02 0.  1.
       -2    1    3    3    0  502  0.95005011115E+03  0.50918375451E+03 -0.75117568767E+03  0.13138219907E+04  0.25500000920E-02 0. -1.
</event>
<event>
 5   0  0.5164625E-06  0.2487506E+04  0.7818609E-02  0.8407450E-01
       -3   -1    0    0    0  501  0.00000000000E+00  0.00000000000E+00  0.87759826558E+03  0.87759827139E+03  0.10100000352E+00 0. -1.
        3   -1    0    0  501    0  0.00000000000E+00  0.00000000000E+00 -0.17626754516E+04  0.17626754545E+04  0.10100000352E+00 0.  1.
    10030    2    1    2    0    0  0.00000000000E+00  0.00000000000E+00 -0.88507718603E+03  0.26402737259E+04  0.24875055221E+04 0.  0.
        5    1    3    3  502    0 -0.10645698544E+04  0.59808615312E+03 -0.19162507847E+03  0.12360251948E+04  0.46999998093E+01 0.  1.
       -5    1    3    3    0  502  0.10645698544E+04 -0.59808615312E+03 -0.69345210756E+03  0.14042485311E+04  0.46999998093E+01 0. -1.
</event>
<event>
 5   0  0.5164625E-06  0.2500492E+04  0.7818609E-02  0.8402810E-01
       -3   -1    0    0    0  501  0.00000000000E+00  0.00000000000E+00  0.20966742290E+04  0.20966742315E+04  0.10100000352E+00 0.  1.
        3   -1    0    0  501    0  0.00000000000E+00  0.00000000000E+00 -0.74552133206E+03  0.74552133891E+03  0.10100000352E+00 0. -1.
    10030    2    1    2    0    0  0.00000000000E+00  0.00000000000E+00  0.13511528970E+04  0.28421955704E+04  0.25004922534E+04 0.  0.
        1    1    3    3  502    0 -0.11700002248E+04 -0.21165912395E+03  0.23621096901E+03  0.12122275911E+04  0.50400001928E-02 0. -1.
       -1    1    3    3    0  502  0.11700002248E+04  0.21165912395E+03  0.11149419280E+04  0.16299679793E+04  0.50400001928E-02 0.  1.
</event>
<event>
 5   0  0.6346420E-06  0.2506154E+04  0.7818609E-02  0.8400796E-01
        1   -1    0    0  501    0  0.00000000000E+00  0.00000000000E+00  0.30167838433E+04  0.30167838433E+04  0.50400001928E-02 0.  1.
       -1   -1    0    0    0  501  0.00000000000E+00  0.00000000000E+00 -0.52048863985E+03  0.52048863987E+03  0.50400001928E-02 0. -1.
    10030    2    1    2    0    0  0.00000000000E+00  0.00000000000E+00  0.24962952034E+04  0.35372724831E+04  0.25061538016E+04 0.  0.
        4    1    3    3  502    0  0.84407795117E+03 -0.52222664903E+03  0.16859669675E+03  0.10067843462E+04  0.12699999809E+01 0. -1.
       -4    1    3    3    0  502 -0.84407795117E+03  0.52222664903E+03  0.23276985067E+04  0.25304881370E+04  0.12699999809E+01 0.  1.
</event>
<event>
 5   0  0.6105353E-06  0.2492560E+04  0.7818609E-02  0.8405641E-01
       -1   -1    0    0    0  501  0.00000000000E+00  0.00000000000E+00  0.10452849428E+04  0.10452849428E+04  0.50400001928E-02 0.  1.
        1   -1    0    0  501    0  0.00000000000E+00  0.00000000000E+00 -0.14859243688E+04  0.14859243688E+04  0.50400001928E-02 0. -1.
    10030    2    1    2    0    0  0.00000000000E+00  0.00000000000E+00 -0.44063942604E+03  0.25312093116E+04  0.24925604256E+04 0.  0.
        3    1    3    3  502    0  0.50109961122E+03  0.11308714505E+04 -0.37514121042E+03  0.12925563802E+04  0.10100000352E+00 0.  1.
       -3    1    3    3    0  502 -0.50109961122E+03 -0.11308714505E+04 -0.65498215619E+02  0.12386529314E+04  0.10100000352E+00 0. -1.
</event>
<event>
 5   0  0.1468512E-05  0.2509081E+04  0.7818609E-02  0.8399758E-01
        2   -1    0    0  501    0  0.00000000000E+00  0.00000000000E+00  0.13340701088E+04  0.13340701088E+04  0.25500000920E-02 0. -1.
       -2   -1    0    0    0  501  0.00000000000E+00  0.00000000000E+00 -0.11797516588E+04  0.11797516588E+04  0.25500000920E-02 0.  1.
    10030    2    1    2    0    0  0.00000000000E+00  0.00000000000E+00  0.15431845000E+03  0.25138217676E+04  0.25090806474E+04 0.  0.
        4    1    3    3  502    0  0.10288364912E+04  0.41174766863E+03  0.66634283330E+03  0.12930796776E+04  0.12699999809E+01 0. -1.
       -4    1    3    3    0  502 -0.10288364912E+04 -0.41174766863E+03 -0.51202438330E+03  0.12207420900E+04  0.12699999809E+01 0.  1.
</event>
<event>
 5   0  0.1550483E-05  0.2461461E+04  0.7818609E-02  0.8416845E-01
        2   -1    0    0  501    0  0.00000000000E+00  0.00000000000E+00  0.19562986935E+04  0.19562986935E+04  0.25500000920E-02 0.  1.
       -2   -1    0    0    0  501  0.00000000000E+00  0.00000000000E+00 -0.77426731702E+03  0.77426731703E+03  0.25500000920E-02 0. -1.
    10030    2    1    2    0    0  0.00000000000E+00  0.00000000000E+00  0.11820313764E+04  0.27305660105E+04  0.24614614689E+04 0.  0.
        5    1    3    3  502    0  0.12755441950E+03 -0.10588724169E+04  0.12723224103E+04  0.16602130378E+04  0.46999998093E+01 0.  1.
       -5    1    3    3    0  502 -0.12755441950E+03  0.10588724169E+04 -0.90291033821E+02  0.10703529727E+04  0.46999998093E+01 0. -1.
</event>
<event>
 5   0  0.6477703E-06  0.2444331E+04  0.7818609E-02  0.8423091E-01
        1   -1    0    0  501    0  0.00000000000E+00  0.00000000000E+00  0.17827545514E+04  0.17827545514E+04  0.50400001928E-02 0.  1.
       -1   -1    0    0    0  501  0.00000000000E+00  0.00000000000E+00 -0.83785420464E+03  0.83785420465E+03  0.50400001928E-02 0. -1.
    10030    2    1    2    0    0  0.00000000000E+00  0.00000000000E+00  0.94490034672E+03  0.26206087560E+04  0.24443309078E+04 0.  0.
        5    1    3    3  502    0 -0.32194712003E+03  0.49753055169E+03 -0.67350185104E+03  0.89711394556E+03  0.46999998093E+01 0. -1.
       -5    1    3    3    0  502  0.32194712003E+03 -0.49753055169E+03  0.16184021978E+04  0.17234948105E+04  0.46999998093E+01 0.  1.
</event>
<event>
 5   0  0.1572732E-05  0.2504910E+04  0.7818609E-02  0.8401238E-01
       -2   -1    0    0    0  501  0.00000000000E+00  0.00000000000E+00  0.12401731006E+04  0.12401731006E+04  0.25500000920E-02 0. -1.
        2   -1    0    0  501    0  0.00000000000E+00  0.00000000000E+00 -0.12648588402E+04  0.12648588402E+04  0.25500000920E-02 0.  1.
    10030    2    1    2    0    0  0.00000000000E+00  0.00000000000E+00 -0.24685739653E+02  0.25050319408E+04  0.25049103055E+04 0.  0.
        1    1    3    3  502    0  0.57657252801E+03  0.19051766084E+03 -0.11078005758E+04  0.12633111157E+04  0.50400001928E-02 0.  1.
       -1    1    3    3    0  502 -0.57657252801E+03 -0.19051766084E+03  0.10831148362E+04  0.12417208251E+04  0.50400001928E-02 0. -1.
</event>
<event>
 5   0  0.1526824E-05  0.2516406E+04  0.7818609E-02  0.8397164E-01
       -2   -1    0    0    0  501  0.00000000000E+00  0.00000000000E+00  0.16640819769E+04  0.16640819769E+04  0.25500000920E-02 0. -1.
        2   -1    0    0  501    0  0.00000000000E+00  0.00000000000E+00 -0.95132002278E+03  0.95132002278E+03  0.25500000920E-02 0.  1.
    10030    2    1    2    0    0  0.00000000000E+00  0.00000000000E+00  0.71276195415E+03  0.26154019997E+04  0.25164057735E+04 0.  0.
        2    1    3    3  502    0  0.90666247331E+03 -0.68594560754E+02 -0.54750603377E+03  0.10613693567E+04  0.25500000920E-02 0.  1.
       -2    1    3    3    0  502 -0.90666247331E+03  0.68594560754E+02  0.12602679879E+04  0.15540326430E+04  0.25500000920E-02 0. -1.
</event>
<event>
 5   0  0.1526824E-05  0.2503119E+04  0.7818609E-02  0.8401875E-01
       -2   -1    0    0    0  501  0.00000000000E+00  0.00000000000E+00  0.66324211829E+03  0.66324211829E+03  0.25500000920E-02 0. -1.
        2   -1    0    0  501    0  0.00000000000E+00  0.00000000000E+00 -0.23617327455E+04  0.23617327455E+04  0.25500000920E-02 0.  1.
    10030    2    1    2    0    0  0.00000000000E+00  0.00000000000E+00 -0.16984906272E+04  0.30249748638E+04  0.25031185581E+04 0.  0.
        2    1    3    3  502    0 -0.82469388498E+03 -0.29697600580E+03  0.23036037164E+03  0.90630053116E+03  0.25500000920E-02 0. -1.
       -2    1    3    3    0  502  0.82469388498E+03  0.29697600580E+03 -0.19288509988E+04  0.21186743326E+04  0.25500000920E-02 0.  1.
</event>
<event>
 5   0  0.6346420E-06  0.2465583E+04  0.7818609E-02  0.8415350E-01
        1   -1    0    0  501    0  0.00000000000E+00  0.00000000000E+00  0.15658781657E+04  0.15658781657E+04  0.50400001928E-02 0.  1.
       -1   -1    0    0    0  501  0.00000000000E+00  0.00000000000E+00 -0.97055786115E+03  0.97055786116E+03  0.50400001928E-02 0. -1.
    10030    2    1    2    0    0  0.00000000000E+00  0.00000000000E+00  0.59532030455E+03  0.25364360269E+04  0.24655833901E+04 0.  0.
        4    1    3    3  502    0 -0.92418375252E+03  0.73745480707E+03  0.65671511155E+03  0.13524908693E+04  0.12699999809E+01 0.  1.
       -4    1    3    3    0  502  0.92418375252E+03 -0.73745480707E+03 -0.61394807002E+02  0.11839451576E+04  0.12699999809E+01 0. -1.
</event>
<event>
 5   0  0.6290861E-06  0.2505997E+04  0.7818609E-02  0.8400852E-01
        1   -1    0    0  501    0  0.00000000000E+00  0.00000000000E+00  0.13951149192E+04  0.13951149192E+04  0.50400001928E-02 0. -1.
       -1   -1    0    0    0  501  0.00000000000E+00  0.00000000000E+00 -0.11253590203E+04  0.11253590203E+04  0.50400001928E-02 0.  1.
    10030    2    1    2    0    0  0.00000000000E+00  0.00000000000E+00  0.26975589888E+03  0.25204739395E+04  0.25059969343E+04 0.  0.
        1    1    3    3  502    0 -0.49294122437E+03  0.83389870929E+03 -0.66446295333E+03  0.11746868197E+04  0.50400001928E-02 0.  1.
       -1    1    3    3    0  502  0.49294122437E+03 -0.83389870929E+03  0.93421885221E+03  0.13457871198E+04  0.50400001928E-02 0. -1.
</event>
<event>
 5   0  0.1550483E-05  0.2503917E+04  0.7818609E-02  0.8401592E-01
       -2   -1    0    0    0  501  0.00000000000E+00  0.00000000000E+00  0.69275600849E+03  0.69275600850E+03  0.25500000920E-02 0. -1.
        2   -1    0    0  501    0  0.00000000000E+00  0.00000000000E+00 -0.22625563541E+04  0.22625563541E+04  0.25500000920E-02 0.  1.
    10030    2    1    2    0    0  0.00000000000E+00  0.00000000000E+00 -0.15698003456E+04  0.29553123625E+04  0.25039165392E+04 0.  0.
        5    1    3    3  502    0  0.31158848395E+02  0.86466962850E+03 -0.18528724718E+04  0.20449408126E+04  0.46999998093E+01 0.  1.
       -5    1    3    3    0  502 -0.31158848395E+02 -0.86466962850E+03  0.28307212625E+03  0.91037154994E+03  0.46999998093E+01 0. -1.
</event>
<event>
 5   0  0.6477703E-06  0.2497103E+04  0.7818609E-02  0.8404018E-01
       -1   -1    0    0    0  501  0.00000000000E+00  0.00000000000E+00  0.10986457645E+04  0.10986457646E+04  0.50400001928E-02 0.  1.
        1   -1    0    0  501    0  0.00000000000E+00  0.00000000000E+00 -0.14189117702E+04  0.14189117702E+04  0.50400001928E-02 0. -1.
    10030    2    1    2    0    0  0.00000000000E+00  0.00000000000E+00 -0.32026600565E+03  0.25175575348E+04  0.24971034473E+04 0.  0.
        5    1    3    3  502    0 -0.41182706501E+03  0.27384803373E+03 -0.13159374149E+04  0.14058120952E+04  0.46999998093E+01 0. -1.
       -5    1    3    3    0  502  0.41182706501E+03 -0.27384803373E+03  0.99567140929E+03  0.11117454395E+04  0.46999998093E+01 0.  1.
</event>
<event>
 5   0  0.1526824E-05  0.2515550E+04  0.7818609E-02  0.8397467E-01
        2   -1    0    0  501    0  0.00000000000E+00  0.00000000000E+00  0.21231745028E+04  0.21231745028E+04  0.25500000920E-02 0. -1.
       -2   -1    0    0    0  501  0.00000000000E+00  0.00000000000E+00 -0.74510948894E+03  0.74510948894E+03  0.25500000920E-02 0.  1.
    10030    2    1    2    0    0  0.00000000000E+00  0.00000000000E+00  0.13780650138E+04  0.28682839917E+04  0.25155496168E+04 0.  0.
        2    1    3    3  502    0  0.39892122653E+03  0.10068112763E+04 -0.40344330604E+02  0.10837134105E+04  0.25500000920E-02 0.  1.
       -2    1    3    3    0  502 -0.39892122653E+03 -0.10068112763E+04  0.14184093444E+04  0.17845705812E+04  0.25500000920E-02 0. -1.
</event>
<event>
 5   0  0.1468512E-05  0.2457651E+04  0.7818609E-02  0.8418230E-01
        2   -1    0    0  501    0  0.00000000000E+00  0.00000000000E+00  0.12246002195E+04  0.12246002195E+04  0.25500000920E-02 0. -1.
       -2   -1    0    0    0  501  0.00000000000E+00  0.00000000000E+00 -0.12330649070E+04  0.12330649070E+04  0.25500000920E-02 0.  1.
    10030    2    1    2    0    0  0.00000000000E+00  0.00000000000E+00 -0.84646875089E+01  0.24576651266E+04  0.24576505495E+04 0.  0.
        4    1    3    3  502    0 -0.36692349395E+03 -0.48292626485E+03 -0.10729572215E+04  0.12325134643E+04  0.12699999809E+01 0.  1.
       -4    1    3    3    0  502  0.36692349395E+03  0.48292626485E+03  0.10644925340E+04  0.12251516622E+04  0.12699999809E+01 0. -1.
</event>
<event>
 5   0  0.6346420E-06  0.2500253E+04  0.7818609E-02  0.8402896E-01
        1   -1    0    0  501    0  0.00000000000E+00  0.00000000000E+00  0.19403701036E+04  0.19403701036E+04  0.50400001928E-02 0. -1.
       -1   -1    0    0    0  501  0.00000000000E+00  0.00000000000E+00 -0.80542154872E+03  0.80542154874E+03  0.50400001928E-02 0.  1.
    10030    2    1    2    0    0  0.00000000000E+00  0.00000000000E+00  0.11349485548E+04  0.27457916523E+04  0.25002527024E+04 0.  0.
        4    1    3    3  502    0  0.81484005432E+03 -0.50793179053E+03  0.14466256382E+04  0.17362852208E+04  0.12699999809E+01 0. -1.
       -4    1    3    3    0  502 -0.81484005432E+03  0.50793179053E+03 -0.31167708341E+03  0.10095064315E+04  0.12699999809E+01 0.  1.
</event>
<event>
 5   0  0.1550483E-05  0.2519599E+04  0.7818609E-02  0.8396037E-01
        2   -1    0    0  501    0  0.00000000000E+00  0.00000000000E+00  0.16444471104E+04  0.16444471104E+04  0.25500000920E-02 0.  1.
       -2   -1    0    0    0  501  0.00000000000E+00  0.00000000000E+00 -0.96512337720E+03  0.96512337721E+03  0.25500000920E-02 0. -1.
    10030    2    1    2    0    0  0.00000000000E+00  0.00000000000E+00  0.67932373318E+03  0.26095704876E+04  0.25195986576E+04 0.  0.
        5    1    3    3  502    0 -0.88312296645E+03 -0.89077278511E+03  0.46084391284E+03  0.13363313700E+04  0.46999998093E+01 0.  1.
       -5    1    3    3    0  502  0.88312296645E+03  0.89077278511E+03  0.21847982034E+03  0.12732391175E+04  0.46999998093E+01 0. -1.
</event>
<event>
 5   0  0.1501947E-05  0.2519435E+04  0.7818609E-02  0.8396094E-01
       -2   -1    0    0    0  501  0.00000000000E+00  0.00000000000E+00  0.10442909804E+04  0.10442909804E+04  0.25500000920E-02 0.  1.
        2   -1    0    0  501    0  0.00000000000E+00  0.00000000000E+00 -0.15195841701E+04  0.15195841701E+04  0.25500000920E-02 0. -1.
    10030    2    1    2    0    0  0.00000000000E+00  0.00000000000E+00 -0.47529318977E+03  0.25638751505E+04  0.25194348912E+04 0.  0.
        3    1    3    3  502    0 -0.10798526828E+04  0.14814362862E+03  0.40504674958E+03  0.11627945781E+04  0.10100000352E+00 0.  1.
       -3    1    3    3    0  502  0.10798526828E+04 -0.14814362862E+03 -0.88033993935E+03  0.14010805724E+04  0.10100000352E+00 0. -1.
</event>
<event>
 5   0  0.1468512E-05  0.2516064E+04  0.7818609E-02  0.8397285E-01
       -2   -1    0    0    0  501  0.00000000000E+00  0.00000000000E+00  0.13321503840E+04  0.13321503840E+04  0.25500000920E-02 0. -1.
        2   -1    0    0  501    0  0.00000000000E+00  0.00000000000E+00 -0.11880376275E+04  0.11880376275E+04  0.25500000920E-02 0.  1.
    10030    2    1    2    0    0  0.00000000000E+00  0.00000000000E+00  0.14411275647E+03  0.25201880115E+04  0.25160642135E+04 0.  0.
        4    1    3    3  502    0  0.69571667668E+02 -0.11734105881E+04 -0.37690872407E+03  0.12344206837E+04  0.12699999809E+01 0.  1.
       -4    1    3    3    0  502 -0.69571667668E+02  0.11734105881E+04  0.52102148054E+03  0.12857673278E+04  0.12699999809E+01 0. -1.
</event>
<event>
 5   0  0.6104486E-06  0.2537554E+04  0.7818609E-02  0.8389727E-01
        1   -1    0    0  501    0  0.00000000000E+00  0.00000000000E+00  0.12851182121E+04  0.12851182121E+04  0.50400001928E-02 0.  1.
       -1   -1    0    0    0  501  0.00000000000E+00  0.00000000000E+00 -0.12526440489E+04  0.12526440489E+04  0.50400001928E-02 0. -1.
    10030    2    1    2    0    0  0.00000000000E+00  0.00000000000E+00  0.32474163130E+02  0.25377622610E+04  0.25375544767E+04 0.  0.
        2    1    3    3  502    0  0.42217709208E+03 -0.20523929341E+02 -0.11801639112E+04  0.12535715321E+04  0.25500000920E-02 0. -1.
       -2    1    3    3    0  502 -0.42217709208E+03  0.20523929341E+02  0.12126380744E+04  0.12841907289E+04  0.25500000920E-02 0.  1.
</event>
<event>
 5   0  0.1550483E-05  0.2467968E+04  0.7818609E-02  0.8414487E-01
       -2   -1    0    0    0  501  0.00000000000E+00  0.00000000000E+00  0.59300940466E+03  0.59300940466E+03  0.25500000920E-02 0.  1.
        2   -1    0    0  501    0  0.00000000000E+00  0.00000000000E+00 -0.25677775278E+04  0.25677775278E+04  0.25500000920E-02 0. -1.
    10030    2    1    2    0    0  0.00000000000E+00  0.00000000000E+00 -0.19747681231E+04  0.31607869325E+04  0.24679677656E+04 0.  0.
        5    1    3    3  502    0 -0.12878980390E+03 -0.18101242216E+03  0.56717596652E+03  0.60914938854E+03  0.46999998093E+01 0.  1.
       -5    1    3    3    0  502  0.12878980390E+03  0.18101242216E+03 -0.25419440897E+04  0.25516375439E+04  0.46999998093E+01 0. -1.
</event>
<event>
 5   0  0.6477703E-06  0.2519692E+04  0.7818609E-02  0.8396004E-01
        1   -1    0    0  501    0  0.00000000000E+00  0.00000000000E+00  0.17283368843E+04  0.17283368843E+04  0.50400001928E-02 0. -1.
       -1   -1    0    0    0  501  0.00000000000E+00  0.00000000000E+00 -0.91834636723E+03  0.91834636725E+03  0.50400001928E-02 0.  1.
    10030    2    1    2    0    0  0.00000000000E+00  0.00000000000E+00  0.80999051703E+03  0.26466832515E+04  0.25196919645E+04 0.  0.
        5    1    3    3  502    0  0.83446698147E+03 -0.94239737879E+03  0.45999695361E+03  0.13401743357E+04  0.46999998093E+01 0.  1.
       -5    1    3    3    0  502 -0.83446698147E+03  0.94239737879E+03  0.34999356342E+03  0.13065089158E+04  0.46999998093E+01 0. -1.
</event>
<event>
 5   0  0.1468512E-05  0.2643758E+04  0.7818609E-02  0.8353488E-01
        2   -1    0    0  501    0  0.00000000000E+00  0.00000000000E+00  0.15874321395E+04  0.15874321395E+04  0.25500000920E-02 0.  1.
       -2   -1    0    0    0  501  0.00000000000E+00  0.00000000000E+00 -0.11007485119E+04  0.11007485119E+04  0.25500000920E-02 0. -1.
    10030    2    1    2    0    0  0.00000000000E+00  0.00000000000E+00  0.48668362760E+03  0.26881806514E+04  0.26437576025E+04 0.  0.
        4    1    3    3  502    0 -0.74720989117E+03 -0.24250985438E+03  0.13243274078E+04  0.15397981513E+04  0.12699999809E+01 0. -1.
       -4    1    3    3    0  502  0.74720989117E+03  0.24250985438E+03 -0.83764378019E+03  0.11483825000E+04  0.12699999809E+01 0.  1.
</event>
<event>
 5   0  0.6290861E-06  0.2493030E+04  0.7818609E-02  0.8405473E-01
        1   -1    0    0  501    0  0.00000000000E+00  0.00000000000E+00  0.18491812677E+04  0.18491812677E+04  0.50400001928E-02 0.  1.
       -1   -1    0    0    0  501  0.00000000000E+00  0.00000000000E+00 -0.84026357794E+03  0.84026357795E+03  0.50400001928E-02 0. -1.
    10030    2    1    2    0    0  0.00000000000E+00  0.00000000000E+00  0.10089176897E+04  0.26894448456E+04  0.24930300185E+04 0.  0.
        1    1    3    3  502    0  0.11425955546E+03 -0.87052434119E+03 -0.45008767626E+03  0.98663407146E+03  0.50400001928E-02 0. -1.
       -1    1    3    3    0  502 -0.11425955546E+03  0.87052434119E+03  0.14590053660E+04  0.17028107742E+04  0.50400001928E-02 0.  1.
</event>
<event>
 5   0  0.1550483E-05  0.2235525E+04  0.7818609E-02  0.8503785E-01
        2   -1    0    0  501    0  0.00000000000E+00  0.00000000000E+00  0.13247465260E+04  0.13247465260E+04  0.25500000920E-02 0. -1.
       -2   -1    0    0    0  501  0.00000000000E+00  0.00000000000E+00 -0.94311884388E+03  0.94311884389E+03  0.25500000920E-02 0.  1.
    10030    2    1    2    0    0  0.00000000000E+00  0.00000000000E+00  0.38162768212E+03  0.22678653699E+04  0.22355253629E+04 0.  0.
        5    1    3    3  502    0  0.23122926705E+03  0.73303793547E+03 -0.63244282200E+03  0.99539821271E+03  0.46999998093E+01 0.  1.
       -5    1    3    3    0  502 -0.23122926705E+03 -0.73303793547E+03  0.10140705041E+04  0.12724671572E+04  0.46999998093E+01 0. -1.
</event>
<event>
 5   0  0.6477703E-06  0.2497661E+04  0.7818609E-02  0.8403819E-01
       -1   -1    0    0    0  501  0.00000000000E+00  0.00000000000E+00  0.10010030139E+04  0.10010030140E+04  0.50400001928E-02 0. -1.
        1   -1    0    0  501    0  0.00000000000E+00  0.00000000000E+00 -0.15580146315E+04  0.15580146315E+04  0.50400001928E-02 0.  1.
    10030    2    1    2    0    0  0.00000000000E+00  0.00000000000E+00 -0.55701161756E+03  0.25590176455E+04  0.24976607792E+04 0.  0.
        5    1    3    3  502    0 -0.89554393058E+03 -0.85399953439E+03 -0.10632658303E+03  0.12420312269E+04  0.46999998093E+01 0.  1.
       -5    1    3    3    0  502  0.89554393058E+03  0.85399953439E+03 -0.45068503453E+03  0.13169864186E+04  0.46999998093E+01 0. -1.
</event>
<event>
 5   0  0.6477703E-06  0.2514791E+04  0.7818609E-02  0.8397735E-01
       -1   -1    0    0    0  501  0.00000000000E+00  0.00000000000E+00  0.12568530984E+04  0.12568530985E+04  0.50400001928E-02 0. -1.
        1   -1    0    0  501    0  0.00000000000E+00  0.00000000000E+00 -0.12579377920E+04  0.12579377920E+04  0.50400001928E-02 0.  1.
    10030    2    1    2    0    0  0.00000000000E+00  0.00000000000E+00 -0.10846935537E+01  0.25147908905E+04  0.25147906565E+04 0.  0.
        5    1    3    3  502    0  0.11319197649E+04 -0.18757962930E+02 -0.54774136159E+03  0.12576314661E+04  0.46999998093E+01 0.  1.
       -5    1    3    3    0  502 -0.11319197649E+04  0.18757962930E+02  0.54665666804E+03  0.12571594243E+04  0.46999998093E+01 0. -1.
</event>
<event>
 5   0  0.1550483E-05  0.2484821E+04  0.7818609E-02  0.8408413E-01
       -2   -1    0    0    0  501  0.00000000000E+00  0.00000000000E+00  0.10268103868E+04  0.10268103868E+04  0.25500000920E-02 0.  1.
        2   -1    0    0  501    0  0.00000000000E+00  0.00000000000E+00 -0.15032807419E+04  0.15032807419E+04  0.25500000920E-02 0. -1.
    10030    2    1    2    0    0  0.00000000000E+00  0.00000000000E+00 -0.47647035509E+03  0.25300911286E+04  0.24848213457E+04 0.  0.
        5    1    3    3  502    0 -0.13396455298E+03  0.12049399998E+04 -0.51472469939E+03  0.13171144638E+04  0.46999998093E+01 0. -1.
       -5    1    3    3    0  502  0.13396455298E+03 -0.12049399998E+04  0.38254344299E+02  0.12129766648E+04  0.46999998093E+01 0.  1.
</event>
<event>
 5   0  0.6346420E-06  0.2512137E+04  0.7818609E-02  0.8398674E-01
        1   -1    0    0  501    0  0.00000000000E+00  0.00000000000E+00  0.13041013361E+04  0.13041013361E+04  0.50400001928E-02 0. -1.
       -1   -1    0    0    0  501  0.00000000000E+00  0.00000000000E+00 -0.12098049493E+04  0.12098049493E+04  0.50400001928E-02 0.  1.
    10030    2    1    2    0    0  0.00000000000E+00  0.00000000000E+00  0.94296386812E+02  0.25139062854E+04  0.25121371387E+04 0.  0.
        4    1    3    3  502    0  0.12281268955E+04 -0.21223700074E+03  0.20335559934E+03  0.12628124677E+04  0.12699999809E+01 0. -1.
       -4    1    3    3    0  502 -0.12281268955E+04  0.21223700074E+03 -0.10905921253E+03  0.12510938177E+04  0.12699999809E+01 0.  1.
</event>
<event>
 5   0  0.6346420E-06  0.2479436E+04  0.7818609E-02  0.8410348E-01
       -1   -1    0    0    0  501  0.00000000000E+00  0.00000000000E+00  0.65779324941E+03  0.65779324943E+03  0.50400001928E-02 0.  1.
        1   -1    0    0  501    0  0.00000000000E+00  0.00000000000E+00 -0.23364490457E+04  0.23364490458E+04  0.50400001928E-02 0. -1.
    10030    2    1    2    0    0  0.00000000000E+00  0.00000000000E+00 -0.16786557963E+04  0.29942422952E+04  0.24794357503E+04 0.  0.
        4    1    3    3  502    0 -0.10828811544E+04  0.47244729151E+03 -0.38576534627E+03  0.12428413226E+04  0.12699999809E+01 0.  1.
       -4    1    3    3    0  502  0.10828811544E+04 -0.47244729151E+03 -0.12928904501E+04  0.17514009726E+04  0.12699999809E+01 0. -1.
</event>
<event>
 5   0  0.6477703E-06  0.2489097E+04  0.7818609E-02  0.8406880E-01
       -1   -1    0    0    0  501  0.00000000000E+00  0.00000000000E+00  0.10994239739E+04  0.10994239739E+04  0.50400001928E-02 0. -1.
        1   -1    0    0  501    0  0.00000000000E+00  0.00000000000E+00 -0.14088296649E+04  0.14088296649E+04  0.50400001928E-02 0.  1.
    10030    2    1    2    0    0  0.00000000000E+00  0.00000000000E+00 -0.30940569093E+03  0.25082536388E+04  0.24890971124E+04 0.  0.
        5    1    3    3  502    0  0.79916132608E+03 -0.79059870574E+03 -0.69282947309E+03  0.13205074431E+04  0.46999998093E+01 0.  1.
       -5    1    3    3    0  502 -0.79916132608E+03  0.79059870574E+03  0.38342378215E+03  0.11877461957E+04  0.46999998093E+01 0. -1.
</event>
<event>
 5   0  0.6346420E-06  0.2455765E+04  0.7818609E-02  0.8418916E-01
        1   -1    0    0  501    0  0.00000000000E+00  0.00000000000E+00  0.10940962559E+04  0.10940962559E+04  0.50400001928E-02 0. -1.
       -1   -1    0    0    0  501  0.00000000000E+00  0.00000000000E+00 -0.13780282446E+04  0.13780282446E+04  0.50400001928E-02 0.  1.
    10030    2    1    2    0    0  0.00000000000E+00  0.00000000000E+00 -0.28393198865E+03  0.24721245005E+04  0.24557650889E+04 0.  0.
        4    1    3    3  502    0 -0.37166120112E+03 -0.28176929530E+03 -0.12853882510E+04  0.13673882232E+04  0.12699999809E+01 0.  1.
       -4    1    3    3    0  502  0.37166120112E+03  0.28176929530E+03  0.10014562623E+04  0.11047362773E+04  0.12699999809E+01 0. -1.
</event>
<event>
 5   0  0.6346420E-06  0.2510931E+04  0.7818609E-02  0.8399102E-01
        1   -1    0    0  501    0  0.00000000000E+00  0.00000000000E+00  0.26765212217E+04  0.26765212217E+04  0.50400001928E-02 0. -1.
       -1   -1    0    0    0  501  0.00000000000E+00  0.00000000000E+00 -0.58889637094E+03  0.58889637096E+03  0.50400001928E-02 0.  1.
    10030    2    1    2    0    0  0.00000000000E+00  0.00000000000E+00  0.20876248508E+04  0.32654175927E+04  0.25109310100E+04 0.  0.
        4    1    3    3  502    0 -0.17773189958E+03  0.10312991258E+04  0.14185092440E+03  0.10560728255E+04  0.12699999809E+01 0.  1.
       -4    1    3    3    0  502  0.17773189958E+03 -0.10312991258E+04  0.19457739264E+04  0.22093447672E+04  0.12699999809E+01 0. -1.
</event>
<event>
 5   0  0.6346420E-06  0.2484218E+04  0.7818609E-02  0.8408630E-01
       -1   -1    0    0    0  501  0.00000000000E+00  0.00000000000E+00  0.90498435231E+03  0.90498435232E+03  0.50400001928E-02 0. -1.
        1   -1    0    0  501    0  0.00000000000E+00  0.00000000000E+00 -0.17048191163E+04  0.17048191163E+04  0.50400001928E-02 0.  1.
    10030    2    1    2    0    0  0.00000000000E+00  0.00000000000E+00 -0.79983476399E+03  0.26098034686E+04  0.24842178840E+04 0.  0.
        4    1    3    3  502    0 -0.49368999313E+03 -0.12382129892E+03 -0.15902325915E+04  0.16697014199E+04  0.12699999809E+01 0.  1.
       -4    1    3    3    0  502  0.49368999313E+03  0.12382129892E+03  0.79039782755E+03  0.94010204876E+03  0.12699999809E+01 0. -1.
</event>
<event>
 5   0  0.6290861E-06  0.2497012E+04  0.7818609E-02  0.8404051E-01
        1   -1    0    0  501    0  0.00000000000E+00  0.00000000000E+00  0.17121865768E+04  0.17121865768E+04  0.50400001928E-02 0. -1.
       -1   -1    0    0    0  501  0.00000000000E+00  0.00000000000E+00 -0.91039557822E+03  0.91039557823E+03  0.50400001928E-02 0.  1.
    10030    2    1    2    0    0  0.00000000000E+00  0.00000000000E+00  0.80179099859E+03  0.26225821550E+04  0.24970118851E+04 0.  0.
        1    1    3    3  502    0  0.10611062710E+03  0.78070114425E+03 -0.61632007581E+03  0.10003020432E+04  0.50400001928E-02 0.  1.
       -1    1    3    3    0  502 -0.10611062710E+03 -0.78070114425E+03  0.14181110744E+04  0.16222801118E+04  0.50400001928E-02 0. -1.
</event>
<event>
 5   0  0.1526824E-05  0.2480498E+04  0.7818609E-02  0.8409966E-01
        2   -1    0    0  501    0  0.00000000000E+00  0.00000000000E+00  0.13398970604E+04  0.13398970604E+04  0.25500000920E-02 0.  1.
       -2   -1    0    0    0  501  0.00000000000E+00  0.00000000000E+00 -0.11480120063E+04  0.11480120063E+04  0.25500000920E-02 0. -1.
    10030    2    1    2    0    0  0.00000000000E+00  0.00000000000E+00  0.19188505409E+03  0.24879090666E+04  0.24804982664E+04 0.  0.
        2    1    3    3  502    0  0.98935607358E+03  0.14315564714E+03  0.83223309434E+03  0.13007424430E+04  0.25500000920E-02 0.  1.
       -2    1    3    3    0  502 -0.98935607358E+03 -0.14315564714E+03 -0.64034804025E+03  0.11871666236E+04  0.25500000920E-02 0. -1.
</event>
<event>
 5   0  0.6290861E-06  0.2500685E+04  0.7818609E-02  0.8402741E-01
        1   -1    0    0  501    0  0.00000000000E+00  0.00000000000E+00  0.21306593722E+04  0.21306593722E+04  0.50400001928E-02 0. -1.
       -1   -1    0    0    0  501  0.00000000000E+00  0.00000000000E+00 -0.73374310503E+03  0.73374310505E+03  0.50400001928E-02 0.  1.
    10030    2    1    2    0    0  0.00000000000E+00  0.00000000000E+00  0.13969162672E+04  0.28644024773E+04  0.25006852050E+04 0.  0.
        1    1    3    3  502    0  0.98439124100E+02 -0.12185266864E+04  0.39788122450E+03  0.12856154229E+04  0.50400001928E-02 0.  1.
       -1    1    3    3    0  502 -0.98439124100E+02  0.12185266864E+04  0.99903504268E+03  0.15787870544E+04  0.50400001928E-02 0. -1.
</event>
<event>
 5   0  0.6290861E-06  0.2502690E+04  0.7818609E-02  0.8402028E-01
        1   -1    0    0  501    0  0.00000000000E+00  0.00000000000E+00  0.15504349829E+04  0.15504349829E+04  0.50400001928E-02 0.  1.
       -1   -1    0    0    0  501  0.00000000000E+00  0.00000000000E+00 -0.10099515797E+04  0.10099515797E+04  0.50400001928E-02 0. -1.
    10030    2    1    2    0    0  0.00000000000E+00  0.00000000000E+00  0.54048340319E+03  0.25603865627E+04  0.25026899610E+04 0.  0.
        1    1    3    3  502    0  0.48713968714E+03  0.12909115850E+03  0.14420267968E+04  0.15275506161E+04  0.50400001928E-02 0.  1.
       -1    1    3    3    0  502 -0.48713968714E+03 -0.12909115850E+03 -0.90154339360E+03  0.10328359466E+04  0.50400001928E-02 0. -1.
</event>
<event>
 5   0  0.1550483E-05  0.2503116E+04  0.7818609E-02  0.8401876E-01
       -2   -1    0    0    0  501  0.00000000000E+00  0.00000000000E+00  0.11068964187E+04  0.11068964187E+04  0.25500000920E-02 0.  1.
        2   -1    0    0  501    0  0.00000000000E+00  0.00000000000E+00 -0.14151258730E+04  0.14151258730E+04  0.25500000920E-02 0. -1.
    10030    2    1    2    0    0  0.00000000000E+00  0.00000000000E+00 -0.30822945432E+03  0.25220222917E+04  0.25031162665E+04 0.  0.
        5    1    3    3  502    0 -0.92967880612E+03  0.69340376106E+03 -0.62805486071E+03  0.13189338332E+04  0.46999998093E+01 0. -1.
       -5    1    3    3    0  502  0.92967880612E+03 -0.69340376106E+03  0.31982540640E+03  0.12030884585E+04  0.46999998093E+01 0.  1.
</event>
<event>
 5   0  0.5164625E-06  0.2458283E+04  0.7818609E-02  0.8418000E-01
        4   -1    0    0  501    0  0.00000000000E+00  0.00000000000E+00  0.15366556616E+04  0.15366561864E+04  0.12699999809E+01 0. -1.
       -4   -1    0    0    0  501  0.00000000000E+00  0.00000000000E+00 -0.98316605693E+03  0.98316687719E+03  0.12699999809E+01 0.  1.
    10030    2    1    2    0    0  0.00000000000E+00  0.00000000000E+00  0.55348960469E+03  0.25198230636E+04  0.24582834518E+04 0.  0.
        5    1    3    3  502    0  0.20543305752E+03  0.57804269200E+02  0.15175110899E+04  0.15324510017E+04  0.46999998093E+01 0. -1.
       -5    1    3    3    0  502 -0.20543305752E+03 -0.57804269200E+02 -0.96402148522E+03  0.98737206190E+03  0.46999998093E+01 0.  1.
</event>
<event>
 5   0  0.6105353E-06  0.2506213E+04  0.7818609E-02  0.8400776E-01
        1   -1    0    0  501    0  0.00000000000E+00  0.00000000000E+00  0.12400510214E+04  0.12400510214E+04  0.50400001928E-02 0. -1.
       -1   -1    0    0    0  501  0.00000000000E+00  0.00000000000E+00 -0.12662991771E+04  0.12662991771E+04  0.50400001928E-02 0.  1.
    10030    2    1    2    0    0  0.00000000000E+00  0.00000000000E+00 -0.26248155701E+02  0.25063501985E+04  0.25062127507E+04 0.  0.
        3    1    3    3  502    0 -0.16972334421E+03  0.11815197739E+04  0.36831601647E+03  0.12491804065E+04  0.10100000352E+00 0. -1.
       -3    1    3    3    0  502  0.16972334421E+03 -0.11815197739E+04 -0.39456417217E+03  0.12571697920E+04  0.10100000352E+00 0.  1.
</event>
<event>
 5   0  0.6346420E-06  0.2476066E+04  0.7818609E-02  0.8411562E-01
       -1   -1    0    0    0  501  0.00000000000E+00  0.00000000000E+00  0.97163243423E+03  0.97163243424E+03  0.50400001928E-02 0. -1.
        1   -1    0    0  501    0  0.00000000000E+00  0.00000000000E+00 -0.15774753252E+04  0.15774753253E+04  0.50400001928E-02 0.  1.
    10030    2    1    2    0    0  0.00000000000E+00  0.00000000000E+00 -0.60584289102E+03  0.25491077595E+04  0.24760663886E+04 0.  0.
        4    1    3    3  502    0  0.52881614914E+03  0.97093243527E+03  0.27061967909E+03  0.11382411594E+04  0.12699999809E+01 0.  1.
       -4    1    3    3    0  502 -0.52881614914E+03 -0.97093243527E+03 -0.87646257012E+03  0.14108666001E+04  0.12699999809E+01 0. -1.
</event>
<event>
 5   0  0.6346420E-06  0.2498795E+04  0.7818609E-02  0.8403415E-01
       -1   -1    0    0    0  501  0.00000000000E+00  0.00000000000E+00  0.12654211050E+04  0.12654211050E+04  0.50400001928E-02 0. -1.
        1   -1    0    0  501    0  0.00000000000E+00  0.00000000000E+00 -0.12335768295E+04  0.12335768295E+04  0.50400001928E-02 0.  1.
    10030    2    1    2    0    0  0.00000000000E+00  0.00000000000E+00  0.31844275504E+02  0.24989979345E+04  0.24987950333E+04 0.  0.
        4    1    3    3  502    0  0.27855095211E+03 -0.57995579828E+03 -0.10551705141E+04  0.12358502287E+04  0.12699999809E+01 0.  1.
       -4    1    3    3    0  502 -0.27855095211E+03  0.57995579828E+03  0.10870147896E+04  0.12631477058E+04  0.12699999809E+01 0. -1.
</event>
<event>
 5   0  0.1468512E-05  0.2511653E+04  0.7818609E-02  0.8398846E-01
        2   -1    0    0  501    0  0.00000000000E+00  0.00000000000E+00  0.16063801933E+04  0.16063801933E+04  0.25500000920E-02 0.  1.
       -2   -1    0    0    0  501  0.00000000000E+00  0.00000000000E+00 -0.98177279307E+03  0.98177279307E+03  0.25500000920E-02 0. -1.
    10030    2    1    2    0    0  0.00000000000E+00  0.00000000000E+00  0.62460740027E+03  0.25881529864E+04  0.25116531362E+04 0.  0.
        4    1    3    3  502    0 -0.35478882184E+03  0.17960555551E+03  0.15397887143E+04  0.15903094545E+04  0.12699999809E+01 0.  1.
       -4    1    3    3    0  502  0.35478882184E+03 -0.17960555551E+03 -0.91518131402E+03  0.99784353187E+03  0.12699999809E+01 0. -1.
</event>
<event>
 5   0  0.5164625E-06  0.2501440E+04  0.7818609E-02  0.8402473E-01
       -3   -1    0    0    0  501  0.00000000000E+00  0.00000000000E+00  0.15721965527E+04  0.15721965559E+04  0.10100000352E+00 0.  1.
        3   -1    0    0  501    0  0.00000000000E+00  0.00000000000E+00 -0.99497748290E+03  0.99497748802E+03  0.10100000352E+00 0. -1.
    10030    2    1    2    0    0  0.00000000000E+00  0.00000000000E+00  0.57721906979E+03  0.25671740440E+04  0.25014397289E+04 0.  0.
        5    1    3    3  502    0  0.86098023803E+03  0.69586238506E+03  0.88594128719E+03  0.14178947364E+04  0.46999998093E+01 0.  1.
       -5    1    3    3    0  502 -0.86098023803E+03 -0.69586238506E+03 -0.30872221740E+03  0.11492793075E+04  0.46999998093E+01 0. -1.
</event>
<event>
 5   0  0.6105353E-06  0.2505782E+04  0.7818609E-02  0.8400928E-01
        1   -1    0    0  501    0  0.00000000000E+00  0.00000000000E+00  0.14412613608E+04  0.14412613609E+04  0.50400001928E-02 0. -1.
       -1   -1    0    0    0  501  0.00000000000E+00  0.00000000000E+00 -0.10891407094E+04  0.10891407094E+04  0.50400001928E-02 0.  1.
    10030    2    1    2    0    0  0.00000000000E+00  0.00000000000E+00  0.35212065144E+03  0.25304020703E+04  0.25057824495E+04 0.  0.
        3    1    3    3  502    0 -0.39175844792E+03 -0.11411354970E+03 -0.10201626025E+04  0.10987394274E+04  0.10100000352E+00 0.  1.
       -3    1    3    3    0  502  0.39175844792E+03  0.11411354970E+03  0.13722832539E+04  0.14316626428E+04  0.10100000352E+00 0. -1.
</event>
<event>
 5   0  0.1526824E-05  0.2507160E+04  0.7818609E-02  0.8400439E-01
        2   -1    0    0  501    0  0.00000000000E+00  0.00000000000E+00  0.29421845176E+04  0.29421845176E+04  0.25500000920E-02 0.  1.
       -2   -1    0    0    0  501  0.00000000000E+00  0.00000000000E+00 -0.53411428562E+03  0.53411428563E+03  0.25500000920E-02 0. -1.
    10030    2    1    2    0    0  0.00000000000E+00  0.00000000000E+00  0.24080702319E+04  0.34762988032E+04  0.25071599724E+04 0.  0.
        2    1    3    3  502    0  0.12141068535E+04 -0.57845197683E+01  0.77136563024E+03  0.14384345129E+04  0.25500000920E-02 0.  1.
       -2    1    3    3    0  502 -0.12141068535E+04  0.57845197683E+01  0.16367046017E+04  0.20378642903E+04  0.25500000920E-02 0. -1.
</event>
<event>
 5   0  0.1550483E-05  0.2493966E+04  0.7818609E-02  0.8405138E-01
       -2   -1    0    0    0  501  0.00000000000E+00  0.00000000000E+00  0.91127129360E+03  0.91127129360E+03  0.25500000920E-02 0. -1.
        2   -1    0    0  501    0  0.00000000000E+00  0.00000000000E+00 -0.17063700938E+04  0.17063700938E+04  0.25500000920E-02 0.  1.
    10030    2    1    2    0    0  0.00000000000E+00  0.00000000000E+00 -0.79509880019E+03  0.26176413874E+04  0.24939655833E+04 0.  0.
        5    1    3    3  502    0  0.94893549040E+03 -0.65009345647E+03 -0.90292882120E+03  0.14623278064E+04  0.46999998093E+01 0. -1.
       -5    1    3    3    0  502 -0.94893549040E+03  0.65009345647E+03  0.10783002102E+03  0.11553135810E+04  0.46999998093E+01 0.  1.
</event>
<event>
 5   0  0.1501947E-05  0.2498351E+04  0.7818609E-02  0.8403573E-01
        2   -1    0    0  501    0  0.00000000000E+00  0.00000000000E+00  0.12070604015E+04  0.12070604015E+04  0.25500000920E-02 0. -1.
       -2   -1    0    0    0  501  0.00000000000E+00  0.00000000000E+00 -0.12927602247E+04  0.12927602247E+04  0.25500000920E-02 0.  1.
    10030    2    1    2    0    0  0.00000000000E+00  0.00000000000E+00 -0.85699823145E+02  0.24998206262E+04  0.24983511970E+04 0.  0.
        3    1    3    3  502    0 -0.10202828148E+04  0.71121911968E+03 -0.15966619954E+03  0.12539150545E+04  0.10100000352E+00 0.  1.
       -3    1    3    3    0  502  0.10202828148E+04 -0.71121911968E+03  0.73966376395E+02  0.12459055717E+04  0.10100000352E+00 0. -1.
</event>
<event>
 5   0  0.6104486E-06  0.2495671E+04  0.7818609E-02  0.8404529E-01
        1   -1    0    0  501    0  0.00000000000E+00  0.00000000000E+00  0.23955465467E+04  0.23955465467E+04  0.50400001928E-02 0.  1.
       -1   -1    0    0    0  501  0.00000000000E+00  0.00000000000E+00 -0.64999490781E+03  0.64999490783E+03  0.50400001928E-02 0. -1.
    10030    2    1    2    0    0  0.00000000000E+00  0.00000000000E+00  0.17455516389E+04  0.30455414545E+04  0.24956706969E+04 0.  0.
        2    1    3    3  502    0 -0.48878685612E+03 -0.64071534794E+03 -0.28984973589E+03  0.85641206040E+03  0.25500000920E-02 0. -1.
       -2    1    3    3    0  502  0.48878685612E+03  0.64071534794E+03  0.20354013748E+04  0.21891293941E+04  0.25500000920E-02 0.  1.
</event>
<event>
 5   0  0.1501947E-05  0.2495299E+04  0.7818609E-02  0.8404662E-01
       -2   -1    0    0    0  501  0.00000000000E+00  0.00000000000E+00  0.12813167334E+04  0.12813167334E+04  0.25500000920E-02 0.  1.
        2   -1    0    0  501    0  0.00000000000E+00  0.00000000000E+00 -0.12148671745E+04  0.12148671745E+04  0.25500000920E-02 0. -1.
    10030    2    1    2    0    0  0.00000000000E+00  0.00000000000E+00  0.66449558958E+02  0.24961839079E+04  0.24952992923E+04 0.  0.
        3    1    3    3  502    0  0.10950419940E+04  0.54209944642E+03 -0.21913603726E+03  0.12413739934E+04  0.10100000352E+00 0.  1.
       -3    1    3    3    0  502 -0.10950419940E+04 -0.54209944642E+03  0.28558559622E+03  0.12548099145E+04  0.10100000352E+00 0. -1.
</event>
<event>
 5   0  0.6477703E-06  0.2496718E+04  0.7818609E-02  0.8404156E-01
       -1   -1    0    0    0  501  0.00000000000E+00  0.00000000000E+00  0.12788732284E+04  0.12788732284E+04  0.50400001928E-02 0.  1.
        1   -1    0    0  501    0  0.00000000000E+00  0.00000000000E+00 -0.12185730078E+04  0.12185730078E+04  0.50400001928E-02 0. -1.
    10030    2    1    2    0    0  0.00000000000E+00  0.00000000000E+00  0.60300220600E+02  0.24974462363E+04  0.24967181632E+04 0.  0.
        5    1    3    3  502    0  0.11760304532E+04  0.34867854415E+03 -0.20176648628E+03  0.12431235494E+04  0.46999998093E+01 0.  1.
       -5    1    3    3    0  502 -0.11760304532E+04 -0.34867854415E+03  0.26206670688E+03  0.12543226869E+04  0.46999998093E+01 0. -1.
</event>
<event>
 5   0  0.6105353E-06  0.2486194E+04  0.7818609E-02  0.8407920E-01
       -1   -1    0    0    0  501  0.00000000000E+00  0.00000000000E+00  0.64380501523E+03  0.64380501525E+03  0.50400001928E-02 0. -1.
        1   -1    0    0  501    0  0.00000000000E+00  0.00000000000E+00 -0.24002459922E+04  0.24002459922E+04  0.50400001928E-02 0.  1.
    10030    2    1    2    0    0  0.00000000000E+00  0.00000000000E+00 -0.17564409769E+04  0.30440510074E+04  0.24861942061E+04 0.  0.
        3    1    3    3  502    0  0.46870599935E+03  0.72560419164E+03  0.21628622553E+03  0.89048666375E+03  0.10100000352E+00 0. -1.
       -3    1    3    3    0  502 -0.46870599935E+03 -0.72560419164E+03 -0.19727272025E+04  0.21535643437E+04  0.10100000352E+00 0.  1.
</event>
<event>
 5   0  0.6346420E-06  0.2483373E+04  0.7818609E-02  0.8408933E-01
       -1   -1    0    0    0  501  0.00000000000E+00  0.00000000000E+00  0.67823286705E+03  0.67823286706E+03  0.50400001928E-02 0. -1.
        1   -1    0    0  501    0  0.00000000000E+00  0.00000000000E+00 -0.22732393705E+04  0.22732393705E+04  0.50400001928E-02 0.  1.
    10030    2    1    2    0    0  0.00000000000E+00  0.00000000000E+00 -0.15950065034E+04  0.29514722375E+04  0.24833732347E+04 0.  0.
        4    1    3    3  502    0 -0.13336963475E+03  0.97866085950E+03 -0.16918153778E+04  0.19590317565E+04  0.12699999809E+01 0.  1.
       -4    1    3    3    0  502  0.13336963475E+03 -0.97866085950E+03  0.96808874384E+02  0.99244048106E+03  0.12699999809E+01 0. -1.
</event>
<event>
 5   0  0.1468512E-05  0.2487654E+04  0.7818609E-02  0.8407397E-01
        2   -1    0    0  501    0  0.00000000000E+00  0.00000000000E+00  0.78159801697E+03  0.78159801698E+03  0.25500000920E-02 0.  1.
       -2   -1    0    0    0  501  0.00000000000E+00  0.00000000000E+00 -0.19794136614E+04  0.19794136614E+04  0.25500000920E-02 0. -1.
    10030    2    1    2    0    0  0.00000000000E+00  0.00000000000E+00 -0.11978156445E+04  0.27610116784E+04  0.24876541500E+04 0.  0.
        4    1    3    3  502    0 -0.84643994800E+03 -0.45173205117E+03 -0.14774590942E+04  0.17616496302E+04  0.12699999809E+01 0. -1.
       -4    1    3    3    0  502  0.84643994800E+03  0.45173205117E+03  0.27964344969E+03  0.99936204825E+03  0.12699999809E+01 0.  1.
</event>
<event>
 5   0  0.6346420E-06  0.2502100E+04  0.7818609E-02  0.8402238E-01
        1   -1    0    0  501    0  0.00000000000E+00  0.00000000000E+00  0.17762433619E+04  0.17762433619E+04  0.50400001928E-02 0.  1.
       -1   -1    0    0    0  501  0.00000000000E+00  0.00000000000E+00 -0.88114371969E+03  0.88114371970E+03  0.50400001928E-02 0. -1.
    10030    2    1    2    0    0  0.00000000000E+00  0.00000000000E+00  0.89509964219E+03  0.26573870816E+04  0.25020996647E+04 0.  0.
        4    1    3    3  502    0  0.11910546058E+04 -0.38189459427E+03  0.42006895767E+03  0.13194370380E+04  0.12699999809E+01 0.  1.
       -4    1    3    3    0  502 -0.11910546058E+04  0.38189459427E+03  0.47503068452E+03  0.13379500436E+04  0.12699999809E+01 0. -1.
</event>
<event>
 5   0  0.5164625E-06  0.2497965E+04  0.7818609E-02  0.8403711E-01
        4   -1    0    0  501    0  0.00000000000E+00  0.00000000000E+00  0.19047388303E+04  0.19047392537E+04  0.12699999809E+01 0.  1.
       -4   -1    0    0    0  501  0.00000000000E+00  0.00000000000E+00 -0.81898640566E+03  0.81898739035E+03  0.12699999809E+01 0. -1.
    10030    2    1    2    0    0  0.00000000000E+00  0.00000000000E+00  0.10857524246E+04  0.27237266440E+04  0.24979648724E+04 0.  0.
        2    1    3    3  502    0 -0.91883819746E+03  0.15987381993E+03  0.14487002859E+04  0.17229497351E+04  0.25500000920E-02 0.  1.
       -2    1    3    3    0  502  0.91883819746E+03 -0.15987381993E+03 -0.36294786126E+03  0.10007769089E+04  0.25500000920E-02 0. -1.
</event>
<event>
 5   0  0.6105353E-06  0.2513319E+04  0.7818609E-02  0.8398256E-01
       -1   -1    0    0    0  501  0.00000000000E+00  0.00000000000E+00  0.13524112229E+04  0.13524112229E+04  0.50400001928E-02 0. -1.
        1   -1    0    0  501    0  0.00000000000E+00  0.00000000000E+00 -0.11676867394E+04  0.11676867394E+04  0.50400001928E-02 0.  1.
    10030    2    1    2    0    0  0.00000000000E+00  0.00000000000E+00  0.18472448354E+03  0.25200979623E+04  0.25133186437E+04 0.  0.
        3    1    3    3  502    0 -0.73619296399E+03 -0.94009661683E+03 -0.30039690091E+03  0.12312595329E+04  0.10100000352E+00 0. -1.
       -3    1    3    3    0  502  0.73619296399E+03  0.94009661683E+03  0.48512138445E+03  0.12888384294E+04  0.10100000352E+00 0.  1.
</event>
<event>
 5   0  0.1526824E-05  0.2494741E+04  0.7818609E-02  0.8404861E-01
       -2   -1    0    0    0  501  0.00000000000E+00  0.00000000000E+00  0.10853206896E+04  0.10853206896E+04  0.25500000920E-02 0. -1.
        2   -1    0    0  501    0  0.00000000000E+00  0.00000000000E+00 -0.14336160833E+04  0.14336160833E+04  0.25500000920E-02 0.  1.
    10030    2    1    2    0    0  0.00000000000E+00  0.00000000000E+00 -0.34829539368E+03  0.25189367728E+04  0.24947410255E+04 0.  0.
        2    1    3    3  502    0 -0.33256759420E+03  0.11641196362E+04  0.12902678294E+03  0.12175482096E+04  0.25500000920E-02 0.  1.
       -2    1    3    3    0  502  0.33256759420E+03 -0.11641196362E+04 -0.47732217661E+03  0.13013885632E+04  0.25500000920E-02 0. -1.
</event>
<event>
 5   0  0.1468512E-05  0.2508496E+04  0.7818609E-02  0.8399965E-01
       -2   -1    0    0    0  501  0.00000000000E+00  0.00000000000E+00  0.66076627431E+03  0.66076627431E+03  0.25500000920E-02 0. -1.
        2   -1    0    0  501    0  0.00000000000E+00  0.00000000000E+00 -0.23807786551E+04  0.23807786551E+04  0.25500000920E-02 0.  1.
    10030    2    1    2    0    0  0.00000000000E+00  0.00000000000E+00 -0.17200123808E+04  0.30415449294E+04  0.25084961566E+04 0.  0.
        4    1    3    3  502    0  0.38218031375E+03  0.49237175760E+03 -0.21797051940E+04  0.22670703750E+04  0.12699999809E+01 0.  1.
       -4    1    3    3    0  502 -0.38218031375E+03 -0.49237175760E+03  0.45969281321E+03  0.77447455433E+03  0.12699999809E+01 0. -1.
</event>
<event>
 5   0  0.1526824E-05  0.2500189E+04  0.7818609E-02  0.8402918E-01
       -2   -1    0    0    0  501  0.00000000000E+00  0.00000000000E+00  0.15248331625E+04  0.15248331625E+04  0.25500000920E-02 0. -1.
        2   -1    0    0  501    0  0.00000000000E+00  0.00000000000E+00 -0.10248568870E+04  0.10248568870E+04  0.25500000920E-02 0.  1.
    10030    2    1    2    0    0  0.00000000000E+00  0.00000000000E+00  0.49997627552E+03  0.25496900496E+04  0.25001886074E+04 0.  0.
        2    1    3    3  502    0 -0.66546545935E+03 -0.10582402465E+04  0.24553460319E+03  0.12739717180E+04  0.25500000920E-02 0.  1.
       -2    1    3    3    0  502  0.66546545935E+03  0.10582402465E+04  0.25444167233E+03  0.12757183316E+04  0.25500000920E-02 0. -1.
</event>
<event>
 5   0  0.6346420E-06  0.2544102E+04  0.7818609E-02  0.8387440E-01
       -1   -1    0    0    0  501  0.00000000000E+00  0.00000000000E+00  0.80645329742E+03  0.80645329744E+03  0.50400001928E-02 0. -1.
        1   -1    0    0  501    0  0.00000000000E+00  0.00000000000E+00 -0.20064562528E+04  0.20064562528E+04  0.50400001928E-02 0.  1.
    10030    2    1    2    0    0  0.00000000000E+00  0.00000000000E+00 -0.12000029554E+04  0.28129095502E+04  0.25441016184E+04 0.  0.
        4    1    3    3  502    0  0.29623273770E+03  0.54364909470E+03  0.62862603104E+03  0.88231540441E+03  0.12699999809E+01 0. -1.
       -4    1    3    3    0  502 -0.29623273770E+03 -0.54364909470E+03 -0.18286289864E+04  0.19305941458E+04  0.12699999809E+01 0.  1.
</event>
<event>
 5   0  0.1550483E-05  0.2497245E+04  0.7818609E-02  0.8403968E-01
       -2   -1    0    0    0  501  0.00000000000E+00  0.00000000000E+00  0.16445883043E+04  0.16445883043E+04  0.25500000920E-02 0. -1.
        2   -1    0    0  501    0  0.00000000000E+00  0.00000000000E+00 -0.94799309948E+03  0.94799309948E+03  0.25500000920E-02 0.  1.
    10030    2    1    2    0    0  0.00000000000E+00  0.00000000000E+00  0.69659520482E+03  0.25925814038E+04  0.24972451734E+04 0.  0.
        5    1    3    3  502    0  0.11587403581E+04 -0.41263448196E+03  0.57117900027E+03  0.13561762325E+04  0.46999998093E+01 0. -1.
       -5    1    3    3    0  502 -0.11587403581E+04  0.41263448196E+03  0.12541620455E+03  0.12364051713E+04  0.46999998093E+01 0.  1.
</event>
<event>
 5   0  0.6104486E-06  0.2459062E+04  0.7818609E-02  0.8417717E-01
        1   -1    0    0  501    0  0.00000000000E+00  0.00000000000E+00  0.20334541774E+04  0.20334541774E+04  0.50400001928E-02 0. -1.
       -1   -1    0    0    0  501  0.00000000000E+00  0.00000000000E+00 -0.74343774368E+03  0.74343774370E+03  0.50400001928E-02 0.  1.
    10030    2    1    2    0    0  0.00000000000E+00  0.00000000000E+00  0.12900164337E+04  0.27768919211E+04  0.24590620859E+04 0.  0.
        2    1    3    3  502    0 -0.31184816632E+02  0.72962856373E+03 -0.47198699651E+03  0.86954129211E+03  0.25500000920E-02 0.  1.
       -2    1    3    3    0  502  0.31184816632E+02 -0.72962856373E+03  0.17620034303E+04  0.19073506290E+04  0.25500000920E-02 0. -1.
</event>
<event>
 5   0  0.6290861E-06  0.2517163E+04  0.7818609E-02  0.8396897E-01
       -1   -1    0    0    0  501  0.00000000000E+00  0.00000000000E+00  0.17258048393E+04  0.17258048393E+04  0.50400001928E-02 0. -1.
        1   -1    0    0  501    0  0.00000000000E+00  0.00000000000E+00 -0.91784839552E+03  0.91784839553E+03  0.50400001928E-02 0.  1.
    10030    2    1    2    0    0  0.00000000000E+00  0.00000000000E+00  0.80795644380E+03  0.26436532349E+04  0.25171628495E+04 0.  0.
        1    1    3    3  502    0 -0.44622736357E+02  0.11450515155E+04 -0.14265006199E+03  0.11547654316E+04  0.50400001928E-02 0.  1.
       -1    1    3    3    0  502  0.44622736357E+02 -0.11450515155E+04  0.95060650578E+03  0.14888878033E+04  0.50400001928E-02 0. -1.
</event>
<event>
 5   0  0.6477703E-06  0.2489957E+04  0.7818609E-02  0.8406572E-01
        1   -1    0    0  501    0  0.00000000000E+00  0.00000000000E+00  0.22428702789E+04  0.22428702789E+04  0.50400001928E-02 0. -1.
       -1   -1    0    0    0  501  0.00000000000E+00  0.00000000000E+00 -0.69106611279E+03  0.69106611281E+03  0.50400001928E-02 0.  1.
    10030    2    1    2    0    0  0.00000000000E+00  0.00000000000E+00  0.15518041661E+04  0.29339363917E+04  0.24899571443E+04 0.  0.
        5    1    3    3  502    0 -0.85200232301E+03  0.80508645787E+03  0.28174635905E+03  0.12056016191E+04  0.46999998093E+01 0.  1.
       -5    1    3    3    0  502  0.85200232301E+03 -0.80508645787E+03  0.12700578070E+04  0.17283347726E+04  0.46999998093E+01 0. -1.
</event>
<event>
 5   0  0.6346420E-06  0.2503698E+04  0.7818609E-02  0.8401669E-01
       -1   -1    0    0    0  501  0.00000000000E+00  0.00000000000E+00  0.13981400744E+04  0.13981400744E+04  0.50400001928E-02 0. -1.
        1   -1    0    0  501    0  0.00000000000E+00  0.00000000000E+00 -0.11208651895E+04  0.11208651895E+04  0.50400001928E-02 0.  1.
    10030    2    1    2    0    0  0.00000000000E+00  0.00000000000E+00  0.27727488492E+03  0.25190052640E+04  0.25036984958E+04 0.  0.
        4    1    3    3  502    0 -0.10116570190E+03  0.11824912988E+04 -0.26204946241E+03  0.12153977557E+04  0.12699999809E+01 0.  1.
       -4    1    3    3    0  502  0.10116570190E+03 -0.11824912988E+04  0.53932434733E+03  0.13036075082E+04  0.12699999809E+01 0. -1.
</event>
<event>
 5   0  0.1572732E-05  0.2487986E+04  0.7818609E-02  0.8407278E-01
        2   -1    0    0  501    0  0.00000000000E+00  0.00000000000E+00  0.11250131759E+04  0.11250131760E+04  0.25500000920E-02 0. -1.
       -2   -1    0    0    0  501  0.00000000000E+00  0.00000000000E+00 -0.13755564550E+04  0.13755564550E+04  0.25500000920E-02 0.  1.
    10030    2    1    2    0    0  0.00000000000E+00  0.00000000000E+00 -0.25054327904E+03  0.25005696309E+04  0.24879864438E+04 0.  0.
        1    1    3    3  502    0 -0.88531299643E+03 -0.66549017898E+03  0.44404078946E+03  0.11932428515E+04  0.50400001928E-02 0. -1.
       -1    1    3    3    0  502  0.88531299643E+03  0.66549017898E+03 -0.69458406850E+03  0.13073267794E+04  0.50400001928E-02 0.  1.
</event>
<event>
 5   0  0.6290861E-06  0.2513099E+04  0.7818609E-02  0.8398334E-01
        1   -1    0    0  501    0  0.00000000000E+00  0.00000000000E+00  0.14195460756E+04  0.14195460756E+04  0.50400001928E-02 0. -1.
       -1   -1    0    0    0  501  0.00000000000E+00  0.00000000000E+00 -0.11122687517E+04  0.11122687517E+04  0.50400001928E-02 0.  1.
    10030    2    1    2    0    0  0.00000000000E+00  0.00000000000E+00  0.30727732390E+03  0.25318148273E+04  0.25130990761E+04 0.  0.
        1    1    3    3  502    0 -0.94497457607E+03  0.27562143121E+03 -0.63318515710E+03  0.11704134167E+04  0.50400001928E-02 0.  1.
       -1    1    3    3    0  502  0.94497457607E+03 -0.27562143121E+03  0.94046248100E+03  0.13614014107E+04  0.50400001928E-02 0. -1.
</event>
<event>
 5   0  0.1501947E-05  0.2503629E+04  0.7818609E-02  0.8401694E-01
        2   -1    0    0  501    0  0.00000000000E+00  0.00000000000E+00  0.14261071545E+04  0.14261071545E+04  0.25500000920E-02 0. -1.
       -2   -1    0    0    0  501  0.00000000000E+00  0.00000000000E+00 -0.10988228886E+04  0.10988228886E+04  0.25500000920E-02 0.  1.
    10030    2    1    2    0    0  0.00000000000E+00  0.00000000000E+00  0.32728426589E+03  0.25249300431E+04  0.25036287129E+04 0.  0.
        3    1    3    3  502    0  0.89513848839E+02 -0.12219051335E+04  0.42268210435E+03  0.12960420734E+04  0.10100000352E+00 0. -1.
       -3    1    3    3    0  502 -0.89513848839E+02  0.12219051335E+04 -0.95397838461E+02  0.12288879698E+04  0.10100000352E+00 0.  1.
</event>
<event>
 5   0  0.1572732E-05  0.2494165E+04  0.7818609E-02  0.8405067E-01
        2   -1    0    0  501    0  0.00000000000E+00  0.00000000000E+00  0.12807940735E+04  0.12807940735E+04  0.25500000920E-02 0.  1.
       -2   -1    0    0    0  501  0.00000000000E+00  0.00000000000E+00 -0.12142584433E+04  0.12142584433E+04  0.25500000920E-02 0. -1.
    10030    2    1    2    0    0  0.00000000000E+00  0.00000000000E+00  0.66535630181E+02  0.24950525168E+04  0.24941652054E+04 0.  0.
        1    1    3    3  502    0  0.10490275336E+04  0.64301002059E+03  0.23655025825E+03  0.12529471966E+04  0.50400001928E-02 0.  1.
       -1    1    3    3    0  502 -0.10490275336E+04 -0.64301002059E+03 -0.17001462807E+03  0.12421053202E+04  0.50400001928E-02 0. -1.
</event>
<event>
 5   0  0.1572732E-05  0.2456877E+04  0.7818609E-02  0.8418511E-01
        2   -1    0    0  501    0  0.00000000000E+00  0.00000000000E+00  0.19117969578E+04  0.19117969578E+04  0.25500000920E-02 0. -1.
       -2   -1    0    0    0  501  0.00000000000E+00  0.00000000000E+00 -0.78934175251E+03  0.78934175252E+03  0.25500000920E-02 0.  1.
    10030    2    1    2    0    0  0.00000000000E+00  0.00000000000E+00  0.11224552053E+04  0.27011387103E+04  0.24568770104E+04 0.  0.
        1    1    3    3  502    0  0.42318768894E+03 -0.11526947673E+04  0.52207661804E+03  0.13343002068E+04  0.50400001928E-02 0. -1.
       -1    1    3    3    0  502 -0.42318768894E+03  0.11526947673E+04  0.60037858721E+03  0.13668385035E+04  0.50400001928E-02 0.  1.
</event>
<event>
 5   0  0.1550483E-05  0.2455982E+04  0.7818609E-02  0.8418837E-01
        2   -1    0    0  501    0  0.00000000000E+00  0.00000000000E+00  0.11897689802E+04  0.11897689802E+04  0.25500000920E-02 0.  1.
       -2   -1    0    0    0  501  0.00000000000E+00  0.00000000000E+00 -0.12674407548E+04  0.12674407548E+04  0.25500000920E-02 0. -1.
    10030    2    1    2    0    0  0.00000000000E+00  0.00000000000E+00 -0.77671774563E+02  0.24572097350E+04  0.24559818357E+04 0.  0.
        5    1    3    3  502    0 -0.48369981963E+03  0.77350415723E+03 -0.86123554164E+03  0.12546007114E+04  0.46999998093E+01 0. -1.
       -5    1    3    3    0  502  0.48369981963E+03 -0.77350415723E+03  0.78356376708E+03  0.12026090237E+04  0.46999998093E+01 0.  1.
</event>
<event>
 5   0  0.6477703E-06  0.2498980E+04  0.7818609E-02  0.8403349E-01
        1   -1    0    0  501    0  0.00000000000E+00  0.00000000000E+00  0.13799494846E+04  0.13799494846E+04  0.50400001928E-02 0. -1.
       -1   -1    0    0    0  501  0.00000000000E+00  0.00000000000E+00 -0.11313644555E+04  0.11313644555E+04  0.50400001928E-02 0.  1.
    10030    2    1    2    0    0  0.00000000000E+00  0.00000000000E+00  0.24858502915E+03  0.25113139401E+04  0.24989804299E+04 0.  0.
        5    1    3    3  502    0 -0.30727349433E+02  0.11750031206E+04 -0.30162373250E+03  0.12134972062E+04  0.46999998093E+01 0.  1.
       -5    1    3    3    0  502  0.30727349433E+02 -0.11750031206E+04  0.55020876165E+03  0.12978167339E+04  0.46999998093E+01 0. -1.
</event>
<event>
 5   0  0.1501947E-05  0.2496904E+04  0.7818609E-02  0.8404089E-01
        2   -1    0    0  501    0  0.00000000000E+00  0.00000000000E+00  0.92844213215E+03  0.92844213216E+03  0.25500000920E-02 0. -1.
       -2   -1    0    0    0  501  0.00000000000E+00  0.00000000000E+00 -0.16787605965E+04  0.16787605965E+04  0.25500000920E-02 0.  1.
    10030    2    1    2    0    0  0.00000000000E+00  0.00000000000E+00 -0.75031846431E+03  0.26072027286E+04  0.24969037367E+04 0.  0.
        3    1    3    3  502    0  0.15046009688E+03  0.42443540168E+03 -0.15910052317E+04  0.16535057631E+04  0.10100000352E+00 0.  1.
       -3    1    3    3    0  502 -0.15046009688E+03 -0.42443540168E+03  0.84068676743E+03  0.95369696554E+03  0.10100000352E+00 0. -1.
</event>
<event>
 5   0  0.6104486E-06  0.2643435E+04  0.7818609E-02  0.8353595E-01
        1   -1    0    0  501    0  0.00000000000E+00  0.00000000000E+00  0.15230122819E+04  0.15230122819E+04  0.50400001928E-02 0. -1.
       -1   -1    0    0    0  501  0.00000000000E+00  0.00000000000E+00 -0.11470272181E+04  0.11470272181E+04  0.50400001928E-02 0.  1.
    10030    2    1    2    0    0  0.00000000000E+00  0.00000000000E+00  0.37598506384E+03  0.26700395000E+04  0.26434345392E+04 0.  0.
        2    1    3    3  502    0  0.11639595489E+04  0.25494925845E+02 -0.44399212235E+03  0.12460260139E+04  0.25500000920E-02 0.  1.
       -2    1    3    3    0  502 -0.11639595489E+04 -0.25494925845E+02  0.81997718618E+03  0.14240134861E+04  0.25500000920E-02 0. -1.
</event>
<event>
 5   0  0.6290861E-06  0.2490538E+04  0.7818609E-02  0.8406364E-01
        1   -1    0    0  501    0  0.00000000000E+00  0.00000000000E+00  0.12525172338E+04  0.12525172338E+04  0.50400001928E-02 0. -1.
       -1   -1    0    0    0  501  0.00000000000E+00  0.00000000000E+00 -0.12380622430E+04  0.12380622430E+04  0.50400001928E-02 0.  1.
    10030    2    1    2    0    0  0.00000000000E+00  0.00000000000E+00  0.14454990814E+02  0.24905794768E+04  0.24905375291E+04 0.  0.
        1    1    3    3  502    0  0.11179081737E+04  0.66180148302E+02  0.55184276350E+03  0.12484506127E+04  0.50400001928E-02 0. -1.
       -1    1    3    3    0  502 -0.11179081737E+04 -0.66180148302E+02 -0.53738777268E+03  0.12421288641E+04  0.50400001928E-02 0.  1.
</event>
<event>
 5   0  0.6105353E-06  0.2518551E+04  0.7818609E-02  0.8396406E-01
       -1   -1    0    0    0  501  0.00000000000E+00  0.00000000000E+00  0.64702309535E+03  0.64702309537E+03  0.50400001928E-02 0.  1.
        1   -1    0    0  501    0  0.00000000000E+00  0.00000000000E+00 -0.24508780696E+04  0.24508780696E+04  0.50400001928E-02 0. -1.
    10030    2    1    2    0    0  0.00000000000E+00  0.00000000000E+00 -0.18038549742E+04  0.30979011650E+04  0.25185509445E+04 0.  0.
        3    1    3    3  502    0 -0.43433709522E+03  0.59429060330E+02  0.55013390955E+03  0.70344001459E+03  0.10100000352E+00 0.  1.
       -3    1    3    3    0  502  0.43433709522E+03 -0.59429060330E+02 -0.23539888838E+04  0.23944611504E+04  0.10100000352E+00 0. -1.
</event>
<event>
 5   0  0.6105353E-06  0.2478674E+04  0.7818609E-02  0.8410623E-01
       -1   -1    0    0    0  501  0.00000000000E+00  0.00000000000E+00  0.11288484843E+04  0.11288484844E+04  0.50400001928E-02 0.  1.
        1   -1    0    0  501    0  0.00000000000E+00  0.00000000000E+00 -0.13606395744E+04  0.13606395744E+04  0.50400001928E-02 0. -1.
    10030    2    1    2    0    0  0.00000000000E+00  0.00000000000E+00 -0.23179109004E+03  0.24894880588E+04  0.24786737755E+04 0.  0.
        3    1    3    3  502    0  0.16446608788E+03  0.88637226361E+03  0.73825653954E+03  0.11652156934E+04  0.10100000352E+00 0.  1.
       -3    1    3    3    0  502 -0.16446608788E+03 -0.88637226361E+03 -0.97004762959E+03  0.13242723654E+04  0.10100000352E+00 0. -1.
</event>
<event>
 5   0  0.1526824E-05  0.2500411E+04  0.7818609E-02  0.8402839E-01
       -2   -1    0    0    0  501  0.00000000000E+00  0.00000000000E+00  0.70516147670E+03  0.70516147670E+03  0.25500000920E-02 0. -1.
        2   -1    0    0  501    0  0.00000000000E+00  0.00000000000E+00 -0.22165336936E+04  0.22165336936E+04  0.25500000920E-02 0.  1.
    10030    2    1    2    0    0  0.00000000000E+00  0.00000000000E+00 -0.15113722169E+04  0.29216951703E+04  0.25004113042E+04 0.  0.
        2    1    3    3  502    0 -0.25805929351E+03 -0.80397917323E+03  0.32162808071E+03  0.90356058583E+03  0.25500000920E-02 0. -1.
       -2    1    3    3    0  502  0.25805929351E+03  0.80397917323E+03 -0.18330002976E+04  0.20181345844E+04  0.25500000920E-02 0.  1.
</event>
<event>
 5   0  0.6477703E-06  0.2505771E+04  0.7818609E-02  0.8400932E-01
        1   -1    0    0  501    0  0.00000000000E+00  0.00000000000E+00  0.16480965063E+04  0.16480965063E+04  0.50400001928E-02 0.  1.
       -1   -1    0    0    0  501  0.00000000000E+00  0.00000000000E+00 -0.95244584525E+03  0.95244584527E+03  0.50400001928E-02 0. -1.
    10030    2    1    2    0    0  0.00000000000E+00  0.00000000000E+00  0.69565066101E+03  0.26005423515E+04  0.25057714740E+04 0.  0.
        5    1    3    3  502    0 -0.19908157854E+03 -0.10772542774E+04  0.97875764054E+03  0.14690469230E+04  0.46999998093E+01 0.  1.
       -5    1    3    3    0  502  0.19908157854E+03  0.10772542774E+04 -0.28310697953E+03  0.11314954286E+04  0.46999998093E+01 0. -1.
</event>
<event>
 5   0  0.1550483E-05  0.2530223E+04  0.7818609E-02  0.8392297E-01
       -2   -1    0    0    0  501  0.00000000000E+00  0.00000000000E+00  0.15878338281E+04  0.15878338281E+04  0.25500000920E-02 0. -1.
        2   -1    0    0  501    0  0.00000000000E+00  0.00000000000E+00 -0.10079813133E+04  0.10079813133E+04  0.25500000920E-02 0.  1.
    10030    2    1    2    0    0  0.00000000000E+00  0.00000000000E+00  0.57985251477E+03  0.25958151414E+04  0.25302227786E+04 0.  0.
        5    1    3    3  502    0  0.11988561922E+04 -0.22915937344E+03 -0.51437451676E+02  0.12216538337E+04  0.46999998093E+01 0.  1.
       -5    1    3    3    0  502 -0.11988561922E+04  0.22915937344E+03  0.63128996645E+03  0.13741613077E+04  0.46999998093E+01 0. -1.
</event>
<event>
 5   0  0.6104486E-06  0.2496577E+04  0.7818609E-02  0.8404206E-01
       -1   -1    0    0    0  501  0.00000000000E+00  0.00000000000E+00  0.10767341263E+04  0.10767341263E+04  0.50400001928E-02 0. -1.
        1   -1    0    0  501    0  0.00000000000E+00  0.00000000000E+00 -0.14471760763E+04  0.14471760763E+04  0.50400001928E-02 0.  1.
    10030    2    1    2    0    0  0.00000000000E+00  0.00000000000E+00 -0.37044194999E+03  0.25239102025E+04  0.24965767507E+04 0.  0.
        2    1    3    3  502    0 -0.92820712004E+03 -0.73590099770E+03  0.21292475382E+03  0.12035180459E+04  0.25500000920E-02 0. -1.
       -2    1    3    3    0  502  0.92820712004E+03  0.73590099770E+03 -0.58336670380E+03  0.13203921566E+04  0.25500000920E-02 0.  1.
</event>
<event>
 5   0  0.6104486E-06  0.2498336E+04  0.7818609E-02  0.8403578E-01
        1   -1    0    0  501    0  0.00000000000E+00  0.00000000000E+00  0.17315654033E+04  0.17315654033E+04  0.50400001928E-02 0. -1.
       -1   -1    0    0    0  501  0.00000000000E+00  0.00000000000E+00 -0.90116221613E+03  0.90116221614E+03  0.50400001928E-02 0.  1.
    10030    2    1    2    0    0  0.00000000000E+00  0.00000000000E+00  0.83040318717E+03  0.26327276194E+04  0.24983364995E+04 0.  0.
        2    1    3    3  502    0  0.41083885220E+03  0.10433534939E+04  0.99531038489E+03  0.14993391337E+04  0.25500000920E-02 0. -1.
       -2    1    3    3    0  502 -0.41083885220E+03 -0.10433534939E+04 -0.16490719772E+03  0.11333884857E+04  0.25500000920E-02 0.  1.
</event>
<event>
 5   0  0.6290861E-06  0.2502043E+04  0.7818609E-02  0.8402258E-01
        1   -1    0    0  501    0  0.00000000000E+00  0.00000000000E+00  0.24243647367E+04  0.24243647367E+04  0.50400001928E-02 0.  1.
       -1   -1    0    0    0  501  0.00000000000E+00  0.00000000000E+00 -0.64555274518E+03  0.64555274520E+03  0.50400001928E-02 0. -1.
    10030    2    1    2    0    0  0.00000000000E+00  0.00000000000E+00  0.17788119915E+04  0.30699174819E+04  0.25020434138E+04 0.  0.
        1    1    3    3  502    0 -0.99981146655E+03 -0.70182252165E+03  0.12206351578E+04  0.17268839014E+04  0.50400001928E-02 0.  1.
       -1    1    3    3    0  502  0.99981146655E+03  0.70182252165E+03  0.55817683371E+03  0.13430335805E+04  0.50400001928E-02 0. -1.
</event>
<event>
 5   0  0.6104486E-06  0.2512385E+04  0.7818609E-02  0.8398587E-01
       -1   -1    0    0    0  501  0.00000000000E+00  0.00000000000E+00  0.18825335197E+04  0.18825335197E+04  0.50400001928E-02 0. -1.
        1   -1    0    0  501    0  0.00000000000E+00  0.00000000000E+00 -0.83824229763E+03  0.83824229765E+03  0.50400001928E-02 0.  1.
    10030    2    1    2    0    0  0.00000000000E+00  0.00000000000E+00  0.10442912220E+04  0.27207758173E+04  0.25123847022E+04 0.  0.
        2    1    3    3  502    0 -0.54419560369E+03 -0.10393317776E+04  0.10084590938E+04  0.15470452944E+04  0.25500000920E-02 0. -1.
       -2    1    3    3    0  502  0.54419560369E+03  0.10393317776E+04  0.35832128223E+02  0.11737305229E+04  0.25500000920E-02 0.  1.
</event>
<event>
 5   0  0.1572732E-05  0.2444454E+04  0.7818609E-02  0.8423046E-01
       -2   -1    0    0    0  501  0.00000000000E+00  0.00000000000E+00  0.12872623575E+04  0.12872623575E+04  0.25500000920E-02 0. -1.
        2   -1    0    0  501    0  0.00000000000E+00  0.00000000000E+00 -0.11604774409E+04  0.11604774409E+04  0.25500000920E-02 0.  1.
    10030    2    1    2    0    0  0.00000000000E+00  0.00000000000E+00  0.12678491656E+03  0.24477397984E+04  0.24444540711E+04 0.  0.
        1    1    3    3  502    0 -0.98444181611E+03 -0.71882636057E+03  0.15296603986E+03  0.12285095178E+04  0.50400001928E-02 0.  1.
       -1    1    3    3    0  502  0.98444181611E+03  0.71882636057E+03 -0.26181123302E+02  0.12192302806E+04  0.50400001928E-02 0. -1.
</event>
<event>
 5   0  0.1572732E-05  0.2497265E+04  0.7818609E-02  0.8403960E-01
       -2   -1    0    0    0  501  0.00000000000E+00  0.00000000000E+00  0.98302616027E+03  0.98302616028E+03  0.25500000920E-02 0. -1.
        2   -1    0    0  501    0  0.00000000000E+00  0.00000000000E+00 -0.15860041761E+04  0.15860041761E+04  0.25500000920E-02 0.  1.
    10030    2    1    2    0    0  0.00000000000E+00  0.00000000000E+00 -0.60297801579E+03  0.25690303363E+04  0.24972653807E+04 0.  0.
        1    1    3    3  502    0 -0.39401644727E+03  0.75610917602E+03 -0.12399172118E+04  0.15047739827E+04  0.50400001928E-02 0.  1.
       -1    1    3    3    0  502  0.39401644727E+03 -0.75610917602E+03  0.63693919604E+03  0.10642563536E+04  0.50400001928E-02 0. -1.
</event>
<event>
 5   0  0.5164625E-06  0.2514090E+04  0.7818609E-02  0.8397983E-01
       -3   -1    0    0    0  501  0.00000000000E+00  0.00000000000E+00  0.10718803019E+04  0.10718803066E+04  0.10100000352E+00 0. -1.
        3   -1    0    0  501    0  0.00000000000E+00  0.00000000000E+00 -0.14741960882E+04  0.14741960917E+04  0.10100000352E+00 0.  1.
    10030    2    1    2    0    0  0.00000000000E+00  0.00000000000E+00 -0.40231578636E+03  0.25460763983E+04  0.25140897029E+04 0.  0.
        5    1    3    3  502    0  0.22702624735E+03 -0.10223212963E+04  0.50299991734E+03  0.11617713874E+04  0.46999998093E+01 0. -1.
       -5    1    3    3    0  502 -0.22702624735E+03  0.10223212963E+04 -0.90531570370E+03  0.13843050109E+04  0.46999998093E+01 0.  1.
</event>
<event>
 5   0  0.6346420E-06  0.2493492E+04  0.7818609E-02  0.8405308E-01
       -1   -1    0    0    0  501  0.00000000000E+00  0.00000000000E+00  0.13023313531E+04  0.13023313531E+04  0.50400001928E-02 0.  1.
        1   -1    0    0  501    0  0.00000000000E+00  0.00000000000E+00 -0.11935331518E+04  0.11935331518E+04  0.50400001928E-02 0. -1.
    10030    2    1    2    0    0  0.00000000000E+00  0.00000000000E+00  0.10879820123E+03  0.24958645049E+04  0.24934920450E+04 0.  0.
        4    1    3    3  502    0 -0.10281055244E+04 -0.66729781561E+03 -0.17404312774E+03  0.12379741384E+04  0.12699999809E+01 0. -1.
       -4    1    3    3    0  502  0.10281055244E+04  0.66729781561E+03  0.28284132898E+03  0.12578903666E+04  0.12699999809E+01 0.  1.
</event>
<event>
 5   0  0.1550483E-05  0.2522020E+04  0.7818609E-02  0.8395183E-01
        2   -1    0    0  501    0  0.00000000000E+00  0.00000000000E+00  0.15378412084E+04  0.15378412084E+04  0.25500000920E-02 0. -1.
       -2   -1    0    0    0  501  0.00000000000E+00  0.00000000000E+00 -0.10340118787E+04  0.10340118787E+04  0.25500000920E-02 0.  1.
    10030    2    1    2    0    0  0.00000000000E+00  0.00000000000E+00  0.50382932974E+03  0.25718530871E+04  0.25220198865E+04 0.  0.
        5    1    3    3  502    0  0.48040740561E+03 -0.99765717775E+03 -0.36334156183E+03  0.11653970569E+04  0.46999998093E+01 0.  1.
       -5    1    3    3    0  502 -0.48040740561E+03  0.99765717775E+03  0.86717089157E+03  0.14064560302E+04  0.46999998093E+01 0. -1.
</event>
<event>
 5   0  0.6477703E-06  0.2525679E+04  0.7818609E-02  0.8393894E-01
        1   -1    0    0  501    0  0.00000000000E+00  0.00000000000E+00  0.19860161698E+04  0.19860161698E+04  0.50400001928E-02 0.  1.
       -1   -1    0    0    0  501  0.00000000000E+00  0.00000000000E+00 -0.80299636514E+03  0.80299636516E+03  0.50400001928E-02 0. -1.
    10030    2    1    2    0    0  0.00000000000E+00  0.00000000000E+00  0.11830198047E+04  0.27890125350E+04  0.25256791289E+04 0.  0.
        5    1    3    3  502    0  0.10856202172E+04  0.19271694024E+03 -0.88334345727E+02  0.11061356706E+04  0.46999998093E+01 0. -1.
       -5    1    3    3    0  502 -0.10856202172E+04 -0.19271694024E+03  0.12713541504E+04  0.16828768644E+04  0.46999998093E+01 0.  1.
</event>
<event>
 5   0  0.6104486E-06  0.2491760E+04  0.7818609E-02  0.8405927E-01
       -1   -1    0    0    0  501  0.00000000000E+00  0.00000000000E+00  0.91908810565E+03  0.91908810566E+03  0.50400001928E-02 0.  1.
        1   -1    0    0  501    0  0.00000000000E+00  0.00000000000E+00 -0.16888667161E+04  0.16888667161E+04  0.50400001928E-02 0. -1.
    10030    2    1    2    0    0  0.00000000000E+00  0.00000000000E+00 -0.76977861042E+03  0.26079548217E+04  0.24917602700E+04 0.  0.
        2    1    3    3  502    0 -0.59275473977E+03  0.61503549354E+03  0.56437170683E+03  0.10237881926E+04  0.25500000920E-02 0.  1.
       -2    1    3    3    0  502  0.59275473977E+03 -0.61503549354E+03 -0.13341503172E+04  0.15841666291E+04  0.25500000920E-02 0. -1.
</event>
<event>
 5   0  0.1550483E-05  0.2511838E+04  0.7818609E-02  0.8398780E-01
       -2   -1    0    0    0  501  0.00000000000E+00  0.00000000000E+00  0.10193223689E+04  0.10193223689E+04  0.25500000920E-02 0.  1.
        2   -1    0    0  501    0  0.00000000000E+00  0.00000000000E+00 -0.15474328112E+04  0.15474328112E+04  0.25500000920E-02 0. -1.
    10030    2    1    2    0    0  0.00000000000E+00  0.00000000000E+00 -0.52811044236E+03  0.25667551801E+04  0.25118382741E+04 0.  0.
        5    1    3    3  502    0 -0.54174937060E+03  0.10786688980E+04 -0.61846917759E+03  0.13562983395E+04  0.46999998093E+01 0.  1.
       -5    1    3    3    0  502  0.54174937060E+03 -0.10786688980E+04  0.90358735229E+02  0.12104568407E+04  0.46999998093E+01 0. -1.
</event>
<event>
 5   0  0.1572732E-05  0.2451739E+04  0.7818609E-02  0.8420383E-01
        2   -1    0    0  501    0  0.00000000000E+00  0.00000000000E+00  0.68266416211E+03  0.68266416212E+03  0.25500000920E-02 0.  1.
       -2   -1    0    0    0  501  0.00000000000E+00  0.00000000000E+00 -0.22013114686E+04  0.22013114686E+04  0.25500000920E-02 0. -1.
    10030    2    1    2    0    0  0.00000000000E+00  0.00000000000E+00 -0.15186473065E+04  0.28839756307E+04  0.24517393412E+04 0.  0.
        1    1    3    3  502    0  0.10669534276E+04 -0.11849101326E+03 -0.14555555520E+04  0.18086104340E+04  0.50400001928E-02 0. -1.
       -1    1    3    3    0  502 -0.10669534276E+04  0.11849101326E+03 -0.63091754444E+02  0.10753651967E+04  0.50400001928E-02 0.  1.
</event>
<event>
 5   0  0.6104486E-06  0.2467998E+04  0.7818609E-02  0.8414476E-01
        1   -1    0    0  501    0  0.00000000000E+00  0.00000000000E+00  0.12320445674E+04  0.12320445674E+04  0.50400001928E-02 0. -1.
       -1   -1    0    0    0  501  0.00000000000E+00  0.00000000000E+00 -0.12359560662E+04  0.12359560662E+04  0.50400001928E-02 0.  1.
    10030    2    1    2    0    0  0.00000000000E+00  0.00000000000E+00 -0.39114988590E+01  0.24680006336E+04  0.24679975340E+04 0.  0.
        2    1    3    3  502    0 -0.46686315890E+03  0.90735986090E+03 -0.69585130355E+03  0.12351000619E+04  0.25500000920E-02 0.  1.
       -2    1    3    3    0  502  0.46686315890E+03 -0.90735986090E+03  0.69193980469E+03  0.12329005717E+04  0.25500000920E-02 0. -1.
</event>
<event>
 5   0  0.6477703E-06  0.2493378E+04  0.7818609E-02  0.8405349E-01
        1   -1    0    0  501    0  0.00000000000E+00  0.00000000000E+00  0.16598376682E+04  0.16598376682E+04  0.50400001928E-02 0. -1.
       -1   -1    0    0    0  501  0.00000000000E+00  0.00000000000E+00 -0.93637643342E+03  0.93637643343E+03  0.50400001928E-02 0.  1.
    10030    2    1    2    0    0  0.00000000000E+00  0.00000000000E+00  0.72346123476E+03  0.25962141016E+04  0.24933775292E+04 0.  0.
        5    1    3    3  502    0 -0.95727450695E+03  0.95993047635E+01  0.11932563769E+04  0.15298200872E+04  0.46999998093E+01 0. -1.
       -5    1    3    3    0  502  0.95727450695E+03 -0.95993047635E+01 -0.46979514215E+03  0.10663940144E+04  0.46999998093E+01 0.  1.
</event>
<event>
 5   0  0.6105353E-06  0.2505509E+04  0.7818609E-02  0.8401026E-01
        1   -1    0    0  501    0  0.00000000000E+00  0.00000000000E+00  0.12691102821E+04  0.12691102821E+04  0.50400001928E-02 0.  1.
       -1   -1    0    0    0  501  0.00000000000E+00  0.00000000000E+00 -0.12366094134E+04  0.12366094134E+04  0.50400001928E-02 0. -1.
    10030    2    1    2    0    0  0.00000000000E+00  0.00000000000E+00  0.32500868736E+02  0.25057196956E+04  0.25055089076E+04 0.  0.
        3    1    3    3  502    0  0.55556823312E+03  0.52398613506E+03  0.10093980168E+04  0.12657416395E+04  0.10100000352E+00 0.  1.
       -3    1    3    3    0  502 -0.55556823312E+03 -0.52398613506E+03 -0.97689714808E+03  0.12399780561E+04  0.10100000352E+00 0. -1.
</event>
<event>
 5   0  0.6105353E-06  0.2510972E+04  0.7818609E-02  0.8399087E-01
       -1   -1    0    0    0  501  0.00000000000E+00  0.00000000000E+00  0.13340342834E+04  0.13340342834E+04  0.50400001928E-02 0.  1.
        1   -1    0    0  501    0  0.00000000000E+00  0.00000000000E+00 -0.11815624847E+04  0.11815624847E+04  0.50400001928E-02 0. -1.
    10030    2    1    2    0    0  0.00000000000E+00  0.00000000000E+00  0.15247179871E+03  0.25155967681E+04  0.25109718139E+04 0.  0.
        3    1    3    3  502    0  0.12538297614E+03  0.11286482990E+04  0.61264433606E+03  0.12903104147E+04  0.10100000352E+00 0.  1.
       -3    1    3    3    0  502 -0.12538297614E+03 -0.11286482990E+04 -0.46017253735E+03  0.12252863534E+04  0.10100000352E+00 0. -1.
</event>
<event>
 5   0  0.6477703E-06  0.2496188E+04  0.7818609E-02  0.8404345E-01
       -1   -1    0    0    0  501  0.00000000000E+00  0.00000000000E+00  0.60650035114E+03  0.60650035116E+03  0.50400001928E-02 0.  1.
        1   -1    0    0  501    0  0.00000000000E+00  0.00000000000E+00 -0.25684049602E+04  0.25684049603E+04  0.50400001928E-02 0. -1.
    10030    2    1    2    0    0  0.00000000000E+00  0.00000000000E+00 -0.19619046091E+04  0.31749053114E+04  0.24961879018E+04 0.  0.
        5    1    3    3  502    0 -0.91725571138E+03  0.81246170224E+03 -0.12826487582E+04  0.17738833064E+04  0.46999998093E+01 0. -1.
       -5    1    3    3    0  502  0.91725571138E+03 -0.81246170224E+03 -0.67925585091E+03  0.14010220051E+04  0.46999998093E+01 0.  1.
</event>
<event>
 5   0  0.6346420E-06  0.2494021E+04  0.7818609E-02  0.8405119E-01
        1   -1    0    0  501    0  0.00000000000E+00  0.00000000000E+00  0.84578267432E+03  0.84578267433E+03  0.50400001928E-02 0.  1.
       -1   -1    0    0    0  501  0.00000000000E+00  0.00000000000E+00 -0.18385755272E+04  0.18385755272E+04  0.50400001928E-02 0. -1.
    10030    2    1    2    0    0  0.00000000000E+00  0.00000000000E+00 -0.99279285289E+03  0.26843582015E+04  0.24940211117E+04 0.  0.
        4    1    3    3  502    0  0.87167849398E+03 -0.74019381129E+03 -0.10316665210E+04  0.15401453498E+04  0.12699999809E+01 0. -1.
       -4    1    3    3    0  502 -0.87167849398E+03  0.74019381129E+03  0.38873668064E+02  0.11442128517E+04  0.12699999809E+01 0.  1.
</event>
<event>
 5   0  0.6477703E-06  0.2496208E+04  0.7818609E-02  0.8404338E-01
        1   -1    0    0  501    0  0.00000000000E+00  0.00000000000E+00  0.97533017654E+03  0.97533017655E+03  0.50400001928E-02 0. -1.
       -1   -1    0    0    0  501  0.00000000000E+00  0.00000000000E+00 -0.15971658480E+04  0.15971658480E+04  0.50400001928E-02 0.  1.
    10030    2    1    2    0    0  0.00000000000E+00  0.00000000000E+00 -0.62183567150E+03  0.25724960246E+04  0.24962083635E+04 0.  0.
        5    1    3    3  502    0 -0.66838516455E+03 -0.82830389410E+03 -0.98269519694E+03  0.14486331521E+04  0.46999998093E+01 0.  1.
       -5    1    3    3    0  502  0.66838516455E+03  0.82830389410E+03  0.36085952545E+03  0.11238628725E+04  0.46999998093E+01 0. -1.
</event>
<event>
 5   0  0.1468512E-05  0.2492374E+04  0.7818609E-02  0.8405707E-01
        2   -1    0    0  501    0  0.00000000000E+00  0.00000000000E+00  0.22715293001E+04  0.22715293001E+04  0.25500000920E-02 0. -1.
       -2   -1    0    0    0  501  0.00000000000E+00  0.00000000000E+00 -0.68367252730E+03  0.68367252731E+03  0.25500000920E-02 0.  1.
    10030    2    1    2    0    0  0.00000000000E+00  0.00000000000E+00  0.15878567728E+04  0.29552018274E+04  0.24923741111E+04 0.  0.
        4    1    3    3  502    0  0.79669655656E+03  0.20208234037E+03 -0.31672145135E+03  0.88083867204E+03  0.12699999809E+01 0.  1.
       -4    1    3    3    0  502 -0.79669655656E+03 -0.20208234037E+03  0.19045782241E+04  0.20743631554E+04  0.12699999809E+01 0. -1.
</event>
<event>
 5   0  0.6477703E-06  0.2582587E+04  0.7818609E-02  0.8374140E-01
        1   -1    0    0  501    0  0.00000000000E+00  0.00000000000E+00  0.11447880498E+04  0.11447880498E+04  0.50400001928E-02 0. -1.
       -1   -1    0    0    0  501  0.00000000000E+00  0.00000000000E+00 -0.14565486961E+04  0.14565486961E+04  0.50400001928E-02 0.  1.
    10030    2    1    2    0    0  0.00000000000E+00  0.00000000000E+00 -0.31176064626E+03  0.26013367459E+04  0.25825874942E+04 0.  0.
        5    1    3    3  502    0 -0.35248742205E+03 -0.52729445710E+03 -0.12888263384E+04  0.14364477881E+04  0.46999998093E+01 0.  1.
       -5    1    3    3    0  502  0.35248742205E+03  0.52729445710E+03  0.97706569219E+03  0.11648889578E+04  0.46999998093E+01 0. -1.
</event>
<event>
 5   0  0.1501947E-05  0.2499388E+04  0.7818609E-02  0.8403204E-01
       -2   -1    0    0    0  501  0.00000000000E+00  0.00000000000E+00  0.12854514969E+04  0.12854514969E+04  0.25500000920E-02 0.  1.
        2   -1    0    0  501    0  0.00000000000E+00  0.00000000000E+00 -0.12149309975E+04  0.12149309975E+04  0.25500000920E-02 0. -1.
    10030    2    1    2    0    0  0.00000000000E+00  0.00000000000E+00  0.70520499377E+02  0.25003824944E+04  0.24993878206E+04 0.  0.
        3    1    3    3  502    0  0.86534425975E+03  0.65325765382E+03 -0.58641171764E+03  0.12326576828E+04  0.10100000352E+00 0.  1.
       -3    1    3    3    0  502 -0.86534425975E+03 -0.65325765382E+03  0.65693221702E+03  0.12677248117E+04  0.10100000352E+00 0. -1.
</event>
<event>
 5   0  0.1501947E-05  0.2501381E+04  0.7818609E-02  0.8402494E-01
        2   -1    0    0  501    0  0.00000000000E+00  0.00000000000E+00  0.12209434487E+04  0.12209434487E+04  0.25500000920E-02 0.  1.
       -2   -1    0    0    0  501  0.00000000000E+00  0.00000000000E+00 -0.12811625758E+04  0.12811625758E+04  0.25500000920E-02 0. -1.
    10030    2    1    2    0    0  0.00000000000E+00  0.00000000000E+00 -0.60219127097E+02  0.25021060245E+04  0.25013812613E+04 0.  0.
        3    1    3    3  502    0 -0.12059367867E+04  0.74972299601E+00  0.30156296745E+03  0.12430705246E+04  0.10100000352E+00 0.  1.
       -3    1    3    3    0  502  0.12059367867E+04 -0.74972299601E+00 -0.36178209455E+03  0.12590354998E+04  0.10100000352E+00 0. -1.
</event>
<event>
 5   0  0.6104486E-06  0.2460281E+04  0.7818609E-02  0.8417274E-01
       -1   -1    0    0    0  501  0.00000000000E+00  0.00000000000E+00  0.88710289248E+03  0.88710289249E+03  0.50400001928E-02 0.  1.
        1   -1    0    0  501    0  0.00000000000E+00  0.00000000000E+00 -0.17058284448E+04  0.17058284448E+04  0.50400001928E-02 0. -1.
    10030    2    1    2    0    0  0.00000000000E+00  0.00000000000E+00 -0.81872555231E+03  0.25929313373E+04  0.24602807543E+04 0.  0.
        2    1    3    3  502    0 -0.74959488994E+03  0.72496938606E+02 -0.14344815556E+04  0.16201498815E+04  0.25500000920E-02 0.  1.
       -2    1    3    3    0  502  0.74959488994E+03 -0.72496938606E+02  0.61575600330E+03  0.97278145579E+03  0.25500000920E-02 0. -1.
</event>
<event>
 5   0  0.1550483E-05  0.2547331E+04  0.7818609E-02  0.8386315E-01
        2   -1    0    0  501    0  0.00000000000E+00  0.00000000000E+00  0.12968578633E+04  0.12968578633E+04  0.25500000920E-02 0.  1.
       -2   -1    0    0    0  501  0.00000000000E+00  0.00000000000E+00 -0.12508874441E+04  0.12508874441E+04  0.25500000920E-02 0. -1.
    10030    2    1    2    0    0  0.00000000000E+00  0.00000000000E+00  0.45970419153E+02  0.25477453074E+04  0.25473305385E+04 0.  0.
        5    1    3    3  502    0 -0.85968729112E+03 -0.65676880977E+03 -0.64928018339E+03  0.12617425865E+04  0.46999998093E+01 0. -1.
       -5    1    3    3    0  502  0.85968729112E+03  0.65676880977E+03  0.69525060254E+03  0.12860027210E+04  0.46999998093E+01 0.  1.
</event>
<event>
 5   0  0.6477703E-06  0.2521278E+04  0.7818609E-02  0.8395444E-01
       -1   -1    0    0    0  501  0.00000000000E+00  0.00000000000E+00  0.12069118053E+04  0.12069118053E+04  0.50400001928E-02 0. -1.
        1   -1    0    0  501    0  0.00000000000E+00  0.00000000000E+00 -0.13167581960E+04  0.13167581960E+04  0.50400001928E-02 0.  1.
    10030    2    1    2    0    0  0.00000000000E+00  0.00000000000E+00 -0.10984639065E+03  0.25236700013E+04  0.25212782564E+04 0.  0.
        5    1    3    3  502    0 -0.61174205559E+03 -0.39921469439E+03 -0.10833160527E+04  0.13065972887E+04  0.46999998093E+01 0.  1.
       -5    1    3    3    0  502  0.61174205559E+03  0.39921469439E+03  0.97346966208E+03  0.12170727126E+04  0.46999998093E+01 0. -1.
</event>
<event>
 5   0  0.6104486E-06  0.2442301E+04  0.7818609E-02  0.8423834E-01
        1   -1    0    0  501    0  0.00000000000E+00  0.00000000000E+00  0.12524996442E+04  0.12524996442E+04  0.50400001928E-02 0. -1.
       -1   -1    0    0    0  501  0.00000000000E+00  0.00000000000E+00 -0.11905861655E+04  0.11905861655E+04  0.50400001928E-02 0.  1.
    10030    2    1    2    0    0  0.00000000000E+00  0.00000000000E+00  0.61913478710E+02  0.24430858097E+04  0.24423011679E+04 0.  0.
        2    1    3    3  502    0  0.27518350008E+03 -0.10196851204E+04  0.64411781397E+03  0.12370818331E+04  0.25500000920E-02 0. -1.
       -2    1    3    3    0  502 -0.27518350008E+03  0.10196851204E+04 -0.58220433526E+03  0.12060039766E+04  0.25500000920E-02 0.  1.
</event>
<event>
 5   0  0.1550483E-05  0.2522298E+04  0.7818609E-02  0.8395085E-01
        2   -1    0    0  501    0  0.00000000000E+00  0.00000000000E+00  0.14697414073E+04  0.14697414073E+04  0.25500000920E-02 0.  1.
       -2   -1    0    0    0  501  0.00000000000E+00  0.00000000000E+00 -0.10821609458E+04  0.10821609458E+04  0.25500000920E-02 0. -1.
    10030    2    1    2    0    0  0.00000000000E+00  0.00000000000E+00  0.38758046149E+03  0.25519023532E+04  0.25222979614E+04 0.  0.
        5    1    3    3  502    0 -0.46303106985E+03 -0.80478206729E+03 -0.66969207224E+03  0.11448063195E+04  0.46999998093E+01 0. -1.
       -5    1    3    3    0  502  0.46303106985E+03  0.80478206729E+03  0.10572725337E+04  0.14070960337E+04  0.46999998093E+01 0.  1.
</event>
<event>
 5   0  0.1572732E-05  0.2493274E+04  0.7818609E-02  0.8405386E-01
        2   -1    0    0  501    0  0.00000000000E+00  0.00000000000E+00  0.86160945285E+03  0.86160945286E+03  0.25500000920E-02 0.  1.
       -2   -1    0    0    0  501  0.00000000000E+00  0.00000000000E+00 -0.18037213996E+04  0.18037213996E+04  0.25500000920E-02 0. -1.
    10030    2    1    2    0    0  0.00000000000E+00  0.00000000000E+00 -0.94211194675E+03  0.26653308525E+04  0.24932736779E+04 0.  0.
        1    1    3    3  502    0  0.61076835998E+03 -0.10595633760E+04 -0.21273857941E+03  0.12413582241E+04  0.50400001928E-02 0. -1.
       -1    1    3    3    0  502 -0.61076835998E+03  0.10595633760E+04 -0.72937336733E+03  0.14239726284E+04  0.50400001928E-02 0.  1.
</event>
<event>
 5   0  0.6104486E-06  0.2501981E+04  0.7818609E-02  0.8402280E-01
       -1   -1    0    0    0  501  0.00000000000E+00  0.00000000000E+00  0.94170459320E+03  0.94170459321E+03  0.50400001928E-02 0. -1.
        1   -1    0    0  501    0  0.00000000000E+00  0.00000000000E+00 -0.16618560061E+04  0.16618560061E+04  0.50400001928E-02 0.  1.
    10030    2    1    2    0    0  0.00000000000E+00  0.00000000000E+00 -0.72015141289E+03  0.26035605993E+04  0.25019811624E+04 0.  0.
        2    1    3    3  502    0  0.51618862824E+03  0.34541971971E+03 -0.14900786926E+04  0.16143419689E+04  0.25500000920E-02 0.  1.
       -2    1    3    3    0  502 -0.51618862824E+03 -0.34541971971E+03  0.76992727966E+03  0.98921863037E+03  0.25500000920E-02 0. -1.
</event>
<event>
 5   0  0.1572732E-05  0.2518806E+04  0.7818609E-02  0.8396316E-01
       -2   -1    0    0    0  501  0.00000000000E+00  0.00000000000E+00  0.92807060449E+03  0.92807060450E+03  0.25500000920E-02 0. -1.
        2   -1    0    0  501    0  0.00000000000E+00  0.00000000000E+00 -0.17090255873E+04  0.17090255873E+04  0.25500000920E-02 0.  1.
    10030    2    1    2    0    0  0.00000000000E+00  0.00000000000E+00 -0.78095498284E+03  0.26370961918E+04  0.25188063919E+04 0.  0.
        1    1    3    3  502    0  0.72240516995E+03 -0.75651717155E+03  0.34382254006E+03  0.11010910042E+04  0.50400001928E-02 0. -1.
       -1    1    3    3    0  502 -0.72240516995E+03  0.75651717155E+03 -0.11247775229E+04  0.15360051876E+04  0.50400001928E-02 0.  1.
</event>
<event>
 5   0  0.6346420E-06  0.2506716E+04  0.7818609E-02  0.8400597E-01
        1   -1    0    0  501    0  0.00000000000E+00  0.00000000000E+00  0.21805686101E+04  0.21805686101E+04  0.50400001928E-02 0.  1.
       -1   -1    0    0    0  501  0.00000000000E+00  0.00000000000E+00 -0.72041139024E+03  0.72041139026E+03  0.50400001928E-02 0. -1.
    10030    2    1    2    0    0  0.00000000000E+00  0.00000000000E+00  0.14601572199E+04  0.29009800004E+04  0.25067161498E+04 0.  0.
        4    1    3    3  502    0  0.66094876952E+02  0.96234294786E+03 -0.19606047516E+03  0.98433419369E+03  0.12699999809E+01 0. -1.
       -4    1    3    3    0  502 -0.66094876952E+02 -0.96234294786E+03  0.16562176951E+04  0.19166458067E+04  0.12699999809E+01 0.  1.
</event>
<event>
 5   0  0.1501947E-05  0.2537713E+04  0.7818609E-02  0.8389672E-01
        2   -1    0    0  501    0  0.00000000000E+00  0.00000000000E+00  0.13826808731E+04  0.13826808731E+04  0.25500000920E-02 0.  1.
       -2   -1    0    0    0  501  0.00000000000E+00  0.00000000000E+00 -0.11644026910E+04  0.11644026910E+04  0.25500000920E-02 0. -1.
    10030    2    1    2    0    0  0.00000000000E+00  0.00000000000E+00  0.21827818219E+03  0.25470835641E+04  0.25377134034E+04 0.  0.
        3    1    3    3  502    0 -0.10281139754E+04  0.63841215021E+03  0.49187227067E+03  0.13063409818E+04  0.10100000352E+00 0.  1.
       -3    1    3    3    0  502  0.10281139754E+04 -0.63841215021E+03 -0.27359408848E+03  0.12407425823E+04  0.10100000352E+00 0. -1.
</event>
<event>
 5   0  0.6346420E-06  0.2471571E+04  0.7818609E-02  0.8413184E-01
       -1   -1    0    0    0  501  0.00000000000E+00  0.00000000000E+00  0.12917788074E+04  0.12917788074E+04  0.50400001928E-02 0. -1.
        1   -1    0    0  501    0  0.00000000000E+00  0.00000000000E+00 -0.11822192576E+04  0.11822192576E+04  0.50400001928E-02 0.  1.
    10030    2    1    2    0    0  0.00000000000E+00  0.00000000000E+00  0.10955954984E+03  0.24739980650E+04  0.24715709844E+04 0.  0.
        4    1    3    3  502    0 -0.83075690614E+03  0.90870705554E+03  0.16099061553E+03  0.12417025171E+04  0.12699999809E+01 0.  1.
       -4    1    3    3    0  502  0.83075690614E+03 -0.90870705554E+03 -0.51431065689E+02  0.12322955479E+04  0.12699999809E+01 0. -1.
</event>
<event>
 5   0  0.1501947E-05  0.2238089E+04  0.7818609E-02  0.8502740E-01
       -2   -1    0    0    0  501  0.00000000000E+00  0.00000000000E+00  0.71056098565E+03  0.71056098565E+03  0.25500000920E-02 0. -1.
        2   -1    0    0  501    0  0.00000000000E+00  0.00000000000E+00 -0.17623547343E+04  0.17623547343E+04  0.25500000920E-02 0.  1.
    10030    2    1    2    0    0  0.00000000000E+00  0.00000000000E+00 -0.10517937486E+04  0.24729157199E+04  0.22380889322E+04 0.  0.
        3    1    3    3  502    0  0.72901298144E+03  0.84786934025E+03 -0.57428898602E+03  0.12570402519E+04  0.10100000352E+00 0. -1.
       -3    1    3    3    0  502 -0.72901298144E+03 -0.84786934025E+03 -0.47750476261E+03  0.12158754680E+04  0.10100000352E+00 0.  1.
</event>
<event>
 5   0  0.1468512E-05  0.2499448E+04  0.7818609E-02  0.8403182E-01
        2   -1    0    0  501    0  0.00000000000E+00  0.00000000000E+00  0.20576478362E+04  0.20576478362E+04  0.25500000920E-02 0. -1.
       -2   -1    0    0    0  501  0.00000000000E+00  0.00000000000E+00 -0.75902688999E+03  0.75902688999E+03  0.25500000920E-02 0.  1.
    10030    2    1    2    0    0  0.00000000000E+00  0.00000000000E+00  0.12986209462E+04  0.28166747262E+04  0.24994479693E+04 0.  0.
        4    1    3    3  502    0 -0.16628740021E+03 -0.25984490282E+03  0.20140632814E+04  0.20375532845E+04  0.12699999809E+01 0. -1.
       -4    1    3    3    0  502  0.16628740021E+03  0.25984490282E+03 -0.71544233518E+03  0.77912144166E+03  0.12699999809E+01 0.  1.
</event>
<event>
 5   0  0.1526824E-05  0.2495697E+04  0.7818609E-02  0.8404520E-01
        2   -1    0    0  501    0  0.00000000000E+00  0.00000000000E+00  0.13260931695E+04  0.13260931695E+04  0.25500000920E-02 0.  1.
       -2   -1    0    0    0  501  0.00000000000E+00  0.00000000000E+00 -0.11742203427E+04  0.11742203428E+04  0.25500000920E-02 0. -1.
    10030    2    1    2    0    0  0.00000000000E+00  0.00000000000E+00  0.15187282678E+03  0.25003135123E+04  0.24956967573E+04 0.  0.
        2    1    3    3  502    0  0.69196460516E+02  0.74050770933E+03  0.10797808799E+04  0.13111317883E+04  0.25500000920E-02 0.  1.
       -2    1    3    3    0  502 -0.69196460516E+02 -0.74050770933E+03 -0.92790805308E+03  0.11891817240E+04  0.25500000920E-02 0. -1.
</event>
<event>
 5   0  0.1526824E-05  0.2521903E+04  0.7818609E-02  0.8395224E-01
       -2   -1    0    0    0  501  0.00000000000E+00  0.00000000000E+00  0.11315767902E+04  0.11315767902E+04  0.25500000920E-02 0. -1.
        2   -1    0    0  501    0  0.00000000000E+00  0.00000000000E+00 -0.14051174536E+04  0.14051174536E+04  0.25500000920E-02 0.  1.
    10030    2    1    2    0    0  0.00000000000E+00  0.00000000000E+00 -0.27354066335E+03  0.25366942438E+04  0.25219026929E+04 0.  0.
        2    1    3    3  502    0 -0.98347613590E+03 -0.60960908345E+03  0.36731745611E+03  0.12139895626E+04  0.25500000920E-02 0. -1.
       -2    1    3    3    0  502  0.98347613590E+03  0.60960908345E+03 -0.64085811946E+03  0.13227046812E+04  0.25500000920E-02 0.  1.
</event>
<event>
 5   0  0.6346420E-06  0.2501672E+04  0.7818609E-02  0.8402390E-01
       -1   -1    0    0    0  501  0.00000000000E+00  0.00000000000E+00  0.19777582835E+04  0.19777582835E+04  0.50400001928E-02 0. -1.
        1   -1    0    0  501    0  0.00000000000E+00  0.00000000000E+00 -0.79109280847E+03  0.79109280849E+03  0.50400001928E-02 0.  1.
    10030    2    1    2    0    0  0.00000000000E+00  0.00000000000E+00  0.11866654750E+04  0.27688510920E+04  0.25016717251E+04 0.  0.
        4    1    3    3  502    0 -0.88324307632E+03  0.86190279817E+02 -0.38231137453E+03  0.96628706718E+03  0.12699999809E+01 0.  1.
       -4    1    3    3    0  502  0.88324307632E+03 -0.86190279817E+02  0.15689768496E+04  0.18025640248E+04  0.12699999809E+01 0. -1.
</event>
<event>
 5   0  0.1526824E-05  0.2474456E+04  0.7818609E-02  0.8412143E-01
        2   -1    0    0  501    0  0.00000000000E+00  0.00000000000E+00  0.11935352181E+04  0.11935352181E+04  0.25500000920E-02 0. -1.
       -2   -1    0    0    0  501  0.00000000000E+00  0.00000000000E+00 -0.12825197984E+04  0.12825197984E+04  0.25500000920E-02 0.  1.
    10030    2    1    2    0    0  0.00000000000E+00  0.00000000000E+00 -0.88984580347E+02  0.24760550165E+04  0.24744555339E+04 0.  0.
        2    1    3    3  502    0 -0.99228335336E+03 -0.64583413619E+03 -0.40389650962E+03  0.12509437938E+04  0.25500000920E-02 0.  1.
       -2    1    3    3    0  502  0.99228335336E+03  0.64583413619E+03  0.31491192927E+03  0.12251112227E+04  0.25500000920E-02 0. -1.
</event>
<event>
 5   0  0.1550483E-05  0.2509157E+04  0.7818609E-02  0.8399731E-01
       -2   -1    0    0    0  501  0.00000000000E+00  0.00000000000E+00  0.96915647066E+03  0.96915647066E+03  0.25500000920E-02 0. -1.
        2   -1    0    0  501    0  0.00000000000E+00  0.00000000000E+00 -0.16240587402E+04  0.16240587402E+04  0.25500000920E-02 0.  1.
    10030    2    1    2    0    0  0.00000000000E+00  0.00000000000E+00 -0.65490226957E+03  0.25932152109E+04  0.25091568598E+04 0.  0.
        5    1    3    3  502    0 -0.23347934642E+02 -0.11932867843E+04  0.72109448790E+02  0.11957007729E+04  0.46999998093E+01 0. -1.
       -5    1    3    3    0  502  0.23347934642E+02  0.11932867843E+04 -0.72701171836E+03  0.13975144380E+04  0.46999998093E+01 0.  1.
</event>
<event>
 5   0  0.1550483E-05  0.2487813E+04  0.7818609E-02  0.8407340E-01
        2   -1    0    0  501    0  0.00000000000E+00  0.00000000000E+00  0.14706738374E+04  0.14706738374E+04  0.25500000920E-02 0. -1.
       -2   -1    0    0    0  501  0.00000000000E+00  0.00000000000E+00 -0.10521050890E+04  0.10521050890E+04  0.25500000920E-02 0.  1.
    10030    2    1    2    0    0  0.00000000000E+00  0.00000000000E+00  0.41856874839E+03  0.25227789264E+04  0.24878130384E+04 0.  0.
        5    1    3    3  502    0  0.51508949462E+03  0.36201249384E+03 -0.87859901419E+03  0.10808924789E+04  0.46999998093E+01 0.  1.
       -5    1    3    3    0  502 -0.51508949462E+03 -0.36201249384E+03  0.12971677626E+04  0.14418864475E+04  0.46999998093E+01 0. -1.
</event>
<event>
 5   0  0.1501947E-05  0.2503777E+04  0.7818609E-02  0.8401641E-01
        2   -1    0    0  501    0  0.00000000000E+00  0.00000000000E+00  0.80567849987E+03  0.80567849988E+03  0.25500000920E-02 0.  1.
       -2   -1    0    0    0  501  0.00000000000E+00  0.00000000000E+00 -0.19452228372E+04  0.19452228372E+04  0.25500000920E-02 0. -1.
    10030    2    1    2    0    0  0.00000000000E+00  0.00000000000E+00 -0.11395443374E+04  0.27509013371E+04  0.25037765215E+04 0.  0.
        3    1    3    3  502    0 -0.58798458140E+03  0.10952847446E+04 -0.73217809320E+03  0.14427263462E+04  0.10100000352E+00 0.  1.
       -3    1    3    3    0  502  0.58798458140E+03 -0.10952847446E+04 -0.40736624415E+03  0.13081749909E+04  0.10100000352E+00 0. -1.
</event>
<event>
 5   0  0.6477703E-06  0.2505440E+04  0.7818609E-02  0.8401050E-01
        1   -1    0    0  501    0  0.00000000000E+00  0.00000000000E+00  0.23746846397E+04  0.23746846398E+04  0.50400001928E-02 0. -1.
       -1   -1    0    0    0  501  0.00000000000E+00  0.00000000000E+00 -0.66084866393E+03  0.66084866395E+03  0.50400001928E-02 0.  1.
    10030    2    1    2    0    0  0.00000000000E+00  0.00000000000E+00  0.17138359758E+04  0.30355333037E+04  0.25054398189E+04 0.  0.
        5    1    3    3  502    0  0.11497049596E+04  0.48201704669E+03  0.10059131666E+04  0.16018880473E+04  0.46999998093E+01 0. -1.
       -5    1    3    3    0  502 -0.11497049596E+04 -0.48201704669E+03  0.70792280926E+03  0.14336452564E+04  0.46999998093E+01 0.  1.
</event>
<event>
 5   0  0.6290861E-06  0.2494695E+04  0.7818609E-02  0.8404878E-01
       -1   -1    0    0    0  501  0.00000000000E+00  0.00000000000E+00  0.10066904048E+04  0.10066904048E+04  0.50400001928E-02 0. -1.
        1   -1    0    0  501    0  0.00000000000E+00  0.00000000000E+00 -0.15455351083E+04  0.15455351083E+04  0.50400001928E-02 0.  1.
    10030    2    1    2    0    0  0.00000000000E+00  0.00000000000E+00 -0.53884470343E+03  0.25522255131E+04  0.24946946618E+04 0.  0.
        1    1    3    3  502    0 -0.89720785986E+03 -0.53696180823E+03 -0.96522846057E+03  0.14230164821E+04  0.50400001928E-02 0.  1.
       -1    1    3    3    0  502  0.89720785986E+03  0.53696180823E+03  0.42638375713E+03  0.11292090310E+04  0.50400001928E-02 0. -1.
</event>
<event>
 5   0  0.1501947E-05  0.2498328E+04  0.7818609E-02  0.8403582E-01
        2   -1    0    0  501    0  0.00000000000E+00  0.00000000000E+00  0.97496522144E+03  0.97496522145E+03  0.25500000920E-02 0.  1.
       -2   -1    0    0    0  501  0.00000000000E+00  0.00000000000E+00 -0.16004777943E+04  0.16004777943E+04  0.25500000920E-02 0. -1.
    10030    2    1    2    0    0  0.00000000000E+00  0.00000000000E+00 -0.62551257284E+03  0.25754430157E+04  0.24983275903E+04 0.  0.
        3    1    3    3  502    0  0.43066624675E+03 -0.18175842599E+03  0.88140431973E+03  0.99768889267E+03  0.10100000352E+00 0.  1.
       -3    1    3    3    0  502 -0.43066624675E+03  0.18175842599E+03 -0.15069168926E+04  0.15777541231E+04  0.10100000352E+00 0. -1.
</event>
<event>
 5   0  0.6104486E-06  0.2513821E+04  0.7818609E-02  0.8398078E-01
       -1   -1    0    0    0  501  0.00000000000E+00  0.00000000000E+00  0.88252620703E+03  0.88252620705E+03  0.50400001928E-02 0.  1.
        1   -1    0    0  501    0  0.00000000000E+00  0.00000000000E+00 -0.17901156428E+04  0.17901156428E+04  0.50400001928E-02 0. -1.
    10030    2    1    2    0    0  0.00000000000E+00  0.00000000000E+00 -0.90758943576E+03  0.26726418498E+04  0.25138209709E+04 0.  0.
        2    1    3    3  502    0  0.79357600135E+03 -0.42825464550E+03  0.47711498077E+03  0.10201978319E+04  0.25500000920E-02 0.  1.
       -2    1    3    3    0  502 -0.79357600135E+03  0.42825464550E+03 -0.13847044165E+04  0.16524440180E+04  0.25500000920E-02 0. -1.
</event>
<event>
 5   0  0.1468512E-05  0.2485622E+04  0.7818609E-02  0.8408126E-01
       -2   -1    0    0    0  501  0.00000000000E+00  0.00000000000E+00  0.12795853357E+04  0.12795853357E+04  0.25500000920E-02 0. -1.
        2   -1    0    0  501    0  0.00000000000E+00  0.00000000000E+00 -0.12070937226E+04  0.12070937226E+04  0.25500000920E-02 0.  1.
    10030    2    1    2    0    0  0.00000000000E+00  0.00000000000E+00  0.72491613156E+02  0.24866790583E+04  0.24856221968E+04 0.  0.
        4    1    3    3  502    0  0.86560678468E+03 -0.68949416525E+03 -0.52959215482E+03  0.12268442334E+04  0.12699999809E+01 0.  1.
       -4    1    3    3    0  502 -0.86560678468E+03  0.68949416525E+03  0.60208376797E+03  0.12598348250E+04  0.12699999809E+01 0. -1.
</event>
<event>
 5   0  0.6346420E-06  0.2525466E+04  0.7818609E-02  0.8393969E-01
       -1   -1    0    0    0  501  0.00000000000E+00  0.00000000000E+00  0.13648858424E+04  0.13648858424E+04  0.50400001928E-02 0.  1.
        1   -1    0    0  501    0  0.00000000000E+00  0.00000000000E+00 -0.11682260382E+04  0.11682260382E+04  0.50400001928E-02 0. -1.
    10030    2    1    2    0    0  0.00000000000E+00  0.00000000000E+00  0.19665980425E+03  0.25331118806E+04  0.25254664363E+04 0.  0.
        4    1    3    3  502    0  0.33205907725E+02  0.30714366766E+03  0.13263949370E+04  0.13618975757E+04  0.12699999809E+01 0.  1.
       -4    1    3    3    0  502 -0.33205907725E+02 -0.30714366766E+03 -0.11297351328E+04  0.11712143049E+04  0.12699999809E+01 0. -1.
</event>
<event>
 5   0  0.1468512E-05  0.2510019E+04  0.7818609E-02  0.8399425E-01
        2   -1    0    0  501    0  0.00000000000E+00  0.00000000000E+00  0.15347006323E+04  0.15347006323E+04  0.25500000920E-02 0. -1.
       -2   -1    0    0    0  501  0.00000000000E+00  0.00000000000E+00 -0.10262903075E+04  0.10262903075E+04  0.25500000920E-02 0.  1.
    10030    2    1    2    0    0  0.00000000000E+00  0.00000000000E+00  0.50841032476E+03  0.25609909398E+04  0.25100186325E+04 0.  0.
        4    1    3    3  502    0 -0.50174215950E+02 -0.17731866317E+03 -0.10124101471E+04  0.10290458100E+04  0.12699999809E+01 0.  1.
       -4    1    3    3    0  502  0.50174215950E+02  0.17731866317E+03  0.15208204719E+04  0.15319451298E+04  0.12699999809E+01 0. -1.
</event>
<event>
 5   0  0.1572732E-05  0.2505326E+04  0.7818609E-02  0.8401090E-01
       -2   -1    0    0    0  501  0.00000000000E+00  0.00000000000E+00  0.67032480352E+03  0.67032480353E+03  0.25500000920E-02 0.  1.
        2   -1    0    0  501    0  0.00000000000E+00  0.00000000000E+00 -0.23409025112E+04  0.23409025112E+04  0.25500000920E-02 0. -1.
    10030    2    1    2    0    0  0.00000000000E+00  0.00000000000E+00 -0.16705777077E+04  0.30112273147E+04  0.25053263387E+04 0.  0.
        1    1    3    3  502    0  0.10071767247E+04  0.30016169285E+03 -0.16545989226E+04  0.19601529510E+04  0.50400001928E-02 0. -1.
       -1    1    3    3    0  502 -0.10071767247E+04 -0.30016169285E+03 -0.15978785103E+02  0.10510743638E+04  0.50400001928E-02 0.  1.
</event>
<event>
 5   0  0.1526824E-05  0.2499418E+04  0.7818609E-02  0.8403193E-01
       -2   -1    0    0    0  501  0.00000000000E+00  0.00000000000E+00  0.82659661150E+03  0.82659661150E+03  0.25500000920E-02 0.  1.
        2   -1    0    0  501    0  0.00000000000E+00  0.00000000000E+00 -0.18894006383E+04  0.18894006383E+04  0.25500000920E-02 0. -1.
    10030    2    1    2    0    0  0.00000000000E+00  0.00000000000E+00 -0.10628040268E+04  0.27159972498E+04  0.24994176645E+04 0.  0.
        2    1    3    3  502    0  0.22163228231E+03  0.64064311662E+03  0.60944169148E+03  0.91157207436E+03  0.25500000920E-02 0.  1.
       -2    1    3    3    0  502 -0.22163228231E+03 -0.64064311662E+03 -0.16722457182E+04  0.18044251754E+04  0.25500000920E-02 0. -1.
</event>
<event>
 5   0  0.6105353E-06  0.2522654E+04  0.7818609E-02  0.8394959E-01
       -1   -1    0    0    0  501  0.00000000000E+00  0.00000000000E+00  0.93162325499E+03  0.93162325501E+03  0.50400001928E-02 0.  1.
        1   -1    0    0  501    0  0.00000000000E+00  0.00000000000E+00 -0.17077133855E+04  0.17077133855E+04  0.50400001928E-02 0. -1.
    10030    2    1    2    0    0  0.00000000000E+00  0.00000000000E+00 -0.77609013048E+03  0.26393366405E+04  0.25226537636E+04 0.  0.
        3    1    3    3  502    0  0.73494963825E+03  0.79446978635E+03 -0.10657821254E+04  0.15189551544E+04  0.10100000352E+00 0. -1.
       -3    1    3    3    0  502 -0.73494963825E+03 -0.79446978635E+03  0.28969199491E+03  0.11203814861E+04  0.10100000352E+00 0.  1.
</event>
<event>
 5   0  0.6290861E-06  0.2504756E+04  0.7818609E-02  0.8401293E-01
       -1   -1    0    0    0  501  0.00000000000E+00  0.00000000000E+00  0.12775705789E+04  0.12775705789E+04  0.50400001928E-02 0. -1.
        1   -1    0    0  501    0  0.00000000000E+00  0.00000000000E+00 -0.12276826822E+04  0.12276826822E+04  0.50400001928E-02 0.  1.
    10030    2    1    2    0    0  0.00000000000E+00  0.00000000000E+00  0.49887896711E+02  0.25052532610E+04  0.25047564951E+04 0.  0.
        1    1    3    3  502    0 -0.20330546526E+03  0.12146128726E+04  0.25265932939E+03  0.12571611986E+04  0.50400001928E-02 0. -1.
       -1    1    3    3    0  502  0.20330546526E+03 -0.12146128726E+04 -0.20277143268E+03  0.12480920625E+04  0.50400001928E-02 0.  1.
</event>
<event>
 5   0  0.6104486E-06  0.2502609E+04  0.7818609E-02  0.8402056E-01
       -1   -1    0    0    0  501  0.00000000000E+00  0.00000000000E+00  0.14688303213E+04  0.14688303213E+04  0.50400001928E-02 0.  1.
        1   -1    0    0  501    0  0.00000000000E+00  0.00000000000E+00 -0.10659935008E+04  0.10659935009E+04  0.50400001928E-02 0. -1.
    10030    2    1    2    0    0  0.00000000000E+00  0.00000000000E+00  0.40283682043E+03  0.25348238221E+04  0.25026094992E+04 0.  0.
        2    1    3    3  502    0  0.87454673449E+03 -0.49257034435E+03 -0.55539854812E+03  0.11471377782E+04  0.25500000920E-02 0.  1.
       -2    1    3    3    0  502 -0.87454673449E+03  0.49257034435E+03  0.95823536855E+03  0.13876860439E+04  0.25500000920E-02 0. -1.
</event>
<event>
 5   0  0.1526824E-05  0.2601343E+04  0.7818609E-02  0.8367745E-01
        2   -1    0    0  501    0  0.00000000000E+00  0.00000000000E+00  0.16639509070E+04  0.16639509070E+04  0.25500000920E-02 0.  1.
       -2   -1    0    0    0  501  0.00000000000E+00  0.00000000000E+00 -0.10167044582E+04  0.10167044582E+04  0.25500000920E-02 0. -1.
    10030    2    1    2    0    0  0.00000000000E+00  0.00000000000E+00  0.64724644889E+03  0.26806553652E+04  0.26013429650E+04 0.  0.
        2    1    3    3  502    0  0.77472981820E+03  0.20100809246E+03 -0.73288473891E+03  0.10852329635E+04  0.25500000920E-02 0. -1.
       -2    1    3    3    0  502 -0.77472981820E+03 -0.20100809246E+03  0.13801311878E+04  0.15954224017E+04  0.25500000920E-02 0.  1.
</event>
<event>
 5   0  0.1550483E-05  0.2475379E+04  0.7818609E-02  0.8411810E-01
       -2   -1    0    0    0  501  0.00000000000E+00  0.00000000000E+00  0.11810558948E+04  0.11810558948E+04  0.25500000920E-02 0. -1.
        2   -1    0    0  501    0  0.00000000000E+00  0.00000000000E+00 -0.12970385943E+04  0.12970385943E+04  0.25500000920E-02 0.  1.
    10030    2    1    2    0    0  0.00000000000E+00  0.00000000000E+00 -0.11598269952E+03  0.24780944891E+04  0.24753788216E+04 0.  0.
        5    1    3    3  502    0  0.43071388418E+03  0.84226190243E+02  0.11005355564E+04  0.11848245026E+04  0.46999998093E+01 0. -1.
       -5    1    3    3    0  502 -0.43071388418E+03 -0.84226190243E+02 -0.12165182559E+04  0.12932699865E+04  0.46999998093E+01 0.  1.
</event>
<event>
 5   0  0.6290861E-06  0.2501813E+04  0.7818609E-02  0.8402340E-01
       -1   -1    0    0    0  501  0.00000000000E+00  0.00000000000E+00  0.90983529731E+03  0.90983529733E+03  0.50400001928E-02 0. -1.
        1   -1    0    0  501    0  0.00000000000E+00  0.00000000000E+00 -0.17198361799E+04  0.17198361799E+04  0.50400001928E-02 0.  1.
    10030    2    1    2    0    0  0.00000000000E+00  0.00000000000E+00 -0.81000088255E+03  0.26296714772E+04  0.25018134719E+04 0.  0.
        1    1    3    3  502    0 -0.11466233889E+04 -0.49469064496E+03 -0.48154833629E+03  0.13384142970E+04  0.50400001928E-02 0. -1.
       -1    1    3    3    0  502  0.11466233889E+04  0.49469064496E+03 -0.32845254626E+03  0.12912571802E+04  0.50400001928E-02 0.  1.
</event>
<event>
 5   0  0.1572732E-05  0.2499658E+04  0.7818609E-02  0.8403108E-01
       -2   -1    0    0    0  501  0.00000000000E+00  0.00000000000E+00  0.15457591405E+04  0.15457591405E+04  0.25500000920E-02 0. -1.
        2   -1    0    0  501    0  0.00000000000E+00  0.00000000000E+00 -0.10105532753E+04  0.10105532753E+04  0.25500000920E-02 0.  1.
    10030    2    1    2    0    0  0.00000000000E+00  0.00000000000E+00  0.53520586515E+03  0.25563124158E+04  0.24996575464E+04 0.  0.
        1    1    3    3  502    0 -0.74537114662E+03  0.97320031772E+03  0.18410372750E+02  0.12259836648E+04  0.50400001928E-02 0.  1.
       -1    1    3    3    0  502  0.74537114662E+03 -0.97320031772E+03  0.51679549240E+03  0.13303287510E+04  0.50400001928E-02 0. -1.
</event>
<event>
 5   0  0.6290861E-06  0.2497760E+04  0.7818609E-02  0.8403784E-01
       -1   -1    0    0    0  501  0.00000000000E+00  0.00000000000E+00  0.89335121986E+03  0.89335121987E+03  0.50400001928E-02 0.  1.
        1   -1    0    0  501    0  0.00000000000E+00  0.00000000000E+00 -0.17458997293E+04  0.17458997293E+04  0.50400001928E-02 0. -1.
    10030    2    1    2    0    0  0.00000000000E+00  0.00000000000E+00 -0.85254850946E+03  0.26392509492E+04  0.24977603191E+04 0.  0.
        1    1    3    3  502    0 -0.80778361113E+03 -0.30493381556E+03  0.52717192429E+03  0.10116369072E+04  0.50400001928E-02 0.  1.
       -1    1    3    3    0  502  0.80778361113E+03  0.30493381556E+03 -0.13797204337E+04  0.16276140420E+04  0.50400001928E-02 0. -1.
</event>
<event>
 5   0  0.1550483E-05  0.2490976E+04  0.7818609E-02  0.8406207E-01
        2   -1    0    0  501    0  0.00000000000E+00  0.00000000000E+00  0.19477586196E+04  0.19477586196E+04  0.25500000920E-02 0. -1.
       -2   -1    0    0    0  501  0.00000000000E+00  0.00000000000E+00 -0.79642323209E+03  0.79642323209E+03  0.25500000920E-02 0.  1.
    10030    2    1    2    0    0  0.00000000000E+00  0.00000000000E+00  0.11513353875E+04  0.27441818517E+04  0.24909758852E+04 0.  0.
        5    1    3    3  502    0  0.17180553649E+03 -0.95852537310E+03 -0.27974727286E+03  0.10131972463E+04  0.46999998093E+01 0.  1.
       -5    1    3    3    0  502 -0.17180553649E+03  0.95852537310E+03  0.14310826604E+04  0.17309846054E+04  0.46999998093E+01 0. -1.
</event>
<event>
 5   0  0.1468512E-05  0.2513510E+04  0.7818609E-02  0.8398188E-01
        2   -1    0    0  501    0  0.00000000000E+00  0.00000000000E+00  0.10678602163E+04  0.10678602163E+04  0.25500000920E-02 0.  1.
       -2   -1    0    0    0  501  0.00000000000E+00  0.00000000000E+00 -0.14790638931E+04  0.14790638931E+04  0.25500000920E-02 0. -1.
    10030    2    1    2    0    0  0.00000000000E+00  0.00000000000E+00 -0.41120367683E+03  0.25469241094E+04  0.25135102855E+04 0.  0.
        4    1    3    3  502    0 -0.11756533197E+03  0.58169962476E+03 -0.13281354359E+04  0.14546963290E+04  0.12699999809E+01 0. -1.
       -4    1    3    3    0  502  0.11756533197E+03 -0.58169962476E+03  0.91693175903E+03  0.10922277804E+04  0.12699999809E+01 0.  1.
</event>
<event>
 5   0  0.1550483E-05  0.2500821E+04  0.7818609E-02  0.8402693E-01
        2   -1    0    0  501    0  0.00000000000E+00  0.00000000000E+00  0.17304787722E+04  0.17304787722E+04  0.25500000920E-02 0.  1.
       -2   -1    0    0    0  501  0.00000000000E+00  0.00000000000E+00 -0.90352261087E+03  0.90352261088E+03  0.25500000920E-02 0. -1.
    10030    2    1    2    0    0  0.00000000000E+00  0.00000000000E+00  0.82695616134E+03  0.26340013831E+04  0.25008212238E+04 0.  0.
        5    1    3    3  502    0  0.54869591896E+03  0.62549849257E+02 -0.76810499233E+03  0.94603755970E+03  0.46999998093E+01 0. -1.
       -5    1    3    3    0  502 -0.54869591896E+03 -0.62549849257E+02  0.15950611537E+04  0.16879638234E+04  0.46999998093E+01 0.  1.
</event>
<event>
 5   0  0.1550483E-05  0.2493005E+04  0.7818609E-02  0.8405482E-01
        2   -1    0    0  501    0  0.00000000000E+00  0.00000000000E+00  0.13560128511E+04  0.13560128511E+04  0.25500000920E-02 0. -1.
       -2   -1    0    0    0  501  0.00000000000E+00  0.00000000000E+00 -0.11458361240E+04  0.11458361240E+04  0.25500000920E-02 0.  1.
    10030    2    1    2    0    0  0.00000000000E+00  0.00000000000E+00  0.21017672709E+03  0.25018489751E+04  0.24930050216E+04 0.  0.
        5    1    3    3  502    0  0.12451141851E+04  0.53815059290E+02  0.12843081985E+03  0.12528854537E+04  0.46999998093E+01 0.  1.
       -5    1    3    3    0  502 -0.12451141851E+04 -0.53815059290E+02  0.81745907245E+02  0.12489635214E+04  0.46999998093E+01 0. -1.
</event>
<event>
 5   0  0.6104486E-06  0.2456944E+04  0.7818609E-02  0.8418487E-01
        1   -1    0    0  501    0  0.00000000000E+00  0.00000000000E+00  0.10542469052E+04  0.10542469052E+04  0.50400001928E-02 0.  1.
       -1   -1    0    0    0  501  0.00000000000E+00  0.00000000000E+00 -0.14314899252E+04  0.14314899252E+04  0.50400001928E-02 0. -1.
    10030    2    1    2    0    0  0.00000000000E+00  0.00000000000E+00 -0.37724302002E+03  0.24857368304E+04  0.24569443001E+04 0.  0.
        2    1    3    3  502    0  0.11385774427E+04 -0.44684027841E+03 -0.30450194977E+03  0.12604547850E+04  0.25500000920E-02 0. -1.
       -2    1    3    3    0  502 -0.11385774427E+04  0.44684027841E+03 -0.72741070248E+02  0.12252820454E+04  0.25500000920E-02 0.  1.
</event>
<event>
 5   0  0.1572732E-05  0.2511990E+04  0.7818609E-02  0.8398726E-01
        2   -1    0    0  501    0  0.00000000000E+00  0.00000000000E+00  0.14537678576E+04  0.14537678576E+04  0.25500000920E-02 0. -1.
       -2   -1    0    0    0  501  0.00000000000E+00  0.00000000000E+00 -0.10851277931E+04  0.10851277931E+04  0.25500000920E-02 0.  1.
    10030    2    1    2    0    0  0.00000000000E+00  0.00000000000E+00  0.36864006451E+03  0.25388956507E+04  0.25119903718E+04 0.  0.
        1    1    3    3  502    0  0.95142413214E+03 -0.26920063517E+03 -0.59847334614E+03  0.11557885651E+04  0.50400001928E-02 0.  1.
       -1    1    3    3    0  502 -0.95142413214E+03  0.26920063517E+03  0.96711341066E+03  0.13831070856E+04  0.50400001928E-02 0. -1.
</event>
<event>
 5   0  0.6104486E-06  0.2543436E+04  0.7818609E-02  0.8387673E-01
        1   -1    0    0  501    0  0.00000000000E+00  0.00000000000E+00  0.21409833358E+04  0.21409833359E+04  0.50400001928E-02 0.  1.
       -1   -1    0    0    0  501  0.00000000000E+00  0.00000000000E+00 -0.75538515606E+03  0.75538515608E+03  0.50400001928E-02 0. -1.
    10030    2    1    2    0    0  0.00000000000E+00  0.00000000000E+00  0.13855981798E+04  0.28963684919E+04  0.25434362829E+04 0.  0.
        2    1    3    3  502    0  0.93398722092E+03  0.69915524807E+03  0.11649457659E+03  0.11724850430E+04  0.25500000920E-02 0.  1.
       -2    1    3    3    0  502 -0.93398722092E+03 -0.69915524807E+03  0.12691036032E+04  0.17238834489E+04  0.25500000920E-02 0. -1.
</event>
<event>
 5   0  0.1468512E-05  0.2406319E+04  0.7818609E-02  0.8437142E-01
       -2   -1    0    0    0  501  0.00000000000E+00  0.00000000000E+00  0.84108726388E+03  0.84108726388E+03  0.25500000920E-02 0. -1.
        2   -1    0    0  501    0  0.00000000000E+00  0.00000000000E+00 -0.17210973191E+04  0.17210973191E+04  0.25500000920E-02 0.  1.
    10030    2    1    2    0    0  0.00000000000E+00  0.00000000000E+00 -0.88001005519E+03  0.25621845830E+04  0.24063192099E+04 0.  0.
        4    1    3    3  502    0 -0.89084804671E+03  0.58744447552E+03  0.15177352045E+03  0.10778395375E+04  0.12699999809E+01 0. -1.
       -4    1    3    3    0  502  0.89084804671E+03 -0.58744447552E+03 -0.10317835756E+04  0.14843450455E+04  0.12699999809E+01 0.  1.
</event>
<event>
 5   0  0.6105353E-06  0.2506476E+04  0.7818609E-02  0.8400682E-01
        1   -1    0    0  501    0  0.00000000000E+00  0.00000000000E+00  0.16228590750E+04  0.16228590750E+04  0.50400001928E-02 0. -1.
       -1   -1    0    0    0  501  0.00000000000E+00  0.00000000000E+00 -0.96780117710E+03  0.96780117711E+03  0.50400001928E-02 0.  1.
    10030    2    1    2    0    0  0.00000000000E+00  0.00000000000E+00  0.65505789790E+03  0.25906602521E+04  0.25064755519E+04 0.  0.
        3    1    3    3  502    0  0.93729246179E+03 -0.41686853175E+03  0.10716457404E+04  0.14834827720E+04  0.10100000352E+00 0. -1.
       -3    1    3    3    0  502 -0.93729246179E+03  0.41686853175E+03 -0.41658784253E+03  0.11071774801E+04  0.10100000352E+00 0.  1.
</event>
<event>
 5   0  0.1501947E-05  0.2495535E+04  0.7818609E-02  0.8404578E-01
       -2   -1    0    0    0  501  0.00000000000E+00  0.00000000000E+00  0.57622054032E+03  0.57622054033E+03  0.25500000920E-02 0. -1.
        2   -1    0    0  501    0  0.00000000000E+00  0.00000000000E+00 -0.27019579323E+04  0.27019579323E+04  0.25500000920E-02 0.  1.
    10030    2    1    2    0    0  0.00000000000E+00  0.00000000000E+00 -0.21257373920E+04  0.32781784726E+04  0.24955349404E+04 0.  0.
        3    1    3    3  502    0  0.60791892236E+03 -0.66765450120E+03  0.68365541208E+02  0.90553951132E+03  0.10100000352E+00 0. -1.
       -3    1    3    3    0  502 -0.60791892236E+03  0.66765450120E+03 -0.21941029332E+04  0.23726389613E+04  0.10100000352E+00 0.  1.
</event>
<event>
 5   0  0.6346420E-06  0.2495324E+04  0.7818609E-02  0.8404653E-01
       -1   -1    0    0    0  501  0.00000000000E+00  0.00000000000E+00  0.62995654086E+03  0.62995654088E+03  0.50400001928E-02 0.  1.
        1   -1    0    0  501    0  0.00000000000E+00  0.00000000000E+00 -0.24710598025E+04  0.24710598025E+04  0.50400001928E-02 0. -1.
    10030    2    1    2    0    0  0.00000000000E+00  0.00000000000E+00 -0.18411032617E+04  0.31010163434E+04  0.24953238551E+04 0.  0.
        4    1    3    3  502    0 -0.43247709094E+03  0.11703076177E+04 -0.91865942268E+03  0.15493847495E+04  0.12699999809E+01 0.  1.
       -4    1    3    3    0  502  0.43247709094E+03 -0.11703076177E+04 -0.92244383900E+03  0.15516315939E+04  0.12699999809E+01 0. -1.
</event>
<event>
 5   0  0.1572732E-05  0.2507965E+04  0.7818609E-02  0.8400154E-01
       -2   -1    0    0    0  501  0.00000000000E+00  0.00000000000E+00  0.98972005488E+03  0.98972005489E+03  0.25500000920E-02 0.  1.
        2   -1    0    0  501    0  0.00000000000E+00  0.00000000000E+00 -0.15888044427E+04  0.15888044427E+04  0.25500000920E-02 0. -1.
    10030    2    1    2    0    0  0.00000000000E+00  0.00000000000E+00 -0.59908438785E+03  0.25785244976E+04  0.25079646092E+04 0.  0.
        1    1    3    3  502    0 -0.25599624241E+03  0.11269975209E+04 -0.79986887798E+03  0.14055062114E+04  0.50400001928E-02 0.  1.
       -1    1    3    3    0  502  0.25599624241E+03 -0.11269975209E+04  0.20078449013E+03  0.11730182862E+04  0.50400001928E-02 0. -1.
</event>
<event>
 5   0  0.6477703E-06  0.2496365E+04  0.7818609E-02  0.8404282E-01
       -1   -1    0    0    0  501  0.00000000000E+00  0.00000000000E+00  0.64263572988E+03  0.64263572990E+03  0.50400001928E-02 0.  1.
        1   -1    0    0  501    0  0.00000000000E+00  0.00000000000E+00 -0.24243283239E+04  0.24243283239E+04  0.50400001928E-02 0. -1.
    10030    2    1    2    0    0  0.00000000000E+00  0.00000000000E+00 -0.17816925940E+04  0.30669640538E+04  0.24963653594E+04 0.  0.
        5    1    3    3  502    0 -0.17225456395E+02  0.11831723137E+04 -0.13787988697E+04  0.18169485005E+04  0.46999998093E+01 0.  1.
       -5    1    3    3    0  502  0.17225456395E+02 -0.11831723137E+04 -0.40289372429E+03  0.12500155533E+04  0.46999998093E+01 0. -1.
</event>
<event>
 5   0  0.6346420E-06  0.2499330E+04  0.7818609E-02  0.8403224E-01
       -1   -1    0    0    0  501  0.00000000000E+00  0.00000000000E+00  0.13450872123E+04  0.13450872123E+04  0.50400001928E-02 0. -1.
        1   -1    0    0  501    0  0.00000000000E+00  0.00000000000E+00 -0.11610124751E+04  0.11610124752E+04  0.50400001928E-02 0.  1.
    10030    2    1    2    0    0  0.00000000000E+00  0.00000000000E+00  0.18407473715E+03  0.25060996875E+04  0.24993303372E+04 0.  0.
        4    1    3    3  502    0  0.66729575171E+03 -0.74206587292E+03  0.84621548785E+03  0.13084447427E+04  0.12699999809E+01 0. -1.
       -4    1    3    3    0  502 -0.66729575171E+03  0.74206587292E+03 -0.66214075070E+03  0.11976549447E+04  0.12699999809E+01 0.  1.
</event>
<event>
 5   0  0.1501947E-05  0.2493647E+04  0.7818609E-02  0.8405252E-01
        2   -1    0    0  501    0  0.00000000000E+00  0.00000000000E+00  0.26897675230E+04  0.26897675230E+04  0.25500000920E-02 0. -1.
       -2   -1    0    0    0  501  0.00000000000E+00  0.00000000000E+00 -0.57795659963E+03  0.57795659963E+03  0.25500000920E-02 0.  1.
    10030    2    1    2    0    0  0.00000000000E+00  0.00000000000E+00  0.21118109234E+04  0.32677241227E+04  0.24936470411E+04 0.  0.
        3    1    3    3  502    0 -0.12404794419E+04 -0.20983478622E+02  0.12182036169E+04  0.17387494398E+04  0.10100000352E+00 0. -1.
       -3    1    3    3    0  502  0.12404794419E+04  0.20983478622E+02  0.89360730656E+03  0.15289746828E+04  0.10100000352E+00 0.  1.
</event>
<event>
 5   0  0.6477703E-06  0.2493414E+04  0.7818609E-02  0.8405336E-01
        1   -1    0    0  501    0  0.00000000000E+00  0.00000000000E+00  0.12609413198E+04  0.12609413198E+04  0.50400001928E-02 0.  1.
       -1   -1    0    0    0  501  0.00000000000E+00  0.00000000000E+00 -0.12326334686E+04  0.12326334686E+04  0.50400001928E-02 0. -1.
    10030    2    1    2    0    0  0.00000000000E+00  0.00000000000E+00  0.28307851211E+02  0.24935747883E+04  0.24934141033E+04 0.  0.
        5    1    3    3  502    0 -0.10052969989E+02 -0.87023140475E+03  0.90687747202E+03  0.12569218748E+04  0.46999998093E+01 0. -1.
       -5    1    3    3    0  502  0.10052969989E+02  0.87023140475E+03 -0.87856962081E+03  0.12366529136E+04  0.46999998093E+01 0.  1.
</event>
<event>
 5   0  0.6105353E-06  0.2496022E+04  0.7818609E-02  0.8404404E-01
        1   -1    0    0  501    0  0.00000000000E+00  0.00000000000E+00  0.14045403051E+04  0.14045403052E+04  0.50400001928E-02 0.  1.
       -1   -1    0    0    0  501  0.00000000000E+00  0.00000000000E+00 -0.11089258618E+04  0.11089258618E+04  0.50400001928E-02 0. -1.
    10030    2    1    2    0    0  0.00000000000E+00  0.00000000000E+00  0.29561444340E+03  0.25134661669E+04  0.24960216892E+04 0.  0.
        3    1    3    3  502    0 -0.10677903399E+04 -0.17885467579E+03  0.77292421297E+03  0.13302545073E+04  0.10100000352E+00 0.  1.
       -3    1    3    3    0  502  0.10677903399E+04  0.17885467579E+03 -0.47730976957E+03  0.11832116596E+04  0.10100000352E+00 0. -1.
</event>
<event>
 5   0  0.6104486E-06  0.2607352E+04  0.7818609E-02  0.8365708E-01
       -1   -1    0    0    0  501  0.00000000000E+00  0.00000000000E+00  0.74266103030E+03  0.74266103032E+03  0.50400001928E-02 0.  1.
        1   -1    0    0  501    0  0.00000000000E+00  0.00000000000E+00 -0.22884876018E+04  0.22884876018E+04  0.50400001928E-02 0. -1.
    10030    2    1    2    0    0  0.00000000000E+00  0.00000000000E+00 -0.15458265715E+04  0.30311486321E+04  0.26073515760E+04 0.  0.
        2    1    3    3  502    0  0.57902686968E+03  0.27996986733E+02 -0.21304060874E+04  0.22078691185E+04  0.25500000920E-02 0. -1.
       -2    1    3    3    0  502 -0.57902686968E+03 -0.27996986733E+02  0.58457951594E+03  0.82327951362E+03  0.25500000920E-02 0.  1.
</event>
<event>
 5   0  0.1526824E-05  0.2508720E+04  0.7818609E-02  0.8399886E-01
        2   -1    0    0  501    0  0.00000000000E+00  0.00000000000E+00  0.20013274181E+04  0.20013274181E+04  0.25500000920E-02 0. -1.
       -2   -1    0    0    0  501  0.00000000000E+00  0.00000000000E+00 -0.78618751233E+03  0.78618751233E+03  0.25500000920E-02 0.  1.
    10030    2    1    2    0    0  0.00000000000E+00  0.00000000000E+00  0.12151399058E+04  0.27875149305E+04  0.25087196928E+04 0.  0.
        2    1    3    3  502    0 -0.92623439636E+03 -0.42189888394E+02  0.15462802392E+04  0.18029622076E+04  0.25500000920E-02 0. -1.
       -2    1    3    3    0  502  0.92623439636E+03  0.42189888394E+02 -0.33114033345E+03  0.98455272288E+03  0.25500000920E-02 0.  1.
</event>
<event>
 5   0  0.6104486E-06  0.2503031E+04  0.7818609E-02  0.8401907E-01
       -1   -1    0    0    0  501  0.00000000000E+00  0.00000000000E+00  0.11272424903E+04  0.11272424903E+04  0.50400001928E-02 0. -1.
        1   -1    0    0  501    0  0.00000000000E+00  0.00000000000E+00 -0.13894886500E+04  0.13894886500E+04  0.50400001928E-02 0.  1.
    10030    2    1    2    0    0  0.00000000000E+00  0.00000000000E+00 -0.26224615966E+03  0.25167311403E+04  0.25030306798E+04 0.  0.
        2    1    3    3  502    0 -0.59763786733E+03 -0.61866797671E+03  0.78290135426E+03  0.11631232163E+04  0.25500000920E-02 0. -1.
       -2    1    3    3    0  502  0.59763786733E+03  0.61866797671E+03 -0.10451475139E+04  0.13536079239E+04  0.25500000920E-02 0.  1.
</event>
<event>
 5   0  0.6104486E-06  0.2498768E+04  0.7818609E-02  0.8403425E-01
       -1   -1    0    0    0  501  0.00000000000E+00  0.00000000000E+00  0.62543774716E+03  0.62543774718E+03  0.50400001928E-02 0.  1.
        1   -1    0    0  501    0  0.00000000000E+00  0.00000000000E+00 -0.24957883063E+04  0.24957883063E+04  0.50400001928E-02 0. -1.
    10030    2    1    2    0    0  0.00000000000E+00  0.00000000000E+00 -0.18703505591E+04  0.31212260535E+04  0.24987678689E+04 0.  0.
        2    1    3    3  502    0  0.10602849597E+04 -0.66087264042E+03 -0.93288113808E+03  0.15592382949E+04  0.25500000920E-02 0. -1.
       -2    1    3    3    0  502 -0.10602849597E+04  0.66087264042E+03 -0.93746942104E+03  0.15619877586E+04  0.25500000920E-02 0.  1.
</event>
<event>
 5   0  0.6105353E-06  0.2493483E+04  0.7818609E-02  0.8405311E-01
        1   -1    0    0  501    0  0.00000000000E+00  0.00000000000E+00  0.20047237831E+04  0.20047237831E+04  0.50400001928E-02 0. -1.
       -1   -1    0    0    0  501  0.00000000000E+00  0.00000000000E+00 -0.77535111773E+03  0.77535111775E+03  0.50400001928E-02 0.  1.
    10030    2    1    2    0    0  0.00000000000E+00  0.00000000000E+00  0.12293726653E+04  0.27800749008E+04  0.24934833675E+04 0.  0.
        3    1    3    3  502    0 -0.12956844788E+03 -0.42630836048E+03  0.19129231592E+04  0.19641287698E+04  0.10100000352E+00 0. -1.
       -3    1    3    3    0  502  0.12956844788E+03  0.42630836048E+03 -0.68355049389E+03  0.81594613106E+03  0.10100000352E+00 0.  1.
</event>
<event>
 5   0  0.1572732E-05  0.2504634E+04  0.7818609E-02  0.8401336E-01
        2   -1    0    0  501    0  0.00000000000E+00  0.00000000000E+00  0.17189518817E+04  0.17189518817E+04  0.25500000920E-02 0.  1.
       -2   -1    0    0    0  501  0.00000000000E+00  0.00000000000E+00 -0.91235734115E+03  0.91235734115E+03  0.25500000920E-02 0. -1.
    10030    2    1    2    0    0  0.00000000000E+00  0.00000000000E+00  0.80659454055E+03  0.26313092228E+04  0.25046343991E+04 0.  0.
        1    1    3    3  502    0  0.11837131773E+04 -0.40796135157E+03  0.43087400153E+03  0.13241079094E+04  0.50400001928E-02 0.  1.
       -1    1    3    3    0  502 -0.11837131773E+04  0.40796135157E+03  0.37572053901E+03  0.13072013135E+04  0.50400001928E-02 0. -1.
</event>
<event>
 5   0  0.1468512E-05  0.2500564E+04  0.7818609E-02  0.8402784E-01
       -2   -1    0    0    0  501  0.00000000000E+00  0.00000000000E+00  0.13172337400E+04  0.13172337400E+04  0.25500000920E-02 0. -1.
        2   -1    0    0  501    0  0.00000000000E+00  0.00000000000E+00 -0.11867336727E+04  0.11867336728E+04  0.25500000920E-02 0.  1.
    10030    2    1    2    0    0  0.00000000000E+00  0.00000000000E+00  0.13050006722E+03  0.25039674127E+04  0.25005644436E+04 0.  0.
        4    1    3    3  502    0 -0.48604241564E+02  0.67657714144E+03  0.11169578814E+04  0.13067958993E+04  0.12699999809E+01 0. -1.
       -4    1    3    3    0  502  0.48604241564E+02 -0.67657714144E+03 -0.98645781417E+03  0.11971715135E+04  0.12699999809E+01 0.  1.
</event>
<event>
 5   0  0.6290861E-06  0.2509288E+04  0.7818609E-02  0.8399684E-01
       -1   -1    0    0    0  501  0.00000000000E+00  0.00000000000E+00  0.12559516131E+04  0.12559516131E+04  0.50400001928E-02 0. -1.
        1   -1    0    0  501    0  0.00000000000E+00  0.00000000000E+00 -0.12533376064E+04  0.12533376064E+04  0.50400001928E-02 0.  1.
    10030    2    1    2    0    0  0.00000000000E+00  0.00000000000E+00  0.26140067471E+01  0.25092892195E+04  0.25092878580E+04 0.  0.
        1    1    3    3  502    0  0.11834889069E+04 -0.24481800726E+02  0.41710289653E+03  0.12550777576E+04  0.50400001928E-02 0. -1.
       -1    1    3    3    0  502 -0.11834889069E+04  0.24481800726E+02 -0.41448888978E+03  0.12542114619E+04  0.50400001928E-02 0.  1.
</event>
<event>
 5   0  0.1572732E-05  0.2497424E+04  0.7818609E-02  0.8403904E-01
        2   -1    0    0  501    0  0.00000000000E+00  0.00000000000E+00  0.13496764858E+04  0.13496764858E+04  0.25500000920E-02 0.  1.
       -2   -1    0    0    0  501  0.00000000000E+00  0.00000000000E+00 -0.11553002818E+04  0.11553002818E+04  0.25500000920E-02 0. -1.
    10030    2    1    2    0    0  0.00000000000E+00  0.00000000000E+00  0.19437620404E+03  0.25049767676E+04  0.24974239724E+04 0.  0.
        1    1    3    3  502    0 -0.64694918972E+03  0.36990010336E+03  0.11021724788E+04  0.13304711623E+04  0.50400001928E-02 0.  1.
       -1    1    3    3    0  502  0.64694918972E+03 -0.36990010336E+03 -0.90779627477E+03  0.11745056054E+04  0.50400001928E-02 0. -1.
</event>
<event>
 5   0  0.1468512E-05  0.2517966E+04  0.7818609E-02  0.8396613E-01
       -2   -1    0    0    0  501  0.00000000000E+00  0.00000000000E+00  0.48410360251E+03  0.48410360251E+03  0.25500000920E-02 0.  1.
        2   -1    0    0  501    0  0.00000000000E+00  0.00000000000E+00 -0.32741706347E+04  0.32741706347E+04  0.25500000920E-02 0. -1.
    10030    2    1    2    0    0  0.00000000000E+00  0.00000000000E+00 -0.27900670322E+04  0.37582742372E+04  0.25179656864E+04 0.  0.
        4    1    3    3  502    0  0.72547623857E+02  0.12211322024E+04 -0.18393352430E+04  0.22089777641E+04  0.12699999809E+01 0.  1.
       -4    1    3    3    0  502 -0.72547623857E+02 -0.12211322024E+04 -0.95073178925E+03  0.15492964731E+04  0.12699999809E+01 0. -1.
</event>
<event>
 5   0  0.1550483E-05  0.2502292E+04  0.7818609E-02  0.8402169E-01
       -2   -1    0    0    0  501  0.00000000000E+00  0.00000000000E+00  0.15899334390E+04  0.15899334390E+04  0.25500000920E-02 0.  1.
        2   -1    0    0  501    0  0.00000000000E+00  0.00000000000E+00 -0.98454865938E+03  0.98454865938E+03  0.25500000920E-02 0. -1.
    10030    2    1    2    0    0  0.00000000000E+00  0.00000000000E+00  0.60538477964E+03  0.25744820984E+04  0.25022924177E+04 0.  0.
        5    1    3    3  502    0  0.76974905354E+03  0.94194143120E+03  0.17165985631E+01  0.12164671397E+04  0.46999998093E+01 0. -1.
       -5    1    3    3    0  502 -0.76974905354E+03 -0.94194143120E+03  0.60366818108E+03  0.13580149587E+04  0.46999998093E+01 0.  1.
</event>
<event>
 5   0  0.1572732E-05  0.2493407E+04  0.7818609E-02  0.8405338E-01
       -2   -1    0    0    0  501  0.00000000000E+00  0.00000000000E+00  0.15540759197E+04  0.15540759197E+04  0.25500000920E-02 0.  1.
        2   -1    0    0  501    0  0.00000000000E+00  0.00000000000E+00 -0.10001249040E+04  0.10001249040E+04  0.25500000920E-02 0. -1.
    10030    2    1    2    0    0  0.00000000000E+00  0.00000000000E+00  0.55395101576E+03  0.25542008237E+04  0.24934073313E+04 0.  0.
        1    1    3    3  502    0 -0.12228373889E+04  0.21292181513E+03  0.39645131393E+03  0.13030121348E+04  0.50400001928E-02 0. -1.
       -1    1    3    3    0  502  0.12228373889E+04 -0.21292181513E+03  0.15749970183E+03  0.12511886889E+04  0.50400001928E-02 0.  1.
</event>
<event>
 5   0  0.1550483E-05  0.2499269E+04  0.7818609E-02  0.8403246E-01
       -2   -1    0    0    0  501  0.00000000000E+00  0.00000000000E+00  0.13015632285E+04  0.13015632285E+04  0.25500000920E-02 0.  1.
        2   -1    0    0  501    0  0.00000000000E+00  0.00000000000E+00 -0.11997774976E+04  0.11997774976E+04  0.25500000920E-02 0. -1.
    10030    2    1    2    0    0  0.00000000000E+00  0.00000000000E+00  0.10178573094E+03  0.25013407261E+04  0.24992689117E+04 0.  0.
        5    1    3    3  502    0 -0.51162060183E+03  0.92506429913E+03 -0.61604125534E+03  0.12235311668E+04  0.46999998093E+01 0.  1.
       -5    1    3    3    0  502  0.51162060183E+03 -0.92506429913E+03  0.71782698629E+03  0.12778095594E+04  0.46999998093E+01 0. -1.
</event>
<event>
 5   0  0.1572732E-05  0.2513046E+04  0.7818609E-02  0.8398353E-01
        2   -1    0    0  501    0  0.00000000000E+00  0.00000000000E+00  0.94116634778E+03  0.94116634778E+03  0.25500000920E-02 0.  1.
       -2   -1    0    0    0  501  0.00000000000E+00  0.00000000000E+00 -0.16775462869E+04  0.16775462869E+04  0.25500000920E-02 0. -1.
    10030    2    1    2    0    0  0.00000000000E+00  0.00000000000E+00 -0.73637993912E+03  0.26187126347E+04  0.25130460498E+04 0.  0.
        1    1    3    3  502    0  0.60968843231E+03 -0.10986499349E+04 -0.35785067124E+03  0.13064489148E+04  0.50400001928E-02 0.  1.
       -1    1    3    3    0  502 -0.60968843231E+03  0.10986499349E+04 -0.37852926787E+03  0.13122637199E+04  0.50400001928E-02 0. -1.
</event>
<event>
 5   0  0.6346420E-06  0.2497900E+04  0.7818609E-02  0.8403734E-01
       -1   -1    0    0    0  501  0.00000000000E+00  0.00000000000E+00  0.90549376339E+03  0.90549376340E+03  0.50400001928E-02 0.  1.
        1   -1    0    0  501    0  0.00000000000E+00  0.00000000000E+00 -0.17226797155E+04  0.17226797155E+04  0.50400001928E-02 0. -1.
    10030    2    1    2    0    0  0.00000000000E+00  0.00000000000E+00 -0.81718595206E+03  0.26281734789E+04  0.24978997087E+04 0.  0.
        4    1    3    3  502    0  0.56776853400E+03 -0.29812928678E+03  0.71904443686E+03  0.96346701807E+03  0.12699999809E+01 0.  1.
       -4    1    3    3    0  502 -0.56776853400E+03  0.29812928678E+03 -0.15362303889E+04  0.16647064608E+04  0.12699999809E+01 0. -1.
</event>
<event>
 5   0  0.6105353E-06  0.2500313E+04  0.7818609E-02  0.8402874E-01
        1   -1    0    0  501    0  0.00000000000E+00  0.00000000000E+00  0.15097111098E+04  0.15097111098E+04  0.50400001928E-02 0.  1.
       -1   -1    0    0    0  501  0.00000000000E+00  0.00000000000E+00 -0.10352250003E+04  0.10352250003E+04  0.50400001928E-02 0. -1.
    10030    2    1    2    0    0  0.00000000000E+00  0.00000000000E+00  0.47448610947E+03  0.25449361101E+04  0.25003125277E+04 0.  0.
        3    1    3    3  502    0  0.88277265831E+02 -0.86092060305E+03 -0.68102973742E+03  0.11012623093E+04  0.10100000352E+00 0. -1.
       -3    1    3    3    0  502 -0.88277265831E+02  0.86092060305E+03  0.11555158469E+04  0.14436738008E+04  0.10100000352E+00 0.  1.
</event>
<event>
 5   0  0.1572732E-05  0.2486609E+04  0.7818609E-02  0.8407772E-01
       -2   -1    0    0    0  501  0.00000000000E+00  0.00000000000E+00  0.11134303596E+04  0.11134303596E+04  0.25500000920E-02 0.  1.
        2   -1    0    0  501    0  0.00000000000E+00  0.00000000000E+00 -0.13883278000E+04  0.13883278000E+04  0.25500000920E-02 0. -1.
    10030    2    1    2    0    0  0.00000000000E+00  0.00000000000E+00 -0.27489744038E+03  0.25017581595E+04  0.24866091945E+04 0.  0.
        1    1    3    3  502    0  0.90826092391E+03  0.75762558719E+03 -0.52302217292E+03  0.12932465464E+04  0.50400001928E-02 0. -1.
       -1    1    3    3    0  502 -0.90826092391E+03 -0.75762558719E+03  0.24812473253E+03  0.12085116132E+04  0.50400001928E-02 0.  1.
</event>
<event>
 5   0  0.6104486E-06  0.2492768E+04  0.7818609E-02  0.8405566E-01
       -1   -1    0    0    0  501  0.00000000000E+00  0.00000000000E+00  0.65571567716E+03  0.65571567718E+03  0.50400001928E-02 0.  1.
        1   -1    0    0  501    0  0.00000000000E+00  0.00000000000E+00 -0.23691265507E+04  0.23691265507E+04  0.50400001928E-02 0. -1.
    10030    2    1    2    0    0  0.00000000000E+00  0.00000000000E+00 -0.17134108735E+04  0.30248422278E+04  0.24927682768E+04 0.  0.
        2    1    3    3  502    0 -0.98513466643E+03  0.44011162179E+03 -0.99603110838E+02  0.10835632563E+04  0.25500000920E-02 0.  1.
       -2    1    3    3    0  502  0.98513466643E+03 -0.44011162179E+03 -0.16138077627E+04  0.19412789716E+04  0.25500000920E-02 0. -1.
</event>
<event>
 5   0  0.1526824E-05  0.2442279E+04  0.7818609E-02  0.8423842E-01
       -2   -1    0    0    0  501  0.00000000000E+00  0.00000000000E+00  0.64445173414E+03  0.64445173415E+03  0.25500000920E-02 0. -1.
        2   -1    0    0  501    0  0.00000000000E+00  0.00000000000E+00 -0.23138761355E+04  0.23138761355E+04  0.25500000920E-02 0.  1.
    10030    2    1    2    0    0  0.00000000000E+00  0.00000000000E+00 -0.16694244014E+04  0.29583278697E+04  0.24422788441E+04 0.  0.
        2    1    3    3  502    0  0.24762100034E+03 -0.11913084201E+04 -0.70971012466E+03  0.14086235738E+04  0.25500000920E-02 0.  1.
       -2    1    3    3    0  502 -0.24762100034E+03  0.11913084201E+04 -0.95971427672E+03  0.15497042959E+04  0.25500000920E-02 0. -1.
</event>
<event>
 5   0  0.6346420E-06  0.2469343E+04  0.7818609E-02  0.8413990E-01
       -1   -1    0    0    0  501  0.00000000000E+00  0.00000000000E+00  0.12584716986E+04  0.12584716986E+04  0.50400001928E-02 0.  1.
        1   -1    0    0  501    0  0.00000000000E+00  0.00000000000E+00 -0.12113209495E+04  0.12113209495E+04  0.50400001928E-02 0. -1.
    10030    2    1    2    0    0  0.00000000000E+00  0.00000000000E+00  0.47150749156E+02  0.24697926481E+04  0.24693425302E+04 0.  0.
        4    1    3    3  502    0  0.36075796416E+03 -0.17605047396E+03 -0.11442296126E+04  0.12126017885E+04  0.12699999809E+01 0. -1.
       -4    1    3    3    0  502 -0.36075796416E+03  0.17605047396E+03  0.11913803618E+04  0.12571908596E+04  0.12699999809E+01 0.  1.
</event>
<event>
 5   0  0.1550483E-05  0.2516624E+04  0.7818609E-02  0.8397087E-01
        2   -1    0    0  501    0  0.00000000000E+00  0.00000000000E+00  0.16435033379E+04  0.16435033379E+04  0.25500000920E-02 0.  1.
       -2   -1    0    0    0  501  0.00000000000E+00  0.00000000000E+00 -0.96339878585E+03  0.96339878585E+03  0.25500000920E-02 0. -1.
    10030    2    1    2    0    0  0.00000000000E+00  0.00000000000E+00  0.68010455202E+03  0.26069021237E+04  0.25166240246E+04 0.  0.
        5    1    3    3  502    0  0.66852812756E+00 -0.38050494984E+03  0.15824703088E+04  0.16275806684E+04  0.46999998093E+01 0.  1.
       -5    1    3    3    0  502 -0.66852812756E+00  0.38050494984E+03 -0.90236575682E+03  0.97932145532E+03  0.46999998093E+01 0. -1.
</event>
<event>
 5   0  0.6290861E-06  0.2494884E+04  0.7818609E-02  0.8404810E-01
        1   -1    0    0  501    0  0.00000000000E+00  0.00000000000E+00  0.18985427098E+04  0.18985427098E+04  0.50400001928E-02 0.  1.
       -1   -1    0    0    0  501  0.00000000000E+00  0.00000000000E+00 -0.81963501159E+03  0.81963501160E+03  0.50400001928E-02 0. -1.
    10030    2    1    2    0    0  0.00000000000E+00  0.00000000000E+00  0.10789076982E+04  0.27181777214E+04  0.24948844270E+04 0.  0.
        1    1    3    3  502    0  0.60743007990E+03  0.32760198866E+03 -0.59269268053E+03  0.90971367942E+03  0.50400001928E-02 0. -1.
       -1    1    3    3    0  502 -0.60743007990E+03 -0.32760198866E+03  0.16716003787E+04  0.18084640420E+04  0.50400001928E-02 0.  1.
</event>
<event>
 5   0  0.1572732E-05  0.2500931E+04  0.7818609E-02  0.8402654E-01
        2   -1    0    0  501    0  0.00000000000E+00  0.00000000000E+00  0.18439505698E+04  0.18439505698E+04  0.25500000920E-02 0.  1.
       -2   -1    0    0    0  501  0.00000000000E+00  0.00000000000E+00 -0.84799683094E+03  0.84799683095E+03  0.25500000920E-02 0. -1.
    10030    2    1    2    0    0  0.00000000000E+00  0.00000000000E+00  0.99595373885E+03  0.26919474007E+04  0.25009312183E+04 0.  0.
        1    1    3    3  502    0  0.14567141908E+03 -0.64482645277E+03  0.16404814989E+04  0.17686720626E+04  0.50400001928E-02 0.  1.
       -1    1    3    3    0  502 -0.14567141908E+03  0.64482645277E+03 -0.64452776009E+03  0.92327533817E+03  0.50400001928E-02 0. -1.
</event>
<event>
 5   0  0.6104486E-06  0.2495567E+04  0.7818609E-02  0.8404567E-01
        1   -1    0    0  501    0  0.00000000000E+00  0.00000000000E+00  0.14501774589E+04  0.14501774589E+04  0.50400001928E-02 0.  1.
       -1   -1    0    0    0  501  0.00000000000E+00  0.00000000000E+00 -0.10736364985E+04  0.10736364986E+04  0.50400001928E-02 0. -1.
    10030    2    1    2    0    0  0.00000000000E+00  0.00000000000E+00  0.37654096032E+03  0.25238139574E+04  0.24955668288E+04 0.  0.
        2    1    3    3  502    0 -0.53538371174E+03 -0.10693661332E+04 -0.17182694973E+03  0.12081821660E+04  0.25500000920E-02 0. -1.
       -2    1    3    3    0  502  0.53538371174E+03  0.10693661332E+04  0.54836791005E+03  0.13156317914E+04  0.25500000920E-02 0.  1.
</event>
<event>
 5   0  0.6104486E-06  0.2526377E+04  0.7818609E-02  0.8393649E-01
       -1   -1    0    0    0  501  0.00000000000E+00  0.00000000000E+00  0.14292613312E+04  0.14292613312E+04  0.50400001928E-02 0.  1.
        1   -1    0    0  501    0  0.00000000000E+00  0.00000000000E+00 -0.11164122061E+04  0.11164122061E+04  0.50400001928E-02 0. -1.
    10030    2    1    2    0    0  0.00000000000E+00  0.00000000000E+00  0.31284912511E+03  0.25456735373E+04  0.25263766907E+04 0.  0.
        2    1    3    3  502    0  0.15481831210E+03 -0.84412149161E+03  0.10903996812E+04  0.13876171183E+04  0.25500000920E-02 0.  1.
       -2    1    3    3    0  502 -0.15481831210E+03  0.84412149161E+03 -0.77755055604E+03  0.11580564190E+04  0.25500000920E-02 0. -1.
</event>
<event>
 5   0  0.6105353E-06  0.2509335E+04  0.7818609E-02  0.8399668E-01
        1   -1    0    0  501    0  0.00000000000E+00  0.00000000000E+00  0.20966058128E+04  0.20966058128E+04  0.50400001928E-02 0.  1.
       -1   -1    0    0    0  501  0.00000000000E+00  0.00000000000E+00 -0.75082790185E+03  0.75082790186E+03  0.50400001928E-02 0. -1.
    10030    2    1    2    0    0  0.00000000000E+00  0.00000000000E+00  0.13457779109E+04  0.28474337147E+04  0.25093346875E+04 0.  0.
        3    1    3    3  502    0 -0.90172976219E+03  0.38200909008E+03  0.15628744809E+04  0.18443492517E+04  0.10100000352E+00 0.  1.
       -3    1    3    3    0  502  0.90172976219E+03 -0.38200909008E+03 -0.21709656998E+03  0.10030844630E+04  0.10100000352E+00 0. -1.
</event>
<event>
 5   0  0.6477703E-06  0.2495467E+04  0.7818609E-02  0.8404602E-01
        1   -1    0    0  501    0  0.00000000000E+00  0.00000000000E+00  0.17303395272E+04  0.17303395272E+04  0.50400001928E-02 0.  1.
       -1   -1    0    0    0  501  0.00000000000E+00  0.00000000000E+00 -0.89973043712E+03  0.89973043713E+03  0.50400001928E-02 0. -1.
    10030    2    1    2    0    0  0.00000000000E+00  0.00000000000E+00  0.83060909012E+03  0.26300699644E+04  0.24954672021E+04 0.  0.
        5    1    3    3  502    0 -0.37689574666E+03 -0.23312234792E+03  0.16445880035E+04  0.17032581203E+04  0.46999998093E+01 0.  1.
       -5    1    3    3    0  502  0.37689574666E+03  0.23312234792E+03 -0.81397891339E+03  0.92681184412E+03  0.46999998093E+01 0. -1.
</event>
<event>
 5   0  0.6346420E-06  0.2288765E+04  0.7818609E-02  0.8482364E-01
        1   -1    0    0  501    0  0.00000000000E+00  0.00000000000E+00  0.12860787618E+04  0.12860787618E+04  0.50400001928E-02 0.  1.
       -1   -1    0    0    0  501  0.00000000000E+00  0.00000000000E+00 -0.10182980731E+04  0.10182980731E+04  0.50400001928E-02 0. -1.
    10030    2    1    2    0    0  0.00000000000E+00  0.00000000000E+00  0.26778068876E+03  0.23043768349E+04  0.22887651911E+04 0.  0.
        4    1    3    3  502    0  0.86436640161E+03 -0.62076455524E+03  0.55763162772E+03  0.12014293797E+04  0.12699999809E+01 0.  1.
       -4    1    3    3    0  502 -0.86436640161E+03  0.62076455524E+03 -0.28985093896E+03  0.11029474552E+04  0.12699999809E+01 0. -1.
</event>
<event>
 5   0  0.1468512E-05  0.2577256E+04  0.7818609E-02  0.8375968E-01
        2   -1    0    0  501    0  0.00000000000E+00  0.00000000000E+00  0.16501144002E+04  0.16501144002E+04  0.25500000920E-02 0.  1.
       -2   -1    0    0    0  501  0.00000000000E+00  0.00000000000E+00 -0.10063316905E+04  0.10063316905E+04  0.25500000920E-02 0. -1.
    10030    2    1    2    0    0  0.00000000000E+00  0.00000000000E+00  0.64378270970E+03  0.26564460907E+04  0.25772562262E+04 0.  0.
        4    1    3    3  502    0  0.11454733147E+04 -0.36811134510E+03 -0.15374809842E+03  0.12129530773E+04  0.12699999809E+01 0.  1.
       -4    1    3    3    0  502 -0.11454733147E+04  0.36811134510E+03  0.79753080813E+03  0.14434930134E+04  0.12699999809E+01 0. -1.
</event>
<event>
 5   0  0.1572732E-05  0.2484429E+04  0.7818609E-02  0.8408554E-01
        2   -1    0    0  501    0  0.00000000000E+00  0.00000000000E+00  0.13549659850E+04  0.13549659850E+04  0.25500000920E-02 0.  1.
       -2   -1    0    0    0  501  0.00000000000E+00  0.00000000000E+00 -0.11388458701E+04  0.11388458701E+04  0.25500000920E-02 0. -1.
    10030    2    1    2    0    0  0.00000000000E+00  0.00000000000E+00  0.21612011491E+03  0.24938118551E+04  0.24844294445E+04 0.  0.
        1    1    3    3  502    0  0.10398526995E+03 -0.71311371847E+03  0.11236880814E+04  0.13349228502E+04  0.50400001928E-02 0.  1.
       -1    1    3    3    0  502 -0.10398526995E+03  0.71311371847E+03 -0.90756796645E+03  0.11588890049E+04  0.50400001928E-02 0. -1.
</event>
<event>
 5   0  0.1550483E-05  0.2538992E+04  0.7818609E-02  0.8389225E-01
       -2   -1    0    0    0  501  0.00000000000E+00  0.00000000000E+00  0.71534008142E+03  0.71534008143E+03  0.25500000920E-02 0.  1.
        2   -1    0    0  501    0  0.00000000000E+00  0.00000000000E+00 -0.22529425941E+04  0.22529425941E+04  0.25500000920E-02 0. -1.
    10030    2    1    2    0    0  0.00000000000E+00  0.00000000000E+00 -0.15376025127E+04  0.29682826756E+04  0.25389920352E+04 0.  0.
        5    1    3    3  502    0  0.36626432020E+02 -0.11722538989E+04 -0.13368310029E+04  0.17783868868E+04  0.46999998093E+01 0. -1.
       -5    1    3    3    0  502 -0.36626432020E+02  0.11722538989E+04 -0.20077150983E+03  0.11898957888E+04  0.46999998093E+01 0.  1.
</event>
<event>
 5   0  0.1526824E-05  0.2500665E+04  0.7818609E-02  0.8402749E-01
        2   -1    0    0  501    0  0.00000000000E+00  0.00000000000E+00  0.22257838345E+04  0.22257838345E+04  0.25500000920E-02 0.  1.
       -2   -1    0    0    0  501  0.00000000000E+00  0.00000000000E+00 -0.70237334942E+03  0.70237334943E+03  0.25500000920E-02 0. -1.
    10030    2    1    2    0    0  0.00000000000E+00  0.00000000000E+00  0.15234104851E+04  0.29281571840E+04  0.25006649091E+04 0.  0.
        2    1    3    3  502    0 -0.86010463692E+03  0.87866764012E+03  0.49598841999E+03  0.13258360838E+04  0.25500000920E-02 0. -1.
       -2    1    3    3    0  502  0.86010463692E+03 -0.87866764012E+03  0.10274220651E+04  0.16023211002E+04  0.25500000920E-02 0.  1.
</event>
<event>
 5   0  0.6104486E-06  0.2269014E+04  0.7818609E-02  0.8490240E-01
       -1   -1    0    0    0  501  0.00000000000E+00  0.00000000000E+00  0.85082484144E+03  0.85082484146E+03  0.50400001928E-02 0.  1.
        1   -1    0    0  501    0  0.00000000000E+00  0.00000000000E+00 -0.15127748127E+04  0.15127748127E+04  0.50400001928E-02 0. -1.
    10030    2    1    2    0    0  0.00000000000E+00  0.00000000000E+00 -0.66194997125E+03  0.23635996542E+04  0.22690142266E+04 0.  0.
        2    1    3    3  502    0 -0.93027741537E+03 -0.32260116927E+03 -0.91804487132E+03  0.13462146819E+04  0.25500000920E-02 0. -1.
       -2    1    3    3    0  502  0.93027741537E+03  0.32260116927E+03  0.25609490007E+03  0.10173849723E+04  0.25500000920E-02 0.  1.
</event>
<event>
 5   0  0.6290861E-06  0.2496314E+04  0.7818609E-02  0.8404300E-01
       -1   -1    0    0    0  501  0.00000000000E+00  0.00000000000E+00  0.72450783450E+03  0.72450783452E+03  0.50400001928E-02 0.  1.
        1   -1    0    0  501    0  0.00000000000E+00  0.00000000000E+00 -0.21502823480E+04  0.21502823480E+04  0.50400001928E-02 0. -1.
    10030    2    1    2    0    0  0.00000000000E+00  0.00000000000E+00 -0.14257745135E+04  0.28747901825E+04  0.24963144093E+04 0.  0.
        1    1    3    3  502    0  0.71913436115E+03  0.75028671311E+03 -0.15089282038E+04  0.18321977802E+04  0.50400001928E-02 0. -1.
       -1    1    3    3    0  502 -0.71913436115E+03 -0.75028671311E+03  0.83153690324E+02  0.10425924024E+04  0.50400001928E-02 0.  1.
</event>
<event>
 5   0  0.1550483E-05  0.2511656E+04  0.7818609E-02  0.8398845E-01
       -2   -1    0    0    0  501  0.00000000000E+00  0.00000000000E+00  0.71737650987E+03  0.71737650987E+03  0.25500000920E-02 0.  1.
        2   -1    0    0  501    0  0.00000000000E+00  0.00000000000E+00 -0.21984323483E+04  0.21984323483E+04  0.25500000920E-02 0. -1.
    10030    2    1    2    0    0  0.00000000000E+00  0.00000000000E+00 -0.14810558384E+04  0.29158088581E+04  0.25116558086E+04 0.  0.
        5    1    3    3  502    0 -0.19635045843E+03 -0.87469705521E+03 -0.17614916873E+04  0.19764927259E+04  0.46999998093E+01 0. -1.
       -5    1    3    3    0  502  0.19635045843E+03  0.87469705521E+03  0.28043584895E+03  0.93931613224E+03  0.46999998093E+01 0.  1.
</event>
<event>
 5   0  0.1572732E-05  0.2504057E+04  0.7818609E-02  0.8401542E-01
       -2   -1    0    0    0  501  0.00000000000E+00  0.00000000000E+00  0.81822668586E+03  0.81822668586E+03  0.25500000920E-02 0.  1.
        2   -1    0    0  501    0  0.00000000000E+00  0.00000000000E+00 -0.19158196478E+04  0.19158196478E+04  0.25500000920E-02 0. -1.
    10030    2    1    2    0    0  0.00000000000E+00  0.00000000000E+00 -0.10975929619E+04  0.27340463336E+04  0.25040565178E+04 0.  0.
        1    1    3    3  502    0  0.12475501876E+04 -0.35536347683E+02 -0.65760086466E+03  0.14107030871E+04  0.50400001928E-02 0. -1.
       -1    1    3    3    0  502 -0.12475501876E+04  0.35536347683E+02 -0.43999209724E+03  0.13233432466E+04  0.50400001928E-02 0.  1.
</event>
<event>
 5   0  0.6477703E-06  0.2490866E+04  0.7818609E-02  0.8406247E-01
       -1   -1    0    0    0  501  0.00000000000E+00  0.00000000000E+00  0.10972786992E+04  0.10972786992E+04  0.50400001928E-02 0. -1.
        1   -1    0    0  501    0  0.00000000000E+00  0.00000000000E+00 -0.14135908315E+04  0.14135908315E+04  0.50400001928E-02 0.  1.
    10030    2    1    2    0    0  0.00000000000E+00  0.00000000000E+00 -0.31631213237E+03  0.25108695307E+04  0.24908658003E+04 0.  0.
        5    1    3    3  502    0  0.32215482678E+03 -0.10484420682E+04 -0.75286565355E+03  0.13303545712E+04  0.46999998093E+01 0.  1.
       -5    1    3    3    0  502 -0.32215482678E+03  0.10484420682E+04  0.43655352118E+03  0.11805149595E+04  0.46999998093E+01 0. -1.
</event>
<event>
 5   0  0.6105353E-06  0.2306695E+04  0.7818609E-02  0.8475286E-01
       -1   -1    0    0    0  501  0.00000000000E+00  0.00000000000E+00  0.15566989917E+04  0.15566989917E+04  0.50400001928E-02 0. -1.
        1   -1    0    0  501    0  0.00000000000E+00  0.00000000000E+00 -0.85450718781E+03  0.85450718783E+03  0.50400001928E-02 0.  1.
    10030    2    1    2    0    0  0.00000000000E+00  0.00000000000E+00  0.70219180385E+03  0.24112061795E+04  0.23066950190E+04 0.  0.
        3    1    3    3  502    0 -0.40754872005E+03 -0.10056155914E+04 -0.57580381930E+02  0.10865883247E+04  0.10100000352E+00 0.  1.
       -3    1    3    3    0  502  0.40754872005E+03  0.10056155914E+04  0.75977218578E+03  0.13246178548E+04  0.10100000352E+00 0. -1.
</event>
<event>
 5   0  0.1550483E-05  0.2510602E+04  0.7818609E-02  0.8399218E-01
       -2   -1    0    0    0  501  0.00000000000E+00  0.00000000000E+00  0.75390729513E+03  0.75390729513E+03  0.25500000920E-02 0.  1.
        2   -1    0    0  501    0  0.00000000000E+00  0.00000000000E+00 -0.20901518547E+04  0.20901518547E+04  0.25500000920E-02 0. -1.
    10030    2    1    2    0    0  0.00000000000E+00  0.00000000000E+00 -0.13362445596E+04  0.28440591499E+04  0.25106021040E+04 0.  0.
        5    1    3    3  502    0  0.44010871316E+03 -0.10718743211E+04 -0.12113533959E+03  0.11650348064E+04  0.46999998093E+01 0.  1.
       -5    1    3    3    0  502 -0.44010871316E+03  0.10718743211E+04 -0.12151092200E+04  0.16790243435E+04  0.46999998093E+01 0. -1.
</event>
<event>
 5   0  0.6105353E-06  0.2469698E+04  0.7818609E-02  0.8413861E-01
       -1   -1    0    0    0  501  0.00000000000E+00  0.00000000000E+00  0.10619918711E+04  0.10619918712E+04  0.50400001928E-02 0.  1.
        1   -1    0    0  501    0  0.00000000000E+00  0.00000000000E+00 -0.14358417069E+04  0.14358417070E+04  0.50400001928E-02 0. -1.
    10030    2    1    2    0    0  0.00000000000E+00  0.00000000000E+00 -0.37384983581E+03  0.24978335781E+04  0.24696981362E+04 0.  0.
        3    1    3    3  502    0 -0.72421661991E+03  0.99862607860E+03 -0.13053625346E+03  0.12404771183E+04  0.10100000352E+00 0.  1.
       -3    1    3    3    0  502  0.72421661991E+03 -0.99862607860E+03 -0.24331358234E+03  0.12573564598E+04  0.10100000352E+00 0. -1.
</event>
<event>
 5   0  0.1550483E-05  0.2500758E+04  0.7818609E-02  0.8402716E-01
        2   -1    0    0  501    0  0.00000000000E+00  0.00000000000E+00  0.11638013312E+04  0.11638013312E+04  0.25500000920E-02 0. -1.
       -2   -1    0    0    0  501  0.00000000000E+00  0.00000000000E+00 -0.13433973171E+04  0.13433973171E+04  0.25500000920E-02 0.  1.
    10030    2    1    2    0    0  0.00000000000E+00  0.00000000000E+00 -0.17959598592E+03  0.25071986483E+04  0.25007579539E+04 0.  0.
        5    1    3    3  502    0  0.76111447714E+03 -0.98842550193E+03 -0.17454543249E+03  0.12596699640E+04  0.46999998093E+01 0.  1.
       -5    1    3    3    0  502 -0.76111447714E+03  0.98842550193E+03 -0.50505534275E+01  0.12475286843E+04  0.46999998093E+01 0. -1.
</event>
<event>
 5   0  0.6104486E-06  0.2499087E+04  0.7818609E-02  0.8403311E-01
        1   -1    0    0  501    0  0.00000000000E+00  0.00000000000E+00  0.13348639266E+04  0.13348639266E+04  0.50400001928E-02 0. -1.
       -1   -1    0    0    0  501  0.00000000000E+00  0.00000000000E+00 -0.11696764316E+04  0.11696764316E+04  0.50400001928E-02 0.  1.
    10030    2    1    2    0    0  0.00000000000E+00  0.00000000000E+00  0.16518749496E+03  0.25045403582E+04  0.24990869327E+04 0.  0.
        2    1    3    3  502    0  0.11604477255E+04 -0.45718877582E+03  0.69414468158E+01  0.12472805154E+04  0.25500000920E-02 0.  1.
       -2    1    3    3    0  502 -0.11604477255E+04  0.45718877582E+03  0.15824604815E+03  0.12572598428E+04  0.25500000920E-02 0. -1.
</event>
<event>
 5   0  0.1572732E-05  0.2489316E+04  0.7818609E-02  0.8406802E-01
        2   -1    0    0  501    0  0.00000000000E+00  0.00000000000E+00  0.98613824207E+03  0.98613824207E+03  0.25500000920E-02 0. -1.
       -2   -1    0    0    0  501  0.00000000000E+00  0.00000000000E+00 -0.15709496864E+04  0.15709496864E+04  0.25500000920E-02 0.  1.
    10030    2    1    2    0    0  0.00000000000E+00  0.00000000000E+00 -0.58481144433E+03  0.25570879285E+04  0.24893160202E+04 0.  0.
        1    1    3    3  502    0  0.11278451070E+04  0.47735733907E+03 -0.64396574869E+02  0.12263977876E+04  0.50400001928E-02 0. -1.
       -1    1    3    3    0  502 -0.11278451070E+04 -0.47735733907E+03 -0.52041486946E+03  0.13306901409E+04  0.50400001928E-02 0.  1.
</event>
<event>
 5   0  0.6104486E-06  0.2483860E+04  0.7818609E-02  0.8408758E-01
       -1   -1    0    0    0  501  0.00000000000E+00  0.00000000000E+00  0.65524088318E+03  0.65524088320E+03  0.50400001928E-02 0.  1.
        1   -1    0    0  501    0  0.00000000000E+00  0.00000000000E+00 -0.23539286039E+04  0.23539286039E+04  0.50400001928E-02 0. -1.
    10030    2    1    2    0    0  0.00000000000E+00  0.00000000000E+00 -0.16986877207E+04  0.30091694871E+04  0.24838601067E+04 0.  0.
        2    1    3    3  502    0 -0.31745063282E+03 -0.77608887224E+01 -0.23039155942E+04  0.23256960680E+04  0.25500000920E-02 0. -1.
       -2    1    3    3    0  502  0.31745063282E+03  0.77608887224E+01  0.60522787350E+03  0.68347341904E+03  0.25500000920E-02 0.  1.
</event>
<event>
 5   0  0.1468512E-05  0.2500257E+04  0.7818609E-02  0.8402894E-01
        2   -1    0    0  501    0  0.00000000000E+00  0.00000000000E+00  0.99325581143E+03  0.99325581144E+03  0.25500000920E-02 0. -1.
       -2   -1    0    0    0  501  0.00000000000E+00  0.00000000000E+00 -0.15734333907E+04  0.15734333907E+04  0.25500000920E-02 0.  1.
    10030    2    1    2    0    0  0.00000000000E+00  0.00000000000E+00 -0.58017757928E+03  0.25666892022E+04  0.25002574741E+04 0.  0.
        4    1    3    3  502    0 -0.59011027923E+03 -0.80536023963E+02  0.83825312211E+03  0.10282928097E+04  0.12699999809E+01 0. -1.
       -4    1    3    3    0  502  0.59011027923E+03  0.80536023963E+02 -0.14184307014E+04  0.15383963925E+04  0.12699999809E+01 0.  1.
</event>
<event>
 5   0  0.6346420E-06  0.2486809E+04  0.7818609E-02  0.8407700E-01
       -1   -1    0    0    0  501  0.00000000000E+00  0.00000000000E+00  0.13294060351E+04  0.13294060351E+04  0.50400001928E-02 0.  1.
        1   -1    0    0  501    0  0.00000000000E+00  0.00000000000E+00 -0.11629669400E+04  0.11629669400E+04  0.50400001928E-02 0. -1.
    10030    2    1    2    0    0  0.00000000000E+00  0.00000000000E+00  0.16643909510E+03  0.24923729752E+04  0.24868094167E+04 0.  0.
        4    1    3    3  502    0 -0.18982683608E+03 -0.18320472896E+03 -0.11345937300E+04  0.11648616851E+04  0.12699999809E+01 0. -1.
       -4    1    3    3    0  502  0.18982683608E+03  0.18320472896E+03  0.13010328251E+04  0.13275112901E+04  0.12699999809E+01 0.  1.
</event>
<event>
 5   0  0.6104486E-06  0.2477142E+04  0.7818609E-02  0.8411174E-01
       -1   -1    0    0    0  501  0.00000000000E+00  0.00000000000E+00  0.79139216345E+03  0.79139216347E+03  0.50400001928E-02 0.  1.
        1   -1    0    0  501    0  0.00000000000E+00  0.00000000000E+00 -0.19384290787E+04  0.19384290787E+04  0.50400001928E-02 0. -1.
    10030    2    1    2    0    0  0.00000000000E+00  0.00000000000E+00 -0.11470369153E+04  0.27298212422E+04  0.24771415642E+04 0.  0.
        2    1    3    3  502    0 -0.56840556451E+03 -0.10013062883E+04 -0.10765426860E+04  0.15762751421E+04  0.25500000920E-02 0. -1.
       -2    1    3    3    0  502  0.56840556451E+03  0.10013062883E+04 -0.70494229211E+02  0.11535461001E+04  0.25500000920E-02 0.  1.
</event>
<event>
 5   0  0.6477703E-06  0.2504738E+04  0.7818609E-02  0.8401300E-01
       -1   -1    0    0    0  501  0.00000000000E+00  0.00000000000E+00  0.10194472890E+04  0.10194472890E+04  0.50400001928E-02 0. -1.
        1   -1    0    0  501    0  0.00000000000E+00  0.00000000000E+00 -0.15385084457E+04  0.15385084457E+04  0.50400001928E-02 0.  1.
    10030    2    1    2    0    0  0.00000000000E+00  0.00000000000E+00 -0.51906115672E+03  0.25579557347E+04  0.25047381213E+04 0.  0.
        5    1    3    3  502    0  0.83636397171E+03 -0.78670705177E+03  0.25108616776E+03  0.11753633617E+04  0.46999998093E+01 0. -1.
       -5    1    3    3    0  502 -0.83636397171E+03  0.78670705177E+03 -0.77014732448E+03  0.13825923730E+04  0.46999998093E+01 0.  1.
</event>
<event>
 5   0  0.6104486E-06  0.2498587E+04  0.7818609E-02  0.8403489E-01
        1   -1    0    0  501    0  0.00000000000E+00  0.00000000000E+00  0.14800148083E+04  0.14800148083E+04  0.50400001928E-02 0.  1.
       -1   -1    0    0    0  501  0.00000000000E+00  0.00000000000E+00 -0.10545392925E+04  0.10545392926E+04  0.50400001928E-02 0. -1.
    10030    2    1    2    0    0  0.00000000000E+00  0.00000000000E+00  0.42547551575E+03  0.25345541008E+04  0.24985866156E+04 0.  0.
        2    1    3    3  502    0 -0.10411218598E+03  0.11346542825E+04 -0.30693963151E+03  0.11800388237E+04  0.25500000920E-02 0. -1.
       -2    1    3    3    0  502  0.10411218598E+03 -0.11346542825E+04  0.73241514725E+03  0.13545152771E+04  0.25500000920E-02 0.  1.
</event>
<event>
 5   0  0.6105353E-06  0.2497001E+04  0.7818609E-02  0.8404055E-01
        1   -1    0    0  501    0  0.00000000000E+00  0.00000000000E+00  0.12997003752E+04  0.12997003752E+04  0.50400001928E-02 0. -1.
       -1   -1    0    0    0  501  0.00000000000E+00  0.00000000000E+00 -0.11993175046E+04  0.11993175047E+04  0.50400001928E-02 0.  1.
    10030    2    1    2    0    0  0.00000000000E+00  0.00000000000E+00  0.10038287059E+03  0.24990178799E+04  0.24970009298E+04 0.  0.
        3    1    3    3  502    0 -0.10232358223E+04  0.51956689554E+02 -0.66385691330E+03  0.12208263829E+04  0.10100000352E+00 0.  1.
       -3    1    3    3    0  502  0.10232358223E+04 -0.51956689554E+02  0.76423978389E+03  0.12781914970E+04  0.10100000352E+00 0. -1.
</event>
<event>
 5   0  0.6477703E-06  0.2524820E+04  0.7818609E-02  0.8394196E-01
       -1   -1    0    0    0  501  0.00000000000E+00  0.00000000000E+00  0.10039511319E+04  0.10039511319E+04  0.50400001928E-02 0. -1.
        1   -1    0    0  501    0  0.00000000000E+00  0.00000000000E+00 -0.15874073610E+04  0.15874073610E+04  0.50400001928E-02 0.  1.
    10030    2    1    2    0    0  0.00000000000E+00  0.00000000000E+00 -0.58345622909E+03  0.25913584929E+04  0.25248203238E+04 0.  0.
        5    1    3    3  502    0  0.99930453962E+03 -0.11199845381E+03  0.49160505695E+03  0.11193081964E+04  0.46999998093E+01 0. -1.
       -5    1    3    3    0  502 -0.99930453962E+03  0.11199845381E+03 -0.10750612860E+04  0.14720502965E+04  0.46999998093E+01 0.  1.
</event>
<event>
 5   0  0.6477703E-06  0.2505813E+04  0.7818609E-02  0.8400917E-01
        1   -1    0    0  501    0  0.00000000000E+00  0.00000000000E+00  0.10487439971E+04  0.10487439972E+04  0.50400001928E-02 0. -1.
       -1   -1    0    0    0  501  0.00000000000E+00  0.00000000000E+00 -0.14968144339E+04  0.14968144339E+04  0.50400001928E-02 0.  1.
    10030    2    1    2    0    0  0.00000000000E+00  0.00000000000E+00 -0.44807043671E+03  0.25455584310E+04  0.25058133629E+04 0.  0.
        5    1    3    3  502    0 -0.66025443453E+03  0.91671835238E+03  0.32626212378E+03  0.11759156089E+04  0.46999998093E+01 0.  1.
       -5    1    3    3    0  502  0.66025443453E+03 -0.91671835238E+03 -0.77433256049E+03  0.13696428221E+04  0.46999998093E+01 0. -1.
</event>
<event>
 5   0  0.6477703E-06  0.2494690E+04  0.7818609E-02  0.8404880E-01
        1   -1    0    0  501    0  0.00000000000E+00  0.00000000000E+00  0.19799620753E+04  0.19799620753E+04  0.50400001928E-02 0. -1.
       -1   -1    0    0    0  501  0.00000000000E+00  0.00000000000E+00 -0.78580799052E+03  0.78580799054E+03  0.50400001928E-02 0.  1.
    10030    2    1    2    0    0  0.00000000000E+00  0.00000000000E+00  0.11941540848E+04  0.27657700659E+04  0.24946903774E+04 0.  0.
        5    1    3    3  502    0  0.29646751851E+02 -0.11050550502E+02 -0.78535322563E+03  0.78600434068E+03  0.46999998093E+01 0.  1.
       -5    1    3    3    0  502 -0.29646751851E+02  0.11050550502E+02  0.19795073104E+04  0.19797657252E+04  0.46999998093E+01 0. -1.
</event>
<event>
 5   0  0.1468512E-05  0.2522130E+04  0.7818609E-02  0.8395144E-01
       -2   -1    0    0    0  501  0.00000000000E+00  0.00000000000E+00  0.79087058060E+03  0.79087058060E+03  0.25500000920E-02 0. -1.
        2   -1    0    0  501    0  0.00000000000E+00  0.00000000000E+00 -0.20108032127E+04  0.20108032127E+04  0.25500000920E-02 0.  1.
    10030    2    1    2    0    0  0.00000000000E+00  0.00000000000E+00 -0.12199326321E+04  0.28016737933E+04  0.25221301349E+04 0.  0.
        4    1    3    3  502    0  0.78558473124E+03  0.58017010750E+03  0.27629923902E+03  0.10149303454E+04  0.12699999809E+01 0. -1.
       -4    1    3    3    0  502 -0.78558473124E+03 -0.58017010750E+03 -0.14962318711E+04  0.17867434479E+04  0.12699999809E+01 0.  1.
</event>
<event>
 5   0  0.6346420E-06  0.2503007E+04  0.7818609E-02  0.8401915E-01
        1   -1    0    0  501    0  0.00000000000E+00  0.00000000000E+00  0.81020951064E+03  0.81020951065E+03  0.50400001928E-02 0.  1.
       -1   -1    0    0    0  501  0.00000000000E+00  0.00000000000E+00 -0.19331554523E+04  0.19331554523E+04  0.50400001928E-02 0. -1.
    10030    2    1    2    0    0  0.00000000000E+00  0.00000000000E+00 -0.11229459417E+04  0.27433649630E+04  0.25030069381E+04 0.  0.
        4    1    3    3  502    0  0.12969500102E+03  0.12293189896E+04 -0.77572704225E+03  0.14593834412E+04  0.12699999809E+01 0.  1.
       -4    1    3    3    0  502 -0.12969500102E+03 -0.12293189896E+04 -0.34721889944E+03  0.12839815218E+04  0.12699999809E+01 0. -1.
</event>
<event>
 5   0  0.1501947E-05  0.2507346E+04  0.7818609E-02  0.8400373E-01
        2   -1    0    0  501    0  0.00000000000E+00  0.00000000000E+00  0.10468788054E+04  0.10468788054E+04  0.25500000920E-02 0. -1.
       -2   -1    0    0    0  501  0.00000000000E+00  0.00000000000E+00 -0.15013158943E+04  0.15013158943E+04  0.25500000920E-02 0.  1.
    10030    2    1    2    0    0  0.00000000000E+00  0.00000000000E+00 -0.45443708888E+03  0.25481946997E+04  0.25073458397E+04 0.  0.
        3    1    3    3  502    0 -0.93794693388E+02  0.99614652069E+03  0.54046214206E+03  0.11371915724E+04  0.10100000352E+00 0. -1.
       -3    1    3    3    0  502  0.93794693388E+02 -0.99614652069E+03 -0.99489923094E+03  0.14110031273E+04  0.10100000352E+00 0.  1.
</event>
<event>
 5   0  0.1572732E-05  0.2455892E+04  0.7818609E-02  0.8418870E-01
       -2   -1    0    0    0  501  0.00000000000E+00  0.00000000000E+00  0.12077715095E+04  0.12077715095E+04  0.25500000920E-02 0. -1.
        2   -1    0    0  501    0  0.00000000000E+00  0.00000000000E+00 -0.12484570532E+04  0.12484570532E+04  0.25500000920E-02 0.  1.
    10030    2    1    2    0    0  0.00000000000E+00  0.00000000000E+00 -0.40685543709E+02  0.24562285627E+04  0.24558915772E+04 0.  0.
        1    1    3    3  502    0 -0.36310442860E+01 -0.39937697323E+03  0.11409951454E+04  0.12088776088E+04  0.50400001928E-02 0. -1.
       -1    1    3    3    0  502  0.36310442860E+01  0.39937697323E+03 -0.11816806891E+04  0.12473509539E+04  0.50400001928E-02 0.  1.
</event>
<event>
 5   0  0.6346420E-06  0.2507633E+04  0.7818609E-02  0.8400271E-01
        1   -1    0    0  501    0  0.00000000000E+00  0.00000000000E+00  0.14851199460E+04  0.14851199460E+04  0.50400001928E-02 0.  1.
       -1   -1    0    0    0  501  0.00000000000E+00  0.00000000000E+00 -0.10585380424E+04  0.10585380424E+04  0.50400001928E-02 0. -1.
    10030    2    1    2    0    0  0.00000000000E+00  0.00000000000E+00  0.42658190357E+03  0.25436579884E+04  0.25076331154E+04 0.  0.
        4    1    3    3  502    0  0.66704051607E+02 -0.79330297547E+03 -0.76927082181E+03  0.11070493447E+04  0.12699999809E+01 0. -1.
       -4    1    3    3    0  502 -0.66704051607E+02  0.79330297547E+03  0.11958527254E+04  0.14366086437E+04  0.12699999809E+01 0.  1.
</event>
<event>
 5   0  0.1572732E-05  0.2496386E+04  0.7818609E-02  0.8404274E-01
       -2   -1    0    0    0  501  0.00000000000E+00  0.00000000000E+00  0.12382225439E+04  0.12382225439E+04  0.25500000920E-02 0. -1.
        2   -1    0    0  501    0  0.00000000000E+00  0.00000000000E+00 -0.12582435445E+04  0.12582435445E+04  0.25500000920E-02 0.  1.
    10030    2    1    2    0    0  0.00000000000E+00  0.00000000000E+00 -0.20021000587E+02  0.24964660885E+04  0.24963858056E+04 0.  0.
        1    1    3    3  502    0  0.86481724618E+02  0.67013766847E+03  0.10395097630E+04  0.12398161681E+04  0.50400001928E-02 0. -1.
       -1    1    3    3    0  502 -0.86481724618E+02 -0.67013766847E+03 -0.10595307636E+04  0.12566499204E+04  0.50400001928E-02 0.  1.
</event>
<event>
 5   0  0.1501947E-05  0.2446302E+04  0.7818609E-02  0.8422370E-01
       -2   -1    0    0    0  501  0.00000000000E+00  0.00000000000E+00  0.69827441620E+03  0.69827441620E+03  0.25500000920E-02 0.  1.
        2   -1    0    0  501    0  0.00000000000E+00  0.00000000000E+00 -0.21425644315E+04  0.21425644315E+04  0.25500000920E-02 0. -1.
    10030    2    1    2    0    0  0.00000000000E+00  0.00000000000E+00 -0.14442900153E+04  0.28408388477E+04  0.24463016393E+04 0.  0.
        3    1    3    3  502    0 -0.26990725819E+03 -0.11708260793E+04 -0.98801015561E+03  0.15555859712E+04  0.10100000352E+00 0. -1.
       -3    1    3    3    0  502  0.26990725819E+03  0.11708260793E+04 -0.45627985967E+03  0.12852528765E+04  0.10100000352E+00 0.  1.
</event>
<event>
 5   0  0.6104486E-06  0.2493078E+04  0.7818609E-02  0.8405456E-01
        1   -1    0    0  501    0  0.00000000000E+00  0.00000000000E+00  0.11812137570E+04  0.11812137570E+04  0.50400001928E-02 0. -1.
       -1   -1    0    0    0  501  0.00000000000E+00  0.00000000000E+00 -0.13154767585E+04  0.13154767585E+04  0.50400001928E-02 0.  1.
    10030    2    1    2    0    0  0.00000000000E+00  0.00000000000E+00 -0.13426300147E+03  0.24966905155E+04  0.24930778120E+04 0.  0.
        2    1    3    3  502    0 -0.28416453495E+03 -0.89478913728E+03  0.75409471324E+03  0.12041826770E+04  0.25500000920E-02 0. -1.
       -2    1    3    3    0  502  0.28416453495E+03  0.89478913728E+03 -0.88835771471E+03  0.12925078384E+04  0.25500000920E-02 0.  1.
</event>
<event>
 5   0  0.1501947E-05  0.2509673E+04  0.7818609E-02  0.8399548E-01
        2   -1    0    0  501    0  0.00000000000E+00  0.00000000000E+00  0.16663285648E+04  0.16663285648E+04  0.25500000920E-02 0.  1.
       -2   -1    0    0    0  501  0.00000000000E+00  0.00000000000E+00 -0.94496052097E+03  0.94496052097E+03  0.25500000920E-02 0. -1.
    10030    2    1    2    0    0  0.00000000000E+00  0.00000000000E+00  0.72136804387E+03  0.26112890858E+04  0.25096730534E+04 0.  0.
        3    1    3    3  502    0 -0.60389038794E+03 -0.86235773530E+03  0.10711718660E+04  0.15019166558E+04  0.10100000352E+00 0.  1.
       -3    1    3    3    0  502  0.60389038794E+03  0.86235773530E+03 -0.34980382213E+03  0.11093724300E+04  0.10100000352E+00 0. -1.
</event>
<event>
 5   0  0.6290861E-06  0.2455377E+04  0.7818609E-02  0.8419057E-01
       -1   -1    0    0    0  501  0.00000000000E+00  0.00000000000E+00  0.65937724125E+03  0.65937724127E+03  0.50400001928E-02 0.  1.
        1   -1    0    0  501    0  0.00000000000E+00  0.00000000000E+00 -0.22858228199E+04  0.22858228199E+04  0.50400001928E-02 0. -1.
    10030    2    1    2    0    0  0.00000000000E+00  0.00000000000E+00 -0.16264455787E+04  0.29452000612E+04  0.24553774007E+04 0.  0.
        1    1    3    3  502    0 -0.42245349876E+03  0.79578517926E+03  0.18709596642E+03  0.92018797581E+03  0.50400001928E-02 0.  1.
       -1    1    3    3    0  502  0.42245349876E+03 -0.79578517926E+03 -0.18135415451E+04  0.20250120854E+04  0.50400001928E-02 0. -1.
</event>
<event>
 5   0  0.6104486E-06  0.2527968E+04  0.7818609E-02  0.8393089E-01
       -1   -1    0    0    0  501  0.00000000000E+00  0.00000000000E+00  0.61113480560E+03  0.61113480562E+03  0.50400001928E-02 0. -1.
        1   -1    0    0  501    0  0.00000000000E+00  0.00000000000E+00 -0.26142445512E+04  0.26142445512E+04  0.50400001928E-02 0.  1.
    10030    2    1    2    0    0  0.00000000000E+00  0.00000000000E+00 -0.20031097456E+04  0.32253793568E+04  0.25279682242E+04 0.  0.
        2    1    3    3  502    0 -0.97384890872E+03 -0.75632211894E+03 -0.13561732361E+04  0.18329240821E+04  0.25500000920E-02 0. -1.
       -2    1    3    3    0  502  0.97384890872E+03  0.75632211894E+03 -0.64693650950E+03  0.13924552747E+04  0.25500000920E-02 0.  1.
</event>
<event>
 5   0  0.6290861E-06  0.2564914E+04  0.7818609E-02  0.8380218E-01
       -1   -1    0    0    0  501  0.00000000000E+00  0.00000000000E+00  0.98623084346E+03  0.98623084347E+03  0.50400001928E-02 0.  1.
        1   -1    0    0  501    0  0.00000000000E+00  0.00000000000E+00 -0.16676580182E+04  0.16676580182E+04  0.50400001928E-02 0. -1.
    10030    2    1    2    0    0  0.00000000000E+00  0.00000000000E+00 -0.68142717475E+03  0.26538888617E+04  0.25649138574E+04 0.  0.
        1    1    3    3  502    0  0.39675289112E+02 -0.66088919685E+03 -0.14771524917E+04  0.16187427661E+04  0.50400001928E-02 0. -1.
       -1    1    3    3    0  502 -0.39675289112E+02  0.66088919685E+03  0.79572531696E+03  0.10351460956E+04  0.50400001928E-02 0.  1.
</event>
<event>
 5   0  0.1572732E-05  0.2440630E+04  0.7818609E-02  0.8424447E-01
       -2   -1    0    0    0  501  0.00000000000E+00  0.00000000000E+00  0.13836450373E+04  0.13836450373E+04  0.25500000920E-02 0.  1.
        2   -1    0    0  501    0  0.00000000000E+00  0.00000000000E+00 -0.10762647127E+04  0.10762647127E+04  0.25500000920E-02 0. -1.
    10030    2    1    2    0    0  0.00000000000E+00  0.00000000000E+00  0.30738032456E+03  0.24599097500E+04  0.24406296963E+04 0.  0.
        1    1    3    3  502    0  0.11945772048E+04 -0.76601859540E+02  0.39281057290E+03  0.12598343897E+04  0.50400001928E-02 0.  1.
       -1    1    3    3    0  502 -0.11945772048E+04  0.76601859540E+02 -0.85430248339E+02  0.12000753604E+04  0.50400001928E-02 0. -1.
</event>
<event>
 5   0  0.6290861E-06  0.2500633E+04  0.7818609E-02  0.8402760E-01
        1   -1    0    0  501    0  0.00000000000E+00  0.00000000000E+00  0.10534329797E+04  0.10534329798E+04  0.50400001928E-02 0. -1.
       -1   -1    0    0    0  501  0.00000000000E+00  0.00000000000E+00 -0.14839968581E+04  0.14839968582E+04  0.50400001928E-02 0.  1.
    10030    2    1    2    0    0  0.00000000000E+00  0.00000000000E+00 -0.43056387841E+03  0.25374298379E+04  0.25006329057E+04 0.  0.
        1    1    3    3  502    0  0.51732051936E+03  0.10918361986E+04  0.11126784877E+03  0.12133043058E+04  0.50400001928E-02 0.  1.
       -1    1    3    3    0  502 -0.51732051936E+03 -0.10918361986E+04 -0.54183172718E+03  0.13241255321E+04  0.50400001928E-02 0. -1.
</event>
<event>
 5   0  0.6346420E-06  0.2547072E+04  0.7818609E-02  0.8386405E-01
        1   -1    0    0  501    0  0.00000000000E+00  0.00000000000E+00  0.11009312616E+04  0.11009312616E+04  0.50400001928E-02 0. -1.
       -1   -1    0    0    0  501  0.00000000000E+00  0.00000000000E+00 -0.14732020742E+04  0.14732020743E+04  0.50400001928E-02 0.  1.
    10030    2    1    2    0    0  0.00000000000E+00  0.00000000000E+00 -0.37227081263E+03  0.25741333359E+04  0.25470722159E+04 0.  0.
        4    1    3    3  502    0 -0.29816661019E+03 -0.22603710140E+03  0.10441297316E+04  0.11091458912E+04  0.12699999809E+01 0. -1.
       -4    1    3    3    0  502  0.29816661019E+03  0.22603710140E+03 -0.14164005442E+04  0.14649874447E+04  0.12699999809E+01 0.  1.
</event>
<event>
 5   0  0.1526824E-05  0.2495913E+04  0.7818609E-02  0.8404443E-01
       -2   -1    0    0    0  501  0.00000000000E+00  0.00000000000E+00  0.15825308022E+04  0.15825308022E+04  0.25500000920E-02 0.  1.
        2   -1    0    0  501    0  0.00000000000E+00  0.00000000000E+00 -0.98411718707E+03  0.98411718708E+03  0.25500000920E-02 0. -1.
    10030    2    1    2    0    0  0.00000000000E+00  0.00000000000E+00  0.59841361508E+03  0.25666479892E+04  0.24959132689E+04 0.  0.
        2    1    3    3  502    0  0.76368218060E+03 -0.87966056644E+03  0.75953417806E+03  0.13906492558E+04  0.25500000920E-02 0.  1.
       -2    1    3    3    0  502 -0.76368218060E+03  0.87966056644E+03 -0.16112056298E+03  0.11759987334E+04  0.25500000920E-02 0. -1.
</event>
<event>
 5   0  0.1526824E-05  0.2448853E+04  0.7818609E-02  0.8421437E-01
        2   -1    0    0  501    0  0.00000000000E+00  0.00000000000E+00  0.12740990373E+04  0.12740990373E+04  0.25500000920E-02 0. -1.
       -2   -1    0    0    0  501  0.00000000000E+00  0.00000000000E+00 -0.11766903724E+04  0.11766903724E+04  0.25500000920E-02 0.  1.
    10030    2    1    2    0    0  0.00000000000E+00  0.00000000000E+00  0.97408664907E+02  0.24507894097E+04  0.24488528504E+04 0.  0.
        2    1    3    3  502    0 -0.26099502380E+03 -0.10624395202E+04  0.59897906414E+03  0.12472658321E+04  0.25500000920E-02 0. -1.
       -2    1    3    3    0  502  0.26099502380E+03  0.10624395202E+04 -0.50157039923E+03  0.12035235777E+04  0.25500000920E-02 0.  1.
</event>
<event>
 5   0  0.5164625E-06  0.2478939E+04  0.7818609E-02  0.8410527E-01
        4   -1    0    0  501    0  0.00000000000E+00  0.00000000000E+00  0.13575297427E+04  0.13575303368E+04  0.12699999809E+01 0. -1.
       -4   -1    0    0    0  501  0.00000000000E+00  0.00000000000E+00 -0.11316753424E+04  0.11316760550E+04  0.12699999809E+01 0.  1.
    10030    2    1    2    0    0  0.00000000000E+00  0.00000000000E+00  0.22585440033E+03  0.24892063918E+04  0.24789389364E+04 0.  0.
        4    1    3    3  502    0  0.75773498711E+02  0.67652510305E+03  0.11530044955E+04  0.13389730459E+04  0.12699999809E+01 0. -1.
       -4    1    3    3    0  502 -0.75773498711E+02 -0.67652510305E+03 -0.92715009512E+03  0.11502333459E+04  0.12699999809E+01 0.  1.
</event>
<event>
 5   0  0.1572732E-05  0.2486691E+04  0.7818609E-02  0.8407742E-01
       -2   -1    0    0    0  501  0.00000000000E+00  0.00000000000E+00  0.90149045486E+03  0.90149045486E+03  0.25500000920E-02 0. -1.
        2   -1    0    0  501    0  0.00000000000E+00  0.00000000000E+00 -0.17148353354E+04  0.17148353355E+04  0.25500000920E-02 0.  1.
    10030    2    1    2    0    0  0.00000000000E+00  0.00000000000E+00 -0.81334488059E+03  0.26163257903E+04  0.24866907219E+04 0.  0.
        1    1    3    3  502    0 -0.10814625448E+04 -0.12332994548E+03  0.22560188305E+03  0.11116059198E+04  0.50400001928E-02 0. -1.
       -1    1    3    3    0  502  0.10814625448E+04  0.12332994548E+03 -0.10389467636E+04  0.15047198706E+04  0.50400001928E-02 0.  1.
</event>
<event>
 5   0  0.6105353E-06  0.2490128E+04  0.7818609E-02  0.8406511E-01
        1   -1    0    0  501    0  0.00000000000E+00  0.00000000000E+00  0.10715876263E+04  0.10715876263E+04  0.50400001928E-02 0. -1.
       -1   -1    0    0    0  501  0.00000000000E+00  0.00000000000E+00 -0.14466236341E+04  0.14466236341E+04  0.50400001928E-02 0.  1.
    10030    2    1    2    0    0  0.00000000000E+00  0.00000000000E+00 -0.37503600782E+03  0.25182112604E+04  0.24901276965E+04 0.  0.
        3    1    3    3  502    0  0.70875656863E+03  0.97895473996E+03 -0.49005025212E+03  0.13041616143E+04  0.10100000352E+00 0. -1.
       -3    1    3    3    0  502 -0.70875656863E+03 -0.97895473996E+03  0.11501424430E+03  0.12140496460E+04  0.10100000352E+00 0.  1.
</event>
<event>
 5   0  0.1468512E-05  0.2503717E+04  0.7818609E-02  0.8401662E-01
        2   -1    0    0  501    0  0.00000000000E+00  0.00000000000E+00  0.12830355771E+04  0.12830355771E+04  0.25500000920E-02 0.  1.
       -2   -1    0    0    0  501  0.00000000000E+00  0.00000000000E+00 -0.12214392145E+04  0.12214392145E+04  0.25500000920E-02 0. -1.
    10030    2    1    2    0    0  0.00000000000E+00  0.00000000000E+00  0.61596362627E+02  0.25044747916E+04  0.25037172104E+04 0.  0.
        4    1    3    3  502    0  0.71425393817E+03 -0.86834342743E+03  0.58139125486E+03  0.12657789698E+04  0.12699999809E+01 0.  1.
       -4    1    3    3    0  502 -0.71425393817E+03  0.86834342743E+03 -0.51979489223E+03  0.12386958218E+04  0.12699999809E+01 0. -1.
</event>
<event>
 5   0  0.1550483E-05  0.2461107E+04  0.7818609E-02  0.8416974E-01
        2   -1    0    0  501    0  0.00000000000E+00  0.00000000000E+00  0.12308461340E+04  0.12308461340E+04  0.25500000920E-02 0. -1.
       -2   -1    0    0    0  501  0.00000000000E+00  0.00000000000E+00 -0.12302612310E+04  0.12302612310E+04  0.25500000920E-02 0.  1.
    10030    2    1    2    0    0  0.00000000000E+00  0.00000000000E+00  0.58490303466E+00  0.24611073650E+04  0.24611072955E+04 0.  0.
        5    1    3    3  502    0 -0.21038842324E+03 -0.12054472265E+04 -0.12960707248E+03  0.12305228108E+04  0.46999998093E+01 0. -1.
       -5    1    3    3    0  502  0.21038842324E+03  0.12054472265E+04  0.13019197552E+03  0.12305845542E+04  0.46999998093E+01 0.  1.
</event>
<event>
 5   0  0.1501947E-05  0.2467631E+04  0.7818609E-02  0.8414609E-01
        2   -1    0    0  501    0  0.00000000000E+00  0.00000000000E+00  0.22767724248E+04  0.22767724248E+04  0.25500000920E-02 0. -1.
       -2   -1    0    0    0  501  0.00000000000E+00  0.00000000000E+00 -0.66862233782E+03  0.66862233782E+03  0.25500000920E-02 0.  1.
    10030    2    1    2    0    0  0.00000000000E+00  0.00000000000E+00  0.16081500870E+04  0.29453947626E+04  0.24676311729E+04 0.  0.
        3    1    3    3  502    0  0.79805968897E+03 -0.83366466712E+03  0.13249125631E+04  0.17570683977E+04  0.10100000352E+00 0. -1.
       -3    1    3    3    0  502 -0.79805968897E+03  0.83366466712E+03  0.28323752393E+03  0.11883263649E+04  0.10100000352E+00 0.  1.
</event>
<event>
 5   0  0.6290861E-06  0.2414486E+04  0.7818609E-02  0.8434100E-01
       -1   -1    0    0    0  501  0.00000000000E+00  0.00000000000E+00  0.87055798667E+03  0.87055798668E+03  0.50400001928E-02 0.  1.
        1   -1    0    0  501    0  0.00000000000E+00  0.00000000000E+00 -0.16741399506E+04  0.16741399506E+04  0.50400001928E-02 0. -1.
    10030    2    1    2    0    0  0.00000000000E+00  0.00000000000E+00 -0.80358196393E+03  0.25446979373E+04  0.24144862019E+04 0.  0.
        1    1    3    3  502    0  0.12031083989E+04  0.98260662172E+02 -0.38320689686E+03  0.12664803603E+04  0.50400001928E-02 0.  1.
       -1    1    3    3    0  502 -0.12031083989E+04 -0.98260662172E+02 -0.42037506706E+03  0.12782175770E+04  0.50400001928E-02 0. -1.
</event>
<event>
 5   0  0.6104486E-06  0.2514158E+04  0.7818609E-02  0.8397959E-01
        1   -1    0    0  501    0  0.00000000000E+00  0.00000000000E+00  0.96911732175E+03  0.96911732177E+03  0.50400001928E-02 0.  1.
       -1   -1    0    0    0  501  0.00000000000E+00  0.00000000000E+00 -0.16306050260E+04  0.16306050261E+04  0.50400001928E-02 0. -1.
    10030    2    1    2    0    0  0.00000000000E+00  0.00000000000E+00 -0.66148770429E+03  0.25997223478E+04  0.25141579709E+04 0.  0.
        2    1    3    3  502    0 -0.35983671978E+03  0.46400312409E+03 -0.14800873460E+04  0.15923064767E+04  0.25500000920E-02 0. -1.
       -2    1    3    3    0  502  0.35983671978E+03 -0.46400312409E+03  0.81859964166E+03  0.10074158711E+04  0.25500000920E-02 0.  1.
</event>
<event>
 5   0  0.6104486E-06  0.2323092E+04  0.7818609E-02  0.8468872E-01
       -1   -1    0    0    0  501  0.00000000000E+00  0.00000000000E+00  0.86939742360E+03  0.86939742362E+03  0.50400001928E-02 0. -1.
        1   -1    0    0  501    0  0.00000000000E+00  0.00000000000E+00 -0.15518670515E+04  0.15518670515E+04  0.50400001928E-02 0.  1.
    10030    2    1    2    0    0  0.00000000000E+00  0.00000000000E+00 -0.68246962791E+03  0.24212644751E+04  0.23230920915E+04 0.  0.
        2    1    3    3  502    0 -0.10746267735E+04 -0.44064997877E+03 -0.35575593216E+03  0.12147252321E+04  0.25500000920E-02 0.  1.
       -2    1    3    3    0  502  0.10746267735E+04  0.44064997877E+03 -0.32671369575E+03  0.12065392431E+04  0.25500000920E-02 0. -1.
</event>
<event>
 5   0  0.1526824E-05  0.2503735E+04  0.7818609E-02  0.8401656E-01
       -2   -1    0    0    0  501  0.00000000000E+00  0.00000000000E+00  0.13297405994E+04  0.13297405994E+04  0.25500000920E-02 0.  1.
        2   -1    0    0  501    0  0.00000000000E+00  0.00000000000E+00 -0.11785552206E+04  0.11785552206E+04  0.25500000920E-02 0. -1.
    10030    2    1    2    0    0  0.00000000000E+00  0.00000000000E+00  0.15118537877E+03  0.25082958199E+04  0.25037353897E+04 0.  0.
        2    1    3    3  502    0 -0.10091819283E+04  0.26625018879E+03 -0.61692279084E+03  0.12124071335E+04  0.25500000920E-02 0. -1.
       -2    1    3    3    0  502  0.10091819283E+04 -0.26625018879E+03  0.76810816961E+03  0.12958886865E+04  0.25500000920E-02 0.  1.
</event>
<event>
 5   0  0.1468512E-05  0.2498489E+04  0.7818609E-02  0.8403524E-01
        2   -1    0    0  501    0  0.00000000000E+00  0.00000000000E+00  0.10226099588E+04  0.10226099588E+04  0.25500000920E-02 0. -1.
       -2   -1    0    0    0  501  0.00000000000E+00  0.00000000000E+00 -0.15261068509E+04  0.15261068509E+04  0.25500000920E-02 0.  1.
    10030    2    1    2    0    0  0.00000000000E+00  0.00000000000E+00 -0.50349689210E+03  0.25487168098E+04  0.24984891947E+04 0.  0.
        4    1    3    3  502    0 -0.32390887994E+03 -0.65780220742E+03  0.78001407425E+03  0.10705345747E+04  0.12699999809E+01 0. -1.
       -4    1    3    3    0  502  0.32390887994E+03  0.65780220742E+03 -0.12835109664E+04  0.14781822351E+04  0.12699999809E+01 0.  1.
</event>
<event>
 5   0  0.1550483E-05  0.2466345E+04  0.7818609E-02  0.8415074E-01
        2   -1    0    0  501    0  0.00000000000E+00  0.00000000000E+00  0.86172900663E+03  0.86172900663E+03  0.25500000920E-02 0.  1.
       -2   -1    0    0    0  501  0.00000000000E+00  0.00000000000E+00 -0.17647252481E+04  0.17647252481E+04  0.25500000920E-02 0. -1.
    10030    2    1    2    0    0  0.00000000000E+00  0.00000000000E+00 -0.90299624147E+03  0.26264542547E+04  0.24663454219E+04 0.  0.
        5    1    3    3  502    0  0.34078942978E+03  0.49751233651E+03 -0.15969834773E+04  0.17070542689E+04  0.46999998093E+01 0. -1.
       -5    1    3    3    0  502 -0.34078942978E+03 -0.49751233651E+03  0.69398723580E+03  0.91939998579E+03  0.46999998093E+01 0.  1.
</event>
<event>
 5   0  0.6290861E-06  0.2502226E+04  0.7818609E-02  0.8402193E-01
        1   -1    0    0  501    0  0.00000000000E+00  0.00000000000E+00  0.10028562742E+04  0.10028562742E+04  0.50400001928E-02 0.  1.
       -1   -1    0    0    0  501  0.00000000000E+00  0.00000000000E+00 -0.15608253045E+04  0.15608253046E+04  0.50400001928E-02 0. -1.
    10030    2    1    2    0    0  0.00000000000E+00  0.00000000000E+00 -0.55796903031E+03  0.25636815788E+04  0.25022257689E+04 0.  0.
        1    1    3    3  502    0  0.11360955046E+04  0.43081857123E+03 -0.58458157104E+03  0.13483520497E+04  0.50400001928E-02 0.  1.
       -1    1    3    3    0  502 -0.11360955046E+04 -0.43081857123E+03  0.26612540726E+02  0.12153295290E+04  0.50400001928E-02 0. -1.
</event>
<event>
 5   0  0.6346420E-06  0.2499591E+04  0.7818609E-02  0.8403131E-01
        1   -1    0    0  501    0  0.00000000000E+00  0.00000000000E+00  0.19438432731E+04  0.19438432731E+04  0.50400001928E-02 0.  1.
       -1   -1    0    0    0  501  0.00000000000E+00  0.00000000000E+00 -0.80355694762E+03  0.80355694763E+03  0.50400001928E-02 0. -1.
    10030    2    1    2    0    0  0.00000000000E+00  0.00000000000E+00  0.11402863255E+04  0.27474002208E+04  0.24995909803E+04 0.  0.
        4    1    3    3  502    0 -0.76303570990E+03  0.91670347409E+03  0.98054852610E+03  0.15440355498E+04  0.12699999809E+01 0. -1.
       -4    1    3    3    0  502  0.76303570990E+03 -0.91670347409E+03  0.15973779943E+03  0.12033646710E+04  0.12699999809E+01 0.  1.
</event>
<event>
 5   0  0.1526824E-05  0.2514403E+04  0.7818609E-02  0.8397872E-01
        2   -1    0    0  501    0  0.00000000000E+00  0.00000000000E+00  0.16705367657E+04  0.16705367657E+04  0.25500000920E-02 0. -1.
       -2   -1    0    0    0  501  0.00000000000E+00  0.00000000000E+00 -0.94613608529E+03  0.94613608530E+03  0.25500000920E-02 0.  1.
    10030    2    1    2    0    0  0.00000000000E+00  0.00000000000E+00  0.72440068042E+03  0.26166728510E+04  0.25144026057E+04 0.  0.
        2    1    3    3  502    0  0.12122806712E+04 -0.23467155630E+03  0.11624011364E+03  0.12402447054E+04  0.25500000920E-02 0.  1.
       -2    1    3    3    0  502 -0.12122806712E+04  0.23467155630E+03  0.60816056678E+03  0.13764281457E+04  0.25500000920E-02 0. -1.
</event>
<event>
 5   0  0.1572732E-05  0.2499725E+04  0.7818609E-02  0.8403083E-01
       -2   -1    0    0    0  501  0.00000000000E+00  0.00000000000E+00  0.11423911448E+04  0.11423911448E+04  0.25500000920E-02 0. -1.
        2   -1    0    0  501    0  0.00000000000E+00  0.00000000000E+00 -0.13674446677E+04  0.13674446677E+04  0.25500000920E-02 0.  1.
    10030    2    1    2    0    0  0.00000000000E+00  0.00000000000E+00 -0.22505352292E+03  0.25098358124E+04  0.24997253284E+04 0.  0.
        1    1    3    3  502    0 -0.32992671674E+03 -0.73343102211E+03 -0.10731535075E+04  0.13410559844E+04  0.50400001928E-02 0.  1.
       -1    1    3    3    0  502  0.32992671674E+03  0.73343102211E+03  0.84809998457E+03  0.11687798281E+04  0.50400001928E-02 0. -1.
</event>
<event>
 5   0  0.1572732E-05  0.2513669E+04  0.7818609E-02  0.8398132E-01
        2   -1    0    0  501    0  0.00000000000E+00  0.00000000000E+00  0.10020992919E+04  0.10020992919E+04  0.25500000920E-02 0.  1.
       -2   -1    0    0    0  501  0.00000000000E+00  0.00000000000E+00 -0.15763233008E+04  0.15763233009E+04  0.25500000920E-02 0. -1.
    10030    2    1    2    0    0  0.00000000000E+00  0.00000000000E+00 -0.57422400898E+03  0.25784225927E+04  0.25136686047E+04 0.  0.
        1    1    3    3  502    0 -0.53998418880E+03 -0.85884852130E+03  0.47390898423E+03  0.11197291780E+04  0.50400001928E-02 0.  1.
       -1    1    3    3    0  502  0.53998418880E+03  0.85884852130E+03 -0.10481329932E+04  0.14586934147E+04  0.50400001928E-02 0. -1.
</event>
<event>
 5   0  0.6104486E-06  0.2488102E+04  0.7818609E-02  0.8407236E-01
        1   -1    0    0  501    0  0.00000000000E+00  0.00000000000E+00  0.13741974749E+04  0.13741974749E+04  0.50400001928E-02 0.  1.
       -1   -1    0    0    0  501  0.00000000000E+00  0.00000000000E+00 -0.11262306726E+04  0.11262306726E+04  0.50400001928E-02 0. -1.
    10030    2    1    2    0    0  0.00000000000E+00  0.00000000000E+00  0.24796680235E+03  0.25004281475E+04  0.24881023664E+04 0.  0.
        2    1    3    3  502    0 -0.10177761203E+04  0.14406765803E+03 -0.58023019337E+03  0.11803773966E+04  0.25500000920E-02 0. -1.
       -2    1    3    3    0  502  0.10177761203E+04 -0.14406765803E+03  0.82819699572E+03  0.13200507509E+04  0.25500000920E-02 0.  1.
</event>
<event>
 5   0  0.1550483E-05  0.2495669E+04  0.7818609E-02  0.8404530E-01
        2   -1    0    0  501    0  0.00000000000E+00  0.00000000000E+00  0.21096118504E+04  0.21096118504E+04  0.25500000920E-02 0. -1.
       -2   -1    0    0    0  501  0.00000000000E+00  0.00000000000E+00 -0.73809337979E+03  0.73809337979E+03  0.25500000920E-02 0.  1.
    10030    2    1    2    0    0  0.00000000000E+00  0.00000000000E+00  0.13715184706E+04  0.28477052302E+04  0.24956686805E+04 0.  0.
        5    1    3    3  502    0  0.53172537490E+03  0.31515543854E+03 -0.55112642749E+03  0.82814084178E+03  0.46999998093E+01 0.  1.
       -5    1    3    3    0  502 -0.53172537490E+03 -0.31515543854E+03  0.19226448981E+04  0.20195643884E+04  0.46999998093E+01 0. -1.
</event>
<event>
 5   0  0.6346420E-06  0.2511270E+04  0.7818609E-02  0.8398982E-01
       -1   -1    0    0    0  501  0.00000000000E+00  0.00000000000E+00  0.13503848140E+04  0.13503848140E+04  0.50400001928E-02 0. -1.
        1   -1    0    0  501    0  0.00000000000E+00  0.00000000000E+00 -0.11675330832E+04  0.11675330832E+04  0.50400001928E-02 0.  1.
    10030    2    1    2    0    0  0.00000000000E+00  0.00000000000E+00  0.18285173073E+03  0.25179178972E+04  0.25112697549E+04 0.  0.
        4    1    3    3  502    0  0.32222235069E+03 -0.11817576354E+04 -0.18541916906E+03  0.12388544036E+04  0.12699999809E+01 0.  1.
       -4    1    3    3    0  502 -0.32222235069E+03  0.11817576354E+04  0.36827089979E+03  0.12790634936E+04  0.12699999809E+01 0. -1.
</event>
<event>
 5   0  0.6290861E-06  0.2467459E+04  0.7818609E-02  0.8414671E-01
       -1   -1    0    0    0  501  0.00000000000E+00  0.00000000000E+00  0.10147455025E+04  0.10147455025E+04  0.50400001928E-02 0. -1.
        1   -1    0    0  501    0  0.00000000000E+00  0.00000000000E+00 -0.14999711590E+04  0.14999711590E+04  0.50400001928E-02 0.  1.
    10030    2    1    2    0    0  0.00000000000E+00  0.00000000000E+00 -0.48522565649E+03  0.25147166616E+04  0.24674594121E+04 0.  0.
        1    1    3    3  502    0  0.11395675920E+04  0.34749272065E+03 -0.56925627190E+03  0.13203856220E+04  0.50400001928E-02 0.  1.
       -1    1    3    3    0  502 -0.11395675920E+04 -0.34749272065E+03  0.84030615411E+02  0.11943310395E+04  0.50400001928E-02 0. -1.
</event>
<event>
 5   0  0.6290861E-06  0.2507352E+04  0.7818609E-02  0.8400371E-01
        1   -1    0    0  501    0  0.00000000000E+00  0.00000000000E+00  0.18707794366E+04  0.18707794366E+04  0.50400001928E-02 0.  1.
       -1   -1    0    0    0  501  0.00000000000E+00  0.00000000000E+00 -0.84013297815E+03  0.84013297817E+03  0.50400001928E-02 0. -1.
    10030    2    1    2    0    0  0.00000000000E+00  0.00000000000E+00  0.10306464585E+04  0.27109124148E+04  0.25073519893E+04 0.  0.
        1    1    3    3  502    0 -0.17674132530E+03  0.76185289455E+03 -0.54404328359E+03  0.95270164451E+03  0.50400001928E-02 0. -1.
       -1    1    3    3    0  502  0.17674132530E+03 -0.76185289455E+03  0.15746897421E+04  0.17582107703E+04  0.50400001928E-02 0.  1.
</event>
<event>
 5   0  0.6104486E-06  0.2454335E+04  0.7818609E-02  0.8419437E-01
       -1   -1    0    0    0  501  0.00000000000E+00  0.00000000000E+00  0.12808339699E+04  0.12808339699E+04  0.50400001928E-02 0.  1.
        1   -1    0    0  501    0  0.00000000000E+00  0.00000000000E+00 -0.11757498986E+04  0.11757498986E+04  0.50400001928E-02 0. -1.
    10030    2    1    2    0    0  0.00000000000E+00  0.00000000000E+00  0.10508407128E+03  0.24565838686E+04  0.24543352748E+04 0.  0.
        2    1    3    3  502    0  0.14473943029E+03  0.10679879735E+04  0.63992941297E+03  0.12534183132E+04  0.25500000920E-02 0.  1.
       -2    1    3    3    0  502 -0.14473943029E+03 -0.10679879735E+04 -0.53484534168E+03  0.12031655554E+04  0.25500000920E-02 0. -1.
</event>
<event>
 5   0  0.6105353E-06  0.2498590E+04  0.7818609E-02  0.8403488E-01
        1   -1    0    0  501    0  0.00000000000E+00  0.00000000000E+00  0.20413403605E+04  0.20413403605E+04  0.50400001928E-02 0.  1.
       -1   -1    0    0    0  501  0.00000000000E+00  0.00000000000E+00 -0.76456499689E+03  0.76456499690E+03  0.50400001928E-02 0. -1.
    10030    2    1    2    0    0  0.00000000000E+00  0.00000000000E+00  0.12767753636E+04  0.28059053574E+04  0.24985895112E+04 0.  0.
        3    1    3    3  502    0  0.11028532241E+04  0.96176232866E+02  0.12885646548E+04  0.16988036912E+04  0.10100000352E+00 0. -1.
       -3    1    3    3    0  502 -0.11028532241E+04 -0.96176232866E+02 -0.11789291186E+02  0.11071016661E+04  0.10100000352E+00 0.  1.
</event>
<event>
 5   0  0.1501947E-05  0.2352590E+04  0.7818609E-02  0.8457470E-01
        2   -1    0    0  501    0  0.00000000000E+00  0.00000000000E+00  0.16739708238E+04  0.16739708238E+04  0.25500000920E-02 0.  1.
       -2   -1    0    0    0  501  0.00000000000E+00  0.00000000000E+00 -0.82657930919E+03  0.82657930920E+03  0.25500000920E-02 0. -1.
    10030    2    1    2    0    0  0.00000000000E+00  0.00000000000E+00  0.84739151464E+03  0.25005501330E+04  0.23525897621E+04 0.  0.
        3    1    3    3  502    0 -0.70869931855E+03  0.89720956473E+03  0.71754260556E+03  0.13498544841E+04  0.10100000352E+00 0.  1.
       -3    1    3    3    0  502  0.70869931855E+03 -0.89720956473E+03  0.12984890908E+03  0.11506956490E+04  0.10100000352E+00 0. -1.
</event>
<event>
 5   0  0.6105353E-06  0.2478987E+04  0.7818609E-02  0.8410510E-01
       -1   -1    0    0    0  501  0.00000000000E+00  0.00000000000E+00  0.10812848514E+04  0.10812848514E+04  0.50400001928E-02 0.  1.
        1   -1    0    0  501    0  0.00000000000E+00  0.00000000000E+00 -0.14208499547E+04  0.14208499547E+04  0.50400001928E-02 0. -1.
    10030    2    1    2    0    0  0.00000000000E+00  0.00000000000E+00 -0.33956510326E+03  0.25021348061E+04  0.24789865124E+04 0.  0.
        3    1    3    3  502    0 -0.60842530411E+03  0.70575944321E+03  0.65520264090E+03  0.11391085344E+04  0.10100000352E+00 0.  1.
       -3    1    3    3    0  502  0.60842530411E+03 -0.70575944321E+03 -0.99476774415E+03  0.13630262717E+04  0.10100000352E+00 0. -1.
</event>
<event>
 5   0  0.1468512E-05  0.2504232E+04  0.7818609E-02  0.8401479E-01
        2   -1    0    0  501    0  0.00000000000E+00  0.00000000000E+00  0.18676208992E+04  0.18676208992E+04  0.25500000920E-02 0. -1.
       -2   -1    0    0    0  501  0.00000000000E+00  0.00000000000E+00 -0.83946108600E+03  0.83946108600E+03  0.25500000920E-02 0.  1.
    10030    2    1    2    0    0  0.00000000000E+00  0.00000000000E+00  0.10281598132E+04  0.27070819852E+04  0.25042324719E+04 0.  0.
        4    1    3    3  502    0 -0.16051561761E+03 -0.61333597867E+02 -0.82665383904E+03  0.84432532606E+03  0.12699999809E+01 0.  1.
       -4    1    3    3    0  502  0.16051561761E+03  0.61333597867E+02  0.18548136523E+04  0.18627566592E+04  0.12699999809E+01 0. -1.
</event>
<event>
 5   0  0.1501947E-05  0.2498345E+04  0.7818609E-02  0.8403575E-01
        2   -1    0    0  501    0  0.00000000000E+00  0.00000000000E+00  0.11195781421E+04  0.11195781421E+04  0.25500000920E-02 0.  1.
       -2   -1    0    0    0  501  0.00000000000E+00  0.00000000000E+00 -0.13937674047E+04  0.13937674047E+04  0.25500000920E-02 0. -1.
    10030    2    1    2    0    0  0.00000000000E+00  0.00000000000E+00 -0.27418926260E+03  0.25133455468E+04  0.24983446692E+04 0.  0.
        3    1    3    3  502    0 -0.22602716047E+03 -0.12106204777E+04  0.73305330889E+02  0.12337195386E+04  0.10100000352E+00 0.  1.
       -3    1    3    3    0  502  0.22602716047E+03  0.12106204777E+04 -0.34749459349E+03  0.12796260082E+04  0.10100000352E+00 0. -1.
</event>
<event>
 5   0  0.1526824E-05  0.2497829E+04  0.7818609E-02  0.8403759E-01
       -2   -1    0    0    0  501  0.00000000000E+00  0.00000000000E+00  0.51203219292E+03  0.51203219292E+03  0.25500000920E-02 0.  1.
        2   -1    0    0  501    0  0.00000000000E+00  0.00000000000E+00 -0.30462689002E+04  0.30462689002E+04  0.25500000920E-02 0. -1.
    10030    2    1    2    0    0  0.00000000000E+00  0.00000000000E+00 -0.25342367073E+04  0.35583010931E+04  0.24978292537E+04 0.  0.
        2    1    3    3  502    0 -0.26004538772E+03 -0.54676634812E+03 -0.28232219858E+04  0.28874139683E+04  0.25500000920E-02 0. -1.
       -2    1    3    3    0  502  0.26004538772E+03  0.54676634812E+03  0.28898527850E+03  0.67088712486E+03  0.25500000920E-02 0.  1.
</event>
<event>
 5   0  0.6477703E-06  0.2501904E+04  0.7818609E-02  0.8402307E-01
       -1   -1    0    0    0  501  0.00000000000E+00  0.00000000000E+00  0.94564661271E+03  0.94564661273E+03  0.50400001928E-02 0. -1.
        1   -1    0    0  501    0  0.00000000000E+00  0.00000000000E+00 -0.16548266728E+04  0.16548266728E+04  0.50400001928E-02 0.  1.
    10030    2    1    2    0    0  0.00000000000E+00  0.00000000000E+00 -0.70918006011E+03  0.26004732856E+04  0.25019042650E+04 0.  0.
        5    1    3    3  502    0 -0.97845856378E+03 -0.37441592935E+02  0.45459025563E+03  0.10795635342E+04  0.46999998093E+01 0. -1.
       -5    1    3    3    0  502  0.97845856378E+03  0.37441592935E+02 -0.11637703157E+04  0.15209097513E+04  0.46999998093E+01 0.  1.
</event>
<event>
 5   0  0.6290861E-06  0.2524005E+04  0.7818609E-02  0.8394483E-01
       -1   -1    0    0    0  501  0.00000000000E+00  0.00000000000E+00  0.10304662428E+04  0.10304662428E+04  0.50400001928E-02 0. -1.
        1   -1    0    0  501    0  0.00000000000E+00  0.00000000000E+00 -0.15455630907E+04  0.15455630907E+04  0.50400001928E-02 0.  1.
    10030    2    1    2    0    0  0.00000000000E+00  0.00000000000E+00 -0.51509684789E+03  0.25760293335E+04  0.25240052227E+04 0.  0.
        1    1    3    3  502    0  0.25952470002E+03 -0.45153641406E+02  0.10020943051E+04  0.10361394296E+04  0.50400001928E-02 0. -1.
       -1    1    3    3    0  502 -0.25952470002E+03  0.45153641406E+02 -0.15171911530E+04  0.15398899039E+04  0.50400001928E-02 0.  1.
</event>
<event>
 5   0  0.1468512E-05  0.2186781E+04  0.7818609E-02  0.8523950E-01
       -2   -1    0    0    0  501  0.00000000000E+00  0.00000000000E+00  0.65952980843E+03  0.65952980844E+03  0.25500000920E-02 0. -1.
        2   -1    0    0  501    0  0.00000000000E+00  0.00000000000E+00 -0.18126588814E+04  0.18126588814E+04  0.25500000920E-02 0.  1.
    10030    2    1    2    0    0  0.00000000000E+00  0.00000000000E+00 -0.11531290729E+04  0.24721886898E+04  0.21867807981E+04 0.  0.
        4    1    3    3  502    0  0.34944135844E+03  0.53746345160E+03 -0.15779001941E+04  0.17031579082E+04  0.12699999809E+01 0.  1.
       -4    1    3    3    0  502 -0.34944135844E+03 -0.53746345160E+03  0.42477112116E+03  0.76903078162E+03  0.12699999809E+01 0. -1.
</event>
<event>
 5   0  0.1468512E-05  0.2501263E+04  0.7818609E-02  0.8402536E-01
       -2   -1    0    0    0  501  0.00000000000E+00  0.00000000000E+00  0.62265205824E+03  0.62265205825E+03  0.25500000920E-02 0. -1.
        2   -1    0    0  501    0  0.00000000000E+00  0.00000000000E+00 -0.25119624247E+04  0.25119624247E+04  0.25500000920E-02 0.  1.
    10030    2    1    2    0    0  0.00000000000E+00  0.00000000000E+00 -0.18893103665E+04  0.31346144830E+04  0.25012625404E+04 0.  0.
        4    1    3    3  502    0 -0.10344923276E+04  0.58170154427E+03 -0.14388818976E+04  0.18651900146E+04  0.12699999809E+01 0.  1.
       -4    1    3    3    0  502  0.10344923276E+04 -0.58170154427E+03 -0.45042846887E+03  0.12694244684E+04  0.12699999809E+01 0. -1.
</event>
<event>
 5   0  0.1550483E-05  0.2500650E+04  0.7818609E-02  0.8402754E-01
        2   -1    0    0  501    0  0.00000000000E+00  0.00000000000E+00  0.10584596824E+04  0.10584596824E+04  0.25500000920E-02 0.  1.
       -2   -1    0    0    0  501  0.00000000000E+00  0.00000000000E+00 -0.14769691774E+04  0.14769691774E+04  0.25500000920E-02 0. -1.
    10030    2    1    2    0    0  0.00000000000E+00  0.00000000000E+00 -0.41850949502E+03  0.25354288597E+04  0.25006497766E+04 0.  0.
        5    1    3    3  502    0 -0.80543272621E+02 -0.12389813641E+04 -0.35870973181E+03  0.12923841538E+04  0.46999998093E+01 0.  1.
       -5    1    3    3    0  502  0.80543272621E+02  0.12389813641E+04 -0.59799763212E+02  0.12430447059E+04  0.46999998093E+01 0. -1.
</event>
<event>
 5   0  0.1501947E-05  0.2530958E+04  0.7818609E-02  0.8392039E-01
       -2   -1    0    0    0  501  0.00000000000E+00  0.00000000000E+00  0.88286768832E+03  0.88286768833E+03  0.25500000920E-02 0.  1.
        2   -1    0    0  501    0  0.00000000000E+00  0.00000000000E+00 -0.18139042657E+04  0.18139042657E+04  0.25500000920E-02 0. -1.
    10030    2    1    2    0    0  0.00000000000E+00  0.00000000000E+00 -0.93103657741E+03  0.26967719541E+04  0.25309582896E+04 0.  0.
        3    1    3    3  502    0  0.15171337682E+03 -0.51572278286E+03 -0.16861951274E+04  0.17698138194E+04  0.10100000352E+00 0. -1.
       -3    1    3    3    0  502 -0.15171337682E+03  0.51572278286E+03  0.75515855003E+03  0.92695813463E+03  0.10100000352E+00 0.  1.
</event>
<event>
 5   0  0.1468512E-05  0.2498201E+04  0.7818609E-02  0.8403627E-01
        2   -1    0    0  501    0  0.00000000000E+00  0.00000000000E+00  0.79635950305E+03  0.79635950305E+03  0.25500000920E-02 0.  1.
       -2   -1    0    0    0  501  0.00000000000E+00  0.00000000000E+00 -0.19592307399E+04  0.19592307399E+04  0.25500000920E-02 0. -1.
    10030    2    1    2    0    0  0.00000000000E+00  0.00000000000E+00 -0.11628712368E+04  0.27555902429E+04  0.24982009674E+04 0.  0.
        4    1    3    3  502    0  0.45245245667E+03 -0.89253303211E+03  0.24320145451E+03  0.10297946394E+04  0.12699999809E+01 0.  1.
       -4    1    3    3    0  502 -0.45245245667E+03  0.89253303211E+03 -0.14060726914E+04  0.17257956036E+04  0.12699999809E+01 0. -1.
</event>
<event>
 5   0  0.6477703E-06  0.2492357E+04  0.7818609E-02  0.8405713E-01
       -1   -1    0    0    0  501  0.00000000000E+00  0.00000000000E+00  0.52765216066E+03  0.52765216068E+03  0.50400001928E-02 0. -1.
        1   -1    0    0  501    0  0.00000000000E+00  0.00000000000E+00 -0.29431530535E+04  0.29431530535E+04  0.50400001928E-02 0.  1.
    10030    2    1    2    0    0  0.00000000000E+00  0.00000000000E+00 -0.24155008928E+04  0.34708052141E+04  0.24923571717E+04 0.  0.
        5    1    3    3  502    0  0.10497088429E+03 -0.11892390221E+04 -0.71024546415E+03  0.13891648741E+04  0.46999998093E+01 0. -1.
       -5    1    3    3    0  502 -0.10497088429E+03  0.11892390221E+04 -0.17052554286E+04  0.20816403400E+04  0.46999998093E+01 0.  1.
</event>
<event>
 5   0  0.6104486E-06  0.2379521E+04  0.7818609E-02  0.8447210E-01
       -1   -1    0    0    0  501  0.00000000000E+00  0.00000000000E+00  0.96668524234E+03  0.96668524236E+03  0.50400001928E-02 0. -1.
        1   -1    0    0  501    0  0.00000000000E+00  0.00000000000E+00 -0.14643136204E+04  0.14643136204E+04  0.50400001928E-02 0.  1.
    10030    2    1    2    0    0  0.00000000000E+00  0.00000000000E+00 -0.49762837806E+03  0.24309988628E+04  0.23795212687E+04 0.  0.
        2    1    3    3  502    0  0.11872572870E+04  0.44327314992E+02 -0.31331148601E+03  0.12287021053E+04  0.25500000920E-02 0.  1.
       -2    1    3    3    0  502 -0.11872572870E+04 -0.44327314992E+02 -0.18431689205E+03  0.12022967575E+04  0.25500000920E-02 0. -1.
</event>
<event>
 5   0  0.1468512E-05  0.2494991E+04  0.7818609E-02  0.8404772E-01
       -2   -1    0    0    0  501  0.00000000000E+00  0.00000000000E+00  0.15081937042E+04  0.15081937042E+04  0.25500000920E-02 0.  1.
        2   -1    0    0  501    0  0.00000000000E+00  0.00000000000E+00 -0.10318605050E+04  0.10318605050E+04  0.25500000920E-02 0. -1.
    10030    2    1    2    0    0  0.00000000000E+00  0.00000000000E+00  0.47633319922E+03  0.25400542091E+04  0.24949913965E+04 0.  0.
        4    1    3    3  502    0 -0.97661735808E+03  0.36201327601E+03 -0.46082633932E+03  0.11389458302E+04  0.12699999809E+01 0. -1.
       -4    1    3    3    0  502  0.97661735808E+03 -0.36201327601E+03  0.93715953854E+03  0.14011083790E+04  0.12699999809E+01 0.  1.
</event>
<event>
 5   0  0.1501947E-05  0.2514399E+04  0.7818609E-02  0.8397874E-01
       -2   -1    0    0    0  501  0.00000000000E+00  0.00000000000E+00  0.68650924907E+03  0.68650924908E+03  0.25500000920E-02 0.  1.
        2   -1    0    0  501    0  0.00000000000E+00  0.00000000000E+00 -0.23023012804E+04  0.23023012804E+04  0.25500000920E-02 0. -1.
    10030    2    1    2    0    0  0.00000000000E+00  0.00000000000E+00 -0.16157920314E+04  0.29888105295E+04  0.25143994298E+04 0.  0.
        3    1    3    3  502    0  0.99249625341E+03 -0.31446590500E+03 -0.16455668089E+04  0.19472616031E+04  0.10100000352E+00 0. -1.
       -3    1    3    3    0  502 -0.99249625341E+03  0.31446590500E+03  0.29774777501E+02  0.10415489264E+04  0.10100000352E+00 0.  1.
</event>
<event>
 5   0  0.5164625E-06  0.2488111E+04  0.7818609E-02  0.8407233E-01
        3   -1    0    0  501    0  0.00000000000E+00  0.00000000000E+00  0.86322763994E+03  0.86322764585E+03  0.10100000352E+00 0. -1.
       -3   -1    0    0    0  501  0.00000000000E+00  0.00000000000E+00 -0.17928918716E+04  0.17928918745E+04  0.10100000352E+00 0.  1.
    10030    2    1    2    0    0  0.00000000000E+00  0.00000000000E+00 -0.92966423169E+03  0.26561195203E+04  0.24881107939E+04 0.  0.
        3    1    3    3  502    0  0.48821948257E+03  0.94054804049E+03  0.23085078493E+03  0.10845648781E+04  0.10100000352E+00 0. -1.
       -3    1    3    3    0  502 -0.48821948257E+03 -0.94054804049E+03 -0.11605150166E+04  0.15715546423E+04  0.10100000352E+00 0.  1.
</event>
<event>
 5   0  0.1526824E-05  0.2507534E+04  0.7818609E-02  0.8400307E-01
        2   -1    0    0  501    0  0.00000000000E+00  0.00000000000E+00  0.19812386044E+04  0.19812386044E+04  0.25500000920E-02 0. -1.
       -2   -1    0    0    0  501  0.00000000000E+00  0.00000000000E+00 -0.79340838338E+03  0.79340838338E+03  0.25500000920E-02 0.  1.
    10030    2    1    2    0    0  0.00000000000E+00  0.00000000000E+00  0.11878302210E+04  0.27746469878E+04  0.25075337032E+04 0.  0.
        2    1    3    3  502    0  0.11685868407E+04  0.40107942823E+03  0.35795958628E+03  0.12863106069E+04  0.25500000920E-02 0.  1.
       -2    1    3    3    0  502 -0.11685868407E+04 -0.40107942823E+03  0.82987063473E+03  0.14883363808E+04  0.25500000920E-02 0. -1.
</event>
<event>
 5   0  0.1468512E-05  0.2505237E+04  0.7818609E-02  0.8401122E-01
        2   -1    0    0  501    0  0.00000000000E+00  0.00000000000E+00  0.16029343605E+04  0.16029343605E+04  0.25500000920E-02 0. -1.
       -2   -1    0    0    0  501  0.00000000000E+00  0.00000000000E+00 -0.97886269659E+03  0.97886269659E+03  0.25500000920E-02 0.  1.
    10030    2    1    2    0    0  0.00000000000E+00  0.00000000000E+00  0.62407166388E+03  0.25817970571E+04  0.25052366360E+04 0.  0.
        4    1    3    3  502    0 -0.19436599743E+03 -0.11761507964E+04  0.70842281542E+03  0.13867131409E+04  0.12699999809E+01 0. -1.
       -4    1    3    3    0  502  0.19436599743E+03  0.11761507964E+04 -0.84351151544E+02  0.11950839161E+04  0.12699999809E+01 0.  1.
</event>
<event>
 5   0  0.6290861E-06  0.2497682E+04  0.7818609E-02  0.8403812E-01
       -1   -1    0    0    0  501  0.00000000000E+00  0.00000000000E+00  0.60176774742E+03  0.60176774744E+03  0.50400001928E-02 0. -1.
        1   -1    0    0  501    0  0.00000000000E+00  0.00000000000E+00 -0.25917037686E+04  0.25917037686E+04  0.50400001928E-02 0.  1.
    10030    2    1    2    0    0  0.00000000000E+00  0.00000000000E+00 -0.19899360212E+04  0.31934715161E+04  0.24976819164E+04 0.  0.
        1    1    3    3  502    0 -0.71319526866E+03 -0.64081907040E+03 -0.20180727552E+04  0.22342592100E+04  0.50400001928E-02 0.  1.
       -1    1    3    3    0  502  0.71319526866E+03  0.64081907040E+03  0.28136733999E+02  0.95921230604E+03  0.50400001928E-02 0. -1.
</event>
<event>
 5   0  0.1526824E-05  0.2514931E+04  0.7818609E-02  0.8397685E-01
        2   -1    0    0  501    0  0.00000000000E+00  0.00000000000E+00  0.13729779026E+04  0.13729779026E+04  0.25500000920E-02 0. -1.
       -2   -1    0    0    0  501  0.00000000000E+00  0.00000000000E+00 -0.11516716670E+04  0.11516716670E+04  0.25500000920E-02 0.  1.
    10030    2    1    2    0    0  0.00000000000E+00  0.00000000000E+00  0.22130623560E+03  0.25246495696E+04  0.25149312116E+04 0.  0.
        2    1    3    3  502    0 -0.16174288210E+03  0.11439638248E+04  0.60896405541E+03  0.13060058244E+04  0.25500000920E-02 0. -1.
       -2    1    3    3    0  502  0.16174288210E+03 -0.11439638248E+04 -0.38765781981E+03  0.12186437452E+04  0.25500000920E-02 0.  1.
</event>
<event>
 5   0  0.6477703E-06  0.2501663E+04  0.7818609E-02  0.8402393E-01
        1   -1    0    0  501    0  0.00000000000E+00  0.00000000000E+00  0.54177467501E+03  0.54177467503E+03  0.50400001928E-02 0. -1.
       -1   -1    0    0    0  501  0.00000000000E+00  0.00000000000E+00 -0.28878777066E+04  0.28878777066E+04  0.50400001928E-02 0.  1.
    10030    2    1    2    0    0  0.00000000000E+00  0.00000000000E+00 -0.23461030316E+04  0.34296523816E+04  0.25016626519E+04 0.  0.
        5    1    3    3  502    0 -0.17101485436E+03 -0.11501678521E+04 -0.18049159548E+04  0.21470621468E+04  0.46999998093E+01 0.  1.
       -5    1    3    3    0  502  0.17101485436E+03  0.11501678521E+04 -0.54118707676E+03  0.12825902348E+04  0.46999998093E+01 0. -1.
</event>
<event>
 5   0  0.6105353E-06  0.2504528E+04  0.7818609E-02  0.8401374E-01
       -1   -1    0    0    0  501  0.00000000000E+00  0.00000000000E+00  0.12260241224E+04  0.12260241224E+04  0.50400001928E-02 0. -1.
        1   -1    0    0  501    0  0.00000000000E+00  0.00000000000E+00 -0.12790650547E+04  0.12790650547E+04  0.50400001928E-02 0.  1.
    10030    2    1    2    0    0  0.00000000000E+00  0.00000000000E+00 -0.53040932287E+02  0.25050891771E+04  0.25045275892E+04 0.  0.
        3    1    3    3  502    0 -0.16141562774E+03  0.10089368047E+04 -0.75066907572E+03  0.12678771834E+04  0.10100000352E+00 0.  1.
       -3    1    3    3    0  502  0.16141562774E+03 -0.10089368047E+04  0.69762814343E+03  0.12372119937E+04  0.10100000352E+00 0. -1.
</event>
<event>
 5   0  0.1550483E-05  0.2488518E+04  0.7818609E-02  0.8407088E-01
        2   -1    0    0  501    0  0.00000000000E+00  0.00000000000E+00  0.16700919144E+04  0.16700919144E+04  0.25500000920E-02 0. -1.
       -2   -1    0    0    0  501  0.00000000000E+00  0.00000000000E+00 -0.92700296683E+03  0.92700296683E+03  0.25500000920E-02 0.  1.
    10030    2    1    2    0    0  0.00000000000E+00  0.00000000000E+00  0.74308894761E+03  0.25970948813E+04  0.24885177593E+04 0.  0.
        5    1    3    3  502    0  0.10150658582E+04  0.19954351836E+03 -0.34998276776E+03  0.10921017992E+04  0.46999998093E+01 0.  1.
       -5    1    3    3    0  502 -0.10150658582E+04 -0.19954351836E+03  0.10930717154E+04  0.15049930821E+04  0.46999998093E+01 0. -1.
</event>
<event>
 5   0  0.6477703E-06  0.2490611E+04  0.7818609E-02  0.8406338E-01
        1   -1    0    0  501    0  0.00000000000E+00  0.00000000000E+00  0.15689563765E+04  0.15689563765E+04  0.50400001928E-02 0.  1.
       -1   -1    0    0    0  501  0.00000000000E+00  0.00000000000E+00 -0.98841906457E+03  0.98841906459E+03  0.50400001928E-02 0. -1.
    10030    2    1    2    0    0  0.00000000000E+00  0.00000000000E+00  0.58053731189E+03  0.25573754411E+04  0.24906114864E+04 0.  0.
        5    1    3    3  502    0  0.93701034215E+03 -0.41125966073E+03  0.10189694134E+04  0.14441065214E+04  0.46999998093E+01 0.  1.
       -5    1    3    3    0  502 -0.93701034215E+03  0.41125966073E+03 -0.43843210147E+03  0.11132689196E+04  0.46999998093E+01 0. -1.
</event>
<event>
 5   0  0.1501947E-05  0.2560060E+04  0.7818609E-02  0.8381896E-01
        2   -1    0    0  501    0  0.00000000000E+00  0.00000000000E+00  0.15054154245E+04  0.15054154245E+04  0.25500000920E-02 0.  1.
       -2   -1    0    0    0  501  0.00000000000E+00  0.00000000000E+00 -0.10883882269E+04  0.10883882269E+04  0.25500000920E-02 0. -1.
    10030    2    1    2    0    0  0.00000000000E+00  0.00000000000E+00  0.41702719758E+03  0.25938036514E+04  0.25600597061E+04 0.  0.
        3    1    3    3  502    0 -0.12570312489E+03  0.41172792283E+03  0.14298716842E+04  0.14932696346E+04  0.10100000352E+00 0.  1.
       -3    1    3    3    0  502  0.12570312489E+03 -0.41172792283E+03 -0.10128444866E+04  0.11005340169E+04  0.10100000352E+00 0. -1.
</event>
<event>
 5   0  0.6290861E-06  0.2501236E+04  0.7818609E-02  0.8402545E-01
       -1   -1    0    0    0  501  0.00000000000E+00  0.00000000000E+00  0.11149240049E+04  0.11149240049E+04  0.50400001928E-02 0.  1.
        1   -1    0    0  501    0  0.00000000000E+00  0.00000000000E+00 -0.14028267413E+04  0.14028267414E+04  0.50400001928E-02 0. -1.
    10030    2    1    2    0    0  0.00000000000E+00  0.00000000000E+00 -0.28790273645E+03  0.25177507463E+04  0.25012358615E+04 0.  0.
        1    1    3    3  502    0 -0.47347825648E+03 -0.88128620807E+03 -0.89937175939E+03  0.13452570764E+04  0.50400001928E-02 0. -1.
       -1    1    3    3    0  502  0.47347825648E+03  0.88128620807E+03  0.61146902295E+03  0.11724936699E+04  0.50400001928E-02 0.  1.
</event>
<event>
 5   0  0.6477703E-06  0.2496372E+04  0.7818609E-02  0.8404279E-01
        1   -1    0    0  501    0  0.00000000000E+00  0.00000000000E+00  0.23056872393E+04  0.23056872393E+04  0.50400001928E-02 0.  1.
       -1   -1    0    0    0  501  0.00000000000E+00  0.00000000000E+00 -0.67570671471E+03  0.67570671473E+03  0.50400001928E-02 0. -1.
    10030    2    1    2    0    0  0.00000000000E+00  0.00000000000E+00  0.16299805246E+04  0.29813939541E+04  0.24963720473E+04 0.  0.
        5    1    3    3  502    0  0.54289433476E+03  0.64186031921E+03 -0.28688602056E+03  0.88828182852E+03  0.46999998093E+01 0. -1.
       -5    1    3    3    0  502 -0.54289433476E+03 -0.64186031921E+03  0.19168665452E+04  0.20931121255E+04  0.46999998093E+01 0.  1.
</event>
<event>
 5   0  0.1501947E-05  0.2503342E+04  0.7818609E-02  0.8401796E-01
        2   -1    0    0  501    0  0.00000000000E+00  0.00000000000E+00  0.10612105512E+04  0.10612105512E+04  0.25500000920E-02 0.  1.
       -2   -1    0    0    0  501  0.00000000000E+00  0.00000000000E+00 -0.14763141139E+04  0.14763141139E+04  0.25500000920E-02 0. -1.
    10030    2    1    2    0    0  0.00000000000E+00  0.00000000000E+00 -0.41510356271E+03  0.25375246652E+04  0.25033418581E+04 0.  0.
        3    1    3    3  502    0 -0.30167341009E+03  0.68777006020E+03  0.80744306659E+03  0.11027233642E+04  0.10100000352E+00 0.  1.
       -3    1    3    3    0  502  0.30167341009E+03 -0.68777006020E+03 -0.12225466293E+04  0.14348013009E+04  0.10100000352E+00 0. -1.
</event>
<event>
 5   0  0.1550483E-05  0.2496444E+04  0.7818609E-02  0.8404253E-01
       -2   -1    0    0    0  501  0.00000000000E+00  0.00000000000E+00  0.14478461091E+04  0.14478461091E+04  0.25500000920E-02 0.  1.
        2   -1    0    0  501    0  0.00000000000E+00  0.00000000000E+00 -0.10761214319E+04  0.10761214319E+04  0.25500000920E-02 0. -1.
    10030    2    1    2    0    0  0.00000000000E+00  0.00000000000E+00  0.37172467717E+03  0.25239675410E+04  0.24964440536E+04 0.  0.
        5    1    3    3  502    0 -0.14079599194E+03  0.41085732037E+03 -0.99725685251E+03  0.10877364428E+04  0.46999998093E+01 0. -1.
       -5    1    3    3    0  502  0.14079599194E+03 -0.41085732037E+03  0.13689815297E+04  0.14362310983E+04  0.46999998093E+01 0.  1.
</event>
<event>
 5   0  0.1550483E-05  0.2442937E+04  0.7818609E-02  0.8423601E-01
       -2   -1    0    0    0  501  0.00000000000E+00  0.00000000000E+00  0.82964754628E+03  0.82964754628E+03  0.25500000920E-02 0.  1.
        2   -1    0    0  501    0  0.00000000000E+00  0.00000000000E+00 -0.17983356516E+04  0.17983356516E+04  0.25500000920E-02 0. -1.
    10030    2    1    2    0    0  0.00000000000E+00  0.00000000000E+00 -0.96868810533E+03  0.26279831979E+04  0.24429365614E+04 0.  0.
        5    1    3    3  502    0 -0.11328704410E+04  0.37448114338E+03 -0.76554684325E+03  0.14176443920E+04  0.46999998093E+01 0. -1.
       -5    1    3    3    0  502  0.11328704410E+04 -0.37448114338E+03 -0.20314126208E+03  0.12103388059E+04  0.46999998093E+01 0.  1.
</event>
<event>
 5   0  0.6346420E-06  0.2374569E+04  0.7818609E-02  0.8449086E-01
       -1   -1    0    0    0  501  0.00000000000E+00  0.00000000000E+00  0.11877012386E+04  0.11877012386E+04  0.50400001928E-02 0.  1.
        1   -1    0    0  501    0  0.00000000000E+00  0.00000000000E+00 -0.11868683837E+04  0.11868683837E+04  0.50400001928E-02 0. -1.
    10030    2    1    2    0    0  0.00000000000E+00  0.00000000000E+00  0.83285487387E+00  0.23745696223E+04  0.23745694763E+04 0.  0.
        4    1    3    3  502    0  0.75222802719E+03  0.58480250572E+02 -0.91630413811E+03  0.11869632812E+04  0.12699999809E+01 0. -1.
       -4    1    3    3    0  502 -0.75222802719E+03 -0.58480250572E+02  0.91713699299E+03  0.11876063411E+04  0.12699999809E+01 0.  1.
</event>
<event>
 5   0  0.5164625E-06  0.2475897E+04  0.7818609E-02  0.8411623E-01
        3   -1    0    0  501    0  0.00000000000E+00  0.00000000000E+00  0.12472365428E+04  0.12472365469E+04  0.10100000352E+00 0.  1.
       -3   -1    0    0    0  501  0.00000000000E+00  0.00000000000E+00 -0.12287296265E+04  0.12287296307E+04  0.10100000352E+00 0. -1.
    10030    2    1    2    0    0  0.00000000000E+00  0.00000000000E+00  0.18506916246E+02  0.24759661776E+04  0.24758970105E+04 0.  0.
        4    1    3    3  502    0 -0.11328152755E+04  0.26634964362E+03  0.43152383355E+03  0.12411394011E+04  0.12699999809E+01 0. -1.
       -4    1    3    3    0  502  0.11328152755E+04 -0.26634964362E+03 -0.41301691730E+03  0.12348267765E+04  0.12699999809E+01 0.  1.
</event>
<event>
 5   0  0.6346420E-06  0.2534702E+04  0.7818609E-02  0.8390726E-01
       -1   -1    0    0    0  501  0.00000000000E+00  0.00000000000E+00  0.20474564518E+04  0.20474564518E+04  0.50400001928E-02 0.  1.
        1   -1    0    0  501    0  0.00000000000E+00  0.00000000000E+00 -0.78447514151E+03  0.78447514152E+03  0.50400001928E-02 0. -1.
    10030    2    1    2    0    0  0.00000000000E+00  0.00000000000E+00  0.12629813103E+04  0.28319315933E+04  0.25347021046E+04 0.  0.
        4    1    3    3  502    0  0.12330567966E+03  0.20388496244E+03  0.20222056223E+04  0.20361951185E+04  0.12699999809E+01 0.  1.
       -4    1    3    3    0  502 -0.12330567966E+03 -0.20388496244E+03 -0.75922431204E+03  0.79573647487E+03  0.12699999809E+01 0. -1.
</event>
<event>
 5   0  0.6105353E-06  0.2520830E+04  0.7818609E-02  0.8395602E-01
        1   -1    0    0  501    0  0.00000000000E+00  0.00000000000E+00  0.29889538631E+04  0.29889538631E+04  0.50400001928E-02 0.  1.
       -1   -1    0    0    0  501  0.00000000000E+00  0.00000000000E+00 -0.53150589151E+03  0.53150589153E+03  0.50400001928E-02 0. -1.
    10030    2    1    2    0    0  0.00000000000E+00  0.00000000000E+00  0.24574479716E+04  0.35204597547E+04  0.25208304883E+04 0.  0.
        3    1    3    3  502    0 -0.61123942542E+03 -0.71316219758E+03  0.54932069605E+02  0.94086741771E+03  0.10100000352E+00 0. -1.
       -3    1    3    3    0  502  0.61123942542E+03  0.71316219758E+03  0.24025159020E+04  0.25795923369E+04  0.10100000352E+00 0.  1.
</event>
<event>
 5   0  0.6290861E-06  0.2405582E+04  0.7818609E-02  0.8437417E-01
        1   -1    0    0  501    0  0.00000000000E+00  0.00000000000E+00  0.11270176168E+04  0.11270176169E+04  0.50400001928E-02 0.  1.
       -1   -1    0    0    0  501  0.00000000000E+00  0.00000000000E+00 -0.12836593878E+04  0.12836593878E+04  0.50400001928E-02 0. -1.
    10030    2    1    2    0    0  0.00000000000E+00  0.00000000000E+00 -0.15664177096E+03  0.24106770047E+04  0.24055824610E+04 0.  0.
        1    1    3    3  502    0 -0.10308787024E+04  0.28619385701E+03  0.47246927816E+03  0.11695490762E+04  0.50400001928E-02 0.  1.
       -1    1    3    3    0  502  0.10308787024E+04 -0.28619385701E+03 -0.62911104913E+03  0.12411279285E+04  0.50400001928E-02 0. -1.
</event>
<event>
 5   0  0.1501947E-05  0.2495910E+04  0.7818609E-02  0.8404444E-01
       -2   -1    0    0    0  501  0.00000000000E+00  0.00000000000E+00  0.78254048846E+03  0.78254048846E+03  0.25500000920E-02 0. -1.
        2   -1    0    0  501    0  0.00000000000E+00  0.00000000000E+00 -0.19901738294E+04  0.19901738294E+04  0.25500000920E-02 0.  1.
    10030    2    1    2    0    0  0.00000000000E+00  0.00000000000E+00 -0.12076333409E+04  0.27727143178E+04  0.24959099347E+04 0.  0.
        3    1    3    3  502    0  0.13182244900E+03 -0.50024283350E+03 -0.18654484212E+04  0.19358506846E+04  0.10100000352E+00 0.  1.
       -3    1    3    3    0  502 -0.13182244900E+03  0.50024283350E+03  0.65781508033E+03  0.83686363324E+03  0.10100000352E+00 0. -1.
</event>
<event>
 5   0  0.1550483E-05  0.2495409E+04  0.7818609E-02  0.8404623E-01
        2   -1    0    0  501    0  0.00000000000E+00  0.00000000000E+00  0.18427328068E+04  0.18427328068E+04  0.25500000920E-02 0.  1.
       -2   -1    0    0    0  501  0.00000000000E+00  0.00000000000E+00 -0.84481403932E+03  0.84481403933E+03  0.25500000920E-02 0. -1.
    10030    2    1    2    0    0  0.00000000000E+00  0.00000000000E+00  0.99791876750E+03  0.26875468462E+04  0.24954090213E+04 0.  0.
        5    1    3    3  502    0 -0.11345946932E+04  0.49316619586E+02 -0.57554234050E+02  0.11371331614E+04  0.46999998093E+01 0. -1.
       -5    1    3    3    0  502  0.11345946932E+04 -0.49316619586E+02  0.10554730016E+04  0.15504136848E+04  0.46999998093E+01 0.  1.
</event>
<event>
 5   0  0.1550483E-05  0.2475070E+04  0.7818609E-02  0.8411921E-01
       -2   -1    0    0    0  501  0.00000000000E+00  0.00000000000E+00  0.55588699817E+03  0.55588699817E+03  0.25500000920E-02 0. -1.
        2   -1    0    0  501    0  0.00000000000E+00  0.00000000000E+00 -0.27550441691E+04  0.27550441691E+04  0.25500000920E-02 0.  1.
    10030    2    1    2    0    0  0.00000000000E+00  0.00000000000E+00 -0.21991571710E+04  0.33109311673E+04  0.24750702883E+04 0.  0.
        5    1    3    3  502    0 -0.62284799577E+03 -0.84444655025E+02  0.32645037614E+03  0.70828134500E+03  0.46999998093E+01 0. -1.
       -5    1    3    3    0  502  0.62284799577E+03  0.84444655025E+02 -0.25256075471E+04  0.26026498223E+04  0.46999998093E+01 0.  1.
</event>
<event>
 5   0  0.6290861E-06  0.2504282E+04  0.7818609E-02  0.8401462E-01
       -1   -1    0    0    0  501  0.00000000000E+00  0.00000000000E+00  0.11059017842E+04  0.11059017842E+04  0.50400001928E-02 0. -1.
        1   -1    0    0  501    0  0.00000000000E+00  0.00000000000E+00 -0.14177176323E+04  0.14177176323E+04  0.50400001928E-02 0.  1.
    10030    2    1    2    0    0  0.00000000000E+00  0.00000000000E+00 -0.31181584808E+03  0.25236194165E+04  0.25042815010E+04 0.  0.
        1    1    3    3  502    0 -0.93246251258E+03 -0.41724591233E+03  0.57375233172E+03  0.11716536292E+04  0.50400001928E-02 0. -1.
       -1    1    3    3    0  502  0.93246251258E+03  0.41724591233E+03 -0.88556817980E+03  0.13519657872E+04  0.50400001928E-02 0.  1.
</event>
<event>
 5   0  0.1572732E-05  0.2485539E+04  0.7818609E-02  0.8408155E-01
        2   -1    0    0  501    0  0.00000000000E+00  0.00000000000E+00  0.23131297941E+04  0.23131297941E+04  0.25500000920E-02 0.  1.
       -2   -1    0    0    0  501  0.00000000000E+00  0.00000000000E+00 -0.66769984726E+03  0.66769984726E+03  0.25500000920E-02 0. -1.
    10030    2    1    2    0    0  0.00000000000E+00  0.00000000000E+00  0.16454299468E+04  0.29808296413E+04  0.24855393058E+04 0.  0.
        1    1    3    3  502    0  0.21672438282E+03 -0.25110154949E+03 -0.61363403751E+03  0.69754439162E+03  0.50400001928E-02 0. -1.
       -1    1    3    3    0  502 -0.21672438282E+03  0.25110154949E+03  0.22590639843E+04  0.22832852497E+04  0.50400001928E-02 0.  1.
</event>
<event>
 5   0  0.1572732E-05  0.2532820E+04  0.7818609E-02  0.8391386E-01
        2   -1    0    0  501    0  0.00000000000E+00  0.00000000000E+00  0.13773495808E+04  0.13773495808E+04  0.25500000920E-02 0. -1.
       -2   -1    0    0    0  501  0.00000000000E+00  0.00000000000E+00 -0.11644064528E+04  0.11644064528E+04  0.25500000920E-02 0.  1.
    10030    2    1    2    0    0  0.00000000000E+00  0.00000000000E+00  0.21294312806E+03  0.25417560336E+04  0.25328203566E+04 0.  0.
        1    1    3    3  502    0 -0.11465235402E+04  0.53653963817E+03  0.68873024977E+02  0.12677280880E+04  0.50400001928E-02 0.  1.
       -1    1    3    3    0  502  0.11465235402E+04 -0.53653963817E+03  0.14407010308E+03  0.12740279456E+04  0.50400001928E-02 0. -1.
</event>
<event>
 5   0  0.6105353E-06  0.2399624E+04  0.7818609E-02  0.8439644E-01
       -1   -1    0    0    0  501  0.00000000000E+00  0.00000000000E+00  0.14328571013E+04  0.14328571014E+04  0.50400001928E-02 0. -1.
        1   -1    0    0  501    0  0.00000000000E+00  0.00000000000E+00 -0.10046699661E+04  0.10046699661E+04  0.50400001928E-02 0.  1.
    10030    2    1    2    0    0  0.00000000000E+00  0.00000000000E+00  0.42818713523E+03  0.24375270675E+04  0.23996237167E+04 0.  0.
        3    1    3    3  502    0  0.77502124534E+03  0.70061091774E+03 -0.38516975402E+03  0.11134942022E+04  0.10100000352E+00 0.  1.
       -3    1    3    3    0  502 -0.77502124534E+03 -0.70061091774E+03  0.81335688925E+03  0.13240328653E+04  0.10100000352E+00 0. -1.
</event>
<event>
 5   0  0.1468512E-05  0.2450410E+04  0.7818609E-02  0.8420868E-01
       -2   -1    0    0    0  501  0.00000000000E+00  0.00000000000E+00  0.85637807933E+03  0.85637807933E+03  0.25500000920E-02 0.  1.
        2   -1    0    0  501    0  0.00000000000E+00  0.00000000000E+00 -0.17528798282E+04  0.17528798282E+04  0.25500000920E-02 0. -1.
    10030    2    1    2    0    0  0.00000000000E+00  0.00000000000E+00 -0.89650174885E+03  0.26092579075E+04  0.24504104640E+04 0.  0.
        4    1    3    3  502    0 -0.10255161880E+04  0.65150505911E+03 -0.27994132623E+03  0.12468003260E+04  0.12699999809E+01 0.  1.
       -4    1    3    3    0  502  0.10255161880E+04 -0.65150505911E+03 -0.61656042263E+03  0.13624575815E+04  0.12699999809E+01 0. -1.
</event>
<event>
 5   0  0.6104486E-06  0.2514363E+04  0.7818609E-02  0.8397887E-01
       -1   -1    0    0    0  501  0.00000000000E+00  0.00000000000E+00  0.10943051617E+04  0.10943051617E+04  0.50400001928E-02 0. -1.
        1   -1    0    0  501    0  0.00000000000E+00  0.00000000000E+00 -0.14443001220E+04  0.14443001220E+04  0.50400001928E-02 0.  1.
    10030    2    1    2    0    0  0.00000000000E+00  0.00000000000E+00 -0.34999496027E+03  0.25386052837E+04  0.25143628048E+04 0.  0.
        2    1    3    3  502    0  0.74554671047E+03 -0.67927435510E+03 -0.93273436252E+03  0.13737710646E+04  0.25500000920E-02 0.  1.
       -2    1    3    3    0  502 -0.74554671047E+03  0.67927435510E+03  0.58273940225E+03  0.11648342191E+04  0.25500000920E-02 0. -1.
</event>
<event>
 5   0  0.1526824E-05  0.2506047E+04  0.7818609E-02  0.8400834E-01
       -2   -1    0    0    0  501  0.00000000000E+00  0.00000000000E+00  0.68065097966E+03  0.68065097966E+03  0.25500000920E-02 0. -1.
        2   -1    0    0  501    0  0.00000000000E+00  0.00000000000E+00 -0.23067150495E+04  0.23067150495E+04  0.25500000920E-02 0.  1.
    10030    2    1    2    0    0  0.00000000000E+00  0.00000000000E+00 -0.16260640699E+04  0.29873660292E+04  0.25060469734E+04 0.  0.
        2    1    3    3  502    0  0.44364687878E+03  0.94382655762E+03 -0.16410112133E+04  0.19443633729E+04  0.25500000920E-02 0.  1.
       -2    1    3    3    0  502 -0.44364687878E+03 -0.94382655762E+03  0.14947143374E+02  0.10430026563E+04  0.25500000920E-02 0. -1.
</event>
<event>
 5   0  0.6290861E-06  0.2499345E+04  0.7818609E-02  0.8403219E-01
       -1   -1    0    0    0  501  0.00000000000E+00  0.00000000000E+00  0.10163863070E+04  0.10163863070E+04  0.50400001928E-02 0. -1.
        1   -1    0    0  501    0  0.00000000000E+00  0.00000000000E+00 -0.15365031544E+04  0.15365031544E+04  0.50400001928E-02 0.  1.
    10030    2    1    2    0    0  0.00000000000E+00  0.00000000000E+00 -0.52011684733E+03  0.25528894614E+04  0.24993445275E+04 0.  0.
        1    1    3    3  502    0  0.41620801691E+03 -0.74391696040E+03 -0.11934402019E+04  0.14666086979E+04  0.50400001928E-02 0.  1.
       -1    1    3    3    0  502 -0.41620801691E+03  0.74391696040E+03  0.67332335455E+03  0.10862807635E+04  0.50400001928E-02 0. -1.
</event>
<event>
 5   0  0.1526824E-05  0.2494153E+04  0.7818609E-02  0.8405072E-01
        2   -1    0    0  501    0  0.00000000000E+00  0.00000000000E+00  0.19662519784E+04  0.19662519784E+04  0.25500000920E-02 0.  1.
       -2   -1    0    0    0  501  0.00000000000E+00  0.00000000000E+00 -0.79094619176E+03  0.79094619176E+03  0.25500000920E-02 0. -1.
    10030    2    1    2    0    0  0.00000000000E+00  0.00000000000E+00  0.11753057866E+04  0.27571981701E+04  0.24941527734E+04 0.  0.
        2    1    3    3  502    0 -0.24715795658E+03 -0.48738716901E+03 -0.65153630128E+03  0.85037218905E+03  0.25500000920E-02 0. -1.
       -2    1    3    3    0  502  0.24715795658E+03  0.48738716901E+03  0.18268420879E+04  0.19068259811E+04  0.25500000920E-02 0.  1.
</event>
<event>
 5   0  0.1550483E-05  0.2524529E+04  0.7818609E-02  0.8394299E-01
       -2   -1    0    0    0  501  0.00000000000E+00  0.00000000000E+00  0.83816654887E+03  0.83816654888E+03  0.25500000920E-02 0.  1.
        2   -1    0    0  501    0  0.00000000000E+00  0.00000000000E+00 -0.19009481486E+04  0.19009481486E+04  0.25500000920E-02 0. -1.
    10030    2    1    2    0    0  0.00000000000E+00  0.00000000000E+00 -0.10627815997E+04  0.27391146974E+04  0.25245285891E+04 0.  0.
        5    1    3    3  502    0  0.15059164600E+03 -0.15915404348E+03  0.81736612142E+03  0.84623715343E+03  0.46999998093E+01 0.  1.
       -5    1    3    3    0  502 -0.15059164600E+03  0.15915404348E+03 -0.18801477211E+04  0.18928775440E+04  0.46999998093E+01 0. -1.
</event>
<event>
 5   0  0.1550483E-05  0.2518574E+04  0.7818609E-02  0.8396398E-01
       -2   -1    0    0    0  501  0.00000000000E+00  0.00000000000E+00  0.11133348174E+04  0.11133348174E+04  0.25500000920E-02 0. -1.
        2   -1    0    0  501    0  0.00000000000E+00  0.00000000000E+00 -0.14243722675E+04  0.14243722675E+04  0.25500000920E-02 0.  1.
    10030    2    1    2    0    0  0.00000000000E+00  0.00000000000E+00 -0.31103745014E+03  0.25377070849E+04  0.25185735950E+04 0.  0.
        5    1    3    3  502    0  0.43988389825E+03 -0.11637136116E+04 -0.35207487207E+03  0.12929447085E+04  0.46999998093E+01 0.  1.
       -5    1    3    3    0  502 -0.43988389825E+03  0.11637136116E+04  0.41037421935E+02  0.12447623764E+04  0.46999998093E+01 0. -1.
</event>
<event>
 5   0  0.5164625E-06  0.2520914E+04  0.7818609E-02  0.8395573E-01
        4   -1    0    0  501    0  0.00000000000E+00  0.00000000000E+00  0.11358010115E+04  0.11358017215E+04  0.12699999809E+01 0.  1.
       -4   -1    0    0    0  501  0.00000000000E+00  0.00000000000E+00 -0.13987926318E+04  0.13987932084E+04  0.12699999809E+01 0. -1.
    10030    2    1    2    0    0  0.00000000000E+00  0.00000000000E+00 -0.26299162036E+03  0.25345949299E+04  0.25209138950E+04 0.  0.
        4    1    3    3  502    0  0.50196527042E+03  0.52274618288E+03 -0.11683623252E+04  0.13748835733E+04  0.12699999809E+01 0. -1.
       -4    1    3    3    0  502 -0.50196527042E+03 -0.52274618288E+03  0.90537070484E+03  0.11597113565E+04  0.12699999809E+01 0.  1.
</event>
<event>
 5   0  0.6105353E-06  0.2477452E+04  0.7818609E-02  0.8411063E-01
        1   -1    0    0  501    0  0.00000000000E+00  0.00000000000E+00  0.12547204295E+04  0.12547204296E+04  0.50400001928E-02 0. -1.
       -1   -1    0    0    0  501  0.00000000000E+00  0.00000000000E+00 -0.12229351692E+04  0.12229351692E+04  0.50400001928E-02 0.  1.
    10030    2    1    2    0    0  0.00000000000E+00  0.00000000000E+00  0.31785260313E+02  0.24776555988E+04  0.24774517076E+04 0.  0.
        3    1    3    3  502    0  0.58555133291E+03  0.10764250064E+04  0.19723756424E+03  0.12411542309E+04  0.10100000352E+00 0. -1.
       -3    1    3    3    0  502 -0.58555133291E+03 -0.10764250064E+04 -0.16545230393E+03  0.12365013679E+04  0.10100000352E+00 0.  1.
</event>
<event>
 5   0  0.6105353E-06  0.2503955E+04  0.7818609E-02  0.8401578E-01
        1   -1    0    0  501    0  0.00000000000E+00  0.00000000000E+00  0.11853928082E+04  0.11853928082E+04  0.50400001928E-02 0.  1.
       -1   -1    0    0    0  501  0.00000000000E+00  0.00000000000E+00 -0.13223026125E+04  0.13223026125E+04  0.50400001928E-02 0. -1.
    10030    2    1    2    0    0  0.00000000000E+00  0.00000000000E+00 -0.13690980434E+03  0.25076954207E+04  0.25039552768E+04 0.  0.
        3    1    3    3  502    0  0.11067274616E+04 -0.21390253837E+02 -0.65426004245E+03  0.12858302496E+04  0.10100000352E+00 0. -1.
       -3    1    3    3    0  502 -0.11067274616E+04  0.21390253837E+02  0.51735023811E+03  0.12218651711E+04  0.10100000352E+00 0.  1.
</event>
<event>
 5   0  0.6105353E-06  0.2504909E+04  0.7818609E-02  0.8401239E-01
        1   -1    0    0  501    0  0.00000000000E+00  0.00000000000E+00  0.18351189047E+04  0.18351189047E+04  0.50400001928E-02 0.  1.
       -1   -1    0    0    0  501  0.00000000000E+00  0.00000000000E+00 -0.85479065001E+03  0.85479065002E+03  0.50400001928E-02 0. -1.
    10030    2    1    2    0    0  0.00000000000E+00  0.00000000000E+00  0.98032825467E+03  0.26899095547E+04  0.25049091651E+04 0.  0.
        3    1    3    3  502    0 -0.38728194976E+03  0.10466631224E+04  0.11006122524E+04  0.15674304900E+04  0.10100000352E+00 0.  1.
       -3    1    3    3    0  502  0.38728194976E+03 -0.10466631224E+04 -0.12028399777E+03  0.11224790647E+04  0.10100000352E+00 0. -1.
</event>
<event>
 5   0  0.1572732E-05  0.2483727E+04  0.7818609E-02  0.8408806E-01
       -2   -1    0    0    0  501  0.00000000000E+00  0.00000000000E+00  0.13168741460E+04  0.13168741460E+04  0.25500000920E-02 0. -1.
        2   -1    0    0  501    0  0.00000000000E+00  0.00000000000E+00 -0.11711255671E+04  0.11711255671E+04  0.25500000920E-02 0.  1.
    10030    2    1    2    0    0  0.00000000000E+00  0.00000000000E+00  0.14574857896E+03  0.24879997131E+04  0.24837270229E+04 0.  0.
        1    1    3    3  502    0 -0.11127148599E+03  0.93096122943E+03  0.88861836996E+03  0.12917866549E+04  0.50400001928E-02 0. -1.
       -1    1    3    3    0  502  0.11127148599E+03 -0.93096122943E+03 -0.74286979101E+03  0.11962130582E+04  0.50400001928E-02 0.  1.
</event>
<event>
 5   0  0.6477703E-06  0.2555610E+04  0.7818609E-02  0.8383438E-01
       -1   -1    0    0    0  501  0.00000000000E+00  0.00000000000E+00  0.89204621760E+03  0.89204621761E+03  0.50400001928E-02 0. -1.
        1   -1    0    0  501    0  0.00000000000E+00  0.00000000000E+00 -0.18303820303E+04  0.18303820303E+04  0.50400001928E-02 0.  1.
    10030    2    1    2    0    0  0.00000000000E+00  0.00000000000E+00 -0.93833581270E+03  0.27224282479E+04  0.25556098035E+04 0.  0.
        5    1    3    3  502    0 -0.70070182967E+03 -0.86846863153E+03 -0.11323328221E+04  0.15897863152E+04  0.46999998093E+01 0.  1.
       -5    1    3    3    0  502  0.70070182967E+03  0.86846863153E+03  0.19399700940E+03  0.11326419327E+04  0.46999998093E+01 0. -1.
</event>
<event>
 5   0  0.1572732E-05  0.2493169E+04  0.7818609E-02  0.8405423E-01
        2   -1    0    0  501    0  0.00000000000E+00  0.00000000000E+00  0.17476406021E+04  0.17476406021E+04  0.25500000920E-02 0. -1.
       -2   -1    0    0    0  501  0.00000000000E+00  0.00000000000E+00 -0.88918336102E+03  0.88918336102E+03  0.25500000920E-02 0.  1.
    10030    2    1    2    0    0  0.00000000000E+00  0.00000000000E+00  0.85845724108E+03  0.26368239631E+04  0.24931690231E+04 0.  0.
        1    1    3    3  502    0  0.63564056295E+03  0.51254547769E+03  0.14254315299E+04  0.16427406486E+04  0.50400001928E-02 0. -1.
       -1    1    3    3    0  502 -0.63564056295E+03 -0.51254547769E+03 -0.56697428886E+03  0.99408331453E+03  0.50400001928E-02 0.  1.
</event>
<event>
 5   0  0.1501947E-05  0.2480908E+04  0.7818609E-02  0.8409819E-01
        2   -1    0    0  501    0  0.00000000000E+00  0.00000000000E+00  0.20619826663E+04  0.20619826663E+04  0.25500000920E-02 0. -1.
       -2   -1    0    0    0  501  0.00000000000E+00  0.00000000000E+00 -0.74623594807E+03  0.74623594807E+03  0.25500000920E-02 0.  1.
    10030    2    1    2    0    0  0.00000000000E+00  0.00000000000E+00  0.13157467182E+04  0.28082186144E+04  0.24809075677E+04 0.  0.
        3    1    3    3  502    0  0.32937522834E+03  0.10431337114E+04 -0.41951931256E+01  0.10939074873E+04  0.10100000352E+00 0.  1.
       -3    1    3    3    0  502 -0.32937522834E+03 -0.10431337114E+04  0.13199419113E+04  0.17143111271E+04  0.10100000352E+00 0. -1.
</event>
<event>
 5   0  0.1526824E-05  0.2484995E+04  0.7818609E-02  0.8408351E-01
        2   -1    0    0  501    0  0.00000000000E+00  0.00000000000E+00  0.26598743580E+04  0.26598743580E+04  0.25500000920E-02 0. -1.
       -2   -1    0    0    0  501  0.00000000000E+00  0.00000000000E+00 -0.58040341314E+03  0.58040341315E+03  0.25500000920E-02 0.  1.
    10030    2    1    2    0    0  0.00000000000E+00  0.00000000000E+00  0.20794709449E+04  0.32402777712E+04  0.24849950953E+04 0.  0.
        2    1    3    3  502    0 -0.93738075324E+03 -0.79384628576E+03  0.79605071920E+03  0.14637524891E+04  0.25500000920E-02 0.  1.
       -2    1    3    3    0  502  0.93738075324E+03  0.79384628576E+03  0.12834202257E+04  0.17765252820E+04  0.25500000920E-02 0. -1.
</event>
<event>
 5   0  0.6104486E-06  0.2509248E+04  0.7818609E-02  0.8399698E-01
        1   -1    0    0  501    0  0.00000000000E+00  0.00000000000E+00  0.78929740859E+03  0.78929740861E+03  0.50400001928E-02 0. -1.
       -1   -1    0    0    0  501  0.00000000000E+00  0.00000000000E+00 -0.19942824884E+04  0.19942824884E+04  0.50400001928E-02 0.  1.
    10030    2    1    2    0    0  0.00000000000E+00  0.00000000000E+00 -0.12049850798E+04  0.27835798970E+04  0.25092484932E+04 0.  0.
        2    1    3    3  502    0  0.23240019478E+03  0.81124954932E+03  0.42741948494E+03  0.94595089615E+03  0.25500000920E-02 0. -1.
       -2    1    3    3    0  502 -0.23240019478E+03 -0.81124954932E+03 -0.16324045648E+04  0.18376290009E+04  0.25500000920E-02 0.  1.
</event>
<event>
 5   0  0.1550483E-05  0.2453303E+04  0.7818609E-02  0.8419813E-01
       -2   -1    0    0    0  501  0.00000000000E+00  0.00000000000E+00  0.91061810808E+03  0.91061810808E+03  0.25500000920E-02 0. -1.
        2   -1    0    0  501    0  0.00000000000E+00  0.00000000000E+00 -0.16523657161E+04  0.16523657161E+04  0.25500000920E-02 0.  1.
    10030    2    1    2    0    0  0.00000000000E+00  0.00000000000E+00 -0.74174760801E+03  0.25629838242E+04  0.24533031955E+04 0.  0.
        5    1    3    3  502    0 -0.82430602353E+03  0.59524852167E+03  0.34598943556E+03  0.10740260716E+04  0.46999998093E+01 0. -1.
       -5    1    3    3    0  502  0.82430602353E+03 -0.59524852167E+03 -0.10877370436E+04  0.14889577526E+04  0.46999998093E+01 0.  1.
</event>
<event>
 5   0  0.1550483E-05  0.2501601E+04  0.7818609E-02  0.8402415E-01
       -2   -1    0    0    0  501  0.00000000000E+00  0.00000000000E+00  0.10175613448E+04  0.10175613448E+04  0.25500000920E-02 0. -1.
        2   -1    0    0  501    0  0.00000000000E+00  0.00000000000E+00 -0.15375017827E+04  0.15375017827E+04  0.25500000920E-02 0.  1.
    10030    2    1    2    0    0  0.00000000000E+00  0.00000000000E+00 -0.51994043797E+03  0.25550631275E+04  0.25016013924E+04 0.  0.
        5    1    3    3  502    0 -0.12408896203E+04  0.15521153906E+03 -0.28462358258E+03  0.12825483794E+04  0.46999998093E+01 0.  1.
       -5    1    3    3    0  502  0.12408896203E+04 -0.15521153906E+03 -0.23531685539E+03  0.12725147481E+04  0.46999998093E+01 0. -1.
</event>
<event>
 5   0  0.1572732E-05  0.2526345E+04  0.7818609E-02  0.8393660E-01
        2   -1    0    0  501    0  0.00000000000E+00  0.00000000000E+00  0.12396988279E+04  0.12396988279E+04  0.25500000920E-02 0.  1.
       -2   -1    0    0    0  501  0.00000000000E+00  0.00000000000E+00 -0.12870907711E+04  0.12870907711E+04  0.25500000920E-02 0. -1.
    10030    2    1    2    0    0  0.00000000000E+00  0.00000000000E+00 -0.47391943218E+02  0.25267895991E+04  0.25263451232E+04 0.  0.
        1    1    3    3  502    0  0.15148179010E+03 -0.84171164557E+03 -0.95347218194E+03  0.12808334899E+04  0.50400001928E-02 0. -1.
       -1    1    3    3    0  502 -0.15148179010E+03  0.84171164557E+03  0.90608023872E+03  0.12459561092E+04  0.50400001928E-02 0.  1.
</event>
<event>
 5   0  0.1468512E-05  0.2498451E+04  0.7818609E-02  0.8403538E-01
       -2   -1    0    0    0  501  0.00000000000E+00  0.00000000000E+00  0.55793983951E+03  0.55793983952E+03  0.25500000920E-02 0. -1.
        2   -1    0    0  501    0  0.00000000000E+00  0.00000000000E+00 -0.27970120831E+04  0.27970120831E+04  0.25500000920E-02 0.  1.
    10030    2    1    2    0    0  0.00000000000E+00  0.00000000000E+00 -0.22390722436E+04  0.33549519226E+04  0.24984510984E+04 0.  0.
        4    1    3    3  502    0  0.22507554218E+03 -0.70229542288E+03 -0.24735049171E+04  0.25811055864E+04  0.12699999809E+01 0.  1.
       -4    1    3    3    0  502 -0.22507554218E+03  0.70229542288E+03  0.23443267351E+03  0.77384633616E+03  0.12699999809E+01 0. -1.
</event>
<event>
 5   0  0.6104486E-06  0.2481035E+04  0.7818609E-02  0.8409773E-01
        1   -1    0    0  501    0  0.00000000000E+00  0.00000000000E+00  0.13411487243E+04  0.13411487243E+04  0.50400001928E-02 0. -1.
       -1   -1    0    0    0  501  0.00000000000E+00  0.00000000000E+00 -0.11474372533E+04  0.11474372533E+04  0.50400001928E-02 0.  1.
    10030    2    1    2    0    0  0.00000000000E+00  0.00000000000E+00  0.19371147099E+03  0.24885859777E+04  0.24810352747E+04 0.  0.
        2    1    3    3  502    0  0.11718081877E+04 -0.37262006313E+03 -0.67667436928E+02  0.12314865092E+04  0.25500000920E-02 0.  1.
       -2    1    3    3    0  502 -0.11718081877E+04  0.37262006313E+03  0.26137890792E+03  0.12570994685E+04  0.25500000920E-02 0. -1.
</event>
<event>
 5   0  0.6104486E-06  0.2499511E+04  0.7818609E-02  0.8403160E-01
       -1   -1    0    0    0  501  0.00000000000E+00  0.00000000000E+00  0.13946262800E+04  0.13946262800E+04  0.50400001928E-02 0. -1.
        1   -1    0    0  501    0  0.00000000000E+00  0.00000000000E+00 -0.11199333558E+04  0.11199333558E+04  0.50400001928E-02 0.  1.
    10030    2    1    2    0    0  0.00000000000E+00  0.00000000000E+00  0.27469292420E+03  0.25145596357E+04  0.24995107439E+04 0.  0.
        2    1    3    3  502    0 -0.38783228418E+03  0.84634887469E+03  0.97613382349E+03  0.13489097597E+04  0.25500000920E-02 0. -1.
       -2    1    3    3    0  502  0.38783228418E+03 -0.84634887469E+03 -0.70144089929E+03  0.11656498761E+04  0.25500000920E-02 0.  1.
</event>
<event>
 5   0  0.1550483E-05  0.2519004E+04  0.7818609E-02  0.8396246E-01
        2   -1    0    0  501    0  0.00000000000E+00  0.00000000000E+00  0.12636915233E+04  0.12636915233E+04  0.25500000920E-02 0. -1.
       -2   -1    0    0    0  501  0.00000000000E+00  0.00000000000E+00 -0.12553268170E+04  0.12553268170E+04  0.25500000920E-02 0.  1.
    10030    2    1    2    0    0  0.00000000000E+00  0.00000000000E+00  0.83647062496E+01  0.25190183403E+04  0.25190044522E+04 0.  0.
        5    1    3    3  502    0  0.85686877842E+03  0.71432222472E+03 -0.58049464559E+03  0.12575676792E+04  0.46999998093E+01 0.  1.
       -5    1    3    3    0  502 -0.85686877842E+03 -0.71432222472E+03  0.58885935184E+03  0.12614506611E+04  0.46999998093E+01 0. -1.
</event>
<event>
 5   0  0.1501947E-05  0.2527344E+04  0.7818609E-02  0.8393308E-01
        2   -1    0    0  501    0  0.00000000000E+00  0.00000000000E+00  0.14009966393E+04  0.14009966393E+04  0.25500000920E-02 0. -1.
       -2   -1    0    0    0  501  0.00000000000E+00  0.00000000000E+00 -0.11398081935E+04  0.11398081935E+04  0.25500000920E-02 0.  1.
    10030    2    1    2    0    0  0.00000000000E+00  0.00000000000E+00  0.26118844574E+03  0.25408048328E+04  0.25273444154E+04 0.  0.
        3    1    3    3  502    0 -0.74689624980E+03 -0.90701454784E+03 -0.33700450700E+03  0.12223344247E+04  0.10100000352E+00 0. -1.
       -3    1    3    3    0  502  0.74689624980E+03  0.90701454784E+03  0.59819295273E+03  0.13184704080E+04  0.10100000352E+00 0.  1.
</event>
<event>
 5   0  0.6104486E-06  0.2483958E+04  0.7818609E-02  0.8408723E-01
        1   -1    0    0  501    0  0.00000000000E+00  0.00000000000E+00  0.11819764738E+04  0.11819764738E+04  0.50400001928E-02 0. -1.
       -1   -1    0    0    0  501  0.00000000000E+00  0.00000000000E+00 -0.13050272886E+04  0.13050272886E+04  0.50400001928E-02 0.  1.
    10030    2    1    2    0    0  0.00000000000E+00  0.00000000000E+00 -0.12305081479E+03  0.24870037623E+04  0.24839577716E+04 0.  0.
        2    1    3    3  502    0  0.82549278616E+03  0.32642427900E+03 -0.93122191855E+03  0.12865323204E+04  0.25500000920E-02 0.  1.
       -2    1    3    3    0  502 -0.82549278616E+03 -0.32642427900E+03  0.80817110376E+03  0.12004714419E+04  0.25500000920E-02 0. -1.
</event>
<event>
 5   0  0.1468512E-05  0.2487634E+04  0.7818609E-02  0.8407404E-01
        2   -1    0    0  501    0  0.00000000000E+00  0.00000000000E+00  0.12575718578E+04  0.12575718578E+04  0.25500000920E-02 0.  1.
       -2   -1    0    0    0  501  0.00000000000E+00  0.00000000000E+00 -0.12302126505E+04  0.12302126505E+04  0.25500000920E-02 0. -1.
    10030    2    1    2    0    0  0.00000000000E+00  0.00000000000E+00  0.27359207300E+02  0.24877845084E+04  0.24876340635E+04 0.  0.
        4    1    3    3  502    0 -0.12288728287E+04  0.86889752387E+01  0.20572055868E+03  0.12460042089E+04  0.12699999809E+01 0.  1.
       -4    1    3    3    0  502  0.12288728287E+04 -0.86889752387E+01 -0.17836135138E+03  0.12417802994E+04  0.12699999809E+01 0. -1.
</event>
<event>
 5   0  0.6346420E-06  0.2483930E+04  0.7818609E-02  0.8408733E-01
       -1   -1    0    0    0  501  0.00000000000E+00  0.00000000000E+00  0.72873651684E+03  0.72873651686E+03  0.50400001928E-02 0.  1.
        1   -1    0    0  501    0  0.00000000000E+00  0.00000000000E+00 -0.21166462736E+04  0.21166462736E+04  0.50400001928E-02 0. -1.
    10030    2    1    2    0    0  0.00000000000E+00  0.00000000000E+00 -0.13879097567E+04  0.28453827904E+04  0.24839302992E+04 0.  0.
        4    1    3    3  502    0  0.21845116357E+03 -0.98503625928E+03 -0.15235321598E+04  0.18273393768E+04  0.12699999809E+01 0. -1.
       -4    1    3    3    0  502 -0.21845116357E+03  0.98503625928E+03  0.13562240311E+03  0.10180434137E+04  0.12699999809E+01 0.  1.
</event>
<event>
 5   0  0.6105353E-06  0.2501902E+04  0.7818609E-02  0.8402308E-01
        1   -1    0    0  501    0  0.00000000000E+00  0.00000000000E+00  0.11401287126E+04  0.11401287126E+04  0.50400001928E-02 0. -1.
       -1   -1    0    0    0  501  0.00000000000E+00  0.00000000000E+00 -0.13725448460E+04  0.13725448460E+04  0.50400001928E-02 0.  1.
    10030    2    1    2    0    0  0.00000000000E+00  0.00000000000E+00 -0.23241613341E+03  0.25126735586E+04  0.25019015075E+04 0.  0.
        3    1    3    3  502    0  0.61719653137E+03  0.10873398408E+04 -0.15685813730E+03  0.12600968110E+04  0.10100000352E+00 0.  1.
       -3    1    3    3    0  502 -0.61719653137E+03 -0.10873398408E+04 -0.75557996112E+02  0.12525767476E+04  0.10100000352E+00 0. -1.
</event>
<event>
 5   0  0.1572732E-05  0.2499717E+04  0.7818609E-02  0.8403086E-01
       -2   -1    0    0    0  501  0.00000000000E+00  0.00000000000E+00  0.19536442826E+04  0.19536442826E+04  0.25500000920E-02 0. -1.
        2   -1    0    0  501    0  0.00000000000E+00  0.00000000000E+00 -0.79960653281E+03  0.79960653281E+03  0.25500000920E-02 0.  1.
    10030    2    1    2    0    0  0.00000000000E+00  0.00000000000E+00  0.11540377497E+04  0.27532508154E+04  0.24997173689E+04 0.  0.
        1    1    3    3  502    0  0.93362087109E+03 -0.81652818548E+03  0.74686888024E+03  0.14478188191E+04  0.50400001928E-02 0. -1.
       -1    1    3    3    0  502 -0.93362087109E+03  0.81652818548E+03  0.40716886951E+03  0.13054319963E+04  0.50400001928E-02 0.  1.
</event>
<event>
 5   0  0.6104486E-06  0.2483015E+04  0.7818609E-02  0.8409061E-01
        1   -1    0    0  501    0  0.00000000000E+00  0.00000000000E+00  0.16912977626E+04  0.16912977626E+04  0.50400001928E-02 0.  1.
       -1   -1    0    0    0  501  0.00000000000E+00  0.00000000000E+00 -0.91133652722E+03  0.91133652723E+03  0.50400001928E-02 0. -1.
    10030    2    1    2    0    0  0.00000000000E+00  0.00000000000E+00  0.77996123536E+03  0.26026342898E+04  0.24830154486E+04 0.  0.
        2    1    3    3  502    0  0.11441334159E+04 -0.47996558318E+03  0.34389434833E+03  0.12875059446E+04  0.25500000920E-02 0. -1.
       -2    1    3    3    0  502 -0.11441334159E+04  0.47996558318E+03  0.43606688703E+03  0.13151283452E+04  0.25500000920E-02 0.  1.
</event>
<event>
 5   0  0.1572732E-05  0.2497788E+04  0.7818609E-02  0.8403774E-01
        2   -1    0    0  501    0  0.00000000000E+00  0.00000000000E+00  0.14065040328E+04  0.14065040328E+04  0.25500000920E-02 0.  1.
       -2   -1    0    0    0  501  0.00000000000E+00  0.00000000000E+00 -0.11089454694E+04  0.11089454694E+04  0.25500000920E-02 0. -1.
    10030    2    1    2    0    0  0.00000000000E+00  0.00000000000E+00  0.29755856339E+03  0.25154495023E+04  0.24977880414E+04 0.  0.
        1    1    3    3  502    0  0.64731698363E+03  0.37198950412E+03 -0.85946954882E+03  0.11384565753E+04  0.50400001928E-02 0. -1.
       -1    1    3    3    0  502 -0.64731698363E+03 -0.37198950412E+03  0.11570281122E+04  0.13769929270E+04  0.50400001928E-02 0.  1.
</event>
<event>
 5   0  0.1501947E-05  0.2491641E+04  0.7818609E-02  0.8405969E-01
        2   -1    0    0  501    0  0.00000000000E+00  0.00000000000E+00  0.15738074020E+04  0.15738074020E+04  0.25500000920E-02 0.  1.
       -2   -1    0    0    0  501  0.00000000000E+00  0.00000000000E+00 -0.98618753925E+03  0.98618753926E+03  0.25500000920E-02 0. -1.
    10030    2    1    2    0    0  0.00000000000E+00  0.00000000000E+00  0.58761986274E+03  0.25599949413E+04  0.24916414261E+04 0.  0.
        3    1    3    3  502    0 -0.16456432135E+03  0.82392003792E+02 -0.97214419655E+03  0.98941104059E+03  0.10100000352E+00 0. -1.
       -3    1    3    3    0  502  0.16456432135E+03 -0.82392003792E+02  0.15597640593E+04  0.15705839007E+04  0.10100000352E+00 0.  1.
</event>
<event>
 5   0  0.6290861E-06  0.2494888E+04  0.7818609E-02  0.8404809E-01
       -1   -1    0    0    0  501  0.00000000000E+00  0.00000000000E+00  0.13089044273E+04  0.13089044273E+04  0.50400001928E-02 0. -1.
        1   -1    0    0  501    0  0.00000000000E+00  0.00000000000E+00 -0.11888694344E+04  0.11888694344E+04  0.50400001928E-02 0.  1.
    10030    2    1    2    0    0  0.00000000000E+00  0.00000000000E+00  0.12003499283E+03  0.24977738617E+04  0.24948879463E+04 0.  0.
        1    1    3    3  502    0  0.31914687418E+02 -0.11331057507E+04 -0.46132402271E+03  0.12238329312E+04  0.50400001928E-02 0.  1.
       -1    1    3    3    0  502 -0.31914687418E+02  0.11331057507E+04  0.58135901554E+03  0.12739409305E+04  0.50400001928E-02 0. -1.
</event>
<event>
 5   0  0.6290861E-06  0.2537902E+04  0.7818609E-02  0.8389606E-01
        1   -1    0    0  501    0  0.00000000000E+00  0.00000000000E+00  0.21034846747E+04  0.21034846747E+04  0.50400001928E-02 0.  1.
       -1   -1    0    0    0  501  0.00000000000E+00  0.00000000000E+00 -0.76550930365E+03  0.76550930366E+03  0.50400001928E-02 0. -1.
    10030    2    1    2    0    0  0.00000000000E+00  0.00000000000E+00  0.13379753710E+04  0.28689939784E+04  0.25379023532E+04 0.  0.
        1    1    3    3  502    0  0.77599389723E+03 -0.19046227508E+03 -0.44541458255E+03  0.91478771152E+03  0.50400001928E-02 0. -1.
       -1    1    3    3    0  502 -0.77599389723E+03  0.19046227508E+03  0.17833899536E+04  0.19542062668E+04  0.50400001928E-02 0.  1.
</event>
<event>
 5   0  0.1572732E-05  0.2513988E+04  0.7818609E-02  0.8398019E-01
        2   -1    0    0  501    0  0.00000000000E+00  0.00000000000E+00  0.17636419893E+04  0.17636419893E+04  0.25500000920E-02 0. -1.
       -2   -1    0    0    0  501  0.00000000000E+00  0.00000000000E+00 -0.89589237804E+03  0.89589237805E+03  0.25500000920E-02 0.  1.
    10030    2    1    2    0    0  0.00000000000E+00  0.00000000000E+00  0.86774961121E+03  0.26595343673E+04  0.25139876020E+04 0.  0.
        1    1    3    3  502    0 -0.71407192980E+03 -0.61349065056E+03 -0.44727211771E+03  0.10422676463E+04  0.50400001928E-02 0.  1.
       -1    1    3    3    0  502  0.71407192980E+03  0.61349065056E+03  0.13150217289E+04  0.16172667210E+04  0.50400001928E-02 0. -1.
</event>
<event>
 5   0  0.6104486E-06  0.2533096E+04  0.7818609E-02  0.8391289E-01
       -1   -1    0    0    0  501  0.00000000000E+00  0.00000000000E+00  0.12985859525E+04  0.12985859525E+04  0.50400001928E-02 0. -1.
        1   -1    0    0  501    0  0.00000000000E+00  0.00000000000E+00 -0.12353002977E+04  0.12353002977E+04  0.50400001928E-02 0.  1.
    10030    2    1    2    0    0  0.00000000000E+00  0.00000000000E+00  0.63285654851E+02  0.25338862502E+04  0.25330958243E+04 0.  0.
        2    1    3    3  502    0  0.11868672889E+04 -0.44027391886E+03 -0.89719203660E+01  0.12659287422E+04  0.25500000920E-02 0.  1.
       -2    1    3    3    0  502 -0.11868672889E+04  0.44027391886E+03  0.72257575218E+02  0.12679575080E+04  0.25500000920E-02 0. -1.
</event>
<event>
 5   0  0.6290861E-06  0.2441108E+04  0.7818609E-02  0.8424272E-01
        1   -1    0    0  501    0  0.00000000000E+00  0.00000000000E+00  0.10457609165E+04  0.10457609166E+04  0.50400001928E-02 0.  1.
       -1   -1    0    0    0  501  0.00000000000E+00  0.00000000000E+00 -0.14245623632E+04  0.14245623632E+04  0.50400001928E-02 0. -1.
    10030    2    1    2    0    0  0.00000000000E+00  0.00000000000E+00 -0.37880144668E+03  0.24703232798E+04  0.24411076524E+04 0.  0.
        1    1    3    3  502    0 -0.73518094318E+03 -0.36261964725E+03 -0.11045286584E+04  0.13754881261E+04  0.50400001928E-02 0. -1.
       -1    1    3    3    0  502  0.73518094318E+03  0.36261964725E+03  0.72572721175E+03  0.10948351537E+04  0.50400001928E-02 0.  1.
</event>
<event>
 5   0  0.1501947E-05  0.2512135E+04  0.7818609E-02  0.8398675E-01
        2   -1    0    0  501    0  0.00000000000E+00  0.00000000000E+00  0.12247774815E+04  0.12247774815E+04  0.25500000920E-02 0. -1.
       -2   -1    0    0    0  501  0.00000000000E+00  0.00000000000E+00 -0.12881568635E+04  0.12881568635E+04  0.25500000920E-02 0.  1.
    10030    2    1    2    0    0  0.00000000000E+00  0.00000000000E+00 -0.63379381956E+02  0.25129343450E+04  0.25121349637E+04 0.  0.
        3    1    3    3  502    0 -0.26736580010E+03  0.12271832383E+04 -0.47261831602E+02  0.12568599216E+04  0.10100000352E+00 0.  1.
       -3    1    3    3    0  502  0.26736580010E+03 -0.12271832383E+04 -0.16117550354E+02  0.12560744234E+04  0.10100000352E+00 0. -1.
</event>
<event>
 5   0  0.6346420E-06  0.2468257E+04  0.7818609E-02  0.8414382E-01
        1   -1    0    0  501    0  0.00000000000E+00  0.00000000000E+00  0.16298100097E+04  0.16298100097E+04  0.50400001928E-02 0.  1.
       -1   -1    0    0    0  501  0.00000000000E+00  0.00000000000E+00 -0.93450941196E+03  0.93450941198E+03  0.50400001928E-02 0. -1.
    10030    2    1    2    0    0  0.00000000000E+00  0.00000000000E+00  0.69530059777E+03  0.25643194217E+04  0.24682567078E+04 0.  0.
        4    1    3    3  502    0  0.75331245893E+02 -0.22691768993E+03  0.16055171472E+04  0.16232231385E+04  0.12699999809E+01 0.  1.
       -4    1    3    3    0  502 -0.75331245893E+02  0.22691768993E+03 -0.91021654939E+03  0.94109628323E+03  0.12699999809E+01 0. -1.
</event>
<event>
 5   0  0.6290861E-06  0.2473195E+04  0.7818609E-02  0.8412598E-01
        1   -1    0    0  501    0  0.00000000000E+00  0.00000000000E+00  0.20658640303E+04  0.20658640303E+04  0.50400001928E-02 0.  1.
       -1   -1    0    0    0  501  0.00000000000E+00  0.00000000000E+00 -0.74021023139E+03  0.74021023140E+03  0.50400001928E-02 0. -1.
    10030    2    1    2    0    0  0.00000000000E+00  0.00000000000E+00  0.13256537989E+04  0.28060742617E+04  0.24731952546E+04 0.  0.
        1    1    3    3  502    0  0.39492547369E+03  0.20942494873E+03  0.19709849612E+04  0.20210409834E+04  0.50400001928E-02 0.  1.
       -1    1    3    3    0  502 -0.39492547369E+03 -0.20942494873E+03 -0.64533116237E+03  0.78503327832E+03  0.50400001928E-02 0. -1.
</event>
<event>
 5   0  0.6290861E-06  0.2572727E+04  0.7818609E-02  0.8377525E-01
       -1   -1    0    0    0  501  0.00000000000E+00  0.00000000000E+00  0.14628728236E+04  0.14628728236E+04  0.50400001928E-02 0. -1.
        1   -1    0    0  501    0  0.00000000000E+00  0.00000000000E+00 -0.11311514534E+04  0.11311514534E+04  0.50400001928E-02 0.  1.
    10030    2    1    2    0    0  0.00000000000E+00  0.00000000000E+00  0.33172137019E+03  0.25940242770E+04  0.25727267407E+04 0.  0.
        1    1    3    3  502    0  0.31200280463E+03 -0.59948734409E+03  0.12694532494E+04  0.14381385115E+04  0.50400001928E-02 0. -1.
       -1    1    3    3    0  502 -0.31200280463E+03  0.59948734409E+03 -0.93773187917E+03  0.11558857656E+04  0.50400001928E-02 0.  1.
</event>
<event>
 5   0  0.1526824E-05  0.2563032E+04  0.7818609E-02  0.8380868E-01
       -2   -1    0    0    0  501  0.00000000000E+00  0.00000000000E+00  0.33926350003E+04  0.33926350003E+04  0.25500000920E-02 0.  1.
        2   -1    0    0  501    0  0.00000000000E+00  0.00000000000E+00 -0.48407325474E+03  0.48407325475E+03  0.25500000920E-02 0. -1.
    10030    2    1    2    0    0  0.00000000000E+00  0.00000000000E+00  0.29085617456E+04  0.38767082551E+04  0.25630324748E+04 0.  0.
        2    1    3    3  502    0  0.34844229150E+03  0.26821835703E+02  0.33191681174E+04  0.33375153082E+04  0.25500000920E-02 0.  1.
       -2    1    3    3    0  502 -0.34844229150E+03 -0.26821835703E+02 -0.41060637177E+03  0.53919294684E+03  0.25500000920E-02 0. -1.
</event>
<event>
 5   0  0.1468512E-05  0.2502348E+04  0.7818609E-02  0.8402149E-01
       -2   -1    0    0    0  501  0.00000000000E+00  0.00000000000E+00  0.10365092947E+04  0.10365092947E+04  0.25500000920E-02 0. -1.
        2   -1    0    0  501    0  0.00000000000E+00  0.00000000000E+00 -0.15102968955E+04  0.15102968955E+04  0.25500000920E-02 0.  1.
    10030    2    1    2    0    0  0.00000000000E+00  0.00000000000E+00 -0.47378760080E+03  0.25468061901E+04  0.25023483130E+04 0.  0.
        4    1    3    3  502    0  0.15381083519E+03  0.18064965781E+03  0.10134036480E+04  0.10408076857E+04  0.12699999809E+01 0. -1.
       -4    1    3    3    0  502 -0.15381083519E+03 -0.18064965781E+03 -0.14871912488E+04  0.15059985044E+04  0.12699999809E+01 0.  1.
</event>
<event>
 5   0  0.1501947E-05  0.2519089E+04  0.7818609E-02  0.8396216E-01
        2   -1    0    0  501    0  0.00000000000E+00  0.00000000000E+00  0.12693987953E+04  0.12693987953E+04  0.25500000920E-02 0.  1.
       -2   -1    0    0    0  501  0.00000000000E+00  0.00000000000E+00 -0.12497665685E+04  0.12497665685E+04  0.25500000920E-02 0. -1.
    10030    2    1    2    0    0  0.00000000000E+00  0.00000000000E+00  0.19632226712E+02  0.25191653638E+04  0.25190888642E+04 0.  0.
        3    1    3    3  502    0 -0.12049978166E+04  0.19155165655E+03 -0.30282797759E+03  0.12571462005E+04  0.10100000352E+00 0.  1.
       -3    1    3    3    0  502  0.12049978166E+04 -0.19155165655E+03  0.32246020431E+03  0.12620191634E+04  0.10100000352E+00 0. -1.
</event>
<event>
 5   0  0.6105353E-06  0.2452259E+04  0.7818609E-02  0.8420194E-01
       -1   -1    0    0    0  501  0.00000000000E+00  0.00000000000E+00  0.82630472214E+03  0.82630472216E+03  0.50400001928E-02 0.  1.
        1   -1    0    0  501    0  0.00000000000E+00  0.00000000000E+00 -0.18194173146E+04  0.18194173146E+04  0.50400001928E-02 0. -1.
    10030    2    1    2    0    0  0.00000000000E+00  0.00000000000E+00 -0.99311259245E+03  0.26457220368E+04  0.24522586476E+04 0.  0.
        3    1    3    3  502    0  0.34597458134E+03 -0.72844707379E+03 -0.14930340709E+04  0.16969043277E+04  0.10100000352E+00 0. -1.
       -3    1    3    3    0  502 -0.34597458134E+03  0.72844707379E+03  0.49992147845E+03  0.94881770908E+03  0.10100000352E+00 0.  1.
</event>
<event>
 5   0  0.1550483E-05  0.2470961E+04  0.7818609E-02  0.8413405E-01
       -2   -1    0    0    0  501  0.00000000000E+00  0.00000000000E+00  0.75453464958E+03  0.75453464958E+03  0.25500000920E-02 0.  1.
        2   -1    0    0  501    0  0.00000000000E+00  0.00000000000E+00 -0.20229842550E+04  0.20229842550E+04  0.25500000920E-02 0. -1.
    10030    2    1    2    0    0  0.00000000000E+00  0.00000000000E+00 -0.12684496054E+04  0.27775189045E+04  0.24709607167E+04 0.  0.
        5    1    3    3  502    0 -0.85007527737E+03  0.74159933894E+03 -0.67946129512E+02  0.11301488058E+04  0.46999998093E+01 0.  1.
       -5    1    3    3    0  502  0.85007527737E+03 -0.74159933894E+03 -0.12005034759E+04  0.16473700988E+04  0.46999998093E+01 0. -1.
</event>
<event>
 5   0  0.1526824E-05  0.2570287E+04  0.7818609E-02  0.8378365E-01
        2   -1    0    0  501    0  0.00000000000E+00  0.00000000000E+00  0.10615376864E+04  0.10615376864E+04  0.25500000920E-02 0.  1.
       -2   -1    0    0    0  501  0.00000000000E+00  0.00000000000E+00 -0.15558504499E+04  0.15558504499E+04  0.25500000920E-02 0. -1.
    10030    2    1    2    0    0  0.00000000000E+00  0.00000000000E+00 -0.49431276351E+03  0.26173881362E+04  0.25702870555E+04 0.  0.
        2    1    3    3  502    0  0.10716803392E+04 -0.33301660507E+03  0.39057467942E+03  0.11882539244E+04  0.25500000920E-02 0.  1.
       -2    1    3    3    0  502 -0.10716803392E+04  0.33301660507E+03 -0.88488744294E+03  0.14291342118E+04  0.25500000920E-02 0. -1.
</event>
<event>
 5   0  0.6105353E-06  0.2625586E+04  0.7818609E-02  0.8359562E-01
        1   -1    0    0  501    0  0.00000000000E+00  0.00000000000E+00  0.95319703728E+03  0.95319703729E+03  0.50400001928E-02 0. -1.
       -1   -1    0    0    0  501  0.00000000000E+00  0.00000000000E+00 -0.18080472004E+04  0.18080472004E+04  0.50400001928E-02 0.  1.
    10030    2    1    2    0    0  0.00000000000E+00  0.00000000000E+00 -0.85485016316E+03  0.27612442377E+04  0.26255858278E+04 0.  0.
        3    1    3    3  502    0  0.98562453974E+03 -0.10939914801E+03 -0.13321047904E+04  0.16607007827E+04  0.10100000352E+00 0.  1.
       -3    1    3    3    0  502 -0.98562453974E+03  0.10939914801E+03  0.47725462726E+03  0.11005434550E+04  0.10100000352E+00 0. -1.
</event>
<event>
 5   0  0.1550483E-05  0.2491813E+04  0.7818609E-02  0.8405908E-01
        2   -1    0    0  501    0  0.00000000000E+00  0.00000000000E+00  0.32031251315E+04  0.32031251315E+04  0.25500000920E-02 0.  1.
       -2   -1    0    0    0  501  0.00000000000E+00  0.00000000000E+00 -0.48461512088E+03  0.48461512089E+03  0.25500000920E-02 0. -1.
    10030    2    1    2    0    0  0.00000000000E+00  0.00000000000E+00  0.27185100106E+04  0.36877402524E+04  0.24918128925E+04 0.  0.
        5    1    3    3  502    0  0.10235379457E+03 -0.52280859223E+03  0.30260513542E+04  0.30725907654E+04  0.46999998093E+01 0.  1.
       -5    1    3    3    0  502 -0.10235379457E+03  0.52280859223E+03 -0.30754134356E+03  0.61514948701E+03  0.46999998093E+01 0. -1.
</event>
<event>
 5   0  0.5164625E-06  0.2531853E+04  0.7818609E-02  0.8391725E-01
       -3   -1    0    0    0  501  0.00000000000E+00  0.00000000000E+00  0.17924223748E+04  0.17924223776E+04  0.10100000352E+00 0. -1.
        3   -1    0    0  501    0  0.00000000000E+00  0.00000000000E+00 -0.89408028316E+03  0.89408028887E+03  0.10100000352E+00 0.  1.
    10030    2    1    2    0    0  0.00000000000E+00  0.00000000000E+00  0.89834209159E+03  0.26865026665E+04  0.25318526939E+04 0.  0.
        4    1    3    3  502    0 -0.33568567233E+03 -0.11435375430E+03 -0.84029705422E+03  0.91206491214E+03  0.12699999809E+01 0.  1.
       -4    1    3    3    0  502  0.33568567233E+03  0.11435375430E+03  0.17386391458E+04  0.17744377543E+04  0.12699999809E+01 0. -1.
</event>
<event>
 5   0  0.1550483E-05  0.2494955E+04  0.7818609E-02  0.8404785E-01
       -2   -1    0    0    0  501  0.00000000000E+00  0.00000000000E+00  0.12938162324E+04  0.12938162324E+04  0.25500000920E-02 0. -1.
        2   -1    0    0  501    0  0.00000000000E+00  0.00000000000E+00 -0.12027983836E+04  0.12027983836E+04  0.25500000920E-02 0.  1.
    10030    2    1    2    0    0  0.00000000000E+00  0.00000000000E+00  0.91017848856E+02  0.24966146160E+04  0.24949549679E+04 0.  0.
        5    1    3    3  502    0 -0.82966180122E+03  0.93136237372E+03  0.25410558787E+02  0.12475745918E+04  0.46999998093E+01 0.  1.
       -5    1    3    3    0  502  0.82966180122E+03 -0.93136237372E+03  0.65607290070E+02  0.12490400242E+04  0.46999998093E+01 0. -1.
</event>
<event>
 5   0  0.1572732E-05  0.2494839E+04  0.7818609E-02  0.8404827E-01
       -2   -1    0    0    0  501  0.00000000000E+00  0.00000000000E+00  0.14657063046E+04  0.14657063047E+04  0.25500000920E-02 0.  1.
        2   -1    0    0  501    0  0.00000000000E+00  0.00000000000E+00 -0.10616416908E+04  0.10616416908E+04  0.25500000920E-02 0. -1.
    10030    2    1    2    0    0  0.00000000000E+00  0.00000000000E+00  0.40406461387E+03  0.25273479954E+04  0.24948386076E+04 0.  0.
        1    1    3    3  502    0 -0.77672639569E+03 -0.97329401993E+03  0.27681686515E+03  0.12756303226E+04  0.50400001928E-02 0.  1.
       -1    1    3    3    0  502  0.77672639569E+03  0.97329401993E+03  0.12724774872E+03  0.12517176729E+04  0.50400001928E-02 0. -1.
</event>
<event>
 5   0  0.1468512E-05  0.2508560E+04  0.7818609E-02  0.8399942E-01
        2   -1    0    0  501    0  0.00000000000E+00  0.00000000000E+00  0.86496792272E+03  0.86496792272E+03  0.25500000920E-02 0. -1.
       -2   -1    0    0    0  501  0.00000000000E+00  0.00000000000E+00 -0.18188167435E+04  0.18188167435E+04  0.25500000920E-02 0.  1.
    10030    2    1    2    0    0  0.00000000000E+00  0.00000000000E+00 -0.95384882074E+03  0.26837846662E+04  0.25085598581E+04 0.  0.
        4    1    3    3  502    0  0.43014184251E+03  0.36900253390E+02 -0.17368220603E+04  0.17896748630E+04  0.12699999809E+01 0.  1.
       -4    1    3    3    0  502 -0.43014184251E+03 -0.36900253390E+02  0.78297323953E+03  0.89410980316E+03  0.12699999809E+01 0. -1.
</event>
<event>
 5   0  0.6105353E-06  0.2525870E+04  0.7818609E-02  0.8393827E-01
        1   -1    0    0  501    0  0.00000000000E+00  0.00000000000E+00  0.13511477666E+04  0.13511477666E+04  0.50400001928E-02 0. -1.
       -1   -1    0    0    0  501  0.00000000000E+00  0.00000000000E+00 -0.11804814728E+04  0.11804814729E+04  0.50400001928E-02 0.  1.
    10030    2    1    2    0    0  0.00000000000E+00  0.00000000000E+00  0.17066629371E+03  0.25316292394E+04  0.25258700723E+04 0.  0.
        3    1    3    3  502    0 -0.65928533368E+03  0.68220915794E+03 -0.75019724863E+03  0.12094884904E+04  0.10100000352E+00 0.  1.
       -3    1    3    3    0  502  0.65928533368E+03 -0.68220915794E+03  0.92086354234E+03  0.13221407490E+04  0.10100000352E+00 0. -1.
</event>
<event>
 5   0  0.6346420E-06  0.2492418E+04  0.7818609E-02  0.8405692E-01
        1   -1    0    0  501    0  0.00000000000E+00  0.00000000000E+00  0.18826266794E+04  0.18826266794E+04  0.50400001928E-02 0. -1.
       -1   -1    0    0    0  501  0.00000000000E+00  0.00000000000E+00 -0.82493104964E+03  0.82493104966E+03  0.50400001928E-02 0.  1.
    10030    2    1    2    0    0  0.00000000000E+00  0.00000000000E+00  0.10576956298E+04  0.27075577291E+04  0.24924182657E+04 0.  0.
        4    1    3    3  502    0  0.30328863025E+02 -0.20873826538E+03  0.18630934885E+04  0.18749961235E+04  0.12699999809E+01 0. -1.
       -4    1    3    3    0  502 -0.30328863025E+02  0.20873826538E+03 -0.80539785872E+03  0.83256160559E+03  0.12699999809E+01 0.  1.
</event>
<event>
 5   0  0.1572732E-05  0.2508437E+04  0.7818609E-02  0.8399986E-01
       -2   -1    0    0    0  501  0.00000000000E+00  0.00000000000E+00  0.93551535140E+03  0.93551535140E+03  0.25500000920E-02 0.  1.
        2   -1    0    0  501    0  0.00000000000E+00  0.00000000000E+00 -0.16814946479E+04  0.16814946479E+04  0.25500000920E-02 0. -1.
    10030    2    1    2    0    0  0.00000000000E+00  0.00000000000E+00 -0.74597929649E+03  0.26170099993E+04  0.25084370085E+04 0.  0.
        1    1    3    3  502    0  0.11164556098E+04  0.11190369283E+03  0.21168513949E+03  0.11418433182E+04  0.50400001928E-02 0.  1.
       -1    1    3    3    0  502 -0.11164556098E+04 -0.11190369283E+03 -0.95766443598E+03  0.14751666811E+04  0.50400001928E-02 0. -1.
</event>
<event>
 5   0  0.6290861E-06  0.2516064E+04  0.7818609E-02  0.8397285E-01
        1   -1    0    0  501    0  0.00000000000E+00  0.00000000000E+00  0.16573921063E+04  0.16573921063E+04  0.50400001928E-02 0.  1.
       -1   -1    0    0    0  501  0.00000000000E+00  0.00000000000E+00 -0.95490014944E+03  0.95490014946E+03  0.50400001928E-02 0. -1.
    10030    2    1    2    0    0  0.00000000000E+00  0.00000000000E+00  0.70249195682E+03  0.26122922557E+04  0.25160635683E+04 0.  0.
        1    1    3    3  502    0 -0.94190236442E+03 -0.79148517626E+03  0.62400070322E+03  0.13794947358E+04  0.50400001928E-02 0.  1.
       -1    1    3    3    0  502  0.94190236442E+03  0.79148517626E+03  0.78491253596E+02  0.12327975200E+04  0.50400001928E-02 0. -1.
</event>
<event>
 5   0  0.1468512E-05  0.2486124E+04  0.7818609E-02  0.8407946E-01
        2   -1    0    0  501    0  0.00000000000E+00  0.00000000000E+00  0.18087440107E+04  0.18087440107E+04  0.25500000920E-02 0. -1.
       -2   -1    0    0    0  501  0.00000000000E+00  0.00000000000E+00 -0.85429642176E+03  0.85429642176E+03  0.25500000920E-02 0.  1.
    10030    2    1    2    0    0  0.00000000000E+00  0.00000000000E+00  0.95444758894E+03  0.26630404325E+04  0.24861243221E+04 0.  0.
        4    1    3    3  502    0  0.90819519707E+03 -0.37908593316E+03 -0.33620835306E+03  0.10399818894E+04  0.12699999809E+01 0.  1.
       -4    1    3    3    0  502 -0.90819519707E+03  0.37908593316E+03  0.12906559420E+04  0.16230585431E+04  0.12699999809E+01 0. -1.
</event>
<event>
 5   0  0.1550483E-05  0.2505958E+04  0.7818609E-02  0.8400866E-01
        2   -1    0    0  501    0  0.00000000000E+00  0.00000000000E+00  0.11276390223E+04  0.11276390223E+04  0.25500000920E-02 0.  1.
       -2   -1    0    0    0  501  0.00000000000E+00  0.00000000000E+00 -0.13922506952E+04  0.13922506952E+04  0.25500000920E-02 0. -1.
    10030    2    1    2    0    0  0.00000000000E+00  0.00000000000E+00 -0.26461167292E+03  0.25198897175E+04  0.25059578709E+04 0.  0.
        5    1    3    3  502    0 -0.72506030560E+02  0.23268610563E+03 -0.13681765659E+04  0.13897226895E+04  0.46999998093E+01 0. -1.
       -5    1    3    3    0  502  0.72506030560E+02 -0.23268610563E+03  0.11035648930E+04  0.11301670280E+04  0.46999998093E+01 0.  1.
</event>
<event>
 5   0  0.1550483E-05  0.2497821E+04  0.7818609E-02  0.8403762E-01
        2   -1    0    0  501    0  0.00000000000E+00  0.00000000000E+00  0.22756560557E+04  0.22756560557E+04  0.25500000920E-02 0.  1.
       -2   -1    0    0    0  501  0.00000000000E+00  0.00000000000E+00 -0.68541903216E+03  0.68541903216E+03  0.25500000920E-02 0. -1.
    10030    2    1    2    0    0  0.00000000000E+00  0.00000000000E+00  0.15902370235E+04  0.29610750879E+04  0.24978214277E+04 0.  0.
        5    1    3    3  502    0 -0.11267298356E+03  0.11459320588E+04  0.13684469877E+04  0.17884419847E+04  0.46999998093E+01 0.  1.
       -5    1    3    3    0  502  0.11267298356E+03 -0.11459320588E+04  0.22179003579E+03  0.11726331031E+04  0.46999998093E+01 0. -1.
</event>
<event>
 5   0  0.6346420E-06  0.2476199E+04  0.7818609E-02  0.8411514E-01
       -1   -1    0    0    0  501  0.00000000000E+00  0.00000000000E+00  0.10714985880E+04  0.10714985880E+04  0.50400001928E-02 0.  1.
        1   -1    0    0  501    0  0.00000000000E+00  0.00000000000E+00 -0.14306040225E+04  0.14306040225E+04  0.50400001928E-02 0. -1.
    10030    2    1    2    0    0  0.00000000000E+00  0.00000000000E+00 -0.35910543452E+03  0.25021026106E+04  0.24761988532E+04 0.  0.
        4    1    3    3  502    0 -0.10824972274E+04  0.30088898765E+03  0.34603680078E+03  0.11756179272E+04  0.12699999809E+01 0.  1.
       -4    1    3    3    0  502  0.10824972274E+04 -0.30088898765E+03 -0.70514223531E+03  0.13264846834E+04  0.12699999809E+01 0. -1.
</event>
<event>
 5   0  0.6346420E-06  0.2497265E+04  0.7818609E-02  0.8403960E-01
       -1   -1    0    0    0  501  0.00000000000E+00  0.00000000000E+00  0.10099907058E+04  0.10099907058E+04  0.50400001928E-02 0.  1.
        1   -1    0    0  501    0  0.00000000000E+00  0.00000000000E+00 -0.15436610469E+04  0.15436610469E+04  0.50400001928E-02 0. -1.
    10030    2    1    2    0    0  0.00000000000E+00  0.00000000000E+00 -0.53367034106E+03  0.25536517527E+04  0.24972651524E+04 0.  0.
        4    1    3    3  502    0 -0.91389509206E+01  0.82265462695E+03  0.69364804836E+03  0.10761010099E+04  0.12699999809E+01 0.  1.
       -4    1    3    3    0  502  0.91389509206E+01 -0.82265462695E+03 -0.12273183894E+04  0.14775507428E+04  0.12699999809E+01 0. -1.
</event>
<event>
 5   0  0.6290861E-06  0.2487149E+04  0.7818609E-02  0.8407578E-01
       -1   -1    0    0    0  501  0.00000000000E+00  0.00000000000E+00  0.23194618136E+04  0.23194618136E+04  0.50400001928E-02 0. -1.
        1   -1    0    0  501    0  0.00000000000E+00  0.00000000000E+00 -0.66674001262E+03  0.66674001264E+03  0.50400001928E-02 0.  1.
    10030    2    1    2    0    0  0.00000000000E+00  0.00000000000E+00  0.16527218010E+04  0.29862018263E+04  0.24871493714E+04 0.  0.
        1    1    3    3  502    0 -0.11891870103E+04 -0.84080317261E+01  0.38974327116E+03  0.12514536580E+04  0.50400001928E-02 0.  1.
       -1    1    3    3    0  502  0.11891870103E+04  0.84080317261E+01  0.12629785299E+04  0.17347481683E+04  0.50400001928E-02 0. -1.
</event>
<event>
 5   0  0.1550483E-05  0.2675435E+04  0.7818609E-02  0.8343020E-01
       -2   -1    0    0    0  501  0.00000000000E+00  0.00000000000E+00  0.16097748074E+04  0.16097748074E+04  0.25500000920E-02 0. -1.
        2   -1    0    0  501    0  0.00000000000E+00  0.00000000000E+00 -0.11116386923E+04  0.11116386923E+04  0.25500000920E-02 0.  1.
    10030    2    1    2    0    0  0.00000000000E+00  0.00000000000E+00  0.49813611505E+03  0.27214134997E+04  0.26754348894E+04 0.  0.
        5    1    3    3  502    0 -0.11368691027E+04  0.47693446003E+03  0.77715097846E+03  0.14573687142E+04  0.46999998093E+01 0. -1.
       -5    1    3    3    0  502  0.11368691027E+04 -0.47693446003E+03 -0.27901486342E+03  0.12640447855E+04  0.46999998093E+01 0.  1.
</event>
<event>
 5   0  0.1468512E-05  0.2500826E+04  0.7818609E-02  0.8402691E-01
        2   -1    0    0  501    0  0.00000000000E+00  0.00000000000E+00  0.54475277566E+03  0.54475277566E+03  0.25500000920E-02 0.  1.
       -2   -1    0    0    0  501  0.00000000000E+00  0.00000000000E+00 -0.28701694991E+04  0.28701694991E+04  0.25500000920E-02 0. -1.
    10030    2    1    2    0    0  0.00000000000E+00  0.00000000000E+00 -0.23254167235E+04  0.34149222748E+04  0.25008261045E+04 0.  0.
        4    1    3    3  502    0 -0.19319214453E+03 -0.98331091193E+03 -0.21839363363E+04  0.24028739227E+04  0.12699999809E+01 0. -1.
       -4    1    3    3    0  502  0.19319214453E+03  0.98331091193E+03 -0.14148038718E+03  0.10120483521E+04  0.12699999809E+01 0.  1.
</event>
<event>
 5   0  0.1572732E-05  0.2500103E+04  0.7818609E-02  0.8402949E-01
        2   -1    0    0  501    0  0.00000000000E+00  0.00000000000E+00  0.24674743419E+04  0.24674743419E+04  0.25500000920E-02 0.  1.
       -2   -1    0    0    0  501  0.00000000000E+00  0.00000000000E+00 -0.63329101873E+03  0.63329101874E+03  0.25500000920E-02 0. -1.
    10030    2    1    2    0    0  0.00000000000E+00  0.00000000000E+00  0.18341833232E+04  0.31007653607E+04  0.25001034696E+04 0.  0.
        1    1    3    3  502    0  0.25696432362E+03 -0.37137397517E+03 -0.52857950653E+03  0.69523060045E+03  0.50400001928E-02 0. -1.
       -1    1    3    3    0  502 -0.25696432362E+03  0.37137397517E+03  0.23627628297E+04  0.24055347602E+04  0.50400001928E-02 0.  1.
</event>
<event>
 5   0  0.1572732E-05  0.2499122E+04  0.7818609E-02  0.8403298E-01
        2   -1    0    0  501    0  0.00000000000E+00  0.00000000000E+00  0.11491614652E+04  0.11491614652E+04  0.25500000920E-02 0. -1.
       -2   -1    0    0    0  501  0.00000000000E+00  0.00000000000E+00 -0.13587321009E+04  0.13587321009E+04  0.25500000920E-02 0.  1.
    10030    2    1    2    0    0  0.00000000000E+00  0.00000000000E+00 -0.20957063574E+03  0.25078935661E+04  0.24991219033E+04 0.  0.
        1    1    3    3  502    0  0.12237257491E+04 -0.14509669762E+02 -0.35803458030E+03  0.12751094072E+04  0.50400001928E-02 0.  1.
       -1    1    3    3    0  502 -0.12237257491E+04  0.14509669762E+02  0.14846394456E+03  0.12327841589E+04  0.50400001928E-02 0. -1.
</event>
<event>
 5   0  0.6104486E-06  0.2531293E+04  0.7818609E-02  0.8391921E-01
       -1   -1    0    0    0  501  0.00000000000E+00  0.00000000000E+00  0.11755027946E+04  0.11755027947E+04  0.50400001928E-02 0. -1.
        1   -1    0    0  501    0  0.00000000000E+00  0.00000000000E+00 -0.13627032668E+04  0.13627032668E+04  0.50400001928E-02 0.  1.
    10030    2    1    2    0    0  0.00000000000E+00  0.00000000000E+00 -0.18720047212E+03  0.25382060614E+04  0.25312933440E+04 0.  0.
        2    1    3    3  502    0  0.31328093191E+03  0.79084529981E+03 -0.10333256294E+04  0.13384106571E+04  0.25500000920E-02 0.  1.
       -2    1    3    3    0  502 -0.31328093191E+03 -0.79084529981E+03  0.84612515730E+03  0.11997954044E+04  0.25500000920E-02 0. -1.
</event>
<event>
 5   0  0.6477703E-06  0.2500887E+04  0.7818609E-02  0.8402670E-01
       -1   -1    0    0    0  501  0.00000000000E+00  0.00000000000E+00  0.12122067908E+04  0.12122067908E+04  0.50400001928E-02 0.  1.
        1   -1    0    0  501    0  0.00000000000E+00  0.00000000000E+00 -0.12898860556E+04  0.12898860556E+04  0.50400001928E-02 0. -1.
    10030    2    1    2    0    0  0.00000000000E+00  0.00000000000E+00 -0.77679264804E+02  0.25020928465E+04  0.25008867516E+04 0.  0.
        5    1    3    3  502    0  0.16941392484E+03 -0.68043303334E+03 -0.10746632105E+04  0.12832043082E+04  0.46999998093E+01 0. -1.
       -5    1    3    3    0  502 -0.16941392484E+03  0.68043303334E+03  0.99698394565E+03  0.12188885382E+04  0.46999998093E+01 0.  1.
</event>
<event>
 5   0  0.1550483E-05  0.2323379E+04  0.7818609E-02  0.8468760E-01
       -2   -1    0    0    0  501  0.00000000000E+00  0.00000000000E+00  0.81060486210E+03  0.81060486210E+03  0.25500000920E-02 0. -1.
        2   -1    0    0  501    0  0.00000000000E+00  0.00000000000E+00 -0.16648340645E+04  0.16648340645E+04  0.25500000920E-02 0.  1.
    10030    2    1    2    0    0  0.00000000000E+00  0.00000000000E+00 -0.85422920244E+03  0.24754389266E+04  0.23233790800E+04 0.  0.
        5    1    3    3  502    0  0.50770490184E+03  0.88211313657E+03  0.16954814619E+03  0.10318219405E+04  0.46999998093E+01 0. -1.
       -5    1    3    3    0  502 -0.50770490184E+03 -0.88211313657E+03 -0.10237773486E+04  0.14436169861E+04  0.46999998093E+01 0.  1.
</event>
<event>
 5   0  0.6346420E-06  0.2493989E+04  0.7818609E-02  0.8405130E-01
       -1   -1    0    0    0  501  0.00000000000E+00  0.00000000000E+00  0.16166573710E+04  0.16166573710E+04  0.50400001928E-02 0. -1.
        1   -1    0    0  501    0  0.00000000000E+00  0.00000000000E+00 -0.96185830841E+03  0.96185830843E+03  0.50400001928E-02 0.  1.
    10030    2    1    2    0    0  0.00000000000E+00  0.00000000000E+00  0.65479906254E+03  0.25785156794E+04  0.24939890330E+04 0.  0.
        4    1    3    3  502    0  0.85983340991E+03 -0.64504210708E+03  0.98096404767E+03  0.14552267481E+04  0.12699999809E+01 0. -1.
       -4    1    3    3    0  502 -0.85983340991E+03  0.64504210708E+03 -0.32616498513E+03  0.11232889313E+04  0.12699999809E+01 0.  1.
</event>
<event>
 5   0  0.1526824E-05  0.2554366E+04  0.7818609E-02  0.8383869E-01
        2   -1    0    0  501    0  0.00000000000E+00  0.00000000000E+00  0.24731423271E+04  0.24731423271E+04  0.25500000920E-02 0.  1.
       -2   -1    0    0    0  501  0.00000000000E+00  0.00000000000E+00 -0.65956438578E+03  0.65956438578E+03  0.25500000920E-02 0. -1.
    10030    2    1    2    0    0  0.00000000000E+00  0.00000000000E+00  0.18135779413E+04  0.31327067129E+04  0.25543661444E+04 0.  0.
        2    1    3    3  502    0 -0.23213801004E+03  0.52958152353E+03  0.23034203281E+04  0.23748873349E+04  0.25500000920E-02 0.  1.
       -2    1    3    3    0  502  0.23213801004E+03 -0.52958152353E+03 -0.48984238675E+03  0.75781937797E+03  0.25500000920E-02 0. -1.
</event>
<event>
 5   0  0.6290861E-06  0.2488401E+04  0.7818609E-02  0.8407129E-01
       -1   -1    0    0    0  501  0.00000000000E+00  0.00000000000E+00  0.12766210938E+04  0.12766210938E+04  0.50400001928E-02 0. -1.
        1   -1    0    0  501    0  0.00000000000E+00  0.00000000000E+00 -0.12126033227E+04  0.12126033227E+04  0.50400001928E-02 0.  1.
    10030    2    1    2    0    0  0.00000000000E+00  0.00000000000E+00  0.64017771065E+02  0.24892244166E+04  0.24884010772E+04 0.  0.
        1    1    3    3  502    0 -0.78669174314E+03  0.71359122765E+03  0.68025002755E+03  0.12612836473E+04  0.50400001928E-02 0. -1.
       -1    1    3    3    0  502  0.78669174314E+03 -0.71359122765E+03 -0.61623225648E+03  0.12279407693E+04  0.50400001928E-02 0.  1.
</event>
<event>
 5   0  0.1501947E-05  0.2533097E+04  0.7818609E-02  0.8391289E-01
       -2   -1    0    0    0  501  0.00000000000E+00  0.00000000000E+00  0.50080376634E+03  0.50080376634E+03  0.25500000920E-02 0.  1.
        2   -1    0    0  501    0  0.00000000000E+00  0.00000000000E+00 -0.32031404496E+04  0.32031404496E+04  0.25500000920E-02 0. -1.
    10030    2    1    2    0    0  0.00000000000E+00  0.00000000000E+00 -0.27023366832E+04  0.37039442159E+04  0.25330967619E+04 0.  0.
        3    1    3    3  502    0  0.10605049319E+04  0.64746315209E+03 -0.17101292949E+04  0.21138641061E+04  0.10100000352E+00 0.  1.
       -3    1    3    3    0  502 -0.10605049319E+04 -0.64746315209E+03 -0.99220738839E+03  0.15900801098E+04  0.10100000352E+00 0. -1.
</event>
<event>
 5   0  0.1550483E-05  0.2491679E+04  0.7818609E-02  0.8405956E-01
       -2   -1    0    0    0  501  0.00000000000E+00  0.00000000000E+00  0.80847894510E+03  0.80847894510E+03  0.25500000920E-02 0. -1.
        2   -1    0    0  501    0  0.00000000000E+00  0.00000000000E+00 -0.19197975987E+04  0.19197975987E+04  0.25500000920E-02 0.  1.
    10030    2    1    2    0    0  0.00000000000E+00  0.00000000000E+00 -0.11113186536E+04  0.27282765438E+04  0.24916789018E+04 0.  0.
        5    1    3    3  502    0 -0.36017859083E+03  0.59653410146E+03  0.57512361340E+03  0.90353240793E+03  0.46999998093E+01 0. -1.
       -5    1    3    3    0  502  0.36017859083E+03 -0.59653410146E+03 -0.16864422670E+04  0.18247441359E+04  0.46999998093E+01 0.  1.
</event>
<event>
 5   0  0.6290861E-06  0.2584327E+04  0.7818609E-02  0.8373544E-01
       -1   -1    0    0    0  501  0.00000000000E+00  0.00000000000E+00  0.13750916904E+04  0.13750916904E+04  0.50400001928E-02 0.  1.
        1   -1    0    0  501    0  0.00000000000E+00  0.00000000000E+00 -0.12142369292E+04  0.12142369292E+04  0.50400001928E-02 0. -1.
    10030    2    1    2    0    0  0.00000000000E+00  0.00000000000E+00  0.16085476117E+03  0.25893286196E+04  0.25843274650E+04 0.  0.
        1    1    3    3  502    0  0.96257616649E+03  0.18636066550E+03 -0.76286875809E+03  0.12422769079E+04  0.50400001928E-02 0. -1.
       -1    1    3    3    0  502 -0.96257616649E+03 -0.18636066550E+03  0.92372351925E+03  0.13470517117E+04  0.50400001928E-02 0.  1.
</event>
<event>
 5   0  0.6346420E-06  0.2466660E+04  0.7818609E-02  0.8414960E-01
       -1   -1    0    0    0  501  0.00000000000E+00  0.00000000000E+00  0.13989610685E+04  0.13989610685E+04  0.50400001928E-02 0. -1.
        1   -1    0    0  501    0  0.00000000000E+00  0.00000000000E+00 -0.10873093667E+04  0.10873093668E+04  0.50400001928E-02 0.  1.
    10030    2    1    2    0    0  0.00000000000E+00  0.00000000000E+00  0.31165170176E+03  0.24862704353E+04  0.24666604740E+04 0.  0.
        4    1    3    3  502    0 -0.96494963274E+03  0.12932598413E+03 -0.60732534596E+03  0.11474749203E+04  0.12699999809E+01 0.  1.
       -4    1    3    3    0  502  0.96494963274E+03 -0.12932598413E+03  0.91897704772E+03  0.13387955150E+04  0.12699999809E+01 0. -1.
</event>
<event>
 5   0  0.5164625E-06  0.2556010E+04  0.7818609E-02  0.8383299E-01
       -3   -1    0    0    0  501  0.00000000000E+00  0.00000000000E+00  0.18392026134E+04  0.18392026162E+04  0.10100000352E+00 0. -1.
        3   -1    0    0  501    0  0.00000000000E+00  0.00000000000E+00 -0.88804609038E+03  0.88804609612E+03  0.10100000352E+00 0.  1.
    10030    2    1    2    0    0  0.00000000000E+00  0.00000000000E+00  0.95115652300E+03  0.27272487123E+04  0.25560099388E+04 0.  0.
        4    1    3    3  502    0 -0.10384855659E+04  0.48169158774E+03  0.10818115153E+04  0.15750545463E+04  0.12699999809E+01 0. -1.
       -4    1    3    3    0  502  0.10384855659E+04 -0.48169158774E+03 -0.13065499231E+03  0.11521941660E+04  0.12699999809E+01 0.  1.
</event>
<event>
 5   0  0.6477703E-06  0.2507901E+04  0.7818609E-02  0.8400176E-01
        1   -1    0    0  501    0  0.00000000000E+00  0.00000000000E+00  0.14220199101E+04  0.14220199101E+04  0.50400001928E-02 0.  1.
       -1   -1    0    0    0  501  0.00000000000E+00  0.00000000000E+00 -0.11057455091E+04  0.11057455091E+04  0.50400001928E-02 0. -1.
    10030    2    1    2    0    0  0.00000000000E+00  0.00000000000E+00  0.31627440100E+03  0.25277654192E+04  0.25079012177E+04 0.  0.
        5    1    3    3  502    0 -0.91570265792E+03  0.82803103626E+03  0.37947456609E+03  0.12915764751E+04  0.46999998093E+01 0.  1.
       -5    1    3    3    0  502  0.91570265792E+03 -0.82803103626E+03 -0.63200165094E+02  0.12361889441E+04  0.46999998093E+01 0. -1.
</event>
<event>
 5   0  0.1550483E-05  0.2503559E+04  0.7818609E-02  0.8401719E-01
        2   -1    0    0  501    0  0.00000000000E+00  0.00000000000E+00  0.95410828389E+03  0.95410828389E+03  0.25500000920E-02 0.  1.
       -2   -1    0    0    0  501  0.00000000000E+00  0.00000000000E+00 -0.16423212585E+04  0.16423212585E+04  0.25500000920E-02 0. -1.
    10030    2    1    2    0    0  0.00000000000E+00  0.00000000000E+00 -0.68821297463E+03  0.25964295424E+04  0.25035593203E+04 0.  0.
        5    1    3    3  502    0  0.70005313879E+03 -0.68822647172E+03 -0.11495765022E+04  0.15117136957E+04  0.46999998093E+01 0. -1.
       -5    1    3    3    0  502 -0.70005313879E+03  0.68822647172E+03  0.46136352754E+03  0.10847158467E+04  0.46999998093E+01 0.  1.
</event>
<event>
 5   0  0.1550483E-05  0.2502083E+04  0.7818609E-02  0.8402244E-01
       -2   -1    0    0    0  501  0.00000000000E+00  0.00000000000E+00  0.61625662961E+03  0.61625662961E+03  0.25500000920E-02 0.  1.
        2   -1    0    0  501    0  0.00000000000E+00  0.00000000000E+00 -0.25396969069E+04  0.25396969069E+04  0.25500000920E-02 0. -1.
    10030    2    1    2    0    0  0.00000000000E+00  0.00000000000E+00 -0.19234402773E+04  0.31559535365E+04  0.25020831769E+04 0.  0.
        5    1    3    3  502    0 -0.17659130669E+03  0.40695885093E+02 -0.25230425175E+04  0.25295466550E+04  0.46999998093E+01 0. -1.
       -5    1    3    3    0  502  0.17659130669E+03 -0.40695885093E+02  0.59960224025E+03  0.62640688148E+03  0.46999998093E+01 0.  1.
</event>
<event>
 5   0  0.1501947E-05  0.2524324E+04  0.7818609E-02  0.8394371E-01
        2   -1    0    0  501    0  0.00000000000E+00  0.00000000000E+00  0.16926280392E+04  0.16926280393E+04  0.25500000920E-02 0.  1.
       -2   -1    0    0    0  501  0.00000000000E+00  0.00000000000E+00 -0.94117160702E+03  0.94117160702E+03  0.25500000920E-02 0. -1.
    10030    2    1    2    0    0  0.00000000000E+00  0.00000000000E+00  0.75145643223E+03  0.26337996463E+04  0.25243244259E+04 0.  0.
        3    1    3    3  502    0 -0.50346141341E+03 -0.15570216839E+03  0.15723476843E+04  0.16583105290E+04  0.10100000352E+00 0.  1.
       -3    1    3    3    0  502  0.50346141341E+03  0.15570216839E+03 -0.82089125206E+03  0.97548911729E+03  0.10100000352E+00 0. -1.
</event>
<event>
 5   0  0.1550483E-05  0.2446533E+04  0.7818609E-02  0.8422285E-01
        2   -1    0    0  501    0  0.00000000000E+00  0.00000000000E+00  0.77447034886E+03  0.77447034887E+03  0.25500000920E-02 0. -1.
       -2   -1    0    0    0  501  0.00000000000E+00  0.00000000000E+00 -0.19321344570E+04  0.19321344570E+04  0.25500000920E-02 0.  1.
    10030    2    1    2    0    0  0.00000000000E+00  0.00000000000E+00 -0.11576641081E+04  0.27066048058E+04  0.24465329321E+04 0.  0.
        5    1    3    3  502    0 -0.68892870717E+03 -0.60984886841E+03 -0.14706381503E+04  0.17347440921E+04  0.46999998093E+01 0.  1.
       -5    1    3    3    0  502  0.68892870717E+03  0.60984886841E+03  0.31297404219E+03  0.97186071376E+03  0.46999998093E+01 0. -1.
</event>
<event>
 5   0  0.6104486E-06  0.2504413E+04  0.7818609E-02  0.8401415E-01
        1   -1    0    0  501    0  0.00000000000E+00  0.00000000000E+00  0.18944200271E+04  0.18944200271E+04  0.50400001928E-02 0.  1.
       -1   -1    0    0    0  501  0.00000000000E+00  0.00000000000E+00 -0.82770534476E+03  0.82770534478E+03  0.50400001928E-02 0. -1.
    10030    2    1    2    0    0  0.00000000000E+00  0.00000000000E+00  0.10667146824E+04  0.27221253719E+04  0.25044133698E+04 0.  0.
        2    1    3    3  502    0  0.80547111597E+03 -0.80029662229E+02 -0.50512186155E+03  0.95411559075E+03  0.25500000920E-02 0. -1.
       -2    1    3    3    0  502 -0.80547111597E+03  0.80029662229E+02  0.15718365439E+04  0.17680097812E+04  0.25500000920E-02 0.  1.
</event>
<event>
 5   0  0.1501947E-05  0.2499448E+04  0.7818609E-02  0.8403182E-01
       -2   -1    0    0    0  501  0.00000000000E+00  0.00000000000E+00  0.73711163194E+03  0.73711163195E+03  0.25500000920E-02 0.  1.
        2   -1    0    0  501    0  0.00000000000E+00  0.00000000000E+00 -0.21188235136E+04  0.21188235136E+04  0.25500000920E-02 0. -1.
    10030    2    1    2    0    0  0.00000000000E+00  0.00000000000E+00 -0.13817118817E+04  0.28559351456E+04  0.24994475053E+04 0.  0.
        3    1    3    3  502    0 -0.24323946891E+02  0.12296850167E+04 -0.43768600602E+03  0.13054830312E+04  0.10100000352E+00 0.  1.
       -3    1    3    3    0  502  0.24323946891E+02 -0.12296850167E+04 -0.94402587565E+03  0.15504521143E+04  0.10100000352E+00 0. -1.
</event>
<event>
 5   0  0.1468512E-05  0.2560811E+04  0.7818609E-02  0.8381636E-01
        2   -1    0    0  501    0  0.00000000000E+00  0.00000000000E+00  0.17528685294E+04  0.17528685294E+04  0.25500000920E-02 0. -1.
       -2   -1    0    0    0  501  0.00000000000E+00  0.00000000000E+00 -0.93528849789E+03  0.93528849789E+03  0.25500000920E-02 0.  1.
    10030    2    1    2    0    0  0.00000000000E+00  0.00000000000E+00  0.81758003149E+03  0.26881570273E+04  0.25608106325E+04 0.  0.
        4    1    3    3  502    0  0.11484231550E+04 -0.45974435020E+03  0.75567031938E+03  0.14495791993E+04  0.12699999809E+01 0. -1.
       -4    1    3    3    0  502 -0.11484231550E+04  0.45974435020E+03  0.61909712106E+02  0.12385778280E+04  0.12699999809E+01 0.  1.
</event>
<event>
 5   0  0.1501947E-05  0.2499387E+04  0.7818609E-02  0.8403204E-01
       -2   -1    0    0    0  501  0.00000000000E+00  0.00000000000E+00  0.64667431545E+03  0.64667431545E+03  0.25500000920E-02 0.  1.
        2   -1    0    0  501    0  0.00000000000E+00  0.00000000000E+00 -0.24150229573E+04  0.24150229573E+04  0.25500000920E-02 0. -1.
    10030    2    1    2    0    0  0.00000000000E+00  0.00000000000E+00 -0.17683486418E+04  0.30616972728E+04  0.24993865789E+04 0.  0.
        3    1    3    3  502    0  0.66607615093E+03  0.30667202724E+03 -0.21237834293E+04  0.22468113485E+04  0.10100000352E+00 0. -1.
       -3    1    3    3    0  502 -0.66607615093E+03 -0.30667202724E+03  0.35543478746E+03  0.81488592421E+03  0.10100000352E+00 0.  1.
</event>
<event>
 5   0  0.6104486E-06  0.2469139E+04  0.7818609E-02  0.8414063E-01
       -1   -1    0    0    0  501  0.00000000000E+00  0.00000000000E+00  0.11466010611E+04  0.11466010611E+04  0.50400001928E-02 0. -1.
        1   -1    0    0  501    0  0.00000000000E+00  0.00000000000E+00 -0.13292874905E+04  0.13292874905E+04  0.50400001928E-02 0.  1.
    10030    2    1    2    0    0  0.00000000000E+00  0.00000000000E+00 -0.18268642943E+03  0.24758885516E+04  0.24691394834E+04 0.  0.
        2    1    3    3  502    0 -0.11075919644E+04 -0.26532736294E+03  0.38640833637E+03  0.12026928001E+04  0.25500000920E-02 0.  1.
       -2    1    3    3    0  502  0.11075919644E+04  0.26532736294E+03 -0.56909476581E+03  0.12731957515E+04  0.25500000920E-02 0. -1.
</event>
<event>
 5   0  0.1526824E-05  0.2506303E+04  0.7818609E-02  0.8400744E-01
        2   -1    0    0  501    0  0.00000000000E+00  0.00000000000E+00  0.22466398427E+04  0.22466398427E+04  0.25500000920E-02 0. -1.
       -2   -1    0    0    0  501  0.00000000000E+00  0.00000000000E+00 -0.69899414785E+03  0.69899414785E+03  0.25500000920E-02 0.  1.
    10030    2    1    2    0    0  0.00000000000E+00  0.00000000000E+00  0.15476456948E+04  0.29456339905E+04  0.25063025375E+04 0.  0.
        2    1    3    3  502    0  0.59712629971E+03  0.22223747837E+03 -0.49442350104E+03  0.80647623213E+03  0.25500000920E-02 0.  1.
       -2    1    3    3    0  502 -0.59712629971E+03 -0.22223747837E+03  0.20420691959E+04  0.21391577584E+04  0.25500000920E-02 0. -1.
</event>
<event>
 5   0  0.6346420E-06  0.2507462E+04  0.7818609E-02  0.8400332E-01
       -1   -1    0    0    0  501  0.00000000000E+00  0.00000000000E+00  0.96657878206E+03  0.96657878207E+03  0.50400001928E-02 0.  1.
        1   -1    0    0  501    0  0.00000000000E+00  0.00000000000E+00 -0.16261900858E+04  0.16261900858E+04  0.50400001928E-02 0. -1.
    10030    2    1    2    0    0  0.00000000000E+00  0.00000000000E+00 -0.65961130376E+03  0.25927688679E+04  0.25074615312E+04 0.  0.
        4    1    3    3  502    0 -0.70421940926E+02  0.42236722322E+03 -0.15482347473E+04  0.16063579199E+04  0.12699999809E+01 0. -1.
       -4    1    3    3    0  502  0.70421940926E+02 -0.42236722322E+03  0.88862344357E+03  0.98641094802E+03  0.12699999809E+01 0.  1.
</event>
<event>
 5   0  0.6346420E-06  0.2515733E+04  0.7818609E-02  0.8397402E-01
        1   -1    0    0  501    0  0.00000000000E+00  0.00000000000E+00  0.27212695510E+04  0.27212695510E+04  0.50400001928E-02 0.  1.
       -1   -1    0    0    0  501  0.00000000000E+00  0.00000000000E+00 -0.58143017622E+03  0.58143017624E+03  0.50400001928E-02 0. -1.
    10030    2    1    2    0    0  0.00000000000E+00  0.00000000000E+00  0.21398393747E+04  0.33026997272E+04  0.25157330817E+04 0.  0.
        4    1    3    3  502    0  0.35691442137E+03  0.10690935420E+04  0.33676316529E+03  0.11763332640E+04  0.12699999809E+01 0. -1.
       -4    1    3    3    0  502 -0.35691442137E+03 -0.10690935420E+04  0.18030762095E+04  0.21263664632E+04  0.12699999809E+01 0.  1.
</event>
<event>
 5   0  0.1468512E-05  0.2523491E+04  0.7818609E-02  0.8394664E-01
       -2   -1    0    0    0  501  0.00000000000E+00  0.00000000000E+00  0.11478374385E+04  0.11478374385E+04  0.25500000920E-02 0.  1.
        2   -1    0    0  501    0  0.00000000000E+00  0.00000000000E+00 -0.13869577083E+04  0.13869577083E+04  0.25500000920E-02 0. -1.
    10030    2    1    2    0    0  0.00000000000E+00  0.00000000000E+00 -0.23912026980E+03  0.25347951468E+04  0.25234912191E+04 0.  0.
        4    1    3    3  502    0  0.76631462663E+03 -0.21400503487E+03 -0.11032138703E+04  0.13601906920E+04  0.12699999809E+01 0. -1.
       -4    1    3    3    0  502 -0.76631462663E+03  0.21400503487E+03  0.86409360051E+03  0.11746044548E+04  0.12699999809E+01 0.  1.
</event>
<event>
 5   0  0.6105353E-06  0.2506710E+04  0.7818609E-02  0.8400599E-01
       -1   -1    0    0    0  501  0.00000000000E+00  0.00000000000E+00  0.15047468812E+04  0.15047468812E+04  0.50400001928E-02 0.  1.
        1   -1    0    0  501    0  0.00000000000E+00  0.00000000000E+00 -0.10439625166E+04  0.10439625166E+04  0.50400001928E-02 0. -1.
    10030    2    1    2    0    0  0.00000000000E+00  0.00000000000E+00  0.46078436459E+03  0.25487093978E+04  0.25067104667E+04 0.  0.
        3    1    3    3  502    0  0.27174878286E+03 -0.12186346520E+04  0.11909811689E+03  0.12542337054E+04  0.10100000352E+00 0.  1.
       -3    1    3    3    0  502 -0.27174878286E+03  0.12186346520E+04  0.34168624769E+03  0.12944756924E+04  0.10100000352E+00 0. -1.
</event>
<event>
 5   0  0.6104486E-06  0.2504528E+04  0.7818609E-02  0.8401374E-01
        1   -1    0    0  501    0  0.00000000000E+00  0.00000000000E+00  0.17076778613E+04  0.17076778613E+04  0.50400001928E-02 0. -1.
       -1   -1    0    0    0  501  0.00000000000E+00  0.00000000000E+00 -0.91830266780E+03  0.91830266781E+03  0.50400001928E-02 0.  1.
    10030    2    1    2    0    0  0.00000000000E+00  0.00000000000E+00  0.78937519346E+03  0.26259805291E+04  0.25045280080E+04 0.  0.
        2    1    3    3  502    0  0.10474225012E+04  0.50072619404E+03 -0.97484212211E+02  0.11650423980E+04  0.25500000920E-02 0.  1.
       -2    1    3    3    0  502 -0.10474225012E+04 -0.50072619404E+03  0.88685940567E+03  0.14609381311E+04  0.25500000920E-02 0. -1.
</event>
<event>
 5   0  0.1501947E-05  0.2463159E+04  0.7818609E-02  0.8416229E-01
        2   -1    0    0  501    0  0.00000000000E+00  0.00000000000E+00  0.11661778557E+04  0.11661778557E+04  0.25500000920E-02 0. -1.
       -2   -1    0    0    0  501  0.00000000000E+00  0.00000000000E+00 -0.13006491282E+04  0.13006491283E+04  0.25500000920E-02 0.  1.
    10030    2    1    2    0    0  0.00000000000E+00  0.00000000000E+00 -0.13447127259E+03  0.24668269839E+04  0.24631591190E+04 0.  0.
        3    1    3    3  502    0  0.10897550113E+03 -0.12267403852E+04 -0.71777641187E+02  0.12336610850E+04  0.10100000352E+00 0.  1.
       -3    1    3    3    0  502 -0.10897550113E+03  0.12267403852E+04 -0.62693631408E+02  0.12331658989E+04  0.10100000352E+00 0. -1.
</event>
<event>
 5   0  0.1501947E-05  0.2490061E+04  0.7818609E-02  0.8406535E-01
        2   -1    0    0  501    0  0.00000000000E+00  0.00000000000E+00  0.17160229880E+04  0.17160229880E+04  0.25500000920E-02 0. -1.
       -2   -1    0    0    0  501  0.00000000000E+00  0.00000000000E+00 -0.90331019739E+03  0.90331019739E+03  0.25500000920E-02 0.  1.
    10030    2    1    2    0    0  0.00000000000E+00  0.00000000000E+00  0.81271279064E+03  0.26193331854E+04  0.24900610949E+04 0.  0.
        3    1    3    3  502    0  0.28322784237E+01 -0.93134035180E+03  0.12755071574E+04  0.15793420755E+04  0.10100000352E+00 0. -1.
       -3    1    3    3    0  502 -0.28322784237E+01  0.93134035180E+03 -0.46279436672E+03  0.10399911099E+04  0.10100000352E+00 0.  1.
</event>
<event>
 5   0  0.1468512E-05  0.2496702E+04  0.7818609E-02  0.8404162E-01
        2   -1    0    0  501    0  0.00000000000E+00  0.00000000000E+00  0.16512183099E+04  0.16512183099E+04  0.25500000920E-02 0. -1.
       -2   -1    0    0    0  501  0.00000000000E+00  0.00000000000E+00 -0.94377576787E+03  0.94377576788E+03  0.25500000920E-02 0.  1.
    10030    2    1    2    0    0  0.00000000000E+00  0.00000000000E+00  0.70744254199E+03  0.25949940777E+04  0.24967016869E+04 0.  0.
        4    1    3    3  502    0 -0.76971625631E+03 -0.89558000917E+03  0.77444304581E+03  0.14121934401E+04  0.12699999809E+01 0. -1.
       -4    1    3    3    0  502  0.76971625631E+03  0.89558000917E+03 -0.67000503820E+02  0.11828006377E+04  0.12699999809E+01 0.  1.
</event>
<event>
 5   0  0.6290861E-06  0.2473367E+04  0.7818609E-02  0.8412536E-01
       -1   -1    0    0    0  501  0.00000000000E+00  0.00000000000E+00  0.79160056840E+03  0.79160056842E+03  0.50400001928E-02 0.  1.
        1   -1    0    0  501    0  0.00000000000E+00  0.00000000000E+00 -0.19320173424E+04  0.19320173424E+04  0.50400001928E-02 0. -1.
    10030    2    1    2    0    0  0.00000000000E+00  0.00000000000E+00 -0.11404167740E+04  0.27236179109E+04  0.24733669574E+04 0.  0.
        1    1    3    3  502    0 -0.16129443181E+03 -0.86363642223E+03 -0.15286145421E+04  0.17631069683E+04  0.50400001928E-02 0. -1.
       -1    1    3    3    0  502  0.16129443181E+03  0.86363642223E+03  0.38819776806E+03  0.96051094251E+03  0.50400001928E-02 0.  1.
</event>
<event>
 5   0  0.1468512E-05  0.2499699E+04  0.7818609E-02  0.8403093E-01
       -2   -1    0    0    0  501  0.00000000000E+00  0.00000000000E+00  0.11745410812E+04  0.11745410812E+04  0.25500000920E-02 0.  1.
        2   -1    0    0  501    0  0.00000000000E+00  0.00000000000E+00 -0.13299860946E+04  0.13299860946E+04  0.25500000920E-02 0. -1.
    10030    2    1    2    0    0  0.00000000000E+00  0.00000000000E+00 -0.15544501336E+03  0.25045271758E+04  0.24996986263E+04 0.  0.
        4    1    3    3  502    0 -0.80652058429E+03  0.85065578450E+03 -0.51218550715E+03  0.12792288002E+04  0.12699999809E+01 0. -1.
       -4    1    3    3    0  502  0.80652058429E+03 -0.85065578450E+03  0.35674049380E+03  0.12252983757E+04  0.12699999809E+01 0.  1.
</event>
<event>
 5   0  0.6105353E-06  0.2506064E+04  0.7818609E-02  0.8400829E-01
        1   -1    0    0  501    0  0.00000000000E+00  0.00000000000E+00  0.15547578971E+04  0.15547578971E+04  0.50400001928E-02 0.  1.
       -1   -1    0    0    0  501  0.00000000000E+00  0.00000000000E+00 -0.10098605054E+04  0.10098605054E+04  0.50400001928E-02 0. -1.
    10030    2    1    2    0    0  0.00000000000E+00  0.00000000000E+00  0.54489739174E+03  0.25646184026E+04  0.25060635234E+04 0.  0.
        3    1    3    3  502    0  0.52392733747E+03 -0.11192361130E+04  0.60487896555E+02  0.12372744754E+04  0.10100000352E+00 0. -1.
       -3    1    3    3    0  502 -0.52392733747E+03  0.11192361130E+04  0.48440949518E+03  0.13273439271E+04  0.10100000352E+00 0.  1.
</event>
<event>
 5   0  0.1501947E-05  0.2509256E+04  0.7818609E-02  0.8399695E-01
        2   -1    0    0  501    0  0.00000000000E+00  0.00000000000E+00  0.25103849537E+04  0.25103849537E+04  0.25500000920E-02 0.  1.
       -2   -1    0    0    0  501  0.00000000000E+00  0.00000000000E+00 -0.62703205808E+03  0.62703205808E+03  0.25500000920E-02 0. -1.
    10030    2    1    2    0    0  0.00000000000E+00  0.00000000000E+00  0.18833528956E+04  0.31374170117E+04  0.25092563393E+04 0.  0.
        3    1    3    3  502    0  0.71206324442E+03 -0.20504062097E+03  0.22075565207E+04  0.23286007650E+04  0.10100000352E+00 0.  1.
       -3    1    3    3    0  502 -0.71206324442E+03  0.20504062097E+03 -0.32420362513E+03  0.80881624677E+03  0.10100000352E+00 0. -1.
</event>
<event>
 5   0  0.1501947E-05  0.2521059E+04  0.7818609E-02  0.8395522E-01
       -2   -1    0    0    0  501  0.00000000000E+00  0.00000000000E+00  0.11532145263E+04  0.11532145263E+04  0.25500000920E-02 0.  1.
        2   -1    0    0  501    0  0.00000000000E+00  0.00000000000E+00 -0.13778304176E+04  0.13778304176E+04  0.25500000920E-02 0. -1.
    10030    2    1    2    0    0  0.00000000000E+00  0.00000000000E+00 -0.22461589133E+03  0.25310449439E+04  0.25210585494E+04 0.  0.
        3    1    3    3  502    0 -0.92828482570E+03  0.63057033429E+03 -0.68869218017E+03  0.13166733055E+04  0.10100000352E+00 0. -1.
       -3    1    3    3    0  502  0.92828482570E+03 -0.63057033429E+03  0.46407628884E+03  0.12143716384E+04  0.10100000352E+00 0.  1.
</event>
<event>
 5   0  0.6290861E-06  0.2516070E+04  0.7818609E-02  0.8397283E-01
       -1   -1    0    0    0  501  0.00000000000E+00  0.00000000000E+00  0.10628412521E+04  0.10628412521E+04  0.50400001928E-02 0. -1.
        1   -1    0    0  501    0  0.00000000000E+00  0.00000000000E+00 -0.14890768518E+04  0.14890768518E+04  0.50400001928E-02 0.  1.
    10030    2    1    2    0    0  0.00000000000E+00  0.00000000000E+00 -0.42623559974E+03  0.25519181039E+04  0.25160701943E+04 0.  0.
        1    1    3    3  502    0  0.10075471955E+04 -0.75310237116E+03 -0.19447734872E+03  0.12728456198E+04  0.50400001928E-02 0.  1.
       -1    1    3    3    0  502 -0.10075471955E+04  0.75310237116E+03 -0.23175825102E+03  0.12790724841E+04  0.50400001928E-02 0. -1.
</event>
<event>
 5   0  0.6290861E-06  0.2501888E+04  0.7818609E-02  0.8402313E-01
        1   -1    0    0  501    0  0.00000000000E+00  0.00000000000E+00  0.12979677837E+04  0.12979677837E+04  0.50400001928E-02 0. -1.
       -1   -1    0    0    0  501  0.00000000000E+00  0.00000000000E+00 -0.12056242975E+04  0.12056242975E+04  0.50400001928E-02 0.  1.
    10030    2    1    2    0    0  0.00000000000E+00  0.00000000000E+00  0.92343486166E+02  0.25035920812E+04  0.25018884847E+04 0.  0.
        1    1    3    3  502    0  0.10777526368E+04 -0.63312696429E+03 -0.34704870305E+01  0.12499650169E+04  0.50400001928E-02 0. -1.
       -1    1    3    3    0  502 -0.10777526368E+04  0.63312696429E+03  0.95813973197E+02  0.12536270644E+04  0.50400001928E-02 0.  1.
</event>
<event>
 5   0  0.1572732E-05  0.2499623E+04  0.7818609E-02  0.8403120E-01
        2   -1    0    0  501    0  0.00000000000E+00  0.00000000000E+00  0.15338766727E+04  0.15338766727E+04  0.25500000920E-02 0. -1.
       -2   -1    0    0    0  501  0.00000000000E+00  0.00000000000E+00 -0.10183533382E+04  0.10183533382E+04  0.25500000920E-02 0.  1.
    10030    2    1    2    0    0  0.00000000000E+00  0.00000000000E+00  0.51552333451E+03  0.25522300109E+04  0.24996227155E+04 0.  0.
        1    1    3    3  502    0 -0.76312042440E+03  0.28250929537E+03 -0.71081459781E+03  0.10804728949E+04  0.50400001928E-02 0.  1.
       -1    1    3    3    0  502  0.76312042440E+03 -0.28250929537E+03  0.12263379323E+04  0.14717571160E+04  0.50400001928E-02 0. -1.
</event>
<event>
 5   0  0.6346420E-06  0.2496406E+04  0.7818609E-02  0.8404267E-01
       -1   -1    0    0    0  501  0.00000000000E+00  0.00000000000E+00  0.16393021824E+04  0.16393021824E+04  0.50400001928E-02 0.  1.
        1   -1    0    0  501    0  0.00000000000E+00  0.00000000000E+00 -0.95041118613E+03  0.95041118614E+03  0.50400001928E-02 0. -1.
    10030    2    1    2    0    0  0.00000000000E+00  0.00000000000E+00  0.68889099630E+03  0.25897133686E+04  0.24964063224E+04 0.  0.
        4    1    3    3  502    0 -0.27339547626E+03 -0.69389214866E+03  0.13827439238E+04  0.15710549870E+04  0.12699999809E+01 0.  1.
       -4    1    3    3    0  502  0.27339547626E+03  0.69389214866E+03 -0.69385292752E+03  0.10186583816E+04  0.12699999809E+01 0. -1.
</event>
<event>
 5   0  0.1550483E-05  0.2504157E+04  0.7818609E-02  0.8401506E-01
       -2   -1    0    0    0  501  0.00000000000E+00  0.00000000000E+00  0.12736997505E+04  0.12736997505E+04  0.25500000920E-02 0. -1.
        2   -1    0    0  501    0  0.00000000000E+00  0.00000000000E+00 -0.12308242151E+04  0.12308242151E+04  0.25500000920E-02 0.  1.
    10030    2    1    2    0    0  0.00000000000E+00  0.00000000000E+00  0.42875535464E+02  0.25045239656E+04  0.25041569405E+04 0.  0.
        5    1    3    3  502    0 -0.43794662998E+03 -0.11513085932E+04  0.24590256310E+03  0.12561046485E+04  0.46999998093E+01 0. -1.
       -5    1    3    3    0  502  0.43794662998E+03  0.11513085932E+04 -0.20302702764E+03  0.12484193171E+04  0.46999998093E+01 0.  1.
</event>
<event>
 5   0  0.6104486E-06  0.2500052E+04  0.7818609E-02  0.8402967E-01
        1   -1    0    0  501    0  0.00000000000E+00  0.00000000000E+00  0.10752816512E+04  0.10752816512E+04  0.50400001928E-02 0.  1.
       -1   -1    0    0    0  501  0.00000000000E+00  0.00000000000E+00 -0.14531676710E+04  0.14531676710E+04  0.50400001928E-02 0. -1.
    10030    2    1    2    0    0  0.00000000000E+00  0.00000000000E+00 -0.37788601977E+03  0.25284493222E+04  0.25000516256E+04 0.  0.
        2    1    3    3  502    0  0.34170771200E+03 -0.11874657703E+04  0.22156283974E+01  0.12356553019E+04  0.25500000920E-02 0.  1.
       -2    1    3    3    0  502 -0.34170771200E+03  0.11874657703E+04 -0.38010164817E+03  0.12927940203E+04  0.25500000920E-02 0. -1.
</event>
<event>
 5   0  0.6477703E-06  0.2501752E+04  0.7818609E-02  0.8402362E-01
       -1   -1    0    0    0  501  0.00000000000E+00  0.00000000000E+00  0.32825796059E+04  0.32825796059E+04  0.50400001928E-02 0.  1.
        1   -1    0    0  501    0  0.00000000000E+00  0.00000000000E+00 -0.47666494607E+03  0.47666494610E+03  0.50400001928E-02 0. -1.
    10030    2    1    2    0    0  0.00000000000E+00  0.00000000000E+00  0.28059146598E+04  0.37592445520E+04  0.25017518909E+04 0.  0.
        5    1    3    3  502    0 -0.74103156273E+03 -0.39544920440E+03  0.27957726706E+04  0.29192250283E+04  0.46999998093E+01 0.  1.
       -5    1    3    3    0  502  0.74103156273E+03  0.39544920440E+03  0.10141989207E+02  0.84001952368E+03  0.46999998093E+01 0. -1.
</event>
<event>
 5   0  0.6290861E-06  0.2503940E+04  0.7818609E-02  0.8401583E-01
       -1   -1    0    0    0  501  0.00000000000E+00  0.00000000000E+00  0.14575377693E+04  0.14575377694E+04  0.50400001928E-02 0.  1.
        1   -1    0    0  501    0  0.00000000000E+00  0.00000000000E+00 -0.10753948112E+04  0.10753948112E+04  0.50400001928E-02 0. -1.
    10030    2    1    2    0    0  0.00000000000E+00  0.00000000000E+00  0.38214295815E+03  0.25329325806E+04  0.25039397391E+04 0.  0.
        1    1    3    3  502    0 -0.64411344130E+03  0.55023205969E+03  0.11235865279E+04  0.14071546221E+04  0.50400001928E-02 0.  1.
       -1    1    3    3    0  502  0.64411344130E+03 -0.55023205969E+03 -0.74144356970E+03  0.11257779585E+04  0.50400001928E-02 0. -1.
</event>
<event>
 5   0  0.1550483E-05  0.2496030E+04  0.7818609E-02  0.8404401E-01
        2   -1    0    0  501    0  0.00000000000E+00  0.00000000000E+00  0.16566862098E+04  0.16566862098E+04  0.25500000920E-02 0. -1.
       -2   -1    0    0    0  501  0.00000000000E+00  0.00000000000E+00 -0.94015511315E+03  0.94015511315E+03  0.25500000920E-02 0.  1.
    10030    2    1    2    0    0  0.00000000000E+00  0.00000000000E+00  0.71653109667E+03  0.25968413230E+04  0.24960304574E+04 0.  0.
        5    1    3    3  502    0  0.66228840898E+03  0.45302720342E+03 -0.63619582513E+03  0.10240248052E+04  0.46999998093E+01 0.  1.
       -5    1    3    3    0  502 -0.66228840898E+03 -0.45302720342E+03  0.13527269218E+04  0.15728165178E+04  0.46999998093E+01 0. -1.
</event>
<event>
 5   0  0.6104486E-06  0.2491524E+04  0.7818609E-02  0.8406011E-01
        1   -1    0    0  501    0  0.00000000000E+00  0.00000000000E+00  0.24320458111E+04  0.24320458111E+04  0.50400001928E-02 0.  1.
       -1   -1    0    0    0  501  0.00000000000E+00  0.00000000000E+00 -0.63811444857E+03  0.63811444859E+03  0.50400001928E-02 0. -1.
    10030    2    1    2    0    0  0.00000000000E+00  0.00000000000E+00  0.17939313626E+04  0.30701602597E+04  0.24915244905E+04 0.  0.
        2    1    3    3  502    0  0.93101490233E+03  0.70622968380E+03  0.14289380573E+04  0.18459179522E+04  0.25500000920E-02 0.  1.
       -2    1    3    3    0  502 -0.93101490233E+03 -0.70622968380E+03  0.36499330525E+03  0.12242423075E+04  0.25500000920E-02 0. -1.
</event>
<event>
 5   0  0.6105353E-06  0.2499493E+04  0.7818609E-02  0.8403166E-01
        1   -1    0    0  501    0  0.00000000000E+00  0.00000000000E+00  0.11068877358E+04  0.11068877358E+04  0.50400001928E-02 0. -1.
       -1   -1    0    0    0  501  0.00000000000E+00  0.00000000000E+00 -0.14110428379E+04  0.14110428379E+04  0.50400001928E-02 0.  1.
    10030    2    1    2    0    0  0.00000000000E+00  0.00000000000E+00 -0.30415510209E+03  0.25179305737E+04  0.24994927582E+04 0.  0.
        3    1    3    3  502    0  0.29904645065E+03  0.10158994272E+04  0.51643322372E+03  0.11782120822E+04  0.10100000352E+00 0. -1.
       -3    1    3    3    0  502 -0.29904645065E+03 -0.10158994272E+04 -0.82058832580E+03  0.13397184915E+04  0.10100000352E+00 0.  1.
</event>
<event>
 5   0  0.1501947E-05  0.2501293E+04  0.7818609E-02  0.8402525E-01
       -2   -1    0    0    0  501  0.00000000000E+00  0.00000000000E+00  0.16683116846E+04  0.16683116846E+04  0.25500000920E-02 0.  1.
        2   -1    0    0  501    0  0.00000000000E+00  0.00000000000E+00 -0.93754475835E+03  0.93754475836E+03  0.25500000920E-02 0. -1.
    10030    2    1    2    0    0  0.00000000000E+00  0.00000000000E+00  0.73076692628E+03  0.26058564430E+04  0.25012931657E+04 0.  0.
        3    1    3    3  502    0 -0.59059740320E+03  0.43242581270E+03  0.14218358376E+04  0.15991918382E+04  0.10100000352E+00 0.  1.
       -3    1    3    3    0  502  0.59059740320E+03 -0.43242581270E+03 -0.69106891131E+03  0.10066646048E+04  0.10100000352E+00 0. -1.
</event>
<event>
 5   0  0.1550483E-05  0.2486070E+04  0.7818609E-02  0.8407965E-01
        2   -1    0    0  501    0  0.00000000000E+00  0.00000000000E+00  0.24029844402E+04  0.24029844402E+04  0.25500000920E-02 0. -1.
       -2   -1    0    0    0  501  0.00000000000E+00  0.00000000000E+00 -0.64300718361E+03  0.64300718362E+03  0.25500000920E-02 0.  1.
    10030    2    1    2    0    0  0.00000000000E+00  0.00000000000E+00  0.17599772566E+04  0.30459916238E+04  0.24860701978E+04 0.  0.
        5    1    3    3  502    0 -0.46553972218E+02 -0.66444428309E+03  0.21658667830E+04  0.22659776013E+04  0.46999998093E+01 0. -1.
       -5    1    3    3    0  502  0.46553972218E+02  0.66444428309E+03 -0.40588952645E+03  0.78001402253E+03  0.46999998093E+01 0.  1.
</event>
<event>
 5   0  0.1572732E-05  0.2507857E+04  0.7818609E-02  0.8400192E-01
       -2   -1    0    0    0  501  0.00000000000E+00  0.00000000000E+00  0.71419581992E+03  0.71419581992E+03  0.25500000920E-02 0. -1.
        2   -1    0    0  501    0  0.00000000000E+00  0.00000000000E+00 -0.22015488709E+04  0.22015488709E+04  0.25500000920E-02 0.  1.
    10030    2    1    2    0    0  0.00000000000E+00  0.00000000000E+00 -0.14873530510E+04  0.29157446909E+04  0.25078572535E+04 0.  0.
        1    1    3    3  502    0 -0.10815048525E+04 -0.60584627312E+03 -0.96315013688E+03  0.15698282195E+04  0.50400001928E-02 0.  1.
       -1    1    3    3    0  502  0.10815048525E+04  0.60584627312E+03 -0.52420291414E+03  0.13459164713E+04  0.50400001928E-02 0. -1.
</event>
<event>
 5   0  0.6346420E-06  0.2453217E+04  0.7818609E-02  0.8419845E-01
       -1   -1    0    0    0  501  0.00000000000E+00  0.00000000000E+00  0.15201120552E+04  0.15201120552E+04  0.50400001928E-02 0. -1.
        1   -1    0    0  501    0  0.00000000000E+00  0.00000000000E+00 -0.98977428075E+03  0.98977428077E+03  0.50400001928E-02 0.  1.
    10030    2    1    2    0    0  0.00000000000E+00  0.00000000000E+00  0.53033777447E+03  0.25098863360E+04  0.24532165140E+04 0.  0.
        4    1    3    3  502    0  0.12204158565E+04  0.10065975610E+03  0.19268778627E+03  0.12396279463E+04  0.12699999809E+01 0. -1.
       -4    1    3    3    0  502 -0.12204158565E+04 -0.10065975610E+03  0.33764998820E+03  0.12702583897E+04  0.12699999809E+01 0.  1.
</event>
<event>
 5   0  0.6477703E-06  0.2514647E+04  0.7818609E-02  0.8397786E-01
        1   -1    0    0  501    0  0.00000000000E+00  0.00000000000E+00  0.18249230123E+04  0.18249230123E+04  0.50400001928E-02 0. -1.
       -1   -1    0    0    0  501  0.00000000000E+00  0.00000000000E+00 -0.86626279266E+03  0.86626279267E+03  0.50400001928E-02 0.  1.
    10030    2    1    2    0    0  0.00000000000E+00  0.00000000000E+00  0.95866021962E+03  0.26911858050E+04  0.25146474147E+04 0.  0.
        5    1    3    3  502    0 -0.95006924213E+03 -0.74156612811E+03  0.96010382032E+02  0.12090458927E+04  0.46999998093E+01 0.  1.
       -5    1    3    3    0  502  0.95006924213E+03  0.74156612811E+03  0.86264983759E+03  0.14821399123E+04  0.46999998093E+01 0. -1.
</event>
<event>
 5   0  0.6105353E-06  0.2496172E+04  0.7818609E-02  0.8404351E-01
        1   -1    0    0  501    0  0.00000000000E+00  0.00000000000E+00  0.15704565137E+04  0.15704565137E+04  0.50400001928E-02 0.  1.
       -1   -1    0    0    0  501  0.00000000000E+00  0.00000000000E+00 -0.99188873730E+03  0.99188873732E+03  0.50400001928E-02 0. -1.
    10030    2    1    2    0    0  0.00000000000E+00  0.00000000000E+00  0.57856777638E+03  0.25623452510E+04  0.24961715713E+04 0.  0.
        3    1    3    3  502    0 -0.11767589579E+04 -0.75539709759E+02  0.70908788546E+03  0.13759627656E+04  0.10100000352E+00 0. -1.
       -3    1    3    3    0  502  0.11767589579E+04  0.75539709759E+02 -0.13052010908E+03  0.11863824854E+04  0.10100000352E+00 0.  1.
</event>
<event>
 5   0  0.1526824E-05  0.2499448E+04  0.7818609E-02  0.8403182E-01
        2   -1    0    0  501    0  0.00000000000E+00  0.00000000000E+00  0.14304851959E+04  0.14304851959E+04  0.25500000920E-02 0. -1.
       -2   -1    0    0    0  501  0.00000000000E+00  0.00000000000E+00 -0.10918042895E+04  0.10918042895E+04  0.25500000920E-02 0.  1.
    10030    2    1    2    0    0  0.00000000000E+00  0.00000000000E+00  0.33868090638E+03  0.25222894855E+04  0.24994478374E+04 0.  0.
        2    1    3    3  502    0 -0.41623885418E+03  0.11781512895E+04  0.14644771764E+03  0.12580708163E+04  0.25500000920E-02 0. -1.
       -2    1    3    3    0  502  0.41623885418E+03 -0.11781512895E+04  0.19223318874E+03  0.12642186692E+04  0.25500000920E-02 0.  1.
</event>
<event>
 5   0  0.6105353E-06  0.2510661E+04  0.7818609E-02  0.8399197E-01
        1   -1    0    0  501    0  0.00000000000E+00  0.00000000000E+00  0.19027766722E+04  0.19027766722E+04  0.50400001928E-02 0. -1.
       -1   -1    0    0    0  501  0.00000000000E+00  0.00000000000E+00 -0.82818691457E+03  0.82818691459E+03  0.50400001928E-02 0.  1.
    10030    2    1    2    0    0  0.00000000000E+00  0.00000000000E+00  0.10745897576E+04  0.27309635868E+04  0.25106610614E+04 0.  0.
        3    1    3    3  502    0 -0.11069434619E+03  0.55891969600E+03 -0.67943163545E+03  0.88671969771E+03  0.10100000352E+00 0.  1.
       -3    1    3    3    0  502  0.11069434619E+03 -0.55891969600E+03  0.17540213931E+04  0.18442438891E+04  0.10100000352E+00 0. -1.
</event>
<event>
 5   0  0.6104486E-06  0.2491378E+04  0.7818609E-02  0.8406064E-01
        1   -1    0    0  501    0  0.00000000000E+00  0.00000000000E+00  0.16427784824E+04  0.16427784824E+04  0.50400001928E-02 0. -1.
       -1   -1    0    0    0  501  0.00000000000E+00  0.00000000000E+00 -0.94458332319E+03  0.94458332321E+03  0.50400001928E-02 0.  1.
    10030    2    1    2    0    0  0.00000000000E+00  0.00000000000E+00  0.69819515922E+03  0.25873618056E+04  0.24913780590E+04 0.  0.
        2    1    3    3  502    0  0.25932788108E+03 -0.10601171799E+03  0.16096357655E+04  0.16338349769E+04  0.25500000920E-02 0. -1.
       -2    1    3    3    0  502 -0.25932788108E+03  0.10601171799E+03 -0.91144060628E+03  0.95352682870E+03  0.25500000920E-02 0.  1.
</event>
<event>
 5   0  0.6346420E-06  0.2456533E+04  0.7818609E-02  0.8418636E-01
        1   -1    0    0  501    0  0.00000000000E+00  0.00000000000E+00  0.13631454268E+04  0.13631454268E+04  0.50400001928E-02 0. -1.
       -1   -1    0    0    0  501  0.00000000000E+00  0.00000000000E+00 -0.11067337395E+04  0.11067337395E+04  0.50400001928E-02 0.  1.
    10030    2    1    2    0    0  0.00000000000E+00  0.00000000000E+00  0.25641168736E+03  0.24698791663E+04  0.24565333588E+04 0.  0.
        4    1    3    3  502    0  0.82376037867E+02  0.51897209749E+03 -0.98801455067E+03  0.11190586289E+04  0.12699999809E+01 0.  1.
       -4    1    3    3    0  502 -0.82376037867E+02 -0.51897209749E+03  0.12444262380E+04  0.13508205375E+04  0.12699999809E+01 0. -1.
</event>
<event>
 5   0  0.1572732E-05  0.2496190E+04  0.7818609E-02  0.8404344E-01
       -2   -1    0    0    0  501  0.00000000000E+00  0.00000000000E+00  0.13488632626E+04  0.13488632626E+04  0.25500000920E-02 0.  1.
        2   -1    0    0  501    0  0.00000000000E+00  0.00000000000E+00 -0.11548548760E+04  0.11548548760E+04  0.25500000920E-02 0. -1.
    10030    2    1    2    0    0  0.00000000000E+00  0.00000000000E+00  0.19400838658E+03  0.25037181386E+04  0.24961901497E+04 0.  0.
        1    1    3    3  502    0 -0.51981549458E+03  0.85993411406E+03  0.83953840746E+03  0.13093966422E+04  0.50400001928E-02 0. -1.
       -1    1    3    3    0  502  0.51981549458E+03 -0.85993411406E+03 -0.64553002088E+03  0.11943214964E+04  0.50400001928E-02 0.  1.
</event>
<event>
 5   0  0.1501947E-05  0.2477640E+04  0.7818609E-02  0.8410995E-01
       -2   -1    0    0    0  501  0.00000000000E+00  0.00000000000E+00  0.12501979454E+04  0.12501979454E+04  0.25500000920E-02 0. -1.
        2   -1    0    0  501    0  0.00000000000E+00  0.00000000000E+00 -0.12275458726E+04  0.12275458726E+04  0.25500000920E-02 0.  1.
    10030    2    1    2    0    0  0.00000000000E+00  0.00000000000E+00  0.22652072775E+02  0.24777438180E+04  0.24776402707E+04 0.  0.
        3    1    3    3  502    0  0.18035006041E+03  0.94084041064E+03 -0.77418021160E+03  0.12316906401E+04  0.10100000352E+00 0.  1.
       -3    1    3    3    0  502 -0.18035006041E+03 -0.94084041064E+03  0.79683228438E+03  0.12460531779E+04  0.10100000352E+00 0. -1.
</event>
<event>
 5   0  0.6104486E-06  0.2545273E+04  0.7818609E-02  0.8387032E-01
        1   -1    0    0  501    0  0.00000000000E+00  0.00000000000E+00  0.15270464684E+04  0.15270464684E+04  0.50400001928E-02 0.  1.
       -1   -1    0    0    0  501  0.00000000000E+00  0.00000000000E+00 -0.10606122800E+04  0.10606122801E+04  0.50400001928E-02 0. -1.
    10030    2    1    2    0    0  0.00000000000E+00  0.00000000000E+00  0.46643418836E+03  0.25876587485E+04  0.25452734522E+04 0.  0.
        2    1    3    3  502    0  0.10683690195E+04 -0.46483333224E+02 -0.46822246027E+03  0.11673925365E+04  0.25500000920E-02 0. -1.
       -2    1    3    3    0  502 -0.10683690195E+04  0.46483333224E+02  0.93465664864E+03  0.14202662120E+04  0.25500000920E-02 0.  1.
</event>
<event>
 5   0  0.6477703E-06  0.2492863E+04  0.7818609E-02  0.8405533E-01
        1   -1    0    0  501    0  0.00000000000E+00  0.00000000000E+00  0.12421129961E+04  0.12421129961E+04  0.50400001928E-02 0. -1.
       -1   -1    0    0    0  501  0.00000000000E+00  0.00000000000E+00 -0.12507645691E+04  0.12507645691E+04  0.50400001928E-02 0.  1.
    10030    2    1    2    0    0  0.00000000000E+00  0.00000000000E+00 -0.86515729722E+01  0.24928775652E+04  0.24928625524E+04 0.  0.
        5    1    3    3  502    0  0.59588090103E+03  0.66187467321E+03  0.86769821778E+03  0.12434124088E+04  0.46999998093E+01 0. -1.
       -5    1    3    3    0  502 -0.59588090103E+03 -0.66187467321E+03 -0.87634979075E+03  0.12494651564E+04  0.46999998093E+01 0.  1.
</event>
<event>
 5   0  0.1550483E-05  0.2442235E+04  0.7818609E-02  0.8423858E-01
        2   -1    0    0  501    0  0.00000000000E+00  0.00000000000E+00  0.12629881050E+04  0.12629881050E+04  0.25500000920E-02 0.  1.
       -2   -1    0    0    0  501  0.00000000000E+00  0.00000000000E+00 -0.11806352359E+04  0.11806352359E+04  0.25500000920E-02 0. -1.
    10030    2    1    2    0    0  0.00000000000E+00  0.00000000000E+00  0.82352869029E+02  0.24436233409E+04  0.24422352543E+04 0.  0.
        5    1    3    3  502    0  0.15771016324E+03  0.11488504912E+04 -0.34163247430E+03  0.12089105775E+04  0.46999998093E+01 0. -1.
       -5    1    3    3    0  502 -0.15771016324E+03 -0.11488504912E+04  0.42398534333E+03  0.12347127634E+04  0.46999998093E+01 0.  1.
</event>
<event>
 5   0  0.1572732E-05  0.2491418E+04  0.7818609E-02  0.8406049E-01
        2   -1    0    0  501    0  0.00000000000E+00  0.00000000000E+00  0.21313077033E+04  0.21313077033E+04  0.25500000920E-02 0.  1.
       -2   -1    0    0    0  501  0.00000000000E+00  0.00000000000E+00 -0.72809355397E+03  0.72809355397E+03  0.25500000920E-02 0. -1.
    10030    2    1    2    0    0  0.00000000000E+00  0.00000000000E+00  0.14032141493E+04  0.28594012572E+04  0.24914183914E+04 0.  0.
        1    1    3    3  502    0  0.77054352811E+03 -0.28971835403E+03  0.17746406398E+04  0.19562779593E+04  0.50400001928E-02 0.  1.
       -1    1    3    3    0  502 -0.77054352811E+03  0.28971835403E+03 -0.37142649056E+03  0.90312329794E+03  0.50400001928E-02 0. -1.
</event>
<event>
 5   0  0.5164625E-06  0.2496614E+04  0.7818609E-02  0.8404193E-01
        3   -1    0    0  501    0  0.00000000000E+00  0.00000000000E+00  0.98750629913E+03  0.98750630430E+03  0.10100000352E+00 0.  1.
       -3   -1    0    0    0  501  0.00000000000E+00  0.00000000000E+00 -0.15779848619E+04  0.15779848652E+04  0.10100000352E+00 0. -1.
    10030    2    1    2    0    0  0.00000000000E+00  0.00000000000E+00 -0.59047856279E+03  0.25654911694E+04  0.24966137081E+04 0.  0.
        4    1    3    3  502    0  0.65869590032E+03  0.10169365058E+04  0.13427876818E+02  0.12117021362E+04  0.12699999809E+01 0.  1.
       -4    1    3    3    0  502 -0.65869590032E+03 -0.10169365058E+04 -0.60390643960E+03  0.13537890333E+04  0.12699999809E+01 0. -1.
</event>
<event>
 5   0  0.6346420E-06  0.2529684E+04  0.7818609E-02  0.8392486E-01
       -1   -1    0    0    0  501  0.00000000000E+00  0.00000000000E+00  0.15004540385E+04  0.15004540385E+04  0.50400001928E-02 0. -1.
        1   -1    0    0  501    0  0.00000000000E+00  0.00000000000E+00 -0.10662271929E+04  0.10662271929E+04  0.50400001928E-02 0.  1.
    10030    2    1    2    0    0  0.00000000000E+00  0.00000000000E+00  0.43422684567E+03  0.25666812314E+04  0.25296836937E+04 0.  0.
        4    1    3    3  502    0 -0.43347254399E+03  0.75237949610E+03  0.11502653836E+04  0.14412097065E+04  0.12699999809E+01 0. -1.
       -4    1    3    3    0  502  0.43347254399E+03 -0.75237949610E+03 -0.71603853797E+03  0.11254715249E+04  0.12699999809E+01 0.  1.
</event>
<event>
 5   0  0.1468512E-05  0.2497988E+04  0.7818609E-02  0.8403703E-01
        2   -1    0    0  501    0  0.00000000000E+00  0.00000000000E+00  0.13311102695E+04  0.13311102695E+04  0.25500000920E-02 0.  1.
       -2   -1    0    0    0  501  0.00000000000E+00  0.00000000000E+00 -0.11719436255E+04  0.11719436255E+04  0.25500000920E-02 0. -1.
    10030    2    1    2    0    0  0.00000000000E+00  0.00000000000E+00  0.15916664395E+03  0.25030538950E+04  0.24979881467E+04 0.  0.
        4    1    3    3  502    0  0.10039904635E+04 -0.28584739987E+03 -0.60757627855E+03  0.12078311695E+04  0.12699999809E+01 0. -1.
       -4    1    3    3    0  502 -0.10039904635E+04  0.28584739987E+03  0.76674292250E+03  0.12952227256E+04  0.12699999809E+01 0.  1.
</event>
<event>
 5   0  0.1501947E-05  0.2503918E+04  0.7818609E-02  0.8401591E-01
        2   -1    0    0  501    0  0.00000000000E+00  0.00000000000E+00  0.12281221892E+04  0.12281221892E+04  0.25500000920E-02 0.  1.
       -2   -1    0    0    0  501  0.00000000000E+00  0.00000000000E+00 -0.12762584817E+04  0.12762584817E+04  0.25500000920E-02 0. -1.
    10030    2    1    2    0    0  0.00000000000E+00  0.00000000000E+00 -0.48136292555E+02  0.25043806709E+04  0.25039180182E+04 0.  0.
        3    1    3    3  502    0 -0.13014956581E+03  0.36342247489E+02 -0.12689433244E+04  0.12761178783E+04  0.10100000352E+00 0. -1.
       -3    1    3    3    0  502  0.13014956581E+03 -0.36342247489E+02  0.12208070319E+04  0.12282627926E+04  0.10100000352E+00 0.  1.
</event>
<event>
 5   0  0.1550483E-05  0.2496394E+04  0.7818609E-02  0.8404271E-01
       -2   -1    0    0    0  501  0.00000000000E+00  0.00000000000E+00  0.12658023092E+04  0.12658023092E+04  0.25500000920E-02 0. -1.
        2   -1    0    0  501    0  0.00000000000E+00  0.00000000000E+00 -0.12308364070E+04  0.12308364070E+04  0.25500000920E-02 0.  1.
    10030    2    1    2    0    0  0.00000000000E+00  0.00000000000E+00  0.34965902195E+02  0.24966387162E+04  0.24963938521E+04 0.  0.
        5    1    3    3  502    0 -0.73973922589E+03  0.98854781423E+03  0.20061992564E+03  0.12508842264E+04  0.46999998093E+01 0. -1.
       -5    1    3    3    0  502  0.73973922589E+03 -0.98854781423E+03 -0.16565402344E+03  0.12457544898E+04  0.46999998093E+01 0.  1.
</event>
<event>
 5   0  0.1550483E-05  0.2510820E+04  0.7818609E-02  0.8399141E-01
        2   -1    0    0  501    0  0.00000000000E+00  0.00000000000E+00  0.16360269111E+04  0.16360269111E+04  0.25500000920E-02 0.  1.
       -2   -1    0    0    0  501  0.00000000000E+00  0.00000000000E+00 -0.96334248223E+03  0.96334248224E+03  0.25500000920E-02 0. -1.
    10030    2    1    2    0    0  0.00000000000E+00  0.00000000000E+00  0.67268442885E+03  0.25993693933E+04  0.25108199661E+04 0.  0.
        5    1    3    3  502    0  0.72195769394E+03 -0.51697925808E+03  0.12550749661E+04  0.15374412917E+04  0.46999998093E+01 0.  1.
       -5    1    3    3    0  502 -0.72195769394E+03  0.51697925808E+03 -0.58239053721E+03  0.10619281016E+04  0.46999998093E+01 0. -1.
</event>
<event>
 5   0  0.1550483E-05  0.2483672E+04  0.7818609E-02  0.8408826E-01
       -2   -1    0    0    0  501  0.00000000000E+00  0.00000000000E+00  0.67592009639E+03  0.67592009640E+03  0.25500000920E-02 0.  1.
        2   -1    0    0  501    0  0.00000000000E+00  0.00000000000E+00 -0.22815670219E+04  0.22815670219E+04  0.25500000920E-02 0. -1.
    10030    2    1    2    0    0  0.00000000000E+00  0.00000000000E+00 -0.16056469255E+04  0.29574871183E+04  0.24836722822E+04 0.  0.
        5    1    3    3  502    0  0.44256459333E+03 -0.28072255971E+03 -0.21434159702E+04  0.22065635468E+04  0.46999998093E+01 0. -1.
       -5    1    3    3    0  502 -0.44256459333E+03  0.28072255971E+03  0.53776904469E+03  0.75092357149E+03  0.46999998093E+01 0.  1.
</event>
<event>
 5   0  0.6477703E-06  0.2516905E+04  0.7818609E-02  0.8396988E-01
        1   -1    0    0  501    0  0.00000000000E+00  0.00000000000E+00  0.81594123710E+03  0.81594123711E+03  0.50400001928E-02 0. -1.
       -1   -1    0    0    0  501  0.00000000000E+00  0.00000000000E+00 -0.19409522717E+04  0.19409522717E+04  0.50400001928E-02 0.  1.
    10030    2    1    2    0    0  0.00000000000E+00  0.00000000000E+00 -0.11250110346E+04  0.27568935089E+04  0.25169052408E+04 0.  0.
        5    1    3    3  502    0  0.11232615164E+04 -0.42839856250E+03 -0.15495393826E+03  0.12121363684E+04  0.46999998093E+01 0.  1.
       -5    1    3    3    0  502 -0.11232615164E+04  0.42839856250E+03 -0.97005709638E+03  0.15447571404E+04  0.46999998093E+01 0. -1.
</event>
<event>
 5   0  0.1572732E-05  0.2503327E+04  0.7818609E-02  0.8401801E-01
        2   -1    0    0  501    0  0.00000000000E+00  0.00000000000E+00  0.15883899154E+04  0.15883899154E+04  0.25500000920E-02 0. -1.
       -2   -1    0    0    0  501  0.00000000000E+00  0.00000000000E+00 -0.98632031065E+03  0.98632031065E+03  0.25500000920E-02 0.  1.
    10030    2    1    2    0    0  0.00000000000E+00  0.00000000000E+00  0.60206960472E+03  0.25747102260E+04  0.25033267743E+04 0.  0.
        1    1    3    3  502    0  0.87305502148E+03 -0.99039036745E+02 -0.61580316726E+03  0.10729619481E+04  0.50400001928E-02 0.  1.
       -1    1    3    3    0  502 -0.87305502148E+03  0.99039036745E+02  0.12178727720E+04  0.15017482779E+04  0.50400001928E-02 0. -1.
</event>
<event>
 5   0  0.6104486E-06  0.2516084E+04  0.7818609E-02  0.8397278E-01
       -1   -1    0    0    0  501  0.00000000000E+00  0.00000000000E+00  0.18636675837E+04  0.18636675837E+04  0.50400001928E-02 0. -1.
        1   -1    0    0  501    0  0.00000000000E+00  0.00000000000E+00 -0.84922333672E+03  0.84922333674E+03  0.50400001928E-02 0.  1.
    10030    2    1    2    0    0  0.00000000000E+00  0.00000000000E+00  0.10144442469E+04  0.27128909204E+04  0.25160842625E+04 0.  0.
        2    1    3    3  502    0 -0.90241417875E+03 -0.15129582872E+03  0.14381372077E+04  0.17045469797E+04  0.25500000920E-02 0. -1.
       -2    1    3    3    0  502  0.90241417875E+03  0.15129582872E+03 -0.42369296075E+03  0.10083439407E+04  0.25500000920E-02 0.  1.
</event>
<event>
 5   0  0.6104486E-06  0.2501130E+04  0.7818609E-02  0.8402583E-01
       -1   -1    0    0    0  501  0.00000000000E+00  0.00000000000E+00  0.14825820113E+04  0.14825820113E+04  0.50400001928E-02 0.  1.
        1   -1    0    0  501    0  0.00000000000E+00  0.00000000000E+00 -0.10548579424E+04  0.10548579424E+04  0.50400001928E-02 0. -1.
    10030    2    1    2    0    0  0.00000000000E+00  0.00000000000E+00  0.42772406883E+03  0.25374399537E+04  0.25011304723E+04 0.  0.
        2    1    3    3  502    0  0.13073493766E+03 -0.47757956972E+03  0.13788969481E+04  0.14651043180E+04  0.25500000920E-02 0.  1.
       -2    1    3    3    0  502 -0.13073493766E+03  0.47757956972E+03 -0.95117287924E+03  0.10723356357E+04  0.25500000920E-02 0. -1.
</event>
<event>
 5   0  0.6105353E-06  0.2501040E+04  0.7818609E-02  0.8402615E-01
        1   -1    0    0  501    0  0.00000000000E+00  0.00000000000E+00  0.10514961252E+04  0.10514961253E+04  0.50400001928E-02 0.  1.
       -1   -1    0    0    0  501  0.00000000000E+00  0.00000000000E+00 -0.14872146837E+04  0.14872146837E+04  0.50400001928E-02 0. -1.
    10030    2    1    2    0    0  0.00000000000E+00  0.00000000000E+00 -0.43571855849E+03  0.25387108090E+04  0.25010401655E+04 0.  0.
        3    1    3    3  502    0 -0.87603254289E+03  0.66914438721E+03 -0.81718719147E+03  0.13722179649E+04  0.10100000352E+00 0. -1.
       -3    1    3    3    0  502  0.87603254289E+03 -0.66914438721E+03  0.38146863297E+03  0.11664928441E+04  0.10100000352E+00 0.  1.
</event>
<event>
 5   0  0.1572732E-05  0.2305444E+04  0.7818609E-02  0.8475778E-01
        2   -1    0    0  501    0  0.00000000000E+00  0.00000000000E+00  0.19581208982E+04  0.19581208982E+04  0.25500000920E-02 0.  1.
       -2   -1    0    0    0  501  0.00000000000E+00  0.00000000000E+00 -0.67859330311E+03  0.67859330312E+03  0.25500000920E-02 0. -1.
    10030    2    1    2    0    0  0.00000000000E+00  0.00000000000E+00  0.12795275951E+04  0.26367142013E+04  0.23054437562E+04 0.  0.
        1    1    3    3  502    0  0.71999143021E+03 -0.56193667397E+03 -0.16457452794E+03  0.92803300610E+03  0.50400001928E-02 0. -1.
       -1    1    3    3    0  502 -0.71999143021E+03  0.56193667397E+03  0.14441021230E+04  0.17086811952E+04  0.50400001928E-02 0.  1.
</event>
<event>
 5   0  0.6346420E-06  0.2499345E+04  0.7818609E-02  0.8403219E-01
       -1   -1    0    0    0  501  0.00000000000E+00  0.00000000000E+00  0.19876672460E+04  0.19876672460E+04  0.50400001928E-02 0.  1.
        1   -1    0    0  501    0  0.00000000000E+00  0.00000000000E+00 -0.78568551804E+03  0.78568551805E+03  0.50400001928E-02 0. -1.
    10030    2    1    2    0    0  0.00000000000E+00  0.00000000000E+00  0.12019817279E+04  0.27733527640E+04  0.24993450101E+04 0.  0.
        4    1    3    3  502    0 -0.39451601739E+03 -0.10239478905E+04  0.12645169103E+04  0.16742511161E+04  0.12699999809E+01 0.  1.
       -4    1    3    3    0  502  0.39451601739E+03  0.10239478905E+04 -0.62535182367E+02  0.10991016479E+04  0.12699999809E+01 0. -1.
</event>
<event>
 5   0  0.6346420E-06  0.2480752E+04  0.7818609E-02  0.8409875E-01
        1   -1    0    0  501    0  0.00000000000E+00  0.00000000000E+00  0.84038379702E+03  0.84038379703E+03  0.50400001928E-02 0. -1.
       -1   -1    0    0    0  501  0.00000000000E+00  0.00000000000E+00 -0.18307499432E+04  0.18307499433E+04  0.50400001928E-02 0.  1.
    10030    2    1    2    0    0  0.00000000000E+00  0.00000000000E+00 -0.99036614622E+03  0.26711337403E+04  0.24807519737E+04 0.  0.
        4    1    3    3  502    0  0.55935710583E+03  0.10901377744E+04 -0.70299803221E+03  0.14126176359E+04  0.12699999809E+01 0.  1.
       -4    1    3    3    0  502 -0.55935710583E+03 -0.10901377744E+04 -0.28736811402E+03  0.12585161044E+04  0.12699999809E+01 0. -1.
</event>
<event>
 5   0  0.6477703E-06  0.2494405E+04  0.7818609E-02  0.8404982E-01
        1   -1    0    0  501    0  0.00000000000E+00  0.00000000000E+00  0.14033457891E+04  0.14033457891E+04  0.50400001928E-02 0. -1.
       -1   -1    0    0    0  501  0.00000000000E+00  0.00000000000E+00 -0.11084322614E+04  0.11084322614E+04  0.50400001928E-02 0.  1.
    10030    2    1    2    0    0  0.00000000000E+00  0.00000000000E+00  0.29491352773E+03  0.25117780505E+04  0.24944047358E+04 0.  0.
        5    1    3    3  502    0 -0.80441333732E+03  0.68875531846E+02  0.11046917211E+04  0.13682801412E+04  0.46999998093E+01 0. -1.
       -5    1    3    3    0  502  0.80441333732E+03 -0.68875531846E+02 -0.80977819335E+03  0.11434979093E+04  0.46999998093E+01 0.  1.
</event>
<event>
 5   0  0.1526824E-05  0.2506321E+04  0.7818609E-02  0.8400737E-01
        2   -1    0    0  501    0  0.00000000000E+00  0.00000000000E+00  0.13131878841E+04  0.13131878841E+04  0.25500000920E-02 0. -1.
       -2   -1    0    0    0  501  0.00000000000E+00  0.00000000000E+00 -0.11958769006E+04  0.11958769006E+04  0.25500000920E-02 0.  1.
    10030    2    1    2    0    0  0.00000000000E+00  0.00000000000E+00  0.11731098357E+03  0.25090647847E+04  0.25063208547E+04 0.  0.
        2    1    3    3  502    0 -0.85896272427E+03  0.53314321455E+03 -0.68266342865E+03  0.12198721268E+04  0.25500000920E-02 0.  1.
       -2    1    3    3    0  502  0.85896272427E+03 -0.53314321455E+03  0.79997441222E+03  0.12891926579E+04  0.25500000920E-02 0. -1.
</event>
<event>
 5   0  0.1468512E-05  0.2495978E+04  0.7818609E-02  0.8404420E-01
        2   -1    0    0  501    0  0.00000000000E+00  0.00000000000E+00  0.15247358506E+04  0.15247358506E+04  0.25500000920E-02 0.  1.
       -2   -1    0    0    0  501  0.00000000000E+00  0.00000000000E+00 -0.10214727469E+04  0.10214727469E+04  0.25500000920E-02 0. -1.
    10030    2    1    2    0    0  0.00000000000E+00  0.00000000000E+00  0.50326310370E+03  0.25462085975E+04  0.24959776583E+04 0.  0.
        4    1    3    3  502    0 -0.79904745638E+03  0.10514008605E+03 -0.72040508436E+03  0.10809793586E+04  0.12699999809E+01 0. -1.
       -4    1    3    3    0  502  0.79904745638E+03 -0.10514008605E+03  0.12236681881E+04  0.14652292389E+04  0.12699999809E+01 0.  1.
</event>
<event>
 5   0  0.1550483E-05  0.2341544E+04  0.7818609E-02  0.8461719E-01
       -2   -1    0    0    0  501  0.00000000000E+00  0.00000000000E+00  0.73126376352E+03  0.73126376353E+03  0.25500000920E-02 0.  1.
        2   -1    0    0  501    0  0.00000000000E+00  0.00000000000E+00 -0.18744363678E+04  0.18744363678E+04  0.25500000920E-02 0. -1.
    10030    2    1    2    0    0  0.00000000000E+00  0.00000000000E+00 -0.11431726043E+04  0.26057001313E+04  0.23415442706E+04 0.  0.
        5    1    3    3  502    0  0.73234680082E+03 -0.43386804504E+03  0.32290466723E+03  0.91041904159E+03  0.46999998093E+01 0.  1.
       -5    1    3    3    0  502 -0.73234680082E+03  0.43386804504E+03 -0.14660772715E+04  0.16952810897E+04  0.46999998093E+01 0. -1.
</event>
<event>
 5   0  0.1501947E-05  0.2547375E+04  0.7818609E-02  0.8386300E-01
        2   -1    0    0  501    0  0.00000000000E+00  0.00000000000E+00  0.19567737787E+04  0.19567737787E+04  0.25500000920E-02 0. -1.
       -2   -1    0    0    0  501  0.00000000000E+00  0.00000000000E+00 -0.82905834041E+03  0.82905834042E+03  0.25500000920E-02 0.  1.
    10030    2    1    2    0    0  0.00000000000E+00  0.00000000000E+00  0.11277154383E+04  0.27858321191E+04  0.25473748225E+04 0.  0.
        3    1    3    3  502    0 -0.13727681325E+03  0.95560502001E+03  0.14724446203E+04  0.17607154931E+04  0.10100000352E+00 0. -1.
       -3    1    3    3    0  502  0.13727681325E+03 -0.95560502001E+03 -0.34472918202E+03  0.10251166260E+04  0.10100000352E+00 0.  1.
</event>
<event>
 5   0  0.1550483E-05  0.2504885E+04  0.7818609E-02  0.8401247E-01
        2   -1    0    0  501    0  0.00000000000E+00  0.00000000000E+00  0.14504774280E+04  0.14504774280E+04  0.25500000920E-02 0. -1.
       -2   -1    0    0    0  501  0.00000000000E+00  0.00000000000E+00 -0.10814453114E+04  0.10814453114E+04  0.25500000920E-02 0.  1.
    10030    2    1    2    0    0  0.00000000000E+00  0.00000000000E+00  0.36903211657E+03  0.25319227394E+04  0.25048848387E+04 0.  0.
        5    1    3    3  502    0 -0.15074668642E+03  0.73069205080E+03  0.12013339406E+04  0.14141643340E+04  0.46999998093E+01 0. -1.
       -5    1    3    3    0  502  0.15074668642E+03 -0.73069205080E+03 -0.83230182404E+03  0.11177584054E+04  0.46999998093E+01 0.  1.
</event>
<event>
 5   0  0.1526824E-05  0.2323714E+04  0.7818609E-02  0.8468629E-01
        2   -1    0    0  501    0  0.00000000000E+00  0.00000000000E+00  0.16652483126E+04  0.16652483126E+04  0.25500000920E-02 0. -1.
       -2   -1    0    0    0  501  0.00000000000E+00  0.00000000000E+00 -0.81063696354E+03  0.81063696354E+03  0.25500000920E-02 0.  1.
    10030    2    1    2    0    0  0.00000000000E+00  0.00000000000E+00  0.85461134909E+03  0.24758852762E+04  0.23237141267E+04 0.  0.
        2    1    3    3  502    0  0.70559354344E+03  0.53583584549E+03  0.12281442027E+04  0.15143713166E+04  0.25500000920E-02 0. -1.
       -2    1    3    3    0  502 -0.70559354344E+03 -0.53583584549E+03 -0.37353285357E+03  0.96151395963E+03  0.25500000920E-02 0.  1.
</event>
<event>
 5   0  0.6290861E-06  0.2505717E+04  0.7818609E-02  0.8400952E-01
       -1   -1    0    0    0  501  0.00000000000E+00  0.00000000000E+00  0.12035764678E+04  0.12035764678E+04  0.50400001928E-02 0. -1.
        1   -1    0    0  501    0  0.00000000000E+00  0.00000000000E+00 -0.13041587509E+04  0.13041587509E+04  0.50400001928E-02 0.  1.
    10030    2    1    2    0    0  0.00000000000E+00  0.00000000000E+00 -0.10058228305E+03  0.25077352187E+04  0.25057172888E+04 0.  0.
        1    1    3    3  502    0 -0.48254331530E+02 -0.92548117184E+03 -0.89406613458E+03  0.12877104228E+04  0.50400001928E-02 0.  1.
       -1    1    3    3    0  502  0.48254331530E+02  0.92548117184E+03  0.79348385152E+03  0.12200247959E+04  0.50400001928E-02 0. -1.
</event>
<event>
 5   0  0.6346420E-06  0.2490818E+04  0.7818609E-02  0.8406264E-01
       -1   -1    0    0    0  501  0.00000000000E+00  0.00000000000E+00  0.10014085351E+04  0.10014085351E+04  0.50400001928E-02 0.  1.
        1   -1    0    0  501    0  0.00000000000E+00  0.00000000000E+00 -0.15488616705E+04  0.15488616705E+04  0.50400001928E-02 0. -1.
    10030    2    1    2    0    0  0.00000000000E+00  0.00000000000E+00 -0.54745313541E+03  0.25502702056E+04  0.24908177746E+04 0.  0.
        4    1    3    3  502    0  0.75276321341E+03 -0.65811287610E+03 -0.10339286379E+04  0.14383236959E+04  0.12699999809E+01 0. -1.
       -4    1    3    3    0  502 -0.75276321341E+03  0.65811287610E+03  0.48647550244E+03  0.11119465097E+04  0.12699999809E+01 0.  1.
</event>
<event>
 5   0  0.1468512E-05  0.2502896E+04  0.7818609E-02  0.8401954E-01
        2   -1    0    0  501    0  0.00000000000E+00  0.00000000000E+00  0.15693269375E+04  0.15693269375E+04  0.25500000920E-02 0.  1.
       -2   -1    0    0    0  501  0.00000000000E+00  0.00000000000E+00 -0.99795797952E+03  0.99795797952E+03  0.25500000920E-02 0. -1.
    10030    2    1    2    0    0  0.00000000000E+00  0.00000000000E+00  0.57136895794E+03  0.25672849170E+04  0.25028961942E+04 0.  0.
        4    1    3    3  502    0  0.47760256330E+03 -0.27628103599E+03  0.14378284569E+04  0.15400609416E+04  0.12699999809E+01 0.  1.
       -4    1    3    3    0  502 -0.47760256330E+03  0.27628103599E+03 -0.86645949900E+03  0.10272239754E+04  0.12699999809E+01 0. -1.
</event>
<event>
 5   0  0.1468512E-05  0.2510085E+04  0.7818609E-02  0.8399402E-01
       -2   -1    0    0    0  501  0.00000000000E+00  0.00000000000E+00  0.53709167130E+03  0.53709167130E+03  0.25500000920E-02 0. -1.
        2   -1    0    0  501    0  0.00000000000E+00  0.00000000000E+00 -0.29327051510E+04  0.29327051510E+04  0.25500000920E-02 0.  1.
    10030    2    1    2    0    0  0.00000000000E+00  0.00000000000E+00 -0.23956134797E+04  0.34697968223E+04  0.25100848679E+04 0.  0.
        4    1    3    3  502    0 -0.41134285177E+03  0.11098064974E+04 -0.62076115004E+03  0.13364952008E+04  0.12699999809E+01 0. -1.
       -4    1    3    3    0  502  0.41134285177E+03 -0.11098064974E+04 -0.17748523296E+04  0.21333016215E+04  0.12699999809E+01 0.  1.
</event>
<event>
 5   0  0.6104486E-06  0.2500516E+04  0.7818609E-02  0.8402802E-01
       -1   -1    0    0    0  501  0.00000000000E+00  0.00000000000E+00  0.71659383079E+03  0.71659383080E+03  0.50400001928E-02 0. -1.
        1   -1    0    0  501    0  0.00000000000E+00  0.00000000000E+00 -0.21813546579E+04  0.21813546579E+04  0.50400001928E-02 0.  1.
    10030    2    1    2    0    0  0.00000000000E+00  0.00000000000E+00 -0.14647608271E+04  0.28979484887E+04  0.25005161792E+04 0.  0.
        2    1    3    3  502    0  0.87029449778E+03  0.87311024836E+03 -0.97384989433E+03  0.15710243904E+04  0.25500000920E-02 0.  1.
       -2    1    3    3    0  502 -0.87029449778E+03 -0.87311024836E+03 -0.49091093281E+03  0.13269240983E+04  0.25500000920E-02 0. -1.
</event>
<event>
 5   0  0.6104486E-06  0.2493260E+04  0.7818609E-02  0.8405391E-01
       -1   -1    0    0    0  501  0.00000000000E+00  0.00000000000E+00  0.10147459213E+04  0.10147459214E+04  0.50400001928E-02 0. -1.
        1   -1    0    0  501    0  0.00000000000E+00  0.00000000000E+00 -0.15315031753E+04  0.15315031754E+04  0.50400001928E-02 0.  1.
    10030    2    1    2    0    0  0.00000000000E+00  0.00000000000E+00 -0.51675725399E+03  0.25462490967E+04  0.24932601956E+04 0.  0.
        2    1    3    3  502    0 -0.79771899737E+03  0.77207299715E+03  0.32080257164E+03  0.11555806340E+04  0.25500000920E-02 0. -1.
       -2    1    3    3    0  502  0.79771899737E+03 -0.77207299715E+03 -0.83755982563E+03  0.13906684627E+04  0.25500000920E-02 0.  1.
</event>
<event>
 5   0  0.1526824E-05  0.2473556E+04  0.7818609E-02  0.8412467E-01
        2   -1    0    0  501    0  0.00000000000E+00  0.00000000000E+00  0.89065096012E+03  0.89065096012E+03  0.25500000920E-02 0. -1.
       -2   -1    0    0    0  501  0.00000000000E+00  0.00000000000E+00 -0.17174179257E+04  0.17174179258E+04  0.25500000920E-02 0.  1.
    10030    2    1    2    0    0  0.00000000000E+00  0.00000000000E+00 -0.82676696563E+03  0.26080688859E+04  0.24735560835E+04 0.  0.
        2    1    3    3  502    0  0.88548006537E+03 -0.43699120454E+03 -0.11985844635E+04  0.15529459022E+04  0.25500000920E-02 0.  1.
       -2    1    3    3    0  502 -0.88548006537E+03  0.43699120454E+03  0.37181749783E+03  0.10551229837E+04  0.25500000920E-02 0. -1.
</event>
<event>
 5   0  0.1501947E-05  0.2482596E+04  0.7818609E-02  0.8409212E-01
        2   -1    0    0  501    0  0.00000000000E+00  0.00000000000E+00  0.15593527417E+04  0.15593527417E+04  0.25500000920E-02 0. -1.
       -2   -1    0    0    0  501  0.00000000000E+00  0.00000000000E+00 -0.98811529115E+03  0.98811529115E+03  0.25500000920E-02 0.  1.
    10030    2    1    2    0    0  0.00000000000E+00  0.00000000000E+00  0.57123745056E+03  0.25474680329E+04  0.24825956484E+04 0.  0.
        3    1    3    3  502    0  0.46187825488E+03  0.98199753241E+03 -0.33276421265E+03  0.11350694725E+04  0.10100000352E+00 0.  1.
       -3    1    3    3    0  502 -0.46187825488E+03 -0.98199753241E+03  0.90400166322E+03  0.14123985604E+04  0.10100000352E+00 0. -1.
</event>
<event>
 5   0  0.1526824E-05  0.2506178E+04  0.7818609E-02  0.8400788E-01
       -2   -1    0    0    0  501  0.00000000000E+00  0.00000000000E+00  0.59630214433E+03  0.59630214433E+03  0.25500000920E-02 0.  1.
        2   -1    0    0  501    0  0.00000000000E+00  0.00000000000E+00 -0.26332819570E+04  0.26332819570E+04  0.25500000920E-02 0. -1.
    10030    2    1    2    0    0  0.00000000000E+00  0.00000000000E+00 -0.20369798127E+04  0.32295841014E+04  0.25061777093E+04 0.  0.
        2    1    3    3  502    0  0.61466223987E+03  0.88449138092E+03 -0.18437256580E+04  0.21352889673E+04  0.25500000920E-02 0.  1.
       -2    1    3    3    0  502 -0.61466223987E+03 -0.88449138092E+03 -0.19325415470E+03  0.10942951340E+04  0.25500000920E-02 0. -1.
</event>
<event>
 5   0  0.1572732E-05  0.2499723E+04  0.7818609E-02  0.8403084E-01
       -2   -1    0    0    0  501  0.00000000000E+00  0.00000000000E+00  0.73137893658E+03  0.73137893659E+03  0.25500000920E-02 0. -1.
        2   -1    0    0  501    0  0.00000000000E+00  0.00000000000E+00 -0.21359021650E+04  0.21359021650E+04  0.25500000920E-02 0.  1.
    10030    2    1    2    0    0  0.00000000000E+00  0.00000000000E+00 -0.14045232285E+04  0.28672811016E+04  0.24997230680E+04 0.  0.
        1    1    3    3  502    0  0.16277593758E+02 -0.45995729729E+03 -0.20351630617E+04  0.20865556219E+04  0.50400001928E-02 0.  1.
       -1    1    3    3    0  502 -0.16277593758E+02  0.45995729729E+03  0.63063983327E+03  0.78072547974E+03  0.50400001928E-02 0. -1.
</event>
<event>
 5   0  0.6477703E-06  0.2512388E+04  0.7818609E-02  0.8398585E-01
       -1   -1    0    0    0  501  0.00000000000E+00  0.00000000000E+00  0.12309969360E+04  0.12309969360E+04  0.50400001928E-02 0.  1.
        1   -1    0    0  501    0  0.00000000000E+00  0.00000000000E+00 -0.12819070140E+04  0.12819070140E+04  0.50400001928E-02 0. -1.
    10030    2    1    2    0    0  0.00000000000E+00  0.00000000000E+00 -0.50910077967E+02  0.25129039500E+04  0.25123881918E+04 0.  0.
        5    1    3    3  502    0  0.56543739816E+02  0.20253265013E+03  0.12132598764E+04  0.12313562793E+04  0.46999998093E+01 0.  1.
       -5    1    3    3    0  502 -0.56543739816E+02 -0.20253265013E+03 -0.12641699544E+04  0.12815476707E+04  0.46999998093E+01 0. -1.
</event>
<event>
 5   0  0.1550483E-05  0.2510387E+04  0.7818609E-02  0.8399295E-01
        2   -1    0    0  501    0  0.00000000000E+00  0.00000000000E+00  0.24113046488E+04  0.24113046488E+04  0.25500000920E-02 0.  1.
       -2   -1    0    0    0  501  0.00000000000E+00  0.00000000000E+00 -0.65338508186E+03  0.65338508186E+03  0.25500000920E-02 0. -1.
    10030    2    1    2    0    0  0.00000000000E+00  0.00000000000E+00  0.17579195669E+04  0.30646897306E+04  0.25103868111E+04 0.  0.
        5    1    3    3  502    0  0.77178303365E+03 -0.56992139608E+03  0.18670033956E+04  0.20990910456E+04  0.46999998093E+01 0.  1.
       -5    1    3    3    0  502 -0.77178303365E+03  0.56992139608E+03 -0.10908382869E+03  0.96559868498E+03  0.46999998093E+01 0. -1.
</event>
<event>
 5   0  0.1468512E-05  0.2495686E+04  0.7818609E-02  0.8404524E-01
       -2   -1    0    0    0  501  0.00000000000E+00  0.00000000000E+00  0.11706873722E+04  0.11706873722E+04  0.25500000920E-02 0. -1.
        2   -1    0    0  501    0  0.00000000000E+00  0.00000000000E+00 -0.13300841269E+04  0.13300841269E+04  0.25500000920E-02 0.  1.
    10030    2    1    2    0    0  0.00000000000E+00  0.00000000000E+00 -0.15939675465E+03  0.25007714992E+04  0.24956864317E+04 0.  0.
        4    1    3    3  502    0  0.22091693170E+03 -0.10434687540E+04 -0.72869059943E+03  0.12917518856E+04  0.12699999809E+01 0.  1.
       -4    1    3    3    0  502 -0.22091693170E+03  0.10434687540E+04  0.56929384478E+03  0.12090196136E+04  0.12699999809E+01 0. -1.
</event>
<event>
 5   0  0.1526824E-05  0.2498040E+04  0.7818609E-02  0.8403684E-01
       -2   -1    0    0    0  501  0.00000000000E+00  0.00000000000E+00  0.11759374149E+04  0.11759374149E+04  0.25500000920E-02 0. -1.
        2   -1    0    0  501    0  0.00000000000E+00  0.00000000000E+00 -0.13266448045E+04  0.13266448045E+04  0.25500000920E-02 0.  1.
    10030    2    1    2    0    0  0.00000000000E+00  0.00000000000E+00 -0.15070738964E+03  0.25025822194E+04  0.24980402414E+04 0.  0.
        2    1    3    3  502    0  0.26017207908E+03 -0.25511938968E+03  0.11215050102E+04  0.11792153754E+04  0.25500000920E-02 0. -1.
       -2    1    3    3    0  502 -0.26017207908E+03  0.25511938968E+03 -0.12722123998E+04  0.13233668440E+04  0.25500000920E-02 0.  1.
</event>
<event>
 5   0  0.6105353E-06  0.2490324E+04  0.7818609E-02  0.8406441E-01
       -1   -1    0    0    0  501  0.00000000000E+00  0.00000000000E+00  0.10599087846E+04  0.10599087846E+04  0.50400001928E-02 0.  1.
        1   -1    0    0  501    0  0.00000000000E+00  0.00000000000E+00 -0.14627946053E+04  0.14627946053E+04  0.50400001928E-02 0. -1.
    10030    2    1    2    0    0  0.00000000000E+00  0.00000000000E+00 -0.40288582072E+03  0.25227033899E+04  0.24903243582E+04 0.  0.
        3    1    3    3  502    0  0.51075814050E+03  0.94184815507E+02  0.94494420826E+03  0.10782690872E+04  0.10100000352E+00 0.  1.
       -3    1    3    3    0  502 -0.51075814050E+03 -0.94184815507E+02 -0.13478300290E+04  0.14444343027E+04  0.10100000352E+00 0. -1.
</event>
<event>
 5   0  0.6477703E-06  0.2500961E+04  0.7818609E-02  0.8402643E-01
        1   -1    0    0  501    0  0.00000000000E+00  0.00000000000E+00  0.14434547716E+04  0.14434547716E+04  0.50400001928E-02 0.  1.
       -1   -1    0    0    0  501  0.00000000000E+00  0.00000000000E+00 -0.10833044121E+04  0.10833044121E+04  0.50400001928E-02 0. -1.
    10030    2    1    2    0    0  0.00000000000E+00  0.00000000000E+00  0.36015035950E+03  0.25267591838E+04  0.25009605537E+04 0.  0.
        5    1    3    3  502    0  0.85930020150E+02  0.46639749474E+03  0.13490622609E+04  0.14300005822E+04  0.46999998093E+01 0.  1.
       -5    1    3    3    0  502 -0.85930020150E+02 -0.46639749474E+03 -0.98891190135E+03  0.10967586016E+04  0.46999998093E+01 0. -1.
</event>
<event>
 5   0  0.1572732E-05  0.2501783E+04  0.7818609E-02  0.8402350E-01
       -2   -1    0    0    0  501  0.00000000000E+00  0.00000000000E+00  0.77917380408E+03  0.77917380409E+03  0.25500000920E-02 0.  1.
        2   -1    0    0  501    0  0.00000000000E+00  0.00000000000E+00 -0.20081912459E+04  0.20081912459E+04  0.25500000920E-02 0. -1.
    10030    2    1    2    0    0  0.00000000000E+00  0.00000000000E+00 -0.12290174418E+04  0.27873650500E+04  0.25017833738E+04 0.  0.
        1    1    3    3  502    0  0.10675603120E+04 -0.56836024852E+03 -0.97036036099E+03  0.15505862188E+04  0.50400001928E-02 0. -1.
       -1    1    3    3    0  502 -0.10675603120E+04  0.56836024852E+03 -0.25865708084E+03  0.12367788312E+04  0.50400001928E-02 0.  1.
</event>
<event>
 5   0  0.1550483E-05  0.2505815E+04  0.7818609E-02  0.8400917E-01
        2   -1    0    0  501    0  0.00000000000E+00  0.00000000000E+00  0.14820484631E+04  0.14820484631E+04  0.25500000920E-02 0. -1.
       -2   -1    0    0    0  501  0.00000000000E+00  0.00000000000E+00 -0.10591944940E+04  0.10591944940E+04  0.25500000920E-02 0.  1.
    10030    2    1    2    0    0  0.00000000000E+00  0.00000000000E+00  0.42285396912E+03  0.25412429571E+04  0.25058152940E+04 0.  0.
        5    1    3    3  502    0 -0.53036928248E+03  0.14075722374E+03 -0.93084169438E+03  0.10805519524E+04  0.46999998093E+01 0.  1.
       -5    1    3    3    0  502  0.53036928248E+03 -0.14075722374E+03  0.13536956635E+04  0.14606910047E+04  0.46999998093E+01 0. -1.
</event>
<event>
 5   0  0.1550483E-05  0.2508348E+04  0.7818609E-02  0.8400018E-01
       -2   -1    0    0    0  501  0.00000000000E+00  0.00000000000E+00  0.79745527617E+03  0.79745527618E+03  0.25500000920E-02 0. -1.
        2   -1    0    0  501    0  0.00000000000E+00  0.00000000000E+00 -0.19724639917E+04  0.19724639917E+04  0.25500000920E-02 0.  1.
    10030    2    1    2    0    0  0.00000000000E+00  0.00000000000E+00 -0.11750087155E+04  0.27699192679E+04  0.25083475176E+04 0.  0.
        5    1    3    3  502    0 -0.52843558864E+03  0.20368139234E+03 -0.18232132150E+04  0.19091513293E+04  0.46999998093E+01 0.  1.
       -5    1    3    3    0  502  0.52843558864E+03 -0.20368139234E+03  0.64820449946E+03  0.86076793856E+03  0.46999998093E+01 0. -1.
</event>
<event>
 5   0  0.6346420E-06  0.2489386E+04  0.7818609E-02  0.8406777E-01
        1   -1    0    0  501    0  0.00000000000E+00  0.00000000000E+00  0.20078472071E+04  0.20078472071E+04  0.50400001928E-02 0.  1.
       -1   -1    0    0    0  501  0.00000000000E+00  0.00000000000E+00 -0.77160267239E+03  0.77160267241E+03  0.50400001928E-02 0. -1.
    10030    2    1    2    0    0  0.00000000000E+00  0.00000000000E+00  0.12362445347E+04  0.27794498795E+04  0.24893856839E+04 0.  0.
        4    1    3    3  502    0 -0.47336603688E+03 -0.21354253979E+03  0.18811150315E+04  0.19514792328E+04  0.12699999809E+01 0.  1.
       -4    1    3    3    0  502  0.47336603688E+03  0.21354253979E+03 -0.64487049687E+03  0.82797064671E+03  0.12699999809E+01 0. -1.
</event>
<event>
 5   0  0.6346420E-06  0.2516741E+04  0.7818609E-02  0.8397045E-01
       -1   -1    0    0    0  501  0.00000000000E+00  0.00000000000E+00  0.10378300689E+04  0.10378300690E+04  0.50400001928E-02 0.  1.
        1   -1    0    0  501    0  0.00000000000E+00  0.00000000000E+00 -0.15257766213E+04  0.15257766213E+04  0.50400001928E-02 0. -1.
    10030    2    1    2    0    0  0.00000000000E+00  0.00000000000E+00 -0.48794655239E+03  0.25636066903E+04  0.25167414298E+04 0.  0.
        4    1    3    3  502    0  0.34886321114E+03  0.91920144486E+03  0.55605537748E+03  0.11295291196E+04  0.12699999809E+01 0.  1.
       -4    1    3    3    0  502 -0.34886321114E+03 -0.91920144486E+03 -0.10440019299E+04  0.14340775707E+04  0.12699999809E+01 0. -1.
</event>
<event>
 5   0  0.6104486E-06  0.2497531E+04  0.7818609E-02  0.8403866E-01
       -1   -1    0    0    0  501  0.00000000000E+00  0.00000000000E+00  0.98545432113E+03  0.98545432114E+03  0.50400001928E-02 0. -1.
        1   -1    0    0  501    0  0.00000000000E+00  0.00000000000E+00 -0.15824331626E+04  0.15824331626E+04  0.50400001928E-02 0.  1.
    10030    2    1    2    0    0  0.00000000000E+00  0.00000000000E+00 -0.59697884148E+03  0.25678874838E+04  0.24975312595E+04 0.  0.
        2    1    3    3  502    0  0.18002491573E+03  0.96304326115E+03  0.49763202071E+03  0.10988625579E+04  0.25500000920E-02 0. -1.
       -2    1    3    3    0  502 -0.18002491573E+03 -0.96304326115E+03 -0.10946108622E+04  0.14690249258E+04  0.25500000920E-02 0.  1.
</event>
<event>
 5   0  0.1572732E-05  0.2496229E+04  0.7818609E-02  0.8404330E-01
       -2   -1    0    0    0  501  0.00000000000E+00  0.00000000000E+00  0.70867925820E+03  0.70867925820E+03  0.25500000920E-02 0. -1.
        2   -1    0    0  501    0  0.00000000000E+00  0.00000000000E+00 -0.21981591094E+04  0.21981591094E+04  0.25500000920E-02 0.  1.
    10030    2    1    2    0    0  0.00000000000E+00  0.00000000000E+00 -0.14894798512E+04  0.29068383676E+04  0.24962289695E+04 0.  0.
        1    1    3    3  502    0 -0.26251013933E+03 -0.13828272070E+03  0.66701430542E+03  0.73002860750E+03  0.50400001928E-02 0. -1.
       -1    1    3    3    0  502  0.26251013933E+03  0.13828272070E+03 -0.21564941566E+04  0.21768097601E+04  0.50400001928E-02 0.  1.
</event>
<event>
 5   0  0.1550483E-05  0.2508061E+04  0.7818609E-02  0.8400119E-01
       -2   -1    0    0    0  501  0.00000000000E+00  0.00000000000E+00  0.12392837182E+04  0.12392837182E+04  0.25500000920E-02 0.  1.
        2   -1    0    0  501    0  0.00000000000E+00  0.00000000000E+00 -0.12689530376E+04  0.12689530376E+04  0.25500000920E-02 0. -1.
    10030    2    1    2    0    0  0.00000000000E+00  0.00000000000E+00 -0.29669319386E+02  0.25082367558E+04  0.25080612741E+04 0.  0.
        5    1    3    3  502    0  0.11283183974E+04  0.44293951974E+03  0.30654887526E+03  0.12503168106E+04  0.46999998093E+01 0.  1.
       -5    1    3    3    0  502 -0.11283183974E+04 -0.44293951974E+03 -0.33621819465E+03  0.12579199451E+04  0.46999998093E+01 0. -1.
</event>
<event>
 5   0  0.1501947E-05  0.2534566E+04  0.7818609E-02  0.8390774E-01
        2   -1    0    0  501    0  0.00000000000E+00  0.00000000000E+00  0.29244538148E+04  0.29244538148E+04  0.25500000920E-02 0. -1.
       -2   -1    0    0    0  501  0.00000000000E+00  0.00000000000E+00 -0.54916452080E+03  0.54916452081E+03  0.25500000920E-02 0.  1.
    10030    2    1    2    0    0  0.00000000000E+00  0.00000000000E+00  0.23752892940E+04  0.34736183356E+04  0.25345660597E+04 0.  0.
        3    1    3    3  502    0 -0.70191707084E+03  0.54314197498E+03  0.24274082129E+04  0.25845698716E+04  0.10100000352E+00 0.  1.
       -3    1    3    3    0  502  0.70191707084E+03 -0.54314197498E+03 -0.52118918886E+02  0.88904846394E+03  0.10100000352E+00 0. -1.
</event>
<event>
 5   0  0.6346420E-06  0.2505606E+04  0.7818609E-02  0.8400991E-01
       -1   -1    0    0    0  501  0.00000000000E+00  0.00000000000E+00  0.89979229907E+03  0.89979229908E+03  0.50400001928E-02 0.  1.
        1   -1    0    0  501    0  0.00000000000E+00  0.00000000000E+00 -0.17443082600E+04  0.17443082600E+04  0.50400001928E-02 0. -1.
    10030    2    1    2    0    0  0.00000000000E+00  0.00000000000E+00 -0.84451596095E+03  0.26441005591E+04  0.25056058266E+04 0.  0.
        4    1    3    3  502    0 -0.24851127520E+03 -0.78176357595E+03 -0.14214867282E+04  0.16412002541E+04  0.12699999809E+01 0. -1.
       -4    1    3    3    0  502  0.24851127520E+03  0.78176357595E+03  0.57697076729E+03  0.10029003050E+04  0.12699999809E+01 0.  1.
</event>
<event>
 5   0  0.1572732E-05  0.2499043E+04  0.7818609E-02  0.8403327E-01
       -2   -1    0    0    0  501  0.00000000000E+00  0.00000000000E+00  0.10845389869E+04  0.10845389869E+04  0.25500000920E-02 0.  1.
        2   -1    0    0  501    0  0.00000000000E+00  0.00000000000E+00 -0.14396013780E+04  0.14396013780E+04  0.25500000920E-02 0. -1.
    10030    2    1    2    0    0  0.00000000000E+00  0.00000000000E+00 -0.35506239119E+03  0.25241403649E+04  0.24990428728E+04 0.  0.
        1    1    3    3  502    0 -0.48155740626E+03  0.60479747049E+03  0.81397200016E+03  0.11225987408E+04  0.50400001928E-02 0.  1.
       -1    1    3    3    0  502  0.48155740626E+03 -0.60479747049E+03 -0.11690343914E+04  0.14015416241E+04  0.50400001928E-02 0. -1.
</event>
<event>
 5   0  0.6346420E-06  0.2483306E+04  0.7818609E-02  0.8408957E-01
       -1   -1    0    0    0  501  0.00000000000E+00  0.00000000000E+00  0.18967376481E+04  0.18967376482E+04  0.50400001928E-02 0.  1.
        1   -1    0    0  501    0  0.00000000000E+00  0.00000000000E+00 -0.81281809035E+03  0.81281809037E+03  0.50400001928E-02 0. -1.
    10030    2    1    2    0    0  0.00000000000E+00  0.00000000000E+00  0.10839195578E+04  0.27095557385E+04  0.24833064032E+04 0.  0.
        4    1    3    3  502    0  0.75081312848E+03  0.50479202943E+03 -0.38590928382E+03  0.98359693733E+03  0.12699999809E+01 0. -1.
       -4    1    3    3    0  502 -0.75081312848E+03 -0.50479202943E+03  0.14698288416E+04  0.17259588012E+04  0.12699999809E+01 0.  1.
</event>
<event>
 5   0  0.1501947E-05  0.2499237E+04  0.7818609E-02  0.8403257E-01
       -2   -1    0    0    0  501  0.00000000000E+00  0.00000000000E+00  0.59407293009E+03  0.59407293010E+03  0.25500000920E-02 0.  1.
        2   -1    0    0  501    0  0.00000000000E+00  0.00000000000E+00 -0.26285440701E+04  0.26285440701E+04  0.25500000920E-02 0. -1.
    10030    2    1    2    0    0  0.00000000000E+00  0.00000000000E+00 -0.20344711400E+04  0.32226170002E+04  0.24992373858E+04 0.  0.
        3    1    3    3  502    0 -0.10171312508E+04  0.73484518545E+02 -0.85985769434E+02  0.10234009569E+04  0.10100000352E+00 0.  1.
       -3    1    3    3    0  502  0.10171312508E+04 -0.73484518545E+02 -0.19484853705E+04  0.21992160433E+04  0.10100000352E+00 0. -1.
</event>
<event>
 5   0  0.1468512E-05  0.2508225E+04  0.7818609E-02  0.8400061E-01
        2   -1    0    0  501    0  0.00000000000E+00  0.00000000000E+00  0.14043005754E+04  0.14043005754E+04  0.25500000920E-02 0.  1.
       -2   -1    0    0    0  501  0.00000000000E+00  0.00000000000E+00 -0.11199867052E+04  0.11199867052E+04  0.25500000920E-02 0. -1.
    10030    2    1    2    0    0  0.00000000000E+00  0.00000000000E+00  0.28431387020E+03  0.25242872805E+04  0.25082248499E+04 0.  0.
        4    1    3    3  502    0 -0.41984106128E+03 -0.62399355518E+03  0.11521582852E+04  0.13759014502E+04  0.12699999809E+01 0.  1.
       -4    1    3    3    0  502  0.41984106128E+03  0.62399355518E+03 -0.86784441501E+03  0.11483858303E+04  0.12699999809E+01 0. -1.
</event>
<event>
 5   0  0.6290861E-06  0.2471490E+04  0.7818609E-02  0.8413213E-01
        1   -1    0    0  501    0  0.00000000000E+00  0.00000000000E+00  0.11886727827E+04  0.11886727827E+04  0.50400001928E-02 0.  1.
       -1   -1    0    0    0  501  0.00000000000E+00  0.00000000000E+00 -0.12846808934E+04  0.12846808934E+04  0.50400001928E-02 0. -1.
    10030    2    1    2    0    0  0.00000000000E+00  0.00000000000E+00 -0.96008110666E+02  0.24733536761E+04  0.24714896013E+04 0.  0.
        1    1    3    3  502    0  0.72305818818E+03 -0.30883763600E+03  0.90606245121E+03  0.11996428612E+04  0.50400001928E-02 0.  1.
       -1    1    3    3    0  502 -0.72305818818E+03  0.30883763600E+03 -0.10020705619E+04  0.12737108149E+04  0.50400001928E-02 0. -1.
</event>
<event>
 5   0  0.1572732E-05  0.2503091E+04  0.7818609E-02  0.8401885E-01
       -2   -1    0    0    0  501  0.00000000000E+00  0.00000000000E+00  0.69318699217E+03  0.69318699217E+03  0.25500000920E-02 0.  1.
        2   -1    0    0  501    0  0.00000000000E+00  0.00000000000E+00 -0.22596585855E+04  0.22596585855E+04  0.25500000920E-02 0. -1.
    10030    2    1    2    0    0  0.00000000000E+00  0.00000000000E+00 -0.15664715933E+04  0.29528455777E+04  0.25030908399E+04 0.  0.
        1    1    3    3  502    0 -0.74345184510E+03 -0.10012471407E+04 -0.90779933943E+03  0.15425032005E+04  0.50400001928E-02 0. -1.
       -1    1    3    3    0  502  0.74345184510E+03  0.10012471407E+04 -0.65867225391E+03  0.14103423772E+04  0.50400001928E-02 0.  1.
</event>
<event>
 5   0  0.6477703E-06  0.2487845E+04  0.7818609E-02  0.8407329E-01
       -1   -1    0    0    0  501  0.00000000000E+00  0.00000000000E+00  0.97950731275E+03  0.97950731276E+03  0.50400001928E-02 0.  1.
        1   -1    0    0  501    0  0.00000000000E+00  0.00000000000E+00 -0.15797154518E+04  0.15797154518E+04  0.50400001928E-02 0. -1.
    10030    2    1    2    0    0  0.00000000000E+00  0.00000000000E+00 -0.60020813903E+03  0.25592227646E+04  0.24878447195E+04 0.  0.
        5    1    3    3  502    0  0.53331289814E+03  0.97952068384E+03 -0.86675985085E+03  0.14125077509E+04  0.46999998093E+01 0. -1.
       -5    1    3    3    0  502 -0.53331289814E+03 -0.97952068384E+03  0.26655171182E+03  0.11467150136E+04  0.46999998093E+01 0.  1.
</event>
<event>
 5   0  0.6477703E-06  0.2507070E+04  0.7818609E-02  0.8400471E-01
       -1   -1    0    0    0  501  0.00000000000E+00  0.00000000000E+00  0.11592856743E+04  0.11592856743E+04  0.50400001928E-02 0.  1.
        1   -1    0    0  501    0  0.00000000000E+00  0.00000000000E+00 -0.13554464153E+04  0.13554464153E+04  0.50400001928E-02 0. -1.
    10030    2    1    2    0    0  0.00000000000E+00  0.00000000000E+00 -0.19616074102E+03  0.25147320896E+04  0.25070696931E+04 0.  0.
        5    1    3    3  502    0 -0.10011676693E+04  0.75233005932E+03 -0.15293114895E+03  0.12616446594E+04  0.46999998093E+01 0.  1.
       -5    1    3    3    0  502  0.10011676693E+04 -0.75233005932E+03 -0.43229592074E+02  0.12530874302E+04  0.46999998093E+01 0. -1.
</event>
<event>
 5   0  0.6290861E-06  0.2480485E+04  0.7818609E-02  0.8409971E-01
       -1   -1    0    0    0  501  0.00000000000E+00  0.00000000000E+00  0.12846086357E+04  0.12846086357E+04  0.50400001928E-02 0.  1.
        1   -1    0    0  501    0  0.00000000000E+00  0.00000000000E+00 -0.11974084631E+04  0.11974084631E+04  0.50400001928E-02 0. -1.
    10030    2    1    2    0    0  0.00000000000E+00  0.00000000000E+00  0.87200172605E+02  0.24820170989E+04  0.24804848335E+04 0.  0.
        1    1    3    3  502    0  0.39116315720E+03 -0.72368111404E+03  0.97233197950E+03  0.12736374872E+04  0.50400001928E-02 0.  1.
       -1    1    3    3    0  502 -0.39116315720E+03  0.72368111404E+03 -0.88513180689E+03  0.12083796117E+04  0.50400001928E-02 0. -1.
</event>
<event>
 5   0  0.6105353E-06  0.2491985E+04  0.7818609E-02  0.8405846E-01
        1   -1    0    0  501    0  0.00000000000E+00  0.00000000000E+00  0.21835498793E+04  0.21835498793E+04  0.50400001928E-02 0.  1.
       -1   -1    0    0    0  501  0.00000000000E+00  0.00000000000E+00 -0.71099707372E+03  0.71099707374E+03  0.50400001928E-02 0. -1.
    10030    2    1    2    0    0  0.00000000000E+00  0.00000000000E+00  0.14725528056E+04  0.28945469531E+04  0.24919852123E+04 0.  0.
        3    1    3    3  502    0 -0.89928051451E+03 -0.85903597181E+03  0.82511216198E+03  0.14924671972E+04  0.10100000352E+00 0. -1.
       -3    1    3    3    0  502  0.89928051451E+03  0.85903597181E+03  0.64744064362E+03  0.14020797559E+04  0.10100000352E+00 0.  1.
</event>
<event>
 5   0  0.6105353E-06  0.2495577E+04  0.7818609E-02  0.8404563E-01
       -1   -1    0    0    0  501  0.00000000000E+00  0.00000000000E+00  0.85332403495E+03  0.85332403496E+03  0.50400001928E-02 0. -1.
        1   -1    0    0  501    0  0.00000000000E+00  0.00000000000E+00 -0.18246008683E+04  0.18246008683E+04  0.50400001928E-02 0.  1.
    10030    2    1    2    0    0  0.00000000000E+00  0.00000000000E+00 -0.97127683335E+03  0.26779249033E+04  0.24955767070E+04 0.  0.
        3    1    3    3  502    0 -0.62326832545E+03 -0.55495822879E+03 -0.14810700043E+04  0.17000030615E+04  0.10100000352E+00 0.  1.
       -3    1    3    3    0  502  0.62326832545E+03  0.55495822879E+03  0.50979317098E+03  0.97792184176E+03  0.10100000352E+00 0. -1.
</event>
<event>
 5   0  0.6346420E-06  0.2503048E+04  0.7818609E-02  0.8401900E-01
       -1   -1    0    0    0  501  0.00000000000E+00  0.00000000000E+00  0.67613703168E+03  0.67613703169E+03  0.50400001928E-02 0. -1.
        1   -1    0    0  501    0  0.00000000000E+00  0.00000000000E+00 -0.23165609870E+04  0.23165609870E+04  0.50400001928E-02 0.  1.
    10030    2    1    2    0    0  0.00000000000E+00  0.00000000000E+00 -0.16404239553E+04  0.29926980187E+04  0.25030482772E+04 0.  0.
        4    1    3    3  502    0 -0.82481520427E+03 -0.28571551027E+02 -0.19450970205E+04  0.21129459261E+04  0.12699999809E+01 0.  1.
       -4    1    3    3    0  502  0.82481520427E+03  0.28571551027E+02  0.30467306522E+03  0.87975209252E+03  0.12699999809E+01 0. -1.
</event>
<event>
 5   0  0.6105353E-06  0.2499907E+04  0.7818609E-02  0.8403019E-01
        1   -1    0    0  501    0  0.00000000000E+00  0.00000000000E+00  0.12249714150E+04  0.12249714151E+04  0.50400001928E-02 0.  1.
       -1   -1    0    0    0  501  0.00000000000E+00  0.00000000000E+00 -0.12754449876E+04  0.12754449876E+04  0.50400001928E-02 0. -1.
    10030    2    1    2    0    0  0.00000000000E+00  0.00000000000E+00 -0.50473572509E+02  0.25004164026E+04  0.24999069193E+04 0.  0.
        3    1    3    3  502    0 -0.12068782731E+04 -0.31891074396E+03  0.38997890904E+02  0.12489115558E+04  0.10100000352E+00 0. -1.
       -3    1    3    3    0  502  0.12068782731E+04  0.31891074396E+03 -0.89471463412E+02  0.12515048468E+04  0.10100000352E+00 0.  1.
</event>
<event>
 5   0  0.6290861E-06  0.2457162E+04  0.7818609E-02  0.8418408E-01
       -1   -1    0    0    0  501  0.00000000000E+00  0.00000000000E+00  0.13236513992E+04  0.13236513992E+04  0.50400001928E-02 0.  1.
        1   -1    0    0  501    0  0.00000000000E+00  0.00000000000E+00 -0.11403390618E+04  0.11403390618E+04  0.50400001928E-02 0. -1.
    10030    2    1    2    0    0  0.00000000000E+00  0.00000000000E+00  0.18331233736E+03  0.24639904610E+04  0.24571620986E+04 0.  0.
        1    1    3    3  502    0 -0.98791198929E+02 -0.78294151667E+03 -0.85258378027E+03  0.11617470559E+04  0.50400001928E-02 0. -1.
       -1    1    3    3    0  502  0.98791198929E+02  0.78294151667E+03  0.10358961176E+04  0.13022434051E+04  0.50400001928E-02 0.  1.
</event>
<event>
 5   0  0.6477703E-06  0.2473784E+04  0.7818609E-02  0.8412385E-01
       -1   -1    0    0    0  501  0.00000000000E+00  0.00000000000E+00  0.90891360445E+03  0.90891360446E+03  0.50400001928E-02 0. -1.
        1   -1    0    0  501    0  0.00000000000E+00  0.00000000000E+00 -0.16832199525E+04  0.16832199525E+04  0.50400001928E-02 0.  1.
    10030    2    1    2    0    0  0.00000000000E+00  0.00000000000E+00 -0.77430634800E+03  0.25921335569E+04  0.24737837530E+04 0.  0.
        5    1    3    3  502    0 -0.64063766939E+03  0.56566426957E+03  0.54976415705E+03  0.10161965399E+04  0.46999998093E+01 0. -1.
       -5    1    3    3    0  502  0.64063766939E+03 -0.56566426957E+03 -0.13240705051E+04  0.15759370170E+04  0.46999998093E+01 0.  1.
</event>
<event>
 5   0  0.1501947E-05  0.2497819E+04  0.7818609E-02  0.8403763E-01
       -2   -1    0    0    0  501  0.00000000000E+00  0.00000000000E+00  0.73419294827E+03  0.73419294827E+03  0.25500000920E-02 0. -1.
        2   -1    0    0  501    0  0.00000000000E+00  0.00000000000E+00 -0.21244759640E+04  0.21244759640E+04  0.25500000920E-02 0.  1.
    10030    2    1    2    0    0  0.00000000000E+00  0.00000000000E+00 -0.13902830157E+04  0.28586689122E+04  0.24978192661E+04 0.  0.
        3    1    3    3  502    0  0.10247298794E+04 -0.41103979630E+03 -0.27073121408E+02  0.11044265498E+04  0.10100000352E+00 0. -1.
       -3    1    3    3    0  502 -0.10247298794E+04  0.41103979630E+03 -0.13632098943E+04  0.17542423624E+04  0.10100000352E+00 0.  1.
</event>
<event>
 5   0  0.1526824E-05  0.2507514E+04  0.7818609E-02  0.8400313E-01
       -2   -1    0    0    0  501  0.00000000000E+00  0.00000000000E+00  0.58431695481E+03  0.58431695482E+03  0.25500000920E-02 0. -1.
        2   -1    0    0  501    0  0.00000000000E+00  0.00000000000E+00 -0.26901619084E+04  0.26901619084E+04  0.25500000920E-02 0.  1.
    10030    2    1    2    0    0  0.00000000000E+00  0.00000000000E+00 -0.21058449536E+04  0.32744788633E+04  0.25075144780E+04 0.  0.
        2    1    3    3  502    0 -0.32316666848E+03 -0.11071449719E+04 -0.16949261953E+04  0.20501174337E+04  0.25500000920E-02 0.  1.
       -2    1    3    3    0  502  0.32316666848E+03  0.11071449719E+04 -0.41091875835E+03  0.12243614296E+04  0.25500000920E-02 0. -1.
</event>
<event>
 5   0  0.6477703E-06  0.2492619E+04  0.7818609E-02  0.8405620E-01
       -1   -1    0    0    0  501  0.00000000000E+00  0.00000000000E+00  0.19880135783E+04  0.19880135783E+04  0.50400001928E-02 0.  1.
        1   -1    0    0  501    0  0.00000000000E+00  0.00000000000E+00 -0.78132629381E+03  0.78132629383E+03  0.50400001928E-02 0. -1.
    10030    2    1    2    0    0  0.00000000000E+00  0.00000000000E+00  0.12066872845E+04  0.27693398721E+04  0.24926189289E+04 0.  0.
        5    1    3    3  502    0  0.11593587726E+04 -0.41774015632E+03  0.39654658865E+03  0.12945620452E+04  0.46999998093E+01 0. -1.
       -5    1    3    3    0  502 -0.11593587726E+04  0.41774015632E+03  0.81014069581E+03  0.14747778269E+04  0.46999998093E+01 0.  1.
</event>
<event>
 5   0  0.1501947E-05  0.2557259E+04  0.7818609E-02  0.8382866E-01
       -2   -1    0    0    0  501  0.00000000000E+00  0.00000000000E+00  0.95536325499E+03  0.95536325499E+03  0.25500000920E-02 0. -1.
        2   -1    0    0  501    0  0.00000000000E+00  0.00000000000E+00 -0.17112798675E+04  0.17112798675E+04  0.25500000920E-02 0.  1.
    10030    2    1    2    0    0  0.00000000000E+00  0.00000000000E+00 -0.75591661250E+03  0.26666431225E+04  0.25572593958E+04 0.  0.
        3    1    3    3  502    0 -0.81634711054E+03  0.80796226443E+03 -0.96383413245E+03  0.14994005038E+04  0.10100000352E+00 0.  1.
       -3    1    3    3    0  502  0.81634711054E+03 -0.80796226443E+03  0.20791751994E+03  0.11672426187E+04  0.10100000352E+00 0. -1.
</event>
<event>
 5   0  0.1572732E-05  0.2509146E+04  0.7818609E-02  0.8399735E-01
       -2   -1    0    0    0  501  0.00000000000E+00  0.00000000000E+00  0.10600792148E+04  0.10600792148E+04  0.25500000920E-02 0.  1.
        2   -1    0    0  501    0  0.00000000000E+00  0.00000000000E+00 -0.14847501995E+04  0.14847501995E+04  0.25500000920E-02 0. -1.
    10030    2    1    2    0    0  0.00000000000E+00  0.00000000000E+00 -0.42467098470E+03  0.25448294142E+04  0.25091455323E+04 0.  0.
        1    1    3    3  502    0  0.19289216833E+03  0.12392067188E+04 -0.24615860200E+03  0.12780589728E+04  0.50400001928E-02 0.  1.
       -1    1    3    3    0  502 -0.19289216833E+03 -0.12392067188E+04 -0.17851238270E+03  0.12667704414E+04  0.50400001928E-02 0. -1.
</event>
<event>
 5   0  0.1468512E-05  0.2507448E+04  0.7818609E-02  0.8400337E-01
        2   -1    0    0  501    0  0.00000000000E+00  0.00000000000E+00  0.20099189512E+04  0.20099189512E+04  0.25500000920E-02 0. -1.
       -2   -1    0    0    0  501  0.00000000000E+00  0.00000000000E+00 -0.78203332475E+03  0.78203332476E+03  0.25500000920E-02 0.  1.
    10030    2    1    2    0    0  0.00000000000E+00  0.00000000000E+00  0.12278856265E+04  0.27919522760E+04  0.25074477860E+04 0.  0.
        4    1    3    3  502    0 -0.10373412655E+03  0.45018100431E+03 -0.68380305223E+03  0.82523447141E+03  0.12699999809E+01 0.  1.
       -4    1    3    3    0  502  0.10373412655E+03 -0.45018100431E+03  0.19116886787E+04  0.19667178046E+04  0.12699999809E+01 0. -1.
</event>
<event>
 5   0  0.1526824E-05  0.2502783E+04  0.7818609E-02  0.8401995E-01
        2   -1    0    0  501    0  0.00000000000E+00  0.00000000000E+00  0.10098677288E+04  0.10098677288E+04  0.25500000920E-02 0.  1.
       -2   -1    0    0    0  501  0.00000000000E+00  0.00000000000E+00 -0.15506787748E+04  0.15506787748E+04  0.25500000920E-02 0. -1.
    10030    2    1    2    0    0  0.00000000000E+00  0.00000000000E+00 -0.54081104601E+03  0.25605465037E+04  0.25027828132E+04 0.  0.
        2    1    3    3  502    0  0.10144017853E+04 -0.73208924575E+03 -0.30299678576E+03  0.12871568272E+04  0.25500000920E-02 0.  1.
       -2    1    3    3    0  502 -0.10144017853E+04  0.73208924575E+03 -0.23781426025E+03  0.12733896764E+04  0.25500000920E-02 0. -1.
</event>
<event>
 5   0  0.6477703E-06  0.2506194E+04  0.7818609E-02  0.8400782E-01
       -1   -1    0    0    0  501  0.00000000000E+00  0.00000000000E+00  0.82712060383E+03  0.82712060384E+03  0.50400001928E-02 0. -1.
        1   -1    0    0  501    0  0.00000000000E+00  0.00000000000E+00 -0.18984564489E+04  0.18984564489E+04  0.50400001928E-02 0.  1.
    10030    2    1    2    0    0  0.00000000000E+00  0.00000000000E+00 -0.10713358451E+04  0.27255770528E+04  0.25061942817E+04 0.  0.
        5    1    3    3  502    0  0.33180652365E+03 -0.53711415201E+03  0.64150811362E+03  0.90007884725E+03  0.46999998093E+01 0. -1.
       -5    1    3    3    0  502 -0.33180652365E+03  0.53711415201E+03 -0.17128439587E+04  0.18254982055E+04  0.46999998093E+01 0.  1.
</event>
<event>
 5   0  0.1526824E-05  0.2484322E+04  0.7818609E-02  0.8408592E-01
       -2   -1    0    0    0  501  0.00000000000E+00  0.00000000000E+00  0.92920200557E+03  0.92920200558E+03  0.25500000920E-02 0.  1.
        2   -1    0    0  501    0  0.00000000000E+00  0.00000000000E+00 -0.16605259482E+04  0.16605259482E+04  0.25500000920E-02 0. -1.
    10030    2    1    2    0    0  0.00000000000E+00  0.00000000000E+00 -0.73132394262E+03  0.25897279538E+04  0.24843220736E+04 0.  0.
        2    1    3    3  502    0 -0.11538671063E+04  0.40337492229E+03 -0.13527959444E+03  0.12298053487E+04  0.25500000920E-02 0.  1.
       -2    1    3    3    0  502  0.11538671063E+04 -0.40337492229E+03 -0.59604434817E+03  0.13599226051E+04  0.25500000920E-02 0. -1.
</event>
<event>
 5   0  0.6477703E-06  0.2509492E+04  0.7818609E-02  0.8399612E-01
       -1   -1    0    0    0  501  0.00000000000E+00  0.00000000000E+00  0.11683049876E+04  0.11683049876E+04  0.50400001928E-02 0.  1.
        1   -1    0    0  501    0  0.00000000000E+00  0.00000000000E+00 -0.13475823742E+04  0.13475823742E+04  0.50400001928E-02 0. -1.
    10030    2    1    2    0    0  0.00000000000E+00  0.00000000000E+00 -0.17927738656E+03  0.25158873618E+04  0.25094917485E+04 0.  0.
        5    1    3    3  502    0  0.71769309504E+03 -0.99028193280E+03  0.19147462737E+03  0.12379120760E+04  0.46999998093E+01 0.  1.
       -5    1    3    3    0  502 -0.71769309504E+03  0.99028193280E+03 -0.37075201393E+03  0.12779752857E+04  0.46999998093E+01 0. -1.
</event>
<event>
 5   0  0.6346420E-06  0.2529992E+04  0.7818609E-02  0.8392378E-01
        1   -1    0    0  501    0  0.00000000000E+00  0.00000000000E+00  0.13713412836E+04  0.13713412836E+04  0.50400001928E-02 0. -1.
       -1   -1    0    0    0  501  0.00000000000E+00  0.00000000000E+00 -0.11668977527E+04  0.11668977527E+04  0.50400001928E-02 0.  1.
    10030    2    1    2    0    0  0.00000000000E+00  0.00000000000E+00  0.20444353087E+03  0.25382390363E+04  0.25299921438E+04 0.  0.
        4    1    3    3  502    0 -0.29000575717E+03 -0.11310326049E+04  0.59050665718E+03  0.13084486301E+04  0.12699999809E+01 0. -1.
       -4    1    3    3    0  502  0.29000575717E+03  0.11310326049E+04 -0.38606312632E+03  0.12297904061E+04  0.12699999809E+01 0.  1.
</event>
<event>
 5   0  0.6104486E-06  0.2478771E+04  0.7818609E-02  0.8410588E-01
       -1   -1    0    0    0  501  0.00000000000E+00  0.00000000000E+00  0.87817334024E+03  0.87817334025E+03  0.50400001928E-02 0.  1.
        1   -1    0    0  501    0  0.00000000000E+00  0.00000000000E+00 -0.17491716473E+04  0.17491716473E+04  0.50400001928E-02 0. -1.
    10030    2    1    2    0    0  0.00000000000E+00  0.00000000000E+00 -0.87099830705E+03  0.26273449875E+04  0.24787705890E+04 0.  0.
        2    1    3    3  502    0  0.58604091934E+03 -0.76570143890E+03  0.38984762785E+03  0.10400595298E+04  0.25500000920E-02 0.  1.
       -2    1    3    3    0  502 -0.58604091934E+03  0.76570143890E+03 -0.12608459349E+04  0.15872854577E+04  0.25500000920E-02 0. -1.
</event>
<event>
 5   0  0.6346420E-06  0.2507978E+04  0.7818609E-02  0.8400149E-01
        1   -1    0    0  501    0  0.00000000000E+00  0.00000000000E+00  0.20275111043E+04  0.20275111043E+04  0.50400001928E-02 0.  1.
       -1   -1    0    0    0  501  0.00000000000E+00  0.00000000000E+00 -0.77557560887E+03  0.77557560888E+03  0.50400001928E-02 0. -1.
    10030    2    1    2    0    0  0.00000000000E+00  0.00000000000E+00  0.12519354954E+04  0.28030867132E+04  0.25079777983E+04 0.  0.
        4    1    3    3  502    0 -0.49444723170E+03 -0.46263951380E+03  0.18056096996E+04  0.19284038438E+04  0.12699999809E+01 0.  1.
       -4    1    3    3    0  502  0.49444723170E+03  0.46263951380E+03 -0.55367420418E+03  0.87468286936E+03  0.12699999809E+01 0. -1.
</event>
<event>
 5   0  0.1572732E-05  0.2509637E+04  0.7818609E-02  0.8399560E-01
       -2   -1    0    0    0  501  0.00000000000E+00  0.00000000000E+00  0.64930855463E+03  0.64930855464E+03  0.25500000920E-02 0. -1.
        2   -1    0    0  501    0  0.00000000000E+00  0.00000000000E+00 -0.24249940117E+04  0.24249940117E+04  0.25500000920E-02 0.  1.
    10030    2    1    2    0    0  0.00000000000E+00  0.00000000000E+00 -0.17756854571E+04  0.30743025664E+04  0.25096369114E+04 0.  0.
        1    1    3    3  502    0  0.51348527802E+03 -0.16538501599E+03  0.50000594180E+03  0.73554420405E+03  0.50400001928E-02 0. -1.
       -1    1    3    3    0  502 -0.51348527802E+03  0.16538501599E+03 -0.22756913989E+04  0.23387583623E+04  0.50400001928E-02 0.  1.
</event>
<event>
 5   0  0.1468512E-05  0.2439667E+04  0.7818609E-02  0.8424800E-01
        2   -1    0    0  501    0  0.00000000000E+00  0.00000000000E+00  0.88439657807E+03  0.88439657807E+03  0.25500000920E-02 0. -1.
       -2   -1    0    0    0  501  0.00000000000E+00  0.00000000000E+00 -0.16824962035E+04  0.16824962035E+04  0.25500000920E-02 0.  1.
    10030    2    1    2    0    0  0.00000000000E+00  0.00000000000E+00 -0.79809962539E+03  0.25668927815E+04  0.24396670961E+04 0.  0.
        4    1    3    3  502    0  0.48753224092E+01 -0.14544339512E+03 -0.16733295870E+04  0.16796461143E+04  0.12699999809E+01 0.  1.
       -4    1    3    3    0  502 -0.48753224092E+01  0.14544339512E+03  0.87522996156E+03  0.88724666720E+03  0.12699999809E+01 0. -1.
</event>
<event>
 5   0  0.6105353E-06  0.2452987E+04  0.7818609E-02  0.8419928E-01
       -1   -1    0    0    0  501  0.00000000000E+00  0.00000000000E+00  0.69515001231E+03  0.69515001232E+03  0.50400001928E-02 0.  1.
        1   -1    0    0  501    0  0.00000000000E+00  0.00000000000E+00 -0.21639732544E+04  0.21639732544E+04  0.50400001928E-02 0. -1.
    10030    2    1    2    0    0  0.00000000000E+00  0.00000000000E+00 -0.14688232421E+04  0.28591232667E+04  0.24529867790E+04 0.  0.
        3    1    3    3  502    0 -0.58052318831E+02 -0.39110224024E+03  0.61883006524E+03  0.73435801479E+03  0.10100000352E+00 0.  1.
       -3    1    3    3    0  502  0.58052318831E+02  0.39110224024E+03 -0.20876533073E+04  0.21247652519E+04  0.10100000352E+00 0. -1.
</event>
<event>
 5   0  0.1501947E-05  0.2484686E+04  0.7818609E-02  0.8408461E-01
       -2   -1    0    0    0  501  0.00000000000E+00  0.00000000000E+00  0.71551374376E+03  0.71551374376E+03  0.25500000920E-02 0. -1.
        2   -1    0    0  501    0  0.00000000000E+00  0.00000000000E+00 -0.21570747021E+04  0.21570747021E+04  0.25500000920E-02 0.  1.
    10030    2    1    2    0    0  0.00000000000E+00  0.00000000000E+00 -0.14415609583E+04  0.28725884458E+04  0.24846863751E+04 0.  0.
        3    1    3    3  502    0 -0.32042846203E+03 -0.96569172210E+03  0.10337914568E+03  0.10227033584E+04  0.10100000352E+00 0. -1.
       -3    1    3    3    0  502  0.32042846203E+03  0.96569172210E+03 -0.15449401040E+04  0.18498850874E+04  0.10100000352E+00 0.  1.
</event>
<event>
 5   0  0.6105353E-06  0.2258759E+04  0.7818609E-02  0.8494362E-01
       -1   -1    0    0    0  501  0.00000000000E+00  0.00000000000E+00  0.72391082114E+03  0.72391082116E+03  0.50400001928E-02 0.  1.
        1   -1    0    0  501    0  0.00000000000E+00  0.00000000000E+00 -0.17619540664E+04  0.17619540664E+04  0.50400001928E-02 0. -1.
    10030    2    1    2    0    0  0.00000000000E+00  0.00000000000E+00 -0.10380432453E+04  0.24858648876E+04  0.22587586104E+04 0.  0.
        3    1    3    3  502    0 -0.62202592153E+03 -0.51239549352E+03 -0.13897968000E+04  0.16065492660E+04  0.10100000352E+00 0. -1.
       -3    1    3    3    0  502  0.62202592153E+03  0.51239549352E+03  0.35175355469E+03  0.87931562153E+03  0.10100000352E+00 0.  1.
</event>
<event>
 5   0  0.6104486E-06  0.2454890E+04  0.7818609E-02  0.8419235E-01
        1   -1    0    0  501    0  0.00000000000E+00  0.00000000000E+00  0.10679657723E+04  0.10679657723E+04  0.50400001928E-02 0.  1.
       -1   -1    0    0    0  501  0.00000000000E+00  0.00000000000E+00 -0.14107397132E+04  0.14107397132E+04  0.50400001928E-02 0. -1.
    10030    2    1    2    0    0  0.00000000000E+00  0.00000000000E+00 -0.34277394088E+03  0.24787054855E+04  0.24548904068E+04 0.  0.
        2    1    3    3  502    0  0.10876460202E+04 -0.24836765799E+03 -0.68817380889E+03  0.13108178935E+04  0.25500000920E-02 0. -1.
       -2    1    3    3    0  502 -0.10876460202E+04  0.24836765799E+03  0.34539986802E+03  0.11678875920E+04  0.25500000920E-02 0.  1.
</event>
<event>
 5   0  0.1526824E-05  0.2511487E+04  0.7818609E-02  0.8398905E-01
       -2   -1    0    0    0  501  0.00000000000E+00  0.00000000000E+00  0.77610041848E+03  0.77610041849E+03  0.25500000920E-02 0.  1.
        2   -1    0    0  501    0  0.00000000000E+00  0.00000000000E+00 -0.20318139000E+04  0.20318139000E+04  0.25500000920E-02 0. -1.
    10030    2    1    2    0    0  0.00000000000E+00  0.00000000000E+00 -0.12557134815E+04  0.28079143185E+04  0.25114869047E+04 0.  0.
        2    1    3    3  502    0  0.79171813762E+03  0.21609051847E+03  0.43478752720E+03  0.92873726932E+03  0.25500000920E-02 0.  1.
       -2    1    3    3    0  502 -0.79171813762E+03 -0.21609051847E+03 -0.16905010087E+04  0.18791770492E+04  0.25500000920E-02 0. -1.
</event>
<event>
 5   0  0.5164625E-06  0.2504760E+04  0.7818609E-02  0.8401292E-01
        3   -1    0    0  501    0  0.00000000000E+00  0.00000000000E+00  0.14837895037E+04  0.14837895071E+04  0.10100000352E+00 0.  1.
       -3   -1    0    0    0  501  0.00000000000E+00  0.00000000000E+00 -0.10570605349E+04  0.10570605397E+04  0.10100000352E+00 0. -1.
    10030    2    1    2    0    0  0.00000000000E+00  0.00000000000E+00  0.42672896875E+03  0.25408500469E+04  0.25047597385E+04 0.  0.
        2    1    3    3  502    0 -0.63138790187E+03  0.93971557258E+03  0.75656049201E+03  0.13616533399E+04  0.25500000920E-02 0.  1.
       -2    1    3    3    0  502  0.63138790187E+03 -0.93971557258E+03 -0.32983152326E+03  0.11791967070E+04  0.25500000920E-02 0. -1.
</event>
<event>
 5   0  0.6290861E-06  0.2513504E+04  0.7818609E-02  0.8398190E-01
        1   -1    0    0  501    0  0.00000000000E+00  0.00000000000E+00  0.60609289615E+03  0.60609289617E+03  0.50400001928E-02 0.  1.
       -1   -1    0    0    0  501  0.00000000000E+00  0.00000000000E+00 -0.26059139079E+04  0.26059139079E+04  0.50400001928E-02 0. -1.
    10030    2    1    2    0    0  0.00000000000E+00  0.00000000000E+00 -0.19998210118E+04  0.32120068041E+04  0.25135042531E+04 0.  0.
        1    1    3    3  502    0 -0.10694296767E+04  0.64496729950E+03 -0.82026097489E+03  0.14941521736E+04  0.50400001928E-02 0. -1.
       -1    1    3    3    0  502  0.10694296767E+04 -0.64496729950E+03 -0.11795600369E+04  0.17178546305E+04  0.50400001928E-02 0.  1.
</event>
<event>
 5   0  0.1468512E-05  0.2491401E+04  0.7818609E-02  0.8406056E-01
        2   -1    0    0  501    0  0.00000000000E+00  0.00000000000E+00  0.15820274376E+04  0.15820274376E+04  0.25500000920E-02 0. -1.
       -2   -1    0    0    0  501  0.00000000000E+00  0.00000000000E+00 -0.98087377010E+03  0.98087377010E+03  0.25500000920E-02 0.  1.
    10030    2    1    2    0    0  0.00000000000E+00  0.00000000000E+00  0.60115366745E+03  0.25629012077E+04  0.24914005837E+04 0.  0.
        4    1    3    3  502    0 -0.43964415633E+03  0.44534094604E+03  0.14085921454E+04  0.15413464852E+04  0.12699999809E+01 0. -1.
       -4    1    3    3    0  502  0.43964415633E+03 -0.44534094604E+03 -0.80743847795E+03  0.10215547225E+04  0.12699999809E+01 0.  1.
</event>
<event>
 5   0  0.6290861E-06  0.2518826E+04  0.7818609E-02  0.8396309E-01
       -1   -1    0    0    0  501  0.00000000000E+00  0.00000000000E+00  0.12338614090E+04  0.12338614090E+04  0.50400001928E-02 0.  1.
        1   -1    0    0  501    0  0.00000000000E+00  0.00000000000E+00 -0.12854936203E+04  0.12854936203E+04  0.50400001928E-02 0. -1.
    10030    2    1    2    0    0  0.00000000000E+00  0.00000000000E+00 -0.51632211311E+02  0.25193550293E+04  0.25188258928E+04 0.  0.
        1    1    3    3  502    0  0.56470848395E+03  0.11128571434E+04  0.14384934995E+03  0.12562003538E+04  0.50400001928E-02 0.  1.
       -1    1    3    3    0  502 -0.56470848395E+03 -0.11128571434E+04 -0.19548156126E+03  0.12631546755E+04  0.50400001928E-02 0. -1.
</event>
<event>
 5   0  0.1468512E-05  0.2431802E+04  0.7818609E-02  0.8427692E-01
       -2   -1    0    0    0  501  0.00000000000E+00  0.00000000000E+00  0.10288597704E+04  0.10288597704E+04  0.25500000920E-02 0.  1.
        2   -1    0    0  501    0  0.00000000000E+00  0.00000000000E+00 -0.14369456810E+04  0.14369456810E+04  0.25500000920E-02 0. -1.
    10030    2    1    2    0    0  0.00000000000E+00  0.00000000000E+00 -0.40808591058E+03  0.24658054514E+04  0.24318022975E+04 0.  0.
        4    1    3    3  502    0  0.89447442687E+03  0.18470761118E+03 -0.10178944165E+04  0.13675935280E+04  0.12699999809E+01 0. -1.
       -4    1    3    3    0  502 -0.89447442687E+03 -0.18470761118E+03  0.60980850589E+03  0.10982119234E+04  0.12699999809E+01 0.  1.
</event>
<event>
 5   0  0.1550483E-05  0.2549504E+04  0.7818609E-02  0.8385559E-01
        2   -1    0    0  501    0  0.00000000000E+00  0.00000000000E+00  0.13723959056E+04  0.13723959056E+04  0.25500000920E-02 0. -1.
       -2   -1    0    0    0  501  0.00000000000E+00  0.00000000000E+00 -0.11840552503E+04  0.11840552503E+04  0.25500000920E-02 0.  1.
    10030    2    1    2    0    0  0.00000000000E+00  0.00000000000E+00  0.18834065527E+03  0.25564511558E+04  0.25495039341E+04 0.  0.
        5    1    3    3  502    0  0.85274265010E+03 -0.35187648324E+03 -0.78799023039E+03  0.12132344291E+04  0.46999998093E+01 0.  1.
       -5    1    3    3    0  502 -0.85274265010E+03  0.35187648324E+03  0.97633088566E+03  0.13432167268E+04  0.46999998093E+01 0. -1.
</event>
<event>
 5   0  0.6346420E-06  0.2418961E+04  0.7818609E-02  0.8432439E-01
        1   -1    0    0  501    0  0.00000000000E+00  0.00000000000E+00  0.11131538969E+04  0.11131538969E+04  0.50400001928E-02 0. -1.
       -1   -1    0    0    0  501  0.00000000000E+00  0.00000000000E+00 -0.13141427362E+04  0.13141427362E+04  0.50400001928E-02 0.  1.
    10030    2    1    2    0    0  0.00000000000E+00  0.00000000000E+00 -0.20098883925E+03  0.24272966331E+04  0.24189610232E+04 0.  0.
        4    1    3    3  502    0  0.98745096869E+03  0.69773038015E+03 -0.69494661114E+02  0.12110814257E+04  0.12699999809E+01 0. -1.
       -4    1    3    3    0  502 -0.98745096869E+03 -0.69773038015E+03 -0.13149417814E+03  0.12162152074E+04  0.12699999809E+01 0.  1.
</event>
<event>
 5   0  0.1550483E-05  0.2523769E+04  0.7818609E-02  0.8394566E-01
        2   -1    0    0  501    0  0.00000000000E+00  0.00000000000E+00  0.11217215080E+04  0.11217215080E+04  0.25500000920E-02 0.  1.
       -2   -1    0    0    0  501  0.00000000000E+00  0.00000000000E+00 -0.14195617046E+04  0.14195617046E+04  0.25500000920E-02 0. -1.
    10030    2    1    2    0    0  0.00000000000E+00  0.00000000000E+00 -0.29784019663E+03  0.25412832126E+04  0.25237693207E+04 0.  0.
        5    1    3    3  502    0 -0.10064350984E+04  0.41029457076E+03 -0.79452273891E+03  0.13463066941E+04  0.46999998093E+01 0. -1.
       -5    1    3    3    0  502  0.10064350984E+04 -0.41029457076E+03  0.49668254228E+03  0.11949765185E+04  0.46999998093E+01 0.  1.
</event>
<event>
 5   0  0.6104486E-06  0.2507007E+04  0.7818609E-02  0.8400493E-01
        1   -1    0    0  501    0  0.00000000000E+00  0.00000000000E+00  0.20197924627E+04  0.20197924627E+04  0.50400001928E-02 0. -1.
       -1   -1    0    0    0  501  0.00000000000E+00  0.00000000000E+00 -0.77793716170E+03  0.77793716172E+03  0.50400001928E-02 0.  1.
    10030    2    1    2    0    0  0.00000000000E+00  0.00000000000E+00  0.12418553010E+04  0.27977296244E+04  0.25070074716E+04 0.  0.
        2    1    3    3  502    0  0.89665012502E+03 -0.40689033515E+03  0.14865951215E+04  0.17831170032E+04  0.25500000920E-02 0. -1.
       -2    1    3    3    0  502 -0.89665012502E+03  0.40689033515E+03 -0.24473982053E+03  0.10146126213E+04  0.25500000920E-02 0.  1.
</event>
<event>
 5   0  0.1526824E-05  0.2496693E+04  0.7818609E-02  0.8404165E-01
        2   -1    0    0  501    0  0.00000000000E+00  0.00000000000E+00  0.19619615418E+04  0.19619615418E+04  0.25500000920E-02 0. -1.
       -2   -1    0    0    0  501  0.00000000000E+00  0.00000000000E+00 -0.79429143775E+03  0.79429143775E+03  0.25500000920E-02 0.  1.
    10030    2    1    2    0    0  0.00000000000E+00  0.00000000000E+00  0.11676701040E+04  0.27562529796E+04  0.24966932161E+04 0.  0.
        2    1    3    3  502    0  0.10174802797E+04  0.71314813100E+03  0.71687443853E+03  0.14344878309E+04  0.25500000920E-02 0.  1.
       -2    1    3    3    0  502 -0.10174802797E+04 -0.71314813100E+03  0.45079566551E+03  0.13217651487E+04  0.25500000920E-02 0. -1.
</event>
<event>
 5   0  0.6477703E-06  0.2500035E+04  0.7818609E-02  0.8402973E-01
        1   -1    0    0  501    0  0.00000000000E+00  0.00000000000E+00  0.11920970241E+04  0.11920970241E+04  0.50400001928E-02 0. -1.
       -1   -1    0    0    0  501  0.00000000000E+00  0.00000000000E+00 -0.13107525030E+04  0.13107525030E+04  0.50400001928E-02 0.  1.
    10030    2    1    2    0    0  0.00000000000E+00  0.00000000000E+00 -0.11865547891E+03  0.25028495271E+04  0.25000353263E+04 0.  0.
        5    1    3    3  502    0  0.10474986465E+04 -0.99891230144E+02 -0.73483938354E+03  0.12834495245E+04  0.46999998093E+01 0.  1.
       -5    1    3    3    0  502 -0.10474986465E+04  0.99891230144E+02  0.61618390463E+03  0.12194000027E+04  0.46999998093E+01 0. -1.
</event>
</LesHouchesEvents>
